/*--------------------------------*- C++ -*----------------------------------*\
| =========                 |                                                 |
| \\      /  F ield         | OpenFOAM: The Open Source CFD Toolbox           |
|  \\    /   O peration     | Version:  2212                                  |
|   \\  /    A nd           | Website:  www.openfoam.com                      |
|    \\/     M anipulation  |                                                 |
\*---------------------------------------------------------------------------*/
FoamFile
{
    version     2.0;
    format      ascii;
    arch        "LSB;label=32;scalar=64";
    class       volScalarField;
    location    "0.069";
    object      p;
}
// * * * * * * * * * * * * * * * * * * * * * * * * * * * * * * * * * * * * * //

dimensions      [0 2 -2 0 0 0 0];

internalField   nonuniform List<scalar> 
10000
(
3.18733e-08
8.74349e-05
-0.00013365
-0.000706458
-0.00158007
-0.00269832
-0.00400593
-0.0054505
-0.00698493
-0.0085674
-0.0101614
-0.011735
-0.0132604
-0.0147137
-0.016074
-0.0173234
-0.0184466
-0.0194304
-0.020264
-0.0209383
-0.0214458
-0.0217807
-0.0219386
-0.0219162
-0.0217118
-0.0213245
-0.0207542
-0.0200022
-0.0190702
-0.0179609
-0.0166779
-0.0152252
-0.0136077
-0.0118306
-0.0098998
-0.00782173
-0.00560328
-0.00325174
-0.000774815
0.00181941
0.00452244
0.00732545
0.0102194
0.0131948
0.016242
0.0193511
0.022512
0.0257143
0.0289475
0.032201
0.035464
0.0387258
0.0419753
0.0452017
0.048394
0.0515412
0.0546323
0.0576568
0.0606039
0.0634632
0.0662245
0.0688777
0.0714132
0.0738218
0.0760944
0.0782227
0.0801986
0.0820146
0.0836638
0.0851403
0.0864385
0.0875539
0.0884828
0.0892221
0.0897701
0.0901258
0.0902895
0.0902629
0.0900486
0.0896509
0.0890753
0.0883291
0.0874212
0.0863623
0.0851651
0.0838444
0.0824172
0.0809033
0.0793254
0.0777089
0.0760832
0.074481
0.0729396
0.0715009
0.0702115
0.0691223
0.0682852
0.0677503
0.0675591
0.0676626
-9.04212e-05
-8.06611e-06
-0.000224296
-0.000735757
-0.00149194
-0.00245365
-0.00358064
-0.00483167
-0.00616745
-0.00755218
-0.00895334
-0.010342
-0.0116926
-0.0129823
-0.0141916
-0.0153032
-0.0163021
-0.0171755
-0.0179127
-0.0185045
-0.0189435
-0.0192235
-0.01934
-0.0192894
-0.0190696
-0.0186792
-0.0181181
-0.0173869
-0.0164872
-0.0154211
-0.0141916
-0.0128026
-0.0112582
-0.00956338
-0.00772354
-0.00574463
-0.00363308
-0.00139566
0.000960423
0.0034275
0.00599756
0.00866228
0.0114131
0.0142411
0.0171371
0.0200916
0.023095
0.0261376
0.0292094
0.0323003
0.0354
0.0384982
0.0415847
0.044649
0.0476808
0.0506696
0.0536051
0.0564771
0.0592758
0.0619911
0.0646135
0.0671335
0.0695421
0.0718306
0.0739908
0.0760146
0.0778947
0.0796241
0.0811966
0.0826066
0.0838493
0.0849205
0.0858171
0.0865364
0.0870771
0.0874386
0.0876216
0.087628
0.0874607
0.0871242
0.0866242
0.0859678
0.0851641
0.0842234
0.0831582
0.0819829
0.0807137
0.0793697
0.077972
0.0765445
0.075114
0.0737102
0.072366
0.0711171
0.0700023
0.0690616
0.068333
0.0678514
0.067662
0.0677659
0.000120122
0.00019475
-2.18627e-05
-0.000501623
-0.00119089
-0.00205747
-0.00306887
-0.00419071
-0.00538982
-0.00663482
-0.00789689
-0.00914992
-0.0103703
-0.011537
-0.0126315
-0.0136373
-0.0145402
-0.0153279
-0.0159898
-0.0165167
-0.0169015
-0.0171381
-0.0172217
-0.0171486
-0.0169165
-0.0165238
-0.0159701
-0.0152558
-0.0143821
-0.0133509
-0.012165
-0.0108276
-0.00934266
-0.00771475
-0.00594893
-0.00405081
-0.00202641
0.000117916
0.00237533
0.00473855
0.00719996
0.00975168
0.0123856
0.0150931
0.0178654
0.0206936
0.0235684
0.0264805
0.0294204
0.0323784
0.0353447
0.0383095
0.041263
0.0441952
0.0470961
0.0499559
0.0527647
0.0555128
0.0581907
0.0607891
0.0632987
0.0657107
0.0680165
0.0702078
0.072277
0.0742164
0.0760191
0.0776787
0.0791893
0.0805458
0.0817437
0.0827795
0.08365
0.0843532
0.0848878
0.0852538
0.0854519
0.0854842
0.0853539
0.0850653
0.0846241
0.0840377
0.0833146
0.0824652
0.0815013
0.0804366
0.079287
0.0780701
0.0768059
0.0755166
0.0742266
0.0729627
0.0717541
0.070632
0.0696293
0.0687795
0.0681133
0.0676604
0.0674716
0.0675755
0.000672493
0.000688883
0.000442024
-3.70502e-05
-0.000699698
-0.00151689
-0.00246025
-0.00350025
-0.0046079
-0.00575581
-0.00691834
-0.00807187
-0.00919492
-0.0102682
-0.0112742
-0.0121977
-0.0130252
-0.0137449
-0.0143466
-0.0148216
-0.0151628
-0.0153641
-0.0154209
-0.0153296
-0.0150876
-0.0146933
-0.0141462
-0.0134463
-0.0125947
-0.011593
-0.0104439
-0.00915027
-0.0077158
-0.00614469
-0.00444174
-0.00261228
-0.000661936
0.00140323
0.00357669
0.00585148
0.00822037
0.0106759
0.0132102
0.015815
0.018482
0.0212025
0.0239678
0.0267688
0.0295965
0.0324414
0.0352943
0.0381456
0.0409861
0.043806
0.046596
0.0493463
0.0520477
0.0546908
0.0572666
0.0597661
0.0621804
0.0645012
0.0667203
0.0688298
0.0708223
0.0726908
0.0744285
0.0760294
0.077488
0.0787997
0.0799602
0.0809661
0.0818147
0.0825041
0.0830334
0.0834025
0.0836125
0.0836655
0.0835646
0.0833142
0.08292
0.082389
0.0817297
0.0809518
0.0800668
0.0790877
0.0780293
0.0769085
0.0757436
0.0745551
0.0733653
0.0721985
0.0710805
0.0700389
0.0691023
0.0682997
0.0676585
0.0672054
0.0669892
0.0670426
0.00152384
0.00142867
0.0011171
0.000611459
-5.22806e-05
-0.000848173
-0.00175142
-0.00273647
-0.00377826
-0.00485293
-0.00593779
-0.00701168
-0.00805533
-0.00905105
-0.00998281
-0.0108364
-0.0115993
-0.0122603
-0.0128097
-0.0132395
-0.0135424
-0.0137129
-0.0137463
-0.0136391
-0.0133887
-0.0129935
-0.0124528
-0.0117666
-0.0109357
-0.0099616
-0.00884669
-0.00759373
-0.00620609
-0.00468777
-0.0030433
-0.00127765
0.000603842
0.00259539
0.00469072
0.00688323
0.00916605
0.011532
0.0139736
0.0164829
0.0190518
0.0216722
0.0243356
0.0270333
0.0297565
0.0324964
0.0352438
0.0379898
0.0407253
0.0434411
0.0461281
0.048777
0.0513789
0.0539249
0.0564062
0.0588142
0.0611405
0.0633772
0.0655162
0.0675503
0.0694723
0.0712753
0.0729532
0.0745001
0.075911
0.0771813
0.0783073
0.0792856
0.0801138
0.0807902
0.0813141
0.0816855
0.0819056
0.0819763
0.0819009
0.0816837
0.0813301
0.080847
0.0802424
0.0795257
0.0787077
0.0778006
0.0768185
0.0757767
0.0746924
0.0735843
0.0724724
0.0713785
0.0703257
0.0693381
0.0684406
0.0676584
0.0670155
0.0665363
0.0662588
0.0662079
0.0026256
0.00238008
0.00197467
0.0014177
0.000728306
-7.11738e-05
-0.000958856
-0.00191287
-0.00291186
-0.00393497
-0.00496235
-0.00597531
-0.0069565
-0.00788997
-0.00876119
-0.0095571
-0.010266
-0.0108776
-0.0113827
-0.0117738
-0.0120441
-0.0121883
-0.0122018
-0.0120812
-0.011824
-0.0114288
-0.0108945
-0.0102213
-0.0094097
-0.00846129
-0.00737807
-0.00616264
-0.00481823
-0.00334861
-0.00175804
-5.12084e-05
0.00176678
0.00369039
0.00571364
0.00783026
0.0100337
0.012317
0.0146731
0.0170942
0.0195728
0.0221008
0.0246702
0.0272726
0.0298996
0.0325427
0.0351931
0.0378421
0.0404811
0.0431011
0.0456934
0.0482491
0.0507597
0.0532166
0.0556113
0.0579355
0.0601814
0.062341
0.064407
0.0663721
0.0682296
0.069973
0.0715963
0.073094
0.0744613
0.075694
0.0767884
0.0777414
0.0785507
0.0792148
0.0797331
0.0801058
0.0803338
0.0804193
0.0803654
0.0801762
0.079857
0.0794142
0.0788555
0.0781898
0.0774271
0.0765791
0.0756585
0.0746798
0.0736584
0.0726113
0.0715567
0.070514
0.0695035
0.0685462
0.0676638
0.0668777
0.0662094
0.0656804
0.065313
0.0651186
0.00392772
0.00350651
0.00298513
0.00235603
0.00161937
0.000794468
-9.94448e-05
-0.00104413
-0.00202123
-0.00301278
-0.00400159
-0.00497121
-0.00590619
-0.00679226
-0.00761633
-0.00836647
-0.00903201
-0.00960343
-0.0100724
-0.0104316
-0.0106749
-0.0107973
-0.0107945
-0.0106632
-0.0104011
-0.0100066
-0.00947887
-0.00881792
-0.00802439
-0.00709959
-0.00604541
-0.00486433
-0.0035594
-0.0021342
-0.000592759
0.00106048
0.00282059
0.00468228
0.00663984
0.0086873
0.0108184
0.0130265
0.0153045
0.0176453
0.0200415
0.0224854
0.0249693
0.027485
0.0300245
0.0325794
0.0351416
0.0377025
0.0402538
0.0427869
0.0452934
0.0477647
0.0501926
0.0525688
0.0548851
0.0571337
0.0593068
0.061397
0.063397
0.0653001
0.0670995
0.0687891
0.0703633
0.0718167
0.0731449
0.0743436
0.0754094
0.0763393
0.0771313
0.0777839
0.0782966
0.0786694
0.0789035
0.0790007
0.0789642
0.0787978
0.0785066
0.0780966
0.077575
0.0769501
0.0762314
0.0754295
0.0745564
0.073625
0.0726497
0.0716456
0.0706291
0.0696172
0.0686279
0.0676795
0.0667905
0.0659793
0.0652647
0.0646655
0.0641863
0.0638227
0.00538264
0.00477022
0.0041172
0.00339943
0.00259801
0.00172956
0.000810885
-0.000142778
-0.00111604
-0.00209353
-0.00306037
-0.00400221
-0.00490549
-0.00575754
-0.00654658
-0.00726192
-0.00789389
-0.0084338
-0.00887397
-0.0092078
-0.00942956
-0.00953451
-0.00951877
-0.00937932
-0.00911395
-0.00872114
-0.00820013
-0.00755094
-0.00677422
-0.00587115
-0.00484352
-0.00369376
-0.00242478
-0.00103995
0.000456905
0.0020615
0.00376907
0.00557455
0.00747254
0.00945732
0.0115228
0.0136625
0.0158699
0.0181379
0.0204594
0.0228271
0.0252335
0.0276707
0.0301309
0.0326062
0.0350886
0.0375699
0.040042
0.0424966
0.0449257
0.0473209
0.0496744
0.051978
0.0542238
0.0564044
0.0585122
0.0605402
0.0624812
0.0643286
0.066076
0.0677176
0.0692478
0.0706617
0.0719547
0.073123
0.0741631
0.0750722
0.0758483
0.0764901
0.0769969
0.077369
0.0776071
0.0777133
0.0776904
0.077542
0.0772728
0.0768886
0.076396
0.0758026
0.0751174
0.0743499
0.0735113
0.0726133
0.0716689
0.0706917
0.0696962
0.0686976
0.0677113
0.0667534
0.0658395
0.0649851
0.064207
0.0635216
0.0629146
0.062366
0.00694785
0.00613595
0.00534054
0.00452191
0.00364196
0.00271504
0.00175637
0.000778274
-0.000206556
-0.00118506
-0.00214438
-0.00307218
-0.00395662
-0.00478659
-0.00555159
-0.00624206
-0.00684937
-0.00736565
-0.00778398
-0.00809835
-0.00830353
-0.00839516
-0.00836979
-0.00822461
-0.00795754
-0.00756724
-0.00705315
-0.00641528
-0.00565418
-0.00477104
-0.00376768
-0.00264641
-0.00141
-6.16387e-05
0.00139493
0.00295555
0.00461567
0.00637047
0.00821473
0.0101429
0.0121492
0.0142273
0.0163709
0.0185733
0.0208276
0.0231267
0.0254632
0.0278297
0.0302187
0.0326224
0.0350331
0.0374429
0.0398439
0.0422283
0.044588
0.0469152
0.049202
0.0514407
0.0536237
0.0557437
0.0577934
0.0597659
0.0616544
0.0634523
0.0651536
0.0667526
0.0682439
0.0696226
0.0708845
0.0720257
0.0730428
0.0739332
0.0746949
0.0753265
0.0758275
0.0761978
0.0764384
0.0765509
0.076538
0.0764032
0.0761506
0.0757857
0.0753145
0.0747442
0.0740828
0.0733393
0.0725236
0.0716465
0.0707196
0.069755
0.0687657
0.0677649
0.066766
0.0657829
0.0648288
0.0639165
0.0630612
0.0622771
0.0615315
0.060789
0.00858699
0.0075718
0.00662739
0.00569888
0.00472973
0.00373259
0.00272136
0.00170584
0.000696362
-0.00029605
-0.00126048
-0.00218636
-0.00306341
-0.00388189
-0.00463269
-0.0053073
-0.00589804
-0.00639793
-0.00680077
-0.00710112
-0.00729432
-0.00737651
-0.00734453
-0.00719581
-0.00692856
-0.00654165
-0.0060346
-0.00540748
-0.00466088
-0.00379604
-0.00281473
-0.00171918
-0.000512055
0.00080352
0.00222393
0.00374512
0.00536273
0.00707213
0.0088683
0.0107459
0.0126991
0.0147221
0.0168087
0.0189524
0.0211466
0.0233844
0.0256586
0.027962
0.0302874
0.0326273
0.0349741
0.0373203
0.0396582
0.0419801
0.0442783
0.0465451
0.0487729
0.0509543
0.0530818
0.0551482
0.0571467
0.0590704
0.0609127
0.0626672
0.064328
0.0658896
0.0673468
0.0686947
0.0699293
0.0710466
0.0720435
0.0729173
0.0736659
0.0742882
0.0747833
0.0751512
0.0753926
0.0755091
0.075503
0.0753776
0.0751367
0.0747852
0.0743287
0.0737737
0.0731275
0.0723984
0.0715952
0.0707278
0.0698064
0.068842
0.0678459
0.0668295
0.0658047
0.0647832
0.0637761
0.062794
0.0618507
0.0609587
0.0600676
0.0591273
0.0102684
0.0090495
0.00795229
0.00690751
0.00584115
0.00476451
0.00369045
0.00262672
0.00158166
0.000564316
-0.000416108
-0.00135057
-0.00223024
-0.00304672
-0.00379209
-0.00445892
-0.00504042
-0.00553047
-0.00592357
-0.00621492
-0.0064004
-0.0064766
-0.00644074
-0.00629055
-0.00602449
-0.00564169
-0.00514177
-0.00452486
-0.00379168
-0.00294348
-0.00198204
-0.00090953
0.000271461
0.00155785
0.00294607
0.00443223
0.00601213
0.00768127
0.00943478
0.0112674
0.0131737
0.0151479
0.017184
0.0192758
0.0214168
0.0236003
0.0258195
0.0280672
0.0303365
0.0326201
0.0349107
0.0372009
0.0394833
0.0417503
0.0439946
0.0462086
0.0483848
0.050516
0.052595
0.0546149
0.0565689
0.0584502
0.0602524
0.0619693
0.0635951
0.0651245
0.0665522
0.0678736
0.0690846
0.0701813
0.0711606
0.0720198
0.072757
0.0733707
0.07386
0.0742249
0.0744659
0.0745842
0.0745822
0.0744625
0.0742288
0.0738854
0.0734374
0.0728907
0.072252
0.0715286
0.0707287
0.0698611
0.0689348
0.0679595
0.0669451
0.0659018
0.0648396
0.0637687
0.0626982
0.0616367
0.060597
0.0595905
0.0585499
0.0574111
0.0119649
0.010544
0.00929218
0.00812693
0.00695746
0.00579403
0.00464892
0.00352813
0.00243822
0.00138659
0.000380917
-0.000571178
-0.00146222
-0.00228503
-0.00303273
-0.00369889
-0.00427773
-0.00476384
-0.00515238
-0.00543923
-0.00562086
-0.00569424
-0.00565692
-0.00550708
-0.00524346
-0.00486537
-0.00437254
-0.00376526
-0.00304437
-0.00221121
-0.00126748
-0.000215353
0.00094257
0.00220323
0.00356316
0.00501859
0.00656543
0.0081993
0.0099154
0.0117087
0.0135739
0.0155053
0.0174974
0.0195438
0.0216383
0.0237745
0.0259456
0.0281448
0.0303653
0.0326
0.0348417
0.0370833
0.0393176
0.0415373
0.0437349
0.0459033
0.0480351
0.0501232
0.0521607
0.0541408
0.0560567
0.0579019
0.05967
0.061355
0.0629512
0.0644533
0.0658561
0.0671552
0.0683463
0.0694256
0.07039
0.0712368
0.071964
0.0725701
0.073054
0.0734155
0.0736549
0.0737734
0.0737728
0.0736557
0.0734251
0.073085
0.07264
0.0720954
0.0714573
0.0707321
0.0699274
0.0690507
0.0681102
0.0671145
0.0660721
0.064992
0.0638829
0.0627534
0.0616109
0.0604624
0.0593201
0.0581946
0.0570025
0.0556666
0.0136531
0.012033
0.0106264
0.009338
0.00806104
0.00680536
0.00558274
0.00439765
0.00325517
0.00216139
0.00112257
0.000144975
-0.000765023
-0.00160132
-0.00235817
-0.00303008
-0.00361198
-0.00409931
-0.00448795
-0.00477438
-0.00495553
-0.00502884
-0.00499228
-0.00484442
-0.00458427
-0.00421127
-0.00372539
-0.00312712
-0.0024174
-0.00159757
-0.000669394
0.000364938
0.00150279
0.00274114
0.00407661
0.00550549
0.00702381
0.00862724
0.0103111
0.0120705
0.0139002
0.015795
0.0177491
0.0197565
0.0218111
0.0239066
0.0260365
0.0281942
0.030373
0.0325659
0.034766
0.0369662
0.0391596
0.0413391
0.0434973
0.0456271
0.0477215
0.0497735
0.0517762
0.053723
0.0556072
0.0574224
0.0591623
0.060821
0.0623928
0.0638725
0.0652551
0.0665359
0.0677107
0.0687758
0.069728
0.0705647
0.0712836
0.0718831
0.072362
0.0727199
0.072957
0.0730742
0.073073
0.0729555
0.0727247
0.0723837
0.0719369
0.0713889
0.0707452
0.0700116
0.0691947
0.0683013
0.0673386
0.0663141
0.0652354
0.0641102
0.0629461
0.0617504
0.060529
0.0592875
0.058038
0.0567905
0.0554463
0.053916
0.0153125
0.013497
0.0119364
0.0105232
0.00913579
0.00778364
0.00647838
0.0052232
0.00402189
0.00287931
0.00180061
0.000790948
-0.000144522
-0.00100063
-0.00177256
-0.0024557
-0.00304576
-0.00353892
-0.00393177
-0.00422128
-0.0044049
-0.00448057
-0.00444672
-0.00430219
-0.00404625
-0.0036786
-0.00319946
-0.00260947
-0.00190966
-0.00110146
-0.000186667
0.000832446
0.00195321
0.00317263
0.00448738
0.00589386
0.00738809
0.0089658
0.0106224
0.0123532
0.0141532
0.016017
0.0179392
0.0199138
0.0219349
0.0239963
0.0260918
0.0282148
0.0303586
0.0325167
0.0346821
0.0368481
0.0390077
0.041154
0.0432798
0.0453781
0.0474419
0.0494644
0.051439
0.0533589
0.0552177
0.0570089
0.0587263
0.0603641
0.0619167
0.063379
0.0647457
0.0660123
0.0671746
0.0682288
0.0691717
0.0700005
0.0707128
0.071307
0.0717816
0.072136
0.0723703
0.072485
0.0724814
0.0723613
0.0721271
0.0717816
0.0713287
0.0707726
0.070118
0.0693701
0.0685348
0.0676179
0.066626
0.0655656
0.0644435
0.0632662
0.0620404
0.060772
0.0594662
0.0581272
0.0567669
0.0553956
0.0538998
0.0521783
0.0169254
0.0149184
0.0132052
0.0116666
0.0101667
0.008715
0.00732313
0.00599318
0.00472791
0.00353111
0.00240689
0.00135945
0.000392987
-0.000488318
-0.00128043
-0.00197956
-0.00258221
-0.00308524
-0.00348581
-0.00378145
-0.00397012
-0.00405027
-0.0040207
-0.00388056
-0.00362939
-0.00326718
-0.00279441
-0.00221185
-0.00152061
-0.000722216
0.000181372
0.00118781
0.00229445
0.00349832
0.00479613
0.00618423
0.0076587
0.00921536
0.0108497
0.0125572
0.0143328
0.0161714
0.0180675
0.0200154
0.0220093
0.0240431
0.0261106
0.0282055
0.0303213
0.0324513
0.034589
0.0367276
0.0388603
0.0409803
0.0430805
0.045154
0.047194
0.0491938
0.0511466
0.053046
0.0548854
0.0566584
0.0583591
0.0599815
0.0615202
0.0629698
0.0643252
0.0655817
0.0667351
0.0677818
0.0687182
0.0695416
0.0702493
0.0708395
0.0713107
0.071662
0.0718932
0.0720047
0.0719974
0.0718727
0.0716325
0.0712796
0.070817
0.0702485
0.0695784
0.0688112
0.0679519
0.0670059
0.0659788
0.0648764
0.0637047
0.0624694
0.0611761
0.0598301
0.0584353
0.0569951
0.0555218
0.0540255
0.0523791
0.0504698
0.0184764
0.0162816
0.0144175
0.0127536
0.01114
0.0095864
0.00810484
0.0066965
0.00536307
0.00410755
0.00293316
0.0018432
0.000841006
-7.00584e-05
-0.000886722
-0.00160596
-0.002225
-0.00274131
-0.00315261
-0.00345695
-0.00365288
-0.00373928
-0.00371524
-0.00358024
-0.00333419
-0.00297738
-0.00251043
-0.00193425
-0.00125011
-0.000459715
0.000434871
0.00143127
0.0025268
0.00371849
0.00500302
0.00637675
0.00783578
0.00937599
0.010993
0.0126823
0.014439
0.0162579
0.0181338
0.0200609
0.0220337
0.0240462
0.0260922
0.0281655
0.0302598
0.0323685
0.0344852
0.0366032
0.0387159
0.0408163
0.0428976
0.044953
0.0469758
0.0489593
0.0508969
0.0527819
0.0546079
0.0563688
0.0580584
0.0596709
0.0612007
0.0626424
0.0639909
0.0652415
0.06639
0.0674325
0.0683655
0.0691859
0.0698911
0.070479
0.0709479
0.0712967
0.071525
0.0716328
0.0716208
0.0714899
0.0712418
0.0708787
0.0704034
0.0698192
0.0691296
0.0683386
0.0674507
0.0664706
0.0654032
0.0642537
0.0630272
0.0617289
0.0603634
0.0589354
0.057448
0.0559039
0.0543158
0.0526941
0.0508984
0.0488049
0.0199517
0.017573
0.0155599
0.0137708
0.0120428
0.0103858
0.00881213
0.00732241
0.0059175
0.00459961
0.0033712
0.00223475
0.00119289
0.000248244
-0.000596663
-0.00133955
-0.0019782
-0.00251062
-0.00293515
-0.00325045
-0.00345546
-0.00354942
-0.00353182
-0.00340252
-0.00316175
-0.00281002
-0.00234812
-0.00177716
-0.0010986
-0.000314296
0.00057359
0.00156262
0.0026501
0.00383298
0.00510792
0.00647125
0.00791911
0.00944745
0.011052
0.0127282
0.0144712
0.016276
0.0181373
0.0200496
0.0220074
0.0240047
0.0260355
0.0280937
0.0301729
0.032267
0.0343693
0.0364735
0.0385727
0.0406602
0.0427293
0.0447733
0.0467854
0.0487591
0.0506876
0.0525644
0.0543831
0.0561376
0.0578218
0.0594297
0.0609558
0.0623945
0.0637407
0.0649897
0.0661371
0.067179
0.0681116
0.0689318
0.0696367
0.0702241
0.070692
0.0710393
0.0712651
0.0713692
0.0713518
0.0712136
0.070956
0.0705808
0.0700903
0.0694873
0.0687749
0.0679565
0.067036
0.0660175
0.0649055
0.0637045
0.062419
0.0610533
0.0596118
0.0580982
0.0565154
0.0548652
0.0531611
0.0514138
0.04947
0.0471956
0.0213389
0.0187798
0.0166194
0.0147058
0.0128631
0.0111016
0.00943419
0.0078608
0.00638172
0.00499847
0.00371281
0.00252665
0.00144188
0.000460408
-0.000415887
-0.00118526
-0.00184612
-0.00239707
-0.00283698
-0.00316499
-0.00338046
-0.00348299
-0.00347249
-0.00334919
-0.00311358
-0.00276638
-0.0023086
-0.00174156
-0.00106693
-0.000286712
0.000596864
0.0015813
0.0026638
0.00384126
0.00511027
0.00646716
0.00790814
0.0094292
0.011026
0.0126941
0.0144287
0.0162248
0.0180772
0.0199806
0.0219293
0.0239176
0.0259394
0.0279888
0.0300595
0.0321454
0.03424
0.0363367
0.0384291
0.0405103
0.0425738
0.0446129
0.0466208
0.048591
0.0505167
0.0523914
0.0542089
0.0559629
0.0576472
0.059256
0.0607835
0.0622241
0.0635726
0.0648243
0.0659746
0.0670195
0.0679551
0.0687779
0.069485
0.0700738
0.0705425
0.0708894
0.0711134
0.071214
0.071191
0.0710449
0.0707767
0.0703877
0.06988
0.0692559
0.0685179
0.067669
0.0667126
0.0656524
0.0644921
0.0632358
0.0618875
0.0604511
0.0589301
0.0573282
0.0556475
0.0538897
0.0520685
0.0501957
0.0481052
0.0456526
0.0226271
0.0198906
0.0175848
0.0155473
0.0135897
0.0117231
0.00996061
0.00830181
0.00674641
0.00529542
0.00395
0.00271144
0.00158104
0.000560101
-0.000350091
-0.00114833
-0.00183357
-0.00240498
-0.00286195
-0.00320403
-0.00343094
-0.00354274
-0.00353973
-0.00342245
-0.00319162
-0.00284818
-0.0023934
-0.00182886
-0.0011564
-0.000378124
0.000503654
0.00148632
0.00256697
0.00374239
0.00500916
0.00636365
0.00780207
0.00932039
0.0109143
0.0125793
0.0143106
0.0161034
0.0179526
0.0198528
0.0217983
0.0237836
0.0258026
0.0278495
0.029918
0.0320022
0.0340954
0.0361913
0.0382834
0.0403649
0.0424293
0.04447
0.0464801
0.0484531
0.0503822
0.052261
0.0540833
0.0558426
0.0575328
0.0591478
0.0606818
0.0621293
0.0634849
0.0647437
0.0659011
0.0669528
0.0678946
0.0687231
0.069435
0.0700278
0.070499
0.070847
0.0710702
0.0711679
0.0711395
0.0709852
0.0707056
0.0703019
0.0697755
0.0691283
0.0683625
0.0674807
0.0664857
0.0653807
0.0641691
0.0628545
0.0614404
0.0599302
0.0583272
0.0566345
0.054854
0.052987
0.0510482
0.0490497
0.0468137
0.0441854
0.023806
0.020895
0.0184453
0.0162846
0.0142123
0.0122399
0.0103814
0.00863593
0.00700256
0.0054819
0.00407469
0.0027816
0.00160339
0.000540836
-0.000405241
-0.0012342
-0.00194557
-0.00253901
-0.00301428
-0.00337135
-0.00361039
-0.00373187
-0.00373646
-0.0036249
-0.00339818
-0.00305754
-0.00260452
-0.00204091
-0.00136868
-0.000590039
0.000292553
0.00127633
0.00235826
0.00353511
0.00480342
0.00615958
0.00759973
0.00911982
0.0107155
0.0123824
0.0141157
0.0159107
0.0177621
0.0196648
0.021613
0.0236012
0.0256236
0.0276742
0.029747
0.0318357
0.0339341
0.0360356
0.0381338
0.0402222
0.042294
0.0443426
0.0463614
0.0483435
0.0502823
0.0521714
0.0540043
0.0557748
0.0574765
0.0591032
0.0606492
0.0621086
0.0634761
0.0647466
0.0659153
0.0669776
0.0679294
0.0687668
0.0694865
0.0700857
0.0705617
0.0709125
0.0711363
0.0712319
0.0711987
0.0710363
0.0707452
0.070326
0.0697798
0.0691083
0.068313
0.0673963
0.0663604
0.0652083
0.0639429
0.0625675
0.0610849
0.0594985
0.0578111
0.0560256
0.0541437
0.0521665
0.0501094
0.0479853
0.0456045
0.0428025
0.0248664
0.021783
0.0191909
0.0169076
0.0147207
0.0126424
0.0106873
0.00885396
0.00714134
0.00554959
0.00407892
0.00272956
0.00150184
0.000396069
-0.00058747
-0.00144865
-0.00218749
-0.00280403
-0.00329843
-0.0036711
-0.00392268
-0.00405397
-0.00406589
-0.00395946
-0.00373599
-0.00339703
-0.00294436
-0.0023799
-0.00170576
-0.000924331
-3.82599e-05
0.000949558
0.00203602
0.00321785
0.00449155
0.00585345
0.00729964
0.00882601
0.0104283
0.012102
0.0138425
0.015645
0.0175043
0.019415
0.0213718
0.023369
0.0254008
0.0274613
0.0295445
0.0316442
0.0337541
0.0358676
0.0379785
0.0400802
0.0421659
0.044229
0.0462627
0.0482602
0.050215
0.0521205
0.0539703
0.0557578
0.0574768
0.0591208
0.060684
0.0621606
0.0635449
0.0648318
0.0660162
0.0670934
0.0680589
0.0689087
0.0696394
0.0702477
0.070731
0.0710866
0.0713126
0.0714075
0.0713703
0.0712005
0.0708979
0.070463
0.0698966
0.0691997
0.0683737
0.0674205
0.0663421
0.065141
0.0638198
0.0623814
0.0608284
0.0591636
0.0573899
0.05551
0.0535252
0.0514367
0.0492606
0.0470108
0.0444858
0.0415115
0.0257995
0.0225456
0.0198121
0.017407
0.0151057
0.0129212
0.0108688
0.00894702
0.00715418
0.00549014
0.00395474
0.00254783
0.00126934
0.000119085
-0.000903161
-0.00179769
-0.00256487
-0.00320518
-0.00371921
-0.00410784
-0.00437204
-0.00451287
-0.00453155
-0.00442945
-0.00420821
-0.00386962
-0.00341562
-0.00284831
-0.00217
-0.00138329
-0.000490977
0.000503943
0.0015983
0.00278875
0.00407172
0.00544344
0.00689999
0.00843722
0.0100509
0.0117365
0.0134894
0.0153046
0.0171772
0.0191018
0.0210729
0.023085
0.0251323
0.027209
0.0293089
0.0314258
0.0335535
0.0356856
0.0378156
0.0399371
0.0420432
0.0441271
0.0461822
0.0482016
0.0501786
0.0521068
0.0539795
0.05579
0.057532
0.059199
0.060785
0.062284
0.0636904
0.0649985
0.0662031
0.0672994
0.0682826
0.0691487
0.0698938
0.0705144
0.0710075
0.0713704
0.0716006
0.0716964
0.0716565
0.0714801
0.0711667
0.0707163
0.0701294
0.0694066
0.0685492
0.0675585
0.0664363
0.0651847
0.0638062
0.062303
0.0606778
0.058933
0.0570714
0.0550955
0.0530066
0.0508057
0.0485101
0.0461343
0.0434653
0.0403193
0.0265969
0.023174
0.0203001
0.0177734
0.0153579
0.0130672
0.0109172
0.00890633
0.00703249
0.00529528
0.00369425
0.00222889
0.000898649
-0.000297052
-0.00135885
-0.00228738
-0.00308343
-0.00374789
-0.00428182
-0.0046864
-0.0049629
-0.00511271
-0.00513737
-0.00503861
-0.00481833
-0.00447852
-0.0040213
-0.00344901
-0.00276416
-0.00196954
-0.00106808
-6.28603e-05
0.00104285
0.00224561
0.00354177
0.00492748
0.00639876
0.00795146
0.00958128
0.0112838
0.0130542
0.0148877
0.0167791
0.0187231
0.0207144
0.0227474
0.0248163
0.0269151
0.0290379
0.0311784
0.0333304
0.0354874
0.0376432
0.0397909
0.0419238
0.044035
0.0461179
0.0481656
0.0501714
0.0521285
0.0540302
0.0558698
0.0576407
0.0593365
0.060951
0.0624779
0.0639114
0.0652458
0.0664755
0.0675954
0.0686007
0.069487
0.0702501
0.0708864
0.0713924
0.0717651
0.0720019
0.0721006
0.0720597
0.071878
0.0715547
0.0710894
0.0704822
0.0697335
0.0688442
0.0678154
0.0666485
0.0653455
0.0639083
0.0623391
0.0606402
0.058814
0.056863
0.0547898
0.0525956
0.0502815
0.0478654
0.0453631
0.04255
0.0392327
0.0272508
0.0236598
0.0206461
0.0179982
0.0154686
0.0130716
0.0108238
0.00872324
0.00676786
0.00495688
0.00328959
0.00176506
0.000382386
-0.000859373
-0.00196117
-0.00292405
-0.00374919
-0.00443793
-0.00499165
-0.00541181
-0.00570001
-0.00585799
-0.00588765
-0.005791
-0.00557014
-0.00522728
-0.00476479
-0.00418523
-0.00349134
-0.00268603
-0.00177235
-0.000753513
0.000367104
0.00158595
0.00289928
0.00430319
0.00579366
0.0073665
0.00901735
0.0107417
0.0125349
0.0143919
0.0163076
0.0182769
0.0202942
0.022354
0.0244505
0.0265777
0.0287296
0.0309
0.0330827
0.0352712
0.037459
0.0396394
0.0418056
0.0439508
0.046068
0.0481505
0.0501914
0.0521838
0.0541208
0.0559957
0.0578016
0.0595322
0.0611808
0.0627413
0.0642074
0.0655732
0.066833
0.0679813
0.0690132
0.0699239
0.070709
0.0713646
0.0718868
0.0722724
0.0725184
0.0726224
0.0725825
0.0723972
0.0720652
0.071586
0.0709591
0.0701849
0.0692638
0.0681966
0.0669846
0.0656293
0.0641325
0.0624963
0.0607226
0.0588138
0.0567722
0.0546005
0.0522999
0.0498714
0.0473341
0.0447045
0.0417468
0.0382578
0.0277533
0.0239949
0.0208418
0.0180728
0.0154291
0.0129256
0.0105797
0.00838924
0.00635197
0.00446683
0.00273279
0.00114862
-0.000286878
-0.00157495
-0.00271692
-0.00371424
-0.00456846
-0.00528125
-0.00585429
-0.00628936
-0.00658842
-0.00675357
-0.00678699
-0.00669092
-0.0064677
-0.00611978
-0.0056498
-0.00506054
-0.0043549
-0.00353595
-0.00260686
-0.00157097
-0.000431802
0.000806989
0.00214158
0.00356799
0.00508215
0.00667984
0.00835662
0.010108
0.0119291
0.013815
0.0157606
0.0177607
0.0198099
0.0219025
0.0240326
0.0261944
0.0283817
0.0305884
0.0328081
0.0350345
0.037261
0.0394807
0.0416868
0.0438723
0.0460305
0.0481544
0.0502369
0.052271
0.0542497
0.0561661
0.0580134
0.0597848
0.0614736
0.0630734
0.0645777
0.0659804
0.0672754
0.0684572
0.0695205
0.0704601
0.0712715
0.0719502
0.0724923
0.0728941
0.0731524
0.0732644
0.0732279
0.0730409
0.072702
0.0722102
0.0715648
0.0707657
0.0698131
0.0687076
0.0674503
0.0660425
0.0644856
0.0627815
0.0609321
0.0589396
0.0568064
0.0545351
0.0521269
0.049583
0.0469233
0.0441655
0.0410622
0.0374006
0.0280968
0.0241712
0.0208788
0.0179888
0.0152309
0.0126206
0.0101764
0.0078959
0.00577646
0.00381685
0.00201578
0.000371787
-0.00111663
-0.00245103
-0.00363312
-0.00466472
-0.00554768
-0.00628397
-0.00687558
-0.00732467
-0.00763353
-0.00780457
-0.00784021
-0.00774294
-0.00751537
-0.00716022
-0.00668036
-0.00607877
-0.0053585
-0.00452279
-0.00357496
-0.00251849
-0.001357
-9.43011e-05
0.00126572
0.00271902
0.00426147
0.00588876
0.0075964
0.00937978
0.0112341
0.0131543
0.0151355
0.0171722
0.0192591
0.0213904
0.0235602
0.0257627
0.0279917
0.0302411
0.0325044
0.0347752
0.0370468
0.0393124
0.041565
0.0437977
0.0460035
0.0481754
0.0503061
0.0523885
0.0544154
0.0563798
0.0582747
0.0600932
0.0618283
0.0634734
0.0650218
0.066467
0.0678028
0.0690234
0.070123
0.0710964
0.0719386
0.0726447
0.0732107
0.0736324
0.0739063
0.0740294
0.073999
0.0738129
0.0734691
0.0729663
0.0723037
0.0714808
0.0704976
0.0693544
0.068052
0.0665914
0.0649741
0.0632016
0.0612757
0.0591987
0.0569729
0.054601
0.0520841
0.0494235
0.0466403
0.043753
0.0405028
0.0366672
0.0282737
0.0241808
0.0207489
0.0177377
0.0148653
0.0121482
0.00960556
0.00723473
0.00503291
0.00299866
0.0011305
-0.000573281
-0.0021145
-0.00349506
-0.004717
-0.00578241
-0.00669346
-0.00745241
-0.00806163
-0.00852362
-0.00884097
-0.00901634
-0.00905241
-0.00895196
-0.00871787
-0.00835311
-0.00786078
-0.00724401
-0.00650607
-0.00565033
-0.00468028
-0.00359954
-0.00241189
-0.0011212
0.000268542
0.00175322
0.00332862
0.00499033
0.0067338
0.00855435
0.0104472
0.0124073
0.0144296
0.0165087
0.0186391
0.0208151
0.0230308
0.0252802
0.0275573
0.0298557
0.0321691
0.0344908
0.0368141
0.0391322
0.0414381
0.0437247
0.0459849
0.0482115
0.0503971
0.0525344
0.0546162
0.0566353
0.0585844
0.0604564
0.0622442
0.0639408
0.0655392
0.0670328
0.0684152
0.0696801
0.0708215
0.0718338
0.0727116
0.0734498
0.0740439
0.0744896
0.0747829
0.0749205
0.0748994
0.0747167
0.0743705
0.073859
0.073181
0.0723358
0.0713231
0.0701429
0.0687959
0.0672828
0.0656049
0.0637636
0.0617608
0.0595986
0.0572793
0.0548056
0.0521788
0.0494002
0.0464921
0.0434738
0.0400751
0.0360634
0.0282766
0.0240156
0.0204438
0.017311
0.014324
0.0114998
0.00885846
0.00639713
0.00411282
0.00200395
6.8814e-05
-0.00169458
-0.00328835
-0.00471469
-0.00597591
-0.0070744
-0.00801263
-0.00879321
-0.00941885
-0.00989236
-0.0102166
-0.0103945
-0.010429
-0.0103232
-0.0100802
-0.00970322
-0.0091956
-0.00856064
-0.00780178
-0.00692259
-0.0059267
-0.0048179
-0.00360007
-0.00227719
-0.00085333
0.000667302
0.00228037
0.00398138
0.00576571
0.00762868
0.00956543
0.0115709
0.01364
0.0157673
0.0179471
0.0201738
0.0224415
0.0247442
0.0270757
0.0294297
0.0317996
0.0341788
0.0365606
0.0389379
0.0413038
0.0436511
0.0459725
0.0482606
0.050508
0.0527072
0.0548507
0.0569312
0.0589413
0.0608734
0.0627203
0.0644748
0.0661296
0.0676779
0.0691129
0.0704279
0.0716167
0.0726733
0.0735919
0.0743672
0.0749942
0.0754683
0.0757851
0.075941
0.0759325
0.0757566
0.0754108