/*--------------------------------*- C++ -*----------------------------------*\
| =========                 |                                                 |
| \\      /  F ield         | OpenFOAM: The Open Source CFD Toolbox           |
|  \\    /   O peration     | Version:  2212                                  |
|   \\  /    A nd           | Website:  www.openfoam.com                      |
|    \\/     M anipulation  |                                                 |
\*---------------------------------------------------------------------------*/
FoamFile
{
    version     2.0;
    format      ascii;
    arch        "LSB;label=32;scalar=64";
    class       volScalarField;
    location    "0.0045";
    object      p;
}
// * * * * * * * * * * * * * * * * * * * * * * * * * * * * * * * * * * * * * //

dimensions      [0 2 -2 0 0 0 0];

internalField   nonuniform List<scalar> 
10000
(
4.46703e-07
-3.06696e-05
-6.85777e-05
8.72653e-05
0.000274298
0.000373523
0.000401127
0.000407264
0.00044133
0.000538799
0.000721676
0.00101369
0.00143675
0.0020026
0.00271847
0.00358882
0.00461589
0.00580211
0.00714448
0.00863018
0.0102493
0.0119969
0.0138691
0.0158606
0.0179674
0.0201868
0.0225171
0.0249574
0.0275082
0.030168
0.0329297
0.0357842
0.0387266
0.0417572
0.0448757
0.04808
0.0513668
0.054731
0.0581656
0.0616634
0.06522
0.0688345
0.0725043
0.0762219
0.0799786
0.0837672
0.0875832
0.0914244
0.0952874
0.0991693
0.103067
0.106976
0.110887
0.114791
0.118682
0.122555
0.126404
0.130224
0.134005
0.137744
0.141434
0.145072
0.14865
0.152162
0.155602
0.158963
0.162238
0.165421
0.168504
0.171481
0.174348
0.177105
0.179749
0.182277
0.184687
0.186976
0.189138
0.191166
0.193055
0.194798
0.196386
0.197812
0.199074
0.200172
0.201104
0.201862
0.202443
0.202846
0.203068
0.203111
0.202974
0.202667
0.202207
0.201616
0.200927
0.200183
0.199447
0.198804
0.198364
0.198215
0.000276766
0.000690443
0.00091174
0.00116107
0.00136311
0.00147361
0.00153071
0.0015795
0.00166194
0.00180737
0.00203858
0.00237335
0.00282776
0.00341831
0.00415239
0.00503041
0.00605583
0.00723142
0.00855475
0.0100204
0.0116201
0.0133457
0.0151916
0.0171536
0.0192294
0.0214163
0.0237111
0.026112
0.0286197
0.0312339
0.0339499
0.0367616
0.0396643
0.0426538
0.0457266
0.0488803
0.0521144
0.0554269
0.0588112
0.0622588
0.0657643
0.0693245
0.0729371
0.0765965
0.0802951
0.084027
0.0877876
0.091571
0.0953741
0.0991962
0.103034
0.106882
0.110732
0.114577
0.118406
0.122218
0.126009
0.12977
0.133493
0.137176
0.140814
0.144398
0.147923
0.151383
0.15477
0.158078
0.161302
0.164437
0.167472
0.170401
0.173224
0.17594
0.178544
0.181032
0.183403
0.185655
0.187781
0.189776
0.191634
0.193349
0.194914
0.196322
0.197573
0.198667
0.199603
0.200375
0.200977
0.201411
0.20168
0.201785
0.20173
0.201524
0.201183
0.200733
0.2002
0.199624
0.199054
0.198554
0.198201
0.198054
0.00108525
0.00161085
0.00190144
0.00214262
0.00231295
0.00240646
0.00246984
0.00253972
0.0026442
0.00281527
0.00307495
0.00343387
0.00390858
0.00451395
0.00525692
0.0061421
0.00716931
0.00833795
0.00964778
0.0110971
0.0126789
0.0143857
0.0162105
0.0181491
0.0202005
0.0223627
0.0246321
0.0270067
0.0294851
0.0320653
0.0347446
0.0375206
0.0403904
0.0433482
0.0463872
0.0495045
0.0526996
0.0559715
0.0593147
0.0627217
0.0661877
0.0697082
0.0732777
0.0768921
0.0805458
0.0842331
0.0879498
0.0916896
0.0954473
0.0992227
0.103014
0.106812
0.110612
0.114406
0.118187
0.121951
0.125694
0.12941
0.133089
0.13673
0.140327
0.143872
0.147356
0.150773
0.154118
0.157386
0.160569
0.163664
0.166662
0.169558
0.172349
0.175035
0.177611
0.180071
0.182413
0.184634
0.186733
0.188702
0.190536
0.192231
0.19378
0.195179
0.196426
0.197522
0.198463
0.199245
0.199862
0.200318
0.200619
0.200768
0.20077
0.200633
0.200374
0.200014
0.199579
0.199099
0.198613
0.198172
0.19782
0.19759
0.00250414
0.00284448
0.00301667
0.00314006
0.00321756
0.00325285
0.00329038
0.00335214
0.00345968
0.00363885
0.00390656
0.00427856
0.0047655
0.00537573
0.00612094
0.0070074
0.00803432
0.00919975
0.0105022
0.0119387
0.0135053
0.0151959
0.0170035
0.0189243
0.0209565
0.0230979
0.0253472
0.0277032
0.0301625
0.03272
0.035373
0.0381207
0.0409617
0.043891
0.0469029
0.0499946
0.0531632
0.0564042
0.0597133
0.0630861
0.0665194
0.0700089
0.0735469
0.0771276
0.0807474
0.0844009
0.0880822
0.0917865
0.09551
0.0992503
0.103003
0.106761
0.110517
0.114268
0.118009
0.121735
0.125442
0.129121
0.132768
0.136378
0.139945
0.143458
0.146909
0.150293
0.153605
0.156839
0.15999
0.163055
0.166025
0.168895
0.171664
0.174331
0.176887
0.179325
0.181644
0.183843
0.18592
0.187868
0.189684
0.191365
0.192906
0.194302
0.19555
0.196648
0.197594
0.19838
0.199006
0.199475
0.199796
0.199975
0.200016
0.199924
0.199716
0.199411
0.199029
0.198593
0.198135
0.197693
0.197284
0.196913
0.00414692
0.00417665
0.0041519
0.00413001
0.00410081
0.00406763
0.00405922
0.00409738
0.00419757
0.00437163
0.00463901
0.00501472
0.00550574
0.00611928
0.00686378
0.00774512
0.0087662
0.00992581
0.0112211
0.0126474
0.0142009
0.0158769
0.0176705
0.0195783
0.0215959
0.0237208
0.0259527
0.028291
0.030732
0.0332706
0.0359044
0.0386313
0.0414478
0.0443506
0.0473373
0.0504063
0.0535527
0.0567689
0.0600502
0.0633947
0.0667999
0.0702609
0.0737719
0.0773269
0.0809202
0.084546
0.0881987
0.0918731
0.0955668
0.0992775
0.102998
0.106719
0.110438
0.114154
0.11786
0.121553
0.125228
0.12888
0.132499
0.136083
0.139624
0.14311
0.146532
0.149887
0.153171
0.156378
0.159503
0.162541
0.165489
0.16834
0.171092
0.173741
0.17628
0.178699
0.180998
0.183179
0.185239
0.187172
0.188975
0.190645
0.192181
0.193575
0.194823
0.195922
0.196868
0.197655
0.198285
0.198764
0.199101
0.199302
0.19937
0.199311
0.199137
0.198865
0.198512
0.198093
0.197634
0.197163
0.196669
0.196134
0.0057426
0.00545068
0.00521613
0.00504777
0.00491653
0.00481023
0.00475121
0.00475706
0.00483663
0.00500035
0.00526133
0.00563081
0.00611888
0.00673264
0.00747555
0.00835173
0.00936485
0.0105156
0.0118015
0.0132181
0.01476
0.0164233
0.0182049
0.0201014
0.0221082
0.0242229
0.0264436
0.0287673
0.0311908
0.0337123
0.0363301
0.0390406
0.0418386
0.0447217
0.0476889
0.0507378
0.0538631
0.0570585
0.0603194
0.0636431
0.0670268
0.0704654
0.0739537
0.077488
0.0810611
0.0846648
0.0882945
0.0919465
0.0956166
0.0993009
0.102993
0.106685
0.110375
0.114061
0.117741
0.121407
0.125057
0.128684
0.132282
0.135844
0.139362
0.142824
0.146222
0.149554
0.152816
0.156002
0.159105
0.162123
0.165052
0.167888
0.170625
0.173258
0.17578
0.178183
0.180468
0.182635
0.184684
0.186607
0.188401
0.190064
0.191594
0.192984
0.194229
0.195325
0.196267
0.197055
0.197689
0.198177
0.198527
0.198744
0.19883
0.19879
0.198637
0.198383
0.198041
0.197621
0.197143
0.196627
0.196039
0.195337
0.00719239
0.00661614
0.00618852
0.00588103
0.0056426
0.00546296
0.00535132
0.0053158
0.00536733
0.00551512
0.0057642
0.0061233
0.00660325
0.00721063
0.0079486
0.00881972
0.00982557
0.010967
0.0122422
0.013648
0.0151794
0.0168326
0.0186039
0.0204897
0.0224873
0.0245948
0.0268082
0.0291223
0.0315342
0.0340432
0.0366474
0.0393432
0.0421272
0.0449976
0.0479523
0.050987
0.0540953
0.0572738
0.06052
0.0638294
0.0671978
0.0706212
0.0740944
0.0776124
0.0811685
0.0847547
0.0883668
0.0920015
0.0956537
0.0993176
0.102987
0.106656
0.110325
0.113991
0.11765
0.121296
0.124925
0.128532
0.132112
0.135655
0.139152
0.142595
0.145976
0.149292
0.152539
0.15571
0.158797
0.1618
0.164714
0.167536
0.170258
0.172876
0.175383
0.177775
0.180051
0.182211
0.184254
0.186171
0.187958
0.189615
0.191138
0.192521
0.19376
0.194849
0.195788
0.196577
0.197217
0.197713
0.198073
0.198301
0.198397
0.198368
0.198224
0.197977
0.197634
0.197201
0.196693
0.196124
0.195438
0.194579
0.00845426
0.00764097
0.00704702
0.00660964
0.00626601
0.00601124
0.00584374
0.00576513
0.00578471
0.00590891
0.00614225
0.00649076
0.00696077
0.00755806
0.00828747
0.00915125
0.0101495
0.0112812
0.0125454
0.0139395
0.0154606
0.0171051
0.0188681
0.020746
0.0227372
0.0248386
0.0270455
0.0293533
0.0317593
0.0342619
0.0368573
0.0395423
0.0423167
0.0451796
0.0481266
0.0511522
0.0542509
0.0574193
0.0606557
0.063956
0.0673152
0.0707291
0.0741928
0.0776999
0.0812426
0.0848149
0.0884142
0.0920367
0.0956756
0.0993243
0.102978
0.106633
0.110289
0.113942
0.117587
0.121217
0.124831
0.128424
0.131988
0.135514
0.138996
0.142425
0.145795
0.149102
0.152341
0.155502
0.15858
0.161571
0.164474
0.167283
0.169993
0.172597
0.175093
0.177478
0.17975
0.181909
0.183949
0.185863
0.187645
0.189294
0.19081
0.192186
0.193417
0.194502
0.195441
0.196232
0.196878
0.197382
0.197748
0.19798
0.19808
0.198054
0.197912
0.197663
0.197311
0.196858
0.196314
0.195688
0.194907
0.193906
0.00951378
0.00850387
0.00776381
0.00721443
0.00677536
0.00644129
0.00621677
0.00609696
0.00608206
0.00617832
0.00639265
0.00672826
0.00718753
0.00777494
0.00849467
0.00934888
0.0103379
0.0114598
0.012713
0.014096
0.0156068
0.0172419
0.0189977
0.0208713
0.0228595
0.024957
0.0271592
0.0294636
0.0318675
0.0343669
0.0369582
0.0396392
0.0424101
0.0452697
0.0482128
0.0512338
0.0543287
0.0574946
0.0607277
0.0640236
0.0673789
0.070789
0.0742474
0.0777469
0.0812812
0.0848454
0.0884373
0.0920523
0.0956828
0.099323
0.102969
0.106619
0.11027
0.113917
0.117554
0.121175
0.124779
0.128361
0.131914
0.135428
0.138899
0.142321
0.145688
0.148992
0.152227
0.155384
0.158455
0.16144
0.164335
0.167135
0.169834
0.17243
0.17492
0.177302
0.179575
0.181735
0.183775
0.185686
0.187463
0.189107
0.190616
0.191987
0.193215
0.194298
0.195238
0.196032
0.196683
0.19719
0.197558
0.19779
0.197889
0.197862
0.197717
0.197462
0.197095
0.196616
0.196032
0.195348
0.194478
0.193349
0.0103695
0.00919161
0.00832532
0.0076804
0.0071542
0.006746
0.00646401
0.00630073
0.00625191
0.00632145
0.00651426
0.00683324
0.00728066
0.0078584
0.00856842
0.00941255
0.010391
0.0115025
0.0127457
0.0141192
0.0156207
0.0172474
0.0189976
0.0208685
0.022855
0.0249512
0.0271531
0.0294579
0.0318619
0.0343604
0.0369512
0.0396341
0.0424078
0.0452683
0.0482113
0.0512329
0.0543295
0.0574975
0.0607329
0.064031
0.067388
0.0707988
0.0742557
0.0777521
0.0812834
0.0848461
0.0884369
0.0920502
0.0956787
0.099318
0.102966
0.106618
0.110271
0.113918
0.117554
0.121172
0.124772
0.128349
0.131895
0.135403
0.138869
0.14229
0.145658
0.148964
0.152199
0.155355
0.158426
0.161408
0.1643
0.167095
0.169789
0.172381
0.174869
0.177253
0.179528
0.181688
0.183727
0.185635
0.18741
0.18905
0.190557
0.191926
0.193154
0.194238
0.195178
0.195975
0.196626
0.197134
0.1975
0.197729
0.197825
0.197795
0.197647
0.197382
0.196997
0.196488
0.195862
0.195121
0.194169
0.192929
0.0110186
0.00970181
0.00872557
0.00799237
0.00739261
0.00691911
0.00657945
0.00637095
0.00628937
0.00633342
0.00650431
0.00680548
0.00723953
0.00780657
0.00850691
0.0093412
0.010309
0.0114105
0.0126448
0.0140101
0.0155044
0.017126
0.0188735
0.0207429
0.0227283
0.0248255
0.0270309
0.0293393
0.0317456
0.0342467
0.0368418
0.0395304
0.0423102
0.0451762
0.0481242
0.0511514
0.0542547
0.0574295
0.0606719
0.0639774
0.0673412
0.0707569
0.0742167
0.0777154
0.0812503
0.0848181
0.0884142
0.092032
0.0956654
0.0993116
0.102968
0.10663
0.11029
0.113942
0.117582
0.121205
0.124807
0.128384
0.131929
0.135437
0.138906
0.142331
0.145703
0.149013
0.152251
0.155409
0.158483
0.161469
0.164363
0.167159
0.169854
0.172446
0.174937
0.177323
0.179599
0.181758
0.183793
0.1857
0.187474
0.189117
0.190626
0.191997
0.193227
0.194312
0.195252
0.196046
0.196696
0.197202
0.197566
0.197793
0.197887
0.197854
0.197699
0.197421
0.197015
0.196475
0.195807
0.195013
0.193988
0.192651
0.0114592
0.0100317
0.00895893
0.0081476
0.0074825
0.00695069
0.00655871
0.00630693
0.00619164
0.00620953
0.00635982
0.00664386
0.00706331
0.00761848
0.0083087
0.00913321
0.010092
0.0111852
0.0124117
0.0137702
0.0152602
0.0168806
0.018628
0.0204974
0.0224847
0.0245858
0.0267965
0.0291106
0.0315225
0.0340307
0.0366351
0.0393334
0.0421222
0.0449974
0.0479556
0.050994
0.0541083
0.0572943
0.0605484
0.0638656
0.0672399
0.0706641
0.0741316
0.0776392
0.0811846
0.0847637
0.0883702
0.0919983
0.0956433
0.0993026
0.102973
0.106647
0.110319
0.113982
0.117632
0.121265
0.124876
0.128459
0.13201
0.135525
0.139001
0.142434
0.145813
0.149129
0.152371
0.155537
0.158619
0.161614
0.164517
0.167321
0.170023
0.172621
0.175115
0.177504
0.179779
0.181936
0.183969
0.185877
0.187656
0.189305
0.19082
0.192196
0.193428
0.194513
0.195451
0.196243
0.196891
0.197396
0.197759
0.197983
0.198074
0.198036
0.197872
0.197578
0.197147
0.196576
0.195868
0.195025
0.193936
0.192516
0.0116903
0.0101752
0.00902563
0.00814527
0.0074175
0.006834
0.00639753
0.00610612
0.00595708
0.00594861
0.00607861
0.00634587
0.00675064
0.00729314
0.00797239
0.00878756
0.00973901
0.0108256
0.0120465
0.0134013
0.0148902
0.0165117
0.0182609
0.0201334
0.0221264
0.0242354
0.0264534
0.0287747
0.0311964
0.0337174
0.0363358
0.0390476
0.0418495
0.0447386
0.0477118
0.0507656
0.0538953
0.0570971
0.0603673
0.0636997
0.0670871
0.0705235
0.0740044
0.0775275
0.0810897
0.0846851
0.0883071
0.0919508
0.0956127
0.0992897
0.102977
0.106667
0.110353
0.114032
0.117699
0.121348
0.124973
0.128569
0.132133
0.135661
0.13915
0.142594
0.145982
0.149306
0.152557
0.155735
0.158832
0.161843
0.164761
0.16758
0.170294
0.172903
0.175404
0.177795
0.180071
0.182228
0.184264
0.186178
0.187967
0.189626
0.191148
0.192528
0.193762
0.194847
0.195784
0.196576
0.197224
0.197728
0.19809
0.198311
0.198396
0.19835
0.198171
0.197856
0.197399
0.196795
0.19605
0.195163
0.194017
0.192526
0.0117141
0.0101313
0.00892141
0.00798094
0.00719719
0.00656692
0.00609085
0.00576422
0.00558438
0.00555011
0.00565911
0.00590917
0.00629927
0.00682879
0.00749699
0.00830376
0.00924846
0.0103299
0.0115477
0.0129028
0.0143939
0.0160178
0.0177711
0.0196511
0.0216537
0.0237725
0.0260008
0.0283342
0.0307711
0.0333094
0.0359455
0.0386751
0.0414953
0.0444036
0.0473963
0.0504695
0.0536192
0.0568412
0.0601311
0.0634817
0.0668858
0.0703394
0.07384
0.0773849
0.0809693
0.084586
0.0882287
0.0918934
0.0955771
0.0992751
0.102981
0.10669
0.110396
0.114096
0.117786
0.121457
0.125103
0.128719
0.132302
0.13585
0.139356
0.142814
0.146214
0.149549
0.152816
0.156011
0.15913
0.162162
0.1651
0.167938
0.170671
0.173294
0.175806
0.178204
0.180485
0.182648
0.184692
0.186617
0.188417
0.190086
0.191615
0.192998
0.194234
0.195321
0.19626
0.197054
0.197704
0.198209
0.198568
0.198783
0.198859
0.1988
0.198604
0.198265
0.19778
0.197144
0.196363
0.195435
0.194238
0.192685
0.0115425
0.00990122
0.0086394
0.00765206
0.00682142
0.00614802
0.00563529
0.00527762
0.00507045
0.00501151
0.00509936
0.00533162
0.0057064
0.00622316
0.00688157
0.00768064
0.0086189
0.009697
0.0109151
0.0122727
0.0137675
0.0153965
0.0171578
0.0190487
0.0210633
0.0231945
0.0254371
0.0277884
0.0302457
0.0328051
0.0354625
0.0382144
0.041058
0.0439902
0.0470067
0.0501041
0.0532784
0.0565251
0.0598381
0.0632104
0.0666364
0.0701141
0.0736416
0.0772146
0.0808264
0.0844699
0.0881393
0.091831
0.095541
0.0992635
0.102993
0.106725
0.110457
0.114184
0.117901
0.1216
0.125272
0.128914
0.132523
0.136095
0.139622
0.143098
0.146515
0.149868
0.153155
0.156374
0.159517
0.162574
0.165536
0.168397
0.171151
0.173794
0.176322
0.178733
0.181026
0.183201
0.185258
0.187195
0.189007
0.190682
0.192214
0.193601
0.194841
0.195933
0.196877
0.197675
0.198328
0.198833
0.199188
0.199395
0.19946
0.199386
0.199171
0.198808
0.198295
0.197628
0.196812
0.195845
0.194603
0.192995
0.0111868
0.00948852
0.00818113
0.00715555
0.00628612
0.00557532
0.00502891
0.00464229
0.0044099
0.00432807
0.00439508
0.0046093
0.00496934
0.00547436
0.00612367
0.00691565
0.00784974
0.00892698
0.0101472
0.0115082
0.0130079
0.0146454
0.0164187
0.0183228
0.020351
0.0224978
0.0247598
0.0271337
0.029615
0.0321988
0.0348814
0.0376598
0.040531
0.0434911
0.0465359
0.0496625
0.0528667
0.0561422
0.0594824
0.0628817
0.0663367
0.0698465
0.0734082
0.0770152
0.0806602
0.0843369
0.0880399
0.0917644
0.0955056
0.0992572
0.103015
0.106777
0.110541
0.114302
0.118051
0.121781
0.125485
0.129158
0.132798
0.136398
0.139951
0.143449
0.14689
0.150267
0.153579
0.156825
0.159994
0.163077
0.166064
0.16895
0.171731
0.174398
0.176949
0.17938
0.181691
0.183883
0.185956
0.187906
0.189725
0.191404
0.19294
0.194332
0.195579
0.19668
0.197632
0.198435
0.199089
0.199592
0.199941
0.20014
0.200194
0.200106
0.199872
0.199486
0.198945
0.198248
0.197398
0.196395
0.195113
0.193455
0.0106499
0.00889994
0.00755033
0.00648944
0.00558699
0.00484442
0.00426766
0.00385314
0.0035961
0.00349246
0.00353994
0.00373754
0.00408444
0.00457919
0.00522033
0.00600702
0.00693999
0.0080186
0.00924132
0.0106066
0.0121142
0.0137633
0.0155502
0.0174686
0.0195131
0.0216799
0.0239656
0.0263651
0.0288727
0.0314839
0.0341954
0.0370039
0.0399059
0.0428977
0.0459757
0.0491368
0.0523754
0.055684
0.0590567
0.06249
0.0659821
0.0695315
0.0731334
0.07678
0.0804644
0.0841811
0.0879242
0.0916871
0.0954646
0.0992513
0.103044
0.106844
0.110647
0.114446
0.118232
0.121997
0.125736
0.129446
0.133122
0.136756
0.140339
0.143867
0.147338
0.150746
0.154088
0.157362
0.160558
0.163665
0.166679
0.169595
0.172405
0.175103
0.177683
0.180142
0.182478
0.184692
0.186781
0.188743
0.19057
0.192256
0.193798
0.195199
0.196457
0.197568
0.198527
0.199333
0.199986
0.200486
0.200831
0.201024
0.201068
0.200967
0.200714
0.200304
0.199735
0.199008
0.198126
0.197089
0.195768
0.194065
0.00993266
0.00813829
0.006749
0.00565437
0.00472098
0.00394953
0.00334471
0.00290321
0.00262202
0.00249742
0.00252744
0.00271121
0.00304711
0.0035334
0.00416898
0.00495391
0.0058876
0.00696822
0.00819447
0.00956664
0.0110851
0.0127474
0.0145483
0.0164829
0.0185479
0.0207393
0.0230516
0.0254784
0.0280145
0.0306562
0.0333998
0.0362412
0.0391771
0.0422049
0.0453211
0.0485212
0.051798
0.0551441
0.0585555
0.0620305
0.065567
0.0691616
0.0728085
0.0764998
0.0802296
0.0839925
0.0877812
0.0915878
0.0954075
0.099237
0.103074
0.106919
0.110767
0.114608
0.118435
0.122241
0.126021
0.129773
0.13349
0.137162
0.140783
0.144349
0.147858
0.151303
0.154678
0.157982
0.161205
0.16434
0.167384
0.170333
0.173179
0.175913
0.178528
0.18102
0.183387
0.185625
0.187735
0.189712
0.19155
0.193246
0.194801
0.196216
0.197487
0.198608
0.199571
0.200378
0.201031
0.201529
0.201871
0.20206
0.202097
0.201982
0.201709
0.201275
0.200677
0.199919
0.199004
0.197933
0.196574
0.19483
0.00903643
0.00720122
0.00577682
0.00465042
0.00368542
0.00288472
0.00225282
0.0017854
0.001481
0.00133745
0.00135259
0.0015249
0.00185244
0.00233365
0.00296751
0.00375322
0.00468847
0.00577208
0.00700457
0.00838686
0.0099179
0.0115939
0.0134107
0.0153657
0.0174556
0.0196746
0.0220156
0.0244723
0.0270402
0.0297152
0.0324933
0.0353704
0.0383442
0.0414127
0.0445714
0.0478137
0.0511323
0.0545211
0.0579779
0.0615013
0.0650875
0.0687313
0.0724271
0.0761682
0.0799488
0.0837632
0.0876024
0.0914581
0.0953272
0.099208
0.103098
0.106995
0.110893
0.114782
0.118655
0.122508
0.126336
0.130135
0.133899
0.137618
0.141284
0.144897
0.14845
0.151937
0.155349
0.158685
0.161939
0.165107
0.168186
0.171172
0.174058
0.176832
0.179487
0.182016
0.184416
0.186684
0.188817
0.190814
0.192671
0.194385
0.195957
0.197388
0.198672
0.1998
0.200767
0.201575
0.202229
0.20273
0.203073
0.203259
0.203289
0.203159
0.202866
0.202406
0.20178
0.20099
0.200042
0.198936
0.19754
0.195754
0.00796095
0.00608819
0.00463126
0.00347406
0.00247707
0.00164559
0.000986289
0.000494269
0.000168538
8.56708e-06
1.14222e-05
0.000174678
0.000497114
0.000977038
0.00161213
0.00239954
0.00333769
0.00442725
0.00566936
0.0070637
0.00860799
0.0102997
0.012137
0.0141176
0.0162359
0.0184849
0.0208573
0.0233476
0.0259508
0.028662
0.0314774
0.0343941
0.0374107
0.0405245
0.0437288
0.0470164
0.0503811
0.0538188
0.0573274
0.0609044
0.0645439
0.0682405
0.0719897
0.0757859
0.0796224
0.0834925
0.0873868
0.0912981
0.0952246
0.0991652
0.103116
0.107071
0.111024
0.114966
0.118893
0.1228
0.126682
0.130534
0.134352
0.138124
0.141845
0.14551
0.149114
0.152646
0.1561
0.159474
0.162766
0.165972
0.169092
0.17212
0.175049
0.177864
0.180559
0.183127
0.185563
0.187864
0.190028
0.192051
0.193932
0.195669
0.197262
0.19871
0.200005
0.201139
0.202111
0.202924
0.203584
0.20409
0.204436
0.20462
0.20464
0.204495
0.204181
0.203696
0.203042
0.202221
0.201239
0.200098
0.198666
0.196838
0.00670923
0.00479967
0.00330915
0.00212125
0.00109264
0.000229414
-0.000457907
-0.000972811
-0.00131724
-0.00149168
-0.00149888
-0.00134137
-0.00102072
-0.000539932
9.71636e-05
0.000887585
0.00183174
0.00293084
0.00418471
0.00559198
0.00715171
0.00886383
0.0107271
0.0127371
0.0148867
0.0171686
0.0195765
0.0221043
0.024746
0.0274967
0.0303538
0.0333156
0.0363801
0.0395428
0.0427959
0.046133
0.0495499
0.053043
0.0566092
0.0602438
0.0639403
0.0676941
0.0715023
0.075359
0.0792561
0.0831861
0.0871408
0.0911145
0.0951064
0.0991135
0.10313
0.107149
0.111162
0.115164
0.119152
0.123121
0.127064
0.130976
0.134853
0.138685
0.142465
0.146189
0.149848
0.153431
0.156933
0.160353
0.163691
0.166943
0.170108
0.173181
0.176153
0.17901
0.181745
0.184353
0.18683
0.189169
0.191368
0.193425
0.195335
0.197097
0.198711
0.200175
0.201482
0.202626
0.203606
0.204429
0.205099
0.205612
0.205959
0.206138
0.206147
0.205987
0.205653
0.205144
0.204463
0.203611
0.202594
0.201418
0.199948
0.19808
0.00528383
0.00333536
0.0018091
0.000588968
-0.000471187
-0.00136509
-0.00207918
-0.00261537
-0.0029768
-0.00316405
-0.00317865
-0.00302386
-0.00270356
-0.00222169
-0.00158188
-0.000785421
0.000168158
0.00127873
0.00254533
0.00396783
0.00554773
0.00728566
0.00917863
0.0112205
0.0134041
0.015723
0.0181704
0.0207389
0.0234225
0.0262174
0.0291222
0.0321351
0.0352521
0.0384673
0.0417736
0.0451665
0.0486426
0.0521975
0.0558257
0.0595219
0.0632804
0.0670977
0.0709711
0.0748935
0.0788553
0.0828499
0.0868709
0.0909142
0.0949779
0.0990566
0.103143
0.10723
0.111311
0.11538
0.119436
0.123474
0.127484
0.131462
0.135404
0.139302
0.143146
0.146932
0.150651
0.154291
0.157849
0.161325
0.164718
0.168023
0.171238
0.174358
0.177373
0.180273
0.183051
0.185704
0.188225
0.190608
0.192848
0.194941
0.196883
0.198672
0.200308
0.20179
0.203113
0.204272
0.205267
0.206104
0.206784
0.207301
0.207647
0.207819
0.207817
0.20764
0.207287
0.206755
0.206046
0.205162
0.20411
0.202899
0.20139
0.199481
0.0036821
0.00169386
0.000129941
-0.00112448
-0.00221529
-0.00313721
-0.00387627
-0.0044327
-0.0048094
-0.00500709
-0.00502731
-0.00487482
-0.00455512
-0.00407164
-0.00342662
-0.00262115
-0.00165656
-0.000533761
0.000747732
0.00219006
0.00379534
0.0055625
0.007487
0.00956296
0.0117842
0.0141437
0.0166333
0.0192456
0.0219755
0.0248208
0.0277798
0.0308488
0.0340222
0.0372944
0.0406603
0.0441163
0.0476582
0.0512798
0.0549743
0.0587373
0.0625644
0.066452
0.0703963
0.074389
0.0784205
0.0824855
0.0865795
0.0906986
0.094839
0.0989932
0.103153
0.107314
0.11147
0.115616
0.119748
0.12386
0.127943
0.131993
0.136006
0.139974
0.143887
0.147739
0.151522
0.155227
0.15885
0.162392
0.165848
0.169212
0.17248
0.175649
0.178711
0.181658
0.184485
0.187188
0.189759
0.192188
0.194471
0.196603
0.198578
0.200397
0.202059
0.203564
0.204908
0.206087
0.2071
0.207951
0.20864
0.20916
0.209503
0.209667
0.209654
0.209463
0.209091
0.208535
0.207798
0.206881
0.205794
0.204545
0.202999
0.201047
0.00189935
-0.000127597
-0.00172897
-0.00301801
-0.00413857
-0.00508671
-0.00584942
-0.00642452
-0.00681417
-0.00702069
-0.0070471
-0.00689822
-0.00657866
-0.00609146
-0.00543877
-0.00462322
-0.00364698
-0.00250968
-0.0012089
0.000258093
0.00189189
0.00368986
0.00564778
0.00776082
0.0100226
0.0124249
0.0149591
0.017619
0.0204012
0.0233032
0.0263214
0.0294503
0.0326845
0.0360198
0.0394525
0.0429781
0.0465908
0.050283
0.0540488
0.0578849
0.0617878
0.0657522
0.0697727
0.0738406
0.0779477
0.0820901
0.0862639
0.0904641
0.0946854
0.0989193
0.103159
0.107401
0.11164
0.11587
0.120085
0.124277
0.12844
0.132568
0.136657
0.140699
0.144684
0.148607
0.152461
0.156239
0.159936
0.163549
0.167074
0.170501
0.173827
0.17705
0.180165
0.183166
0.186048
0.188806
0.19143
0.193909
0.196236
0.198407
0.200419
0.202271
0.203963
0.205496
0.206866
0.208067
0.209099
0.209964
0.21066
0.211182
0.211523
0.211682
0.21166
0.211455
0.211064
0.210485
0.20972
0.20877
0.207647
0.206362
0.204778
0.202781
-6.57955e-05
-0.00213103
-0.00376796
-0.00509086
-0.00624146
-0.00721476
-0.00799912
-0.00859135
-0.00899344
-0.00920958
-0.00924343
-0.00909814
-0.0087771
-0.00828429
-0.00762322
-0.00679715
-0.00580684
-0.00465048
-0.00332558
-0.00183086
-0.000167053
0.00166359
0.00365789
0.00581089
0.00811506
0.0105619
0.0131443
0.0158574
0.0186977
0.021661
0.0247417
0.0279344
0.031235
0.0346404
0.0381462
0.0417461
0.0454332
0.0492006
0.0530436
0.05696
0.0609451
0.0649919
0.0690936
0.0732427
0.0774327
0.0816603
0.0859201
0.0902062
0.0945127
0.098832
0.103158
0.107489
0.111819
0.116139
0.120443
0.124722
0.12897
0.133181
0.137353
0.141473
0.145535
0.149535
0.153468
0.157326
0.161103
0.164793
0.168389
0.171883
0.175274
0.178559
0.181736
0.184799
0.187742
0.190559
0.193238
0.195767
0.19814
0.200353
0.202405
0.204294
0.206022
0.207586
0.208982
0.210205
0.211255
0.212132
0.212837
0.213363
0.213704
0.213859
0.213828
0.21361
0.213201
0.2126
0.211807
0.210826
0.209669
0.20835
0.206728
0.204687
-0.00221133
-0.0043174
-0.00598917
-0.00734504
-0.00852588
-0.00952316
-0.0103274
-0.0109373
-0.011354
-0.0115812
-0.0116222
-0.0114791
-0.0111556
-0.0106568
-0.00998682
-0.00914774
-0.00813885
-0.00695865
-0.00560632
-0.00408193
-0.00238587
-0.000519282
0.00151461
0.00370977
0.00605835
0.00855328
0.0111891
0.0139611
0.0168639
0.0198915
0.0230383
0.0263
0.0296736
0.0331553
0.0367389
0.0404166
0.0441823
0.0480308
0.0519581
0.0559612
0.060034
0.0641681
0.0683571
0.0725944
0.076875
0.0811945
0.085546
0.0899228
0.0943201
0.0987319
0.103153
0.107581
0.112007
0.116422
0.12082
0.125192
0.129531
0.133833
0.138092
0.142298
0.146444
0.150527
0.154546
0.15849
0.162352
0.166123
0.169795
0.173361
0.176823
0.180181
0.183429
0.186561
0.189569
0.192447
0.195183
0.197765
0.200187
0.202448
0.204546
0.206478
0.208244
0.20984
0.211262
0.212505
0.213572
0.214464
0.215179
0.215712
0.216054
0.216205
0.216165
0.215934
0.215508
0.214885
0.214067
0.213056
0.211867
0.210514
0.208853
0.206767
-0.00453582
-0.00668777
-0.00839552
-0.00978301
-0.0109937
-0.0120156
-0.0128408
-0.0134704
-0.0139038
-0.0141424
-0.0141893
-0.0140477
-0.013722
-0.0132166
-0.0125351
-0.0116786
-0.0106467
-0.0094396
-0.00805763
-0.0065008
-0.00476862
-0.00286224
-0.000785912
0.00145404
0.0038511
0.0063999
0.00909511
0.0119303
0.0148985
0.0179939
0.0212119
0.0245494
0.0280025
0.0315655
0.0352308
0.0389908
0.0428409
0.0467773
0.0507956
0.054891
0.0590561
0.063283
0.0675659
0.0718991
0.0762768
0.080694
0.0851425
0.089616
0.0941113
0.0986235
0.103147
0.107677
0.112204
0.11672
0.121217
0.125689
0.130127
0.134526
0.13888
0.143179
0.147417
0.151593
0.155704
0.159739
0.163689
0.167544
0.171296
0.174942
0.178485
0.181923
0.18525
0.188455
0.191532
0.194473
0.197269
0.199909
0.202389
0.204705
0.206854
0.208832
0.210636
0.212263
0.213711
0.214976
0.216063
0.216973
0.217701
0.218241
0.218585
0.218732
0.218684
0.21844
0.217998
0.217354
0.216511
0.215471
0.21425
0.212863
0.211162
0.209027
-0.00703942
-0.00924282
-0.0109889
-0.0124072
-0.0136485
-0.0146988
-0.0155482
-0.0161987
-0.016649
-0.0168987
-0.0169513
-0.0168116
-0.0164831
-0.0159689
-0.0152718
-0.0143938
-0.0133364
-0.0121004
-0.0106861
-0.00909283
-0.00732021
-0.00537051
-0.00324837
-0.000958858
0.00149308
0.00410214
0.00686147
0.00976308
0.0128004
0.0159689
0.0192652
0.0226852
0.0262233
0.029872
0.0336238
0.0374723
0.0414141
0.0454454
0.0495604
0.0537528
0.0580152
0.062341
0.0667252
0.0711611
0.075642
0.0801619
0.0847135
0.0892917
0.0938936
0.098514
0.103147
0.107784
0.112417
0.117037
0.121641
0.126219
0.130764
0.135268
0.139724
0.144123
0.148462
0.152739
0.156947
0.161076
0.165117
0.169061
0.1729
0.176633
0.180263
0.183788
0.187197
0.190478
0.193625
0.196634
0.199495
0.202202
0.204747
0.207124
0.209329
0.211354
0.213196
0.214856
0.216332
0.217624
0.218735
0.219665
0.220407
0.220954
0.221299
0.221444
0.22139
0.221136
0.220679
0.220016
0.219147
0.218078
0.216824
0.215402
0.213659
0.211472
-0.00972282
-0.0119831
-0.0137717
-0.0152231
-0.0164977
-0.0175802
-0.0184565
-0.0191277
-0.0195941
-0.0198555
-0.0199146
-0.0197758
-0.0194419
-0.0189156
-0.0182
-0.0172988
-0.0162144
-0.0149474
-0.0134972
-0.0118633
-0.0100466
-0.00804973
-0.00587648
-0.00353055
-0.001017
0.00165733
0.00448427
0.00745613
0.010568
0.0138168
0.0171984
0.0207069
0.0243346
0.0280741
0.0319188
0.0358634
0.0399043
0.0440365
0.0482534
0.0525481
0.0569142
0.061346
0.0658384
0.0703833
0.0749729
0.0796018
0.0842641
0.0889559
0.0936733
0.0984091
0.103156
0.107906
0.112649
0.11738
0.122096
0.126788
0.131445
0.13606
0.140625
0.145132
0.149578
0.15396
0.158271
0.162498
0.166634
0.170671
0.174604
0.178432
0.182156
0.185769
0.189261
0.192619
0.195841
0.198924
0.20186
0.204641
0.207257
0.2097
0.211962
0.214036
0.21592
0.217617
0.219127
0.220452
0.22159
0.22254
0.223296
0.22385
0.224198
0.224343
0.224286
0.224024
0.223552
0.222868
0.221974
0.220875
0.219589
0.21813
0.216343
0.2141
-0.0125895
-0.0149118
-0.0167491
-0.0182389
-0.019549
-0.0206648
-0.0215688
-0.0222611
-0.0227438
-0.023017
-0.0230819
-0.0229413
-0.0225989
-0.0220583
-0.0213236
-0.0203989
-0.0192859
-0.0179848
-0.0164951
-0.0148174
-0.0129527
-0.0109034
-0.00867214
-0.00626306
-0.00368294
-0.000939984
0.00195821
0.00500579
0.00819931
0.0115353
0.015008
0.0186096
0.0223321
0.0261687
0.0301139
0.0341623
0.0383088
0.0425475
0.0468716
0.0512755
0.0557529
0.060298
0.0649048
0.0695645
0.0742693
0.0790146
0.0837964
0.0886108
0.0934515
0.0983085
0.103174
0.10804
0.1129
0.117749
0.122583
0.127393
0.132169
0.1369
0.141579
0.146199
0.150758
0.15525
0.159668
0.163999
0.168236
0.172374
0.176409
0.180338
0.184159
0.187864
0.19144
0.194881
0.198184
0.20135
0.204369
0.20723
0.209921
0.212432
0.214753
0.21688
0.218814
0.220556
0.222108
0.223468
0.224635
0.225605
0.226374
0.226937
0.227292
0.227441
0.227381
0.22711
0.226622
0.225916
0.224995
0.223865
0.222544
0.221047
0.219212
0.216911
-0.0156485
-0.0180362
-0.0199275
-0.0214607
-0.0228075
-0.023956
-0.0248883
-0.0256028
-0.0261014
-0.0263845
-0.0264525
-0.0263079
-0.0259556
-0.0254005
-0.024647
-0.0236977