/*--------------------------------*- C++ -*----------------------------------*\
| =========                 |                                                 |
| \\      /  F ield         | OpenFOAM: The Open Source CFD Toolbox           |
|  \\    /   O peration     | Version:  2212                                  |
|   \\  /    A nd           | Website:  www.openfoam.com                      |
|    \\/     M anipulation  |                                                 |
\*---------------------------------------------------------------------------*/
FoamFile
{
    version     2.0;
    format      ascii;
    arch        "LSB;label=32;scalar=64";
    class       volVectorField;
    location    "0.0045";
    object      U;
}
// * * * * * * * * * * * * * * * * * * * * * * * * * * * * * * * * * * * * * //

dimensions      [0 1 -1 0 0 0 0];

internalField   nonuniform List<vector> 
10000
(
(6.18174e-06 -2.41702e-06 0)
(8.56943e-06 8.59726e-06 0)
(-9.69178e-06 1.76119e-05 0)
(-4.08368e-05 1.70994e-05 0)
(-7.63462e-05 1.4714e-05 0)
(-0.00011359 1.3541e-05 0)
(-0.000154213 1.3528e-05 0)
(-0.000199287 1.40643e-05 0)
(-0.000248872 1.49632e-05 0)
(-0.000302734 1.59495e-05 0)
(-0.000360378 1.68763e-05 0)
(-0.000421 1.7721e-05 0)
(-0.000484003 1.83432e-05 0)
(-0.000548794 1.87911e-05 0)
(-0.00061471 1.91735e-05 0)
(-0.000681337 1.93583e-05 0)
(-0.00074821 1.93133e-05 0)
(-0.000814802 1.91544e-05 0)
(-0.000880933 1.89437e-05 0)
(-0.000946358 1.86864e-05 0)
(-0.00101076 1.84403e-05 0)
(-0.00107401 1.81782e-05 0)
(-0.00113597 1.78132e-05 0)
(-0.00119648 1.73816e-05 0)
(-0.00125544 1.69571e-05 0)
(-0.00131278 1.65204e-05 0)
(-0.00136845 1.60233e-05 0)
(-0.00142234 1.54685e-05 0)
(-0.00147439 1.48891e-05 0)
(-0.00152456 1.43025e-05 0)
(-0.00157279 1.37266e-05 0)
(-0.00161903 1.31968e-05 0)
(-0.00166323 1.26955e-05 0)
(-0.00170535 1.21564e-05 0)
(-0.00174536 1.15312e-05 0)
(-0.00178316 1.08324e-05 0)
(-0.0018187 1.01334e-05 0)
(-0.00185195 9.46667e-06 0)
(-0.00188285 8.80788e-06 0)
(-0.00191135 8.13538e-06 0)
(-0.0019374 7.41727e-06 0)
(-0.00196094 6.64985e-06 0)
(-0.00198195 5.85982e-06 0)
(-0.0020004 5.05279e-06 0)
(-0.00201624 4.26123e-06 0)
(-0.00202948 3.50698e-06 0)
(-0.00204007 2.73784e-06 0)
(-0.002048 1.93381e-06 0)
(-0.00205328 1.12066e-06 0)
(-0.00205586 2.91185e-07 0)
(-0.00205573 -5.387e-07 0)
(-0.00205293 -1.33649e-06 0)
(-0.00204744 -2.1368e-06 0)
(-0.00203922 -2.96449e-06 0)
(-0.00202831 -3.77949e-06 0)
(-0.00201474 -4.57939e-06 0)
(-0.00199846 -5.39912e-06 0)
(-0.00197954 -6.21866e-06 0)
(-0.001958 -7.00659e-06 0)
(-0.00193383 -7.78264e-06 0)
(-0.00190704 -8.55706e-06 0)
(-0.00187771 -9.30712e-06 0)
(-0.00184588 -1.00402e-05 0)
(-0.00181155 -1.0782e-05 0)
(-0.00177475 -1.15148e-05 0)
(-0.00173557 -1.22103e-05 0)
(-0.00169405 -1.28863e-05 0)
(-0.00165022 -1.35653e-05 0)
(-0.00160413 -1.42282e-05 0)
(-0.00155587 -1.48562e-05 0)
(-0.00150551 -1.5466e-05 0)
(-0.00145307 -1.60694e-05 0)
(-0.00139863 -1.66497e-05 0)
(-0.00134227 -1.72013e-05 0)
(-0.00128406 -1.77466e-05 0)
(-0.00122403 -1.82919e-05 0)
(-0.00116227 -1.8809e-05 0)
(-0.00109886 -1.92822e-05 0)
(-0.00103394 -1.97328e-05 0)
(-0.000967616 -2.01752e-05 0)
(-0.000900028 -2.05783e-05 0)
(-0.000831362 -2.08984e-05 0)
(-0.000761853 -2.11264e-05 0)
(-0.000691773 -2.12746e-05 0)
(-0.000621429 -2.13289e-05 0)
(-0.000551192 -2.12447e-05 0)
(-0.000481522 -2.09892e-05 0)
(-0.000412978 -2.05572e-05 0)
(-0.000346217 -1.99295e-05 0)
(-0.000281994 -1.90462e-05 0)
(-0.000221174 -1.78357e-05 0)
(-0.000164748 -1.62521e-05 0)
(-0.000113821 -1.42764e-05 0)
(-6.95804e-05 -1.18765e-05 0)
(-3.32738e-05 -8.99088e-06 0)
(-6.14513e-06 -5.59666e-06 0)
(1.07058e-05 -1.79359e-06 0)
(1.6722e-05 2.10603e-06 0)
(1.29598e-05 5.1513e-06 0)
(4.589e-06 4.54082e-06 0)
(1.86076e-05 -1.56741e-05 0)
(2.80202e-05 8.39851e-06 0)
(5.95175e-06 4.49105e-05 0)
(-5.03646e-05 6.07688e-05 0)
(-0.000131681 6.86291e-05 0)
(-0.000230799 7.6686e-05 0)
(-0.00034691 8.56023e-05 0)
(-0.000478566 9.49391e-05 0)
(-0.000624187 0.000103698 0)
(-0.000782002 0.000111423 0)
(-0.000949758 0.000118042 0)
(-0.00112555 0.00012329 0)
(-0.00130744 0.000127222 0)
(-0.00149358 0.000130035 0)
(-0.00168262 0.000131775 0)
(-0.00187313 0.000132607 0)
(-0.00206382 0.000132616 0)
(-0.00225386 0.000131922 0)
(-0.00244238 0.000130587 0)
(-0.00262865 0.000128844 0)
(-0.00281215 0.000126744 0)
(-0.00299236 0.000124331 0)
(-0.00316882 0.000121614 0)
(-0.0033412 0.000118654 0)
(-0.00350919 0.000115526 0)
(-0.00367251 0.000112238 0)
(-0.00383095 0.000108794 0)
(-0.00398426 0.000105222 0)
(-0.00413226 0.000101507 0)
(-0.00427479 9.76441e-05 0)
(-0.00441172 9.36714e-05 0)
(-0.00454289 8.96469e-05 0)
(-0.00466814 8.55871e-05 0)
(-0.00478733 8.14219e-05 0)
(-0.00490032 7.71163e-05 0)
(-0.00500698 7.26797e-05 0)
(-0.00510715 6.81244e-05 0)
(-0.00520073 6.34837e-05 0)
(-0.00528764 5.87575e-05 0)
(-0.00536774 5.3955e-05 0)
(-0.0054409 4.90956e-05 0)
(-0.00550702 4.41335e-05 0)
(-0.00556601 3.90626e-05 0)
(-0.00561785 3.39332e-05 0)
(-0.00566244 2.87581e-05 0)
(-0.00569968 2.35556e-05 0)
(-0.00572956 1.83389e-05 0)
(-0.00575203 1.30752e-05 0)
(-0.00576699 7.76734e-06 0)
(-0.00577445 2.45477e-06 0)
(-0.00577445 -2.86453e-06 0)
(-0.00576691 -8.20471e-06 0)
(-0.00575187 -1.35459e-05 0)
(-0.00572941 -1.88645e-05 0)
(-0.00569946 -2.41607e-05 0)
(-0.00566199 -2.9445e-05 0)
(-0.00561714 -3.47126e-05 0)
(-0.00556498 -3.9947e-05 0)
(-0.00550544 -4.51422e-05 0)
(-0.0054386 -5.02919e-05 0)
(-0.00536462 -5.53732e-05 0)
(-0.00528354 -6.03766e-05 0)
(-0.00519535 -6.53213e-05 0)
(-0.00510026 -7.02065e-05 0)
(-0.00499844 -7.49939e-05 0)
(-0.00488989 -7.96698e-05 0)
(-0.0047747 -8.42634e-05 0)
(-0.00465312 -8.87804e-05 0)
(-0.00452534 -9.31784e-05 0)
(-0.00439139 -9.74335e-05 0)
(-0.00425137 -0.000101569 0)
(-0.00410557 -0.000105597 0)
(-0.00395421 -0.000109496 0)
(-0.00379741 -0.000113248 0)
(-0.0036353 -0.000116868 0)
(-0.0034682 -0.000120353 0)
(-0.00329642 -0.000123664 0)
(-0.00312019 -0.000126761 0)
(-0.00293976 -0.00012963 0)
(-0.00275556 -0.000132241 0)
(-0.00256809 -0.000134521 0)
(-0.00237784 -0.000136378 0)
(-0.00218535 -0.00013774 0)
(-0.00199136 -0.000138531 0)
(-0.00179685 -0.000138638 0)
(-0.00160295 -0.000137902 0)
(-0.00141086 -0.000136153 0)
(-0.00122204 -0.000133227 0)
(-0.00103825 -0.000128937 0)
(-0.000861544 -0.00012306 0)
(-0.000694182 -0.000115371 0)
(-0.000538584 -0.000105674 0)
(-0.000397388 -9.38059e-05 0)
(-0.000273411 -7.96421e-05 0)
(-0.000169474 -6.31618e-05 0)
(-8.8089e-05 -4.45931e-05 0)
(-3.10608e-05 -2.46682e-05 0)
(1.16069e-06 -5.02235e-06 0)
(1.08169e-05 1.05625e-05 0)
(5.32136e-06 1.30331e-05 0)
(2.19194e-05 -4.07452e-05 0)
(3.46034e-05 6.38491e-06 0)
(1.04437e-05 8.8891e-05 0)
(-6.34275e-05 0.000142316 0)
(-0.000179942 0.000180966 0)
(-0.000331311 0.000214967 0)
(-0.0005137 0.00024702 0)
(-0.000723153 0.000276476 0)
(-0.000955874 0.000302489 0)
(-0.00120782 0.000324745 0)
(-0.00147572 0.000342875 0)
(-0.00175606 0.000357082 0)
(-0.00204556 0.000367675 0)
(-0.00234174 0.000374878 0)
(-0.00264209 0.000379184 0)
(-0.00294451 0.000381045 0)
(-0.00324729 0.000380707 0)
(-0.00354883 0.000378501 0)
(-0.00384786 0.000374775 0)
(-0.00414334 0.000369709 0)
(-0.00443437 0.00036357 0)
(-0.00472014 0.000356536 0)
(-0.00500003 0.000348699 0)
(-0.00527345 0.000340196 0)
(-0.0055399 0.000331142 0)
(-0.00579897 0.000321602 0)
(-0.00605029 0.000311631 0)
(-0.00629348 0.00030129 0)
(-0.00652822 0.00029059 0)
(-0.00675425 0.000279514 0)
(-0.0069713 0.000268104 0)
(-0.00717911 0.000256413 0)
(-0.00737744 0.000244466 0)
(-0.00756611 0.000232259 0)
(-0.00774488 0.000219765 0)
(-0.00791352 0.000207003 0)
(-0.00807183 0.000193975 0)
(-0.00821965 0.000180668 0)
(-0.00835685 0.000167122 0)
(-0.00848325 0.000153363 0)
(-0.00859868 0.000139416 0)
(-0.00870302 0.000125309 0)
(-0.00879616 0.000111003 0)
(-0.00887795 9.65103e-05 0)
(-0.00894836 8.19104e-05 0)
(-0.00900724 6.71934e-05 0)
(-0.00905449 5.23516e-05 0)
(-0.00909015 3.74564e-05 0)
(-0.0091141 2.25127e-05 0)
(-0.00912623 7.50104e-06 0)
(-0.00912663 -7.52055e-06 0)
(-0.00911533 -2.25384e-05 0)
(-0.00909221 -3.75897e-05 0)
(-0.00905736 -5.26185e-05 0)
(-0.00901085 -6.75525e-05 0)
(-0.00895261 -8.24256e-05 0)
(-0.00888269 -9.72622e-05 0)
(-0.00880129 -0.000112 0)
(-0.00870843 -0.000126606 0)
(-0.0086041 -0.000141095 0)
(-0.00848846 -0.00015544 0)
(-0.00836173 -0.000169593 0)
(-0.00822399 -0.000183558 0)
(-0.00807531 -0.000197334 0)
(-0.00791591 -0.000210872 0)
(-0.00774601 -0.000224141 0)
(-0.00756578 -0.000237159 0)
(-0.00737539 -0.000249921 0)
(-0.00717512 -0.000262372 0)
(-0.00696519 -0.000274478 0)
(-0.00674582 -0.000286247 0)
(-0.00651728 -0.000297675 0)
(-0.00627988 -0.000308725 0)
(-0.00603397 -0.000319373 0)
(-0.00577985 -0.000329607 0)
(-0.00551788 -0.000339389 0)
(-0.00524851 -0.000348638 0)
(-0.00497219 -0.000357276 0)
(-0.00468947 -0.00036523 0)
(-0.00440094 -0.000372386 0)
(-0.00410731 -0.000378571 0)
(-0.00380941 -0.00038358 0)
(-0.00350818 -0.000387205 0)
(-0.00320484 -0.000389202 0)
(-0.00290084 -0.000389249 0)
(-0.00259784 -0.000386947 0)
(-0.00229777 -0.000381862 0)
(-0.00200289 -0.000373534 0)
(-0.00171584 -0.000361466 0)
(-0.00143961 -0.000345134 0)
(-0.0011775 -0.000324034 0)
(-0.000933047 -0.000297733 0)
(-0.000710027 -0.000265905 0)
(-0.000512323 -0.000228419 0)
(-0.000343687 -0.000185494 0)
(-0.000207349 -0.000137999 0)
(-0.000105488 -8.79291e-05 0)
(-3.85758e-05 -3.91378e-05 0)
(-4.61037e-06 1.03957e-06 0)
(2.31714e-06 1.70028e-05 0)
(1.40029e-05 -6.03252e-05 0)
(1.22599e-05 1.3995e-05 0)
(-3.19334e-05 0.000148189 0)
(-0.0001317 0.000252725 0)
(-0.000284613 0.000336704 0)
(-0.000483787 0.000410794 0)
(-0.000724473 0.000477547 0)
(-0.00100156 0.000536841 0)
(-0.00130926 0.000588233 0)
(-0.00164275 0.000631147 0)
(-0.00199713 0.000665813 0)
(-0.00236781 0.000692838 0)
(-0.00275094 0.000712719 0)
(-0.00314276 0.000726217 0)
(-0.00354011 0.000734212 0)
(-0.00394034 0.000737365 0)
(-0.0043411 0.000736469 0)
(-0.00474038 0.000732117 0)
(-0.00513649 0.000724849 0)
(-0.00552797 0.000715083 0)
(-0.00591361 0.000703268 0)
(-0.0062924 0.000689686 0)
(-0.00666346 0.000674606 0)
(-0.007026 0.000658257 0)
(-0.00737938 0.000640777 0)
(-0.00772302 0.000622293 0)
(-0.00805637 0.000602942 0)
(-0.00837899 0.000582829 0)
(-0.00869047 0.000562012 0)
(-0.00899041 0.000540517 0)
(-0.00927842 0.000518398 0)
(-0.00955413 0.000495698 0)
(-0.00981723 0.000472422 0)
(-0.0100675 0.0004486 0)
(-0.0103045 0.000424273 0)
(-0.0105281 0.000399473 0)
(-0.010738 0.000374209 0)
(-0.010934 0.000348455 0)
(-0.0111158 0.000322251 0)
(-0.0112833 0.000295673 0)
(-0.0114362 0.000268737 0)
(-0.0115745 0.00024147 0)
(-0.0116979 0.000213919 0)
(-0.0118063 0.000186081 0)
(-0.0118996 0.000157988 0)
(-0.0119776 0.000129703 0)
(-0.0120403 0.000101222 0)
(-0.0120877 7.25729e-05 0)
(-0.0121195 4.38519e-05 0)
(-0.0121359 1.50829e-05 0)
(-0.0121367 -1.3759e-05 0)
(-0.012122 -4.26284e-05 0)
(-0.0120918 -7.14631e-05 0)
(-0.0120461 -0.000100247 0)
(-0.0119848 -0.000128948 0)
(-0.0119082 -0.00015752 0)
(-0.0118161 -0.000185949 0)
(-0.0117089 -0.000214219 0)
(-0.0115864 -0.000242272 0)
(-0.0114488 -0.000270063 0)
(-0.0112964 -0.00029758 0)
(-0.0111292 -0.000324795 0)
(-0.0109474 -0.00035165 0)
(-0.0107513 -0.000378098 0)
(-0.010541 -0.000404113 0)
(-0.0103168 -0.000429667 0)
(-0.0100788 -0.000454721 0)
(-0.00982749 -0.000479239 0)
(-0.00956312 -0.000503187 0)
(-0.00928594 -0.000526525 0)
(-0.00899623 -0.000549208 0)
(-0.00869444 -0.000571202 0)
(-0.00838103 -0.000592474 0)
(-0.00805635 -0.000612976 0)
(-0.00772078 -0.000632628 0)
(-0.00737488 -0.000651332 0)
(-0.00701928 -0.000668983 0)
(-0.00665459 -0.000685454 0)
(-0.00628145 -0.000700569 0)
(-0.00590068 -0.000714085 0)
(-0.00551332 -0.000725708 0)
(-0.00512047 -0.000735094 0)
(-0.0047234 -0.000741833 0)
(-0.00432364 -0.00074542 0)
(-0.00392311 -0.000745249 0)
(-0.00352401 -0.000740624 0)
(-0.0031288 -0.00073077 0)
(-0.00274035 -0.000714839 0)
(-0.00236195 -0.000691943 0)
(-0.00199738 -0.000661195 0)
(-0.00165075 -0.000621781 0)
(-0.00132637 -0.000573011 0)
(-0.00102878 -0.000514423 0)
(-0.000762571 -0.000445953 0)
(-0.000532179 -0.000368215 0)
(-0.000341394 -0.000282907 0)
(-0.000192821 -0.000193451 0)
(-8.73107e-05 -0.000105931 0)
(-2.42687e-05 -3.08673e-05 0)
(-1.58719e-06 1.13056e-05 0)
(4.22058e-06 -6.28895e-05 0)
(-1.9051e-05 4.57023e-05 0)
(-9.23052e-05 0.000234238 0)
(-0.000225209 0.000395674 0)
(-0.000416946 0.000533501 0)
(-0.000662349 0.000656256 0)
(-0.000956649 0.000765918 0)
(-0.00129359 0.000862446 0)
(-0.00166739 0.000945167 0)
(-0.00207188 0.00101395 0)
(-0.00250132 0.00106944 0)
(-0.00295062 0.0011124 0)
(-0.00341489 0.00114405 0)
(-0.00388986 0.00116569 0)
(-0.00437173 0.00117845 0)
(-0.0048572 0.00118358 0)
(-0.00534347 0.00118219 0)
(-0.00582811 0.00117527 0)
(-0.00630909 0.00116369 0)
(-0.00678463 0.00114819 0)
(-0.00725322 0.00112935 0)
(-0.00771362 0.00110768 0)
(-0.00816472 0.00108361 0)
(-0.00860558 0.00105747 0)
(-0.00903541 0.0010295 0)
(-0.00945344 0.000999916 0)
(-0.00985902 0.000968896 0)
(-0.0102516 0.00093656 0)
(-0.0106306 0.000903025 0)
(-0.0109956 0.000868414 0)
(-0.0113461 0.000832815 0)
(-0.0116817 0.000796269 0)
(-0.0120019 0.000758788 0)
(-0.0123065 0.000720419 0)
(-0.012595 0.00068123 0)
(-0.012867 0.000641253 0)
(-0.0131225 0.000600535 0)
(-0.013361 0.000559124 0)
(-0.0135822 0.000517048 0)
(-0.013786 0.000474369 0)
(-0.0139721 0.000431139 0)
(-0.0141403 0.000387368 0)
(-0.0142904 0.000343133 0)
(-0.0144222 0.000298521 0)
(-0.0145357 0.000253537 0)
(-0.0146307 0.000208207 0)
(-0.014707 0.000162618 0)
(-0.0147647 0.000116818 0)
(-0.0148035 7.08368e-05 0)
(-0.0148235 2.475e-05 0)
(-0.0148247 -2.13882e-05 0)
(-0.0148071 -6.75582e-05 0)
(-0.0147705 -0.000113702 0)
(-0.014715 -0.00015974 0)
(-0.0146409 -0.000205641 0)
(-0.0145479 -0.000251386 0)
(-0.0144362 -0.000296903 0)
(-0.014306 -0.000342119 0)
(-0.0141575 -0.000386999 0)
(-0.0139905 -0.000431503 0)
(-0.0138055 -0.000475556 0)
(-0.0136027 -0.000519097 0)
(-0.0133821 -0.000562088 0)
(-0.013144 -0.000604462 0)
(-0.0128887 -0.000646131 0)
(-0.0126165 -0.000687047 0)
(-0.0123278 -0.000727188 0)
(-0.0120227 -0.000766491 0)
(-0.0117017 -0.000804864 0)
(-0.0113652 -0.000842242 0)
(-0.0110136 -0.000878598 0)
(-0.0106473 -0.000913871 0)
(-0.0102668 -0.000947959 0)
(-0.00987265 -0.000980753 0)
(-0.00946539 -0.00101216 0)
(-0.00904561 -0.00104203 0)
(-0.00861405 -0.00107018 0)
(-0.0081715 -0.00109637 0)
(-0.0077188 -0.00112033 0)
(-0.00725696 -0.00114172 0)
(-0.00678717 -0.00116008 0)
(-0.00631081 -0.00117483 0)
(-0.00582946 -0.00118532 0)
(-0.005345 -0.00119078 0)
(-0.00485968 -0.00119028 0)
(-0.00437605 -0.00118273 0)
(-0.00389705 -0.00116696 0)
(-0.00342604 -0.00114171 0)
(-0.00296688 -0.00110568 0)
(-0.00252387 -0.00105761 0)
(-0.00210167 -0.000996312 0)
(-0.0017052 -0.000920848 0)
(-0.00133954 -0.000830662 0)
(-0.00100986 -0.000725833 0)
(-0.000721091 -0.00060741 0)
(-0.000477562 -0.000477884 0)
(-0.000282487 -0.00034197 0)
(-0.000137551 -0.000207581 0)
(-4.43141e-05 -8.76228e-05 0)
(-5.41032e-06 -5.31689e-06 0)
(-3.66107e-06 -4.68423e-05 0)
(-4.77965e-05 0.000108102 0)
(-0.000152789 0.00035428 0)
(-0.000321189 0.000576629 0)
(-0.000552792 0.000773354 0)
(-0.000843209 0.000950359 0)
(-0.0011872 0.00110876 0)
(-0.00157889 0.0012476 0)
(-0.0020116 0.0013663 0)
(-0.00247886 0.0014651 0)
(-0.00297445 0.00154463 0)
(-0.00349252 0.00160631 0)
(-0.00402772 0.00165184 0)
(-0.00457526 0.001683 0)
(-0.00513089 0.00170156 0)
(-0.00569083 0.0017092 0)
(-0.00625183 0.00170747 0)
(-0.00681113 0.00169778 0)
(-0.00736635 0.00168133 0)
(-0.00791545 0.0016592 0)
(-0.00845671 0.00163222 0)
(-0.00898861 0.00160114 0)
(-0.00950988 0.00156654 0)
(-0.0100194 0.00152888 0)
(-0.0105163 0.00148857 0)
(-0.0109996 0.00144592 0)
(-0.0114686 0.00140118 0)
(-0.0119226 0.00135449 0)
(-0.012361 0.00130604 0)
(-0.0127831 0.00125598 0)
(-0.0131885 0.00120442 0)
(-0.0135767 0.00115146 0)
(-0.0139472 0.00109718 0)
(-0.0142995 0.00104164 0)
(-0.0146332 0.000984907 0)
(-0.0149479 0.000927033 0)
(-0.0152434 0.000868057 0)
(-0.0155193 0.000808097 0)
(-0.0157752 0.000747243 0)
(-0.0160109 0.000685519 0)
(-0.0162261 0.000623001 0)
(-0.0164207 0.000559774 0)
(-0.0165943 0.000495879 0)
(-0.0167468 0.000431398 0)
(-0.016878 0.000366425 0)
(-0.0169879 0.000300999 0)
(-0.0170762 0.000235187 0)
(-0.0171429 0.000169097 0)
(-0.0171879 0.000102786 0)
(-0.0172111 3.62891e-05 0)
(-0.0172125 -3.03056e-05 0)
(-0.0171922 -9.69015e-05 0)
(-0.01715 -0.000163444 0)
(-0.017086 -0.000229871 0)
(-0.0170003 -0.000296098 0)
(-0.016893 -0.00036207 0)
(-0.0167641 -0.00042773 0)
(-0.0166138 -0.000492979 0)
(-0.0164422 -0.000557724 0)
(-0.0162495 -0.000621911 0)
(-0.0160358 -0.000685475 0)
(-0.0158016 -0.000748312 0)
(-0.0155468 -0.000810322 0)
(-0.0152719 -0.000871432 0)
(-0.0149771 -0.000931568 0)
(-0.0146629 -0.000990644 0)
(-0.0143294 -0.00104858 0)
(-0.0139771 -0.00110528 0)
(-0.0136064 -0.00116067 0)
(-0.0132179 -0.00121465 0)
(-0.0128118 -0.00126713 0)
(-0.0123888 -0.00131802 0)
(-0.0119495 -0.00136719 0)
(-0.0114945 -0.00141448 0)
(-0.0110243 -0.00145972 0)
(-0.0105397 -0.0015027 0)
(-0.0100415 -0.00154316 0)
(-0.00953069 -0.00158077 0)
(-0.00900824 -0.00161513 0)
(-0.00847531 -0.00164572 0)
(-0.00793328 -0.00167189 0)
(-0.00738377 -0.00169287 0)
(-0.00682859 -0.00170772 0)
(-0.00626987 -0.00171534 0)
(-0.00571012 -0.00171442 0)
(-0.00515224 -0.00170349 0)
(-0.00459954 -0.00168095 0)
(-0.00405574 -0.00164509 0)
(-0.00352509 -0.00159418 0)
(-0.00301231 -0.00152653 0)
(-0.0025225 -0.00144062 0)
(-0.00206098 -0.00133527 0)
(-0.0016333 -0.00120982 0)
(-0.00124506 -0.00106449 0)
(-0.000901702 -0.00090068 0)
(-0.000608156 -0.000721579 0)
(-0.000368456 -0.000532916 0)
(-0.000185401 -0.000343914 0)
(-6.30174e-05 -0.00016895 0)
(-8.81019e-06 -3.23266e-05 0)
(-9.38475e-06 -1.59777e-05 0)
(-7.17558e-05 0.00019846 0)
(-0.000206702 0.000508005 0)
(-0.000410452 0.000795526 0)
(-0.000681125 0.00105505 0)
(-0.00101435 0.00129075 0)
(-0.00140507 0.00150174 0)
(-0.00184674 0.00168676 0)
(-0.0023326 0.00184506 0)
(-0.00285589 0.00197679 0)
(-0.00341003 0.00208307 0)
(-0.00398871 0.00216568 0)
(-0.0045862 0.00222679 0)
(-0.00519733 0.00226873 0)
(-0.00581743 0.00229387 0)
(-0.00644242 0.00230443 0)
(-0.00706872 0.00230246 0)
(-0.00769324 0.00228976 0)
(-0.00831333 0.00226798 0)
(-0.00892673 0.00223848 0)
(-0.00953149 0.00220243 0)
(-0.0101259 0.00216081 0)
(-0.0107086 0.00211439 0)
(-0.0112782 0.00206379 0)
(-0.0118337 0.00200956 0)
(-0.0123742 0.00195212 0)
(-0.0128987 0.00189179 0)
(-0.0134065 0.00182884 0)
(-0.0138968 0.00176351 0)
(-0.014369 0.00169597 0)
(-0.0148225 0.00162635 0)
(-0.0152567 0.00155477 0)
(-0.0156711 0.00148141 0)
(-0.0160652 0.00140636 0)
(-0.0164385 0.00132968 0)
(-0.0167907 0.00125148 0)
(-0.0171213 0.00117184 0)
(-0.0174298 0.00109084 0)
(-0.0177161 0.00100862 0)
(-0.0179798 0.00092527 0)
(-0.0182206 0.000840851 0)
(-0.0184382 0.000755485 0)
(-0.0186324 0.000669276 0)
(-0.018803 0.000582284 0)
(-0.0189498 0.000494598 0)
(-0.0190727 0.000406338 0)
(-0.0191715 0.000317597 0)
(-0.0192461 0.000228467 0)
(-0.0192964 0.000139043 0)
(-0.0193224 4.94033e-05 0)
(-0.0193241 -4.0368e-05 0)
(-0.0193014 -0.000130155 0)
(-0.0192542 -0.000219852 0)
(-0.0191827 -0.000309385 0)
(-0.019087 -0.000398675 0)
(-0.0189671 -0.00048762 0)
(-0.0188231 -0.000576111 0)
(-0.0186551 -0.000664042 0)
(-0.0184633 -0.000751321 0)
(-0.018248 -0.000837854 0)
(-0.0180093 -0.000923524 0)
(-0.0177475 -0.0010082 0)
(-0.0174629 -0.00109178 0)
(-0.0171557 -0.00117416 0)
(-0.0168263 -0.00125522 0)
(-0.0164752 -0.00133486 0)
(-0.0161026 -0.00141296 0)
(-0.015709 -0.00148941 0)
(-0.0152949 -0.00156409 0)
(-0.0148607 -0.00163686 0)
(-0.0144071 -0.00170761 0)
(-0.0139346 -0.0017762 0)
(-0.0134438 -0.00184244 0)
(-0.0129355 -0.00190612 0)
(-0.0124102 -0.00196699 0)
(-0.0118689 -0.00202479 0)
(-0.0113125 -0.00207917 0)
(-0.0107421 -0.00212967 0)
(-0.0101586 -0.00217573 0)
(-0.00956358 -0.00221668 0)
(-0.00895842 -0.00225166 0)
(-0.00834495 -0.00227963 0)
(-0.00772518 -0.00229937 0)
(-0.00710143 -0.00230941 0)
(-0.00647645 -0.00230808 0)
(-0.0058534 -0.00229349 0)
(-0.00523586 -0.00226358 0)
(-0.00462783 -0.00221619 0)
(-0.00403388 -0.00214913 0)
(-0.00345904 -0.00206028 0)
(-0.00290872 -0.00194777 0)
(-0.00238859 -0.00181013 0)
(-0.00190457 -0.00164662 0)
(-0.00146269 -0.0014575 0)
(-0.0010689 -0.00124446 0)
(-0.000728846 -0.00101117 0)
(-0.000447484 -0.000763996 0)
(-0.000228905 -0.000512932 0)
(-7.9637e-05 -0.000273045 0)
(-1.16953e-05 -6.85866e-05 0)
(-1.35524e-05 2.62214e-05 0)
(-9.08476e-05 0.000313449 0)
(-0.000252965 0.000693251 0)
(-0.000489947 0.00105049 0)
(-0.000797462 0.00137702 0)
(-0.00117103 0.00167435 0)
(-0.00160503 0.0019411 0)
(-0.00209251 0.00217517 0)
(-0.00262649 0.00237554 0)
(-0.0032 0.00254246 0)
(-0.00380614 0.00267741 0)
(-0.0044384 0.00278257 0)
(-0.00509075 0.00286057 0)
(-0.00575768 0.0029143 0)
(-0.00643425 0.00294669 0)
(-0.00711611 0.00296049 0)
(-0.00779943 0.00295831 0)
(-0.00848087 0.00294241 0)
(-0.00915757 0.00291484 0)
(-0.00982706 0.00287733 0)
(-0.0104872 0.00283139 0)
(-0.0111362 0.00277822 0)
(-0.0117724 0.00271884 0)
(-0.0123945 0.00265407 0)
(-0.0130012 0.00258457 0)
(-0.0135915 0.00251087 0)
(-0.0141644 0.00243339 0)
(-0.0147191 0.00235252 0)
(-0.0152548 0.00226855 0)
(-0.0157707 0.0021817 0)
(-0.0162662 0.00209216 0)
(-0.0167406 0.0020001 0)
(-0.0171933 0.00190568 0)
(-0.0176239 0.00180908 0)
(-0.0180318 0.00171038 0)
(-0.0184166 0.00160971 0)
(-0.0187778 0.00150722 0)
(-0.019115 0.00140303 0)
(-0.0194277 0.00129724 0)
(-0.0197158 0.00118998 0)
(-0.0199789 0.0010814 0)
(-0.0202167 0.000971597 0)
(-0.0204288 0.000860708 0)
(-0.0206152 0.000748845 0)
(-0.0207757 0.000636116 0)
(-0.0209099 0.000522652 0)
(-0.0210179 0.000408586 0)
(-0.0210994 0.000294034 0)
(-0.0211544 0.000179096 0)
(-0.0211829 6.3888e-05 0)
(-0.0211847 -5.14527e-05 0)
(-0.0211599 -0.0001668 0)
(-0.0211084 -0.000282055 0)
(-0.0210304 -0.000397108 0)
(-0.0209259 -0.000511828 0)
(-0.0207949 -0.000626091 0)
(-0.0206376 -0.000739776 0)
(-0.0204542 -0.000852745 0)
(-0.0202449 -0.000964866 0)
(-0.0200098 -0.00107602 0)
(-0.0197492 -0.00118607 0)
(-0.0194634 -0.00129484 0)
(-0.0191527 -0.0014022 0)
(-0.0188173 -0.00150802 0)
(-0.0184578 -0.00161216 0)
(-0.0180745 -0.00171448 0)
(-0.0176678 -0.00181481 0)
(-0.0172381 -0.00191303 0)
(-0.016786 -0.00200897 0)
(-0.0163122 -0.00210247 0)
(-0.015817 -0.00219335 0)
(-0.0153013 -0.00228143 0)
(-0.0147656 -0.00236647 0)
(-0.0142107 -0.00244818 0)
(-0.0136375 -0.00252628 0)
(-0.0130467 -0.00260039 0)
(-0.0124395 -0.00267006 0)
(-0.011817 -0.00273471 0)
(-0.0111804 -0.00279364 0)
(-0.0105312 -0.00284596 0)
(-0.0098709 -0.0028906 0)
(-0.00920157 -0.00292625 0)
(-0.00852532 -0.00295137 0)
(-0.00784467 -0.00296415 0)
(-0.00716254 -0.00296252 0)
(-0.00648227 -0.00294416 0)
(-0.00580766 -0.00290654 0)
(-0.00514296 -0.00284702 0)
(-0.00449294 -0.00276295 0)
(-0.00386287 -0.00265176 0)
(-0.00325843 -0.00251118 0)
(-0.00268559 -0.00233947 0)
(-0.00215062 -0.00213571 0)
(-0.00165998 -0.00190016 0)
(-0.00122017 -0.00163461 0)
(-0.000837572 -0.00134298 0)
(-0.000518145 -0.00103193 0)
(-0.000267313 -0.000711724 0)
(-9.39733e-05 -0.000397482 0)
(-1.4072e-05 -0.000112817 0)
(-1.65516e-05 7.73437e-05 0)
(-0.000106158 0.000449499 0)
(-0.000292082 0.000906915 0)
(-0.000559058 0.00133922 0)
(-0.000900791 0.00173616 0)
(-0.00131165 0.00209823 0)
(-0.00178531 0.0024231 0)
(-0.00231464 0.00270831 0)
(-0.00289224 0.00295261 0)
(-0.0035108 0.00315642 0)
(-0.00416329 0.00332145 0)
(-0.00484304 0.00345027 0)
(-0.00554377 0.00354608 0)
(-0.00625975 0.0036123 0)
(-0.00698584 0.00365238 0)
(-0.00771746 0.00366966 0)
(-0.00845059 0.00366725 0)
(-0.00918172 0.00364794 0)
(-0.00990779 0.00361419 0)
(-0.0106262 0.00356812 0)
(-0.0113346 0.00351155 0)
(-0.0120311 0.00344597 0)
(-0.0127139 0.00337263 0)
(-0.0133817 0.00329258 0)
(-0.014033 0.00320661 0)
(-0.0146667 0.00311537 0)
(-0.0152818 0.00301941 0)
(-0.0158774 0.00291919 0)
(-0.0164525 0.00281506 0)
(-0.0170065 0.00270731 0)
(-0.0175385 0.0025962 0)
(-0.0180479 0.00248198 0)
(-0.0185341 0.00236482 0)
(-0.0189965 0.00224488 0)
(-0.0194345 0.00212235 0)
(-0.0198477 0.00199739 0)
(-0.0202355 0.00187017 0)
(-0.0205975 0.00174084 0)
(-0.0209334 0.00160955 0)
(-0.0212428 0.00147645 0)
(-0.0215253 0.0013417 0)
(-0.0217806 0.00120546 0)
(-0.0220085 0.00106788 0)
(-0.0222086 0.00092908 0)
(-0.0223809 0.000789248 0)
(-0.0225251 0.000648536 0)
(-0.022641 0.000507072 0)
(-0.0227285 0.000364996 0)
(-0.0227876 0.000222463 0)
(-0.0228182 7.96162e-05 0)
(-0.0228201 -6.33928e-05 0)
(-0.0227935 -0.00020641 0)
(-0.0227383 -0.000349305 0)
(-0.0226545 -0.000491945 0)
(-0.0225424 -0.000634169 0)
(-0.0224018 -0.000775816 0)
(-0.022233 -0.000916739 0)
(-0.0220362 -0.00105677 0)
(-0.0218115 -0.00119576 0)
(-0.0215592 -0.00133353 0)
(-0.0212796 -0.00146993 0)
(-0.0209728 -0.00160474 0)
(-0.0206394 -0.00173781 0)
(-0.0202795 -0.00186898 0)
(-0.0198937 -0.00199808 0)
(-0.0194823 -0.00212491 0)
(-0.0190459 -0.00224929 0)
(-0.0185848 -0.00237104 0)
(-0.0180997 -0.00248997 0)
(-0.0175913 -0.00260586 0)
(-0.01706 -0.0027185 0)
(-0.0165065 -0.00282763 0)
(-0.0159317 -0.00293296 0)
(-0.0153363 -0.00303417 0)
(-0.0147212 -0.00313087 0)
(-0.0140874 -0.0032226 0)
(-0.013436 -0.00330879 0)
(-0.0127681 -0.00338872 0)
(-0.0120851 -0.00346152 0)
(-0.0113886 -0.00352612 0)
(-0.0106802 -0.00358119 0)
(-0.00996205 -0.00362517 0)
(-0.00923642 -0.00365618 0)
(-0.00850594 -0.00367206 0)
(-0.00777367 -0.00367034 0)
(-0.00704313 -0.00364823 0)
(-0.00631824 -0.00360275 0)
(-0.00560346 -0.00353076 0)
(-0.00490372 -0.0034291 0)
(-0.00422451 -0.00329475 0)
(-0.00357171 -0.00312502 0)
(-0.00295159 -0.00291785 0)
(-0.00237076 -0.00267208 0)
(-0.00183613 -0.00238783 0)
(-0.00135475 -0.00206686 0)
(-0.000933765 -0.00171305 0)
(-0.000580144 -0.00133309 0)
(-0.000300571 -0.000937078 0)
(-0.000106098 -0.000539707 0)
(-1.59788e-05 -0.000163762 0)
(-1.88532e-05 0.000135478 0)
(-0.000118547 0.000603281 0)
(-0.000324808 0.00114605 0)
(-0.000618681 0.00165825 0)
(-0.000991392 0.00212942 0)
(-0.00143612 0.00255898 0)
(-0.00194601 0.00294404 0)
(-0.00251333 0.003282 0)
(-0.00313029 0.00357168 0)
(-0.00378936 0.0038136 0)
(-0.00448331 0.00400969 0)
(-0.00520525 0.00416301 0)
(-0.00594876 0.00427726 0)
(-0.00670799 0.00435639 0)
(-0.0074776 0.00440442 0)
(-0.00825286 0.00442529 0)
(-0.00902959 0.00442257 0)
(-0.00980413 0.00439961 0)
(-0.0105733 0.00435929 0)
(-0.0113343 0.00430415 0)
(-0.0120848 0.0042363 0)
(-0.0128227 0.00415756 0)
(-0.0135462 0.00406943 0)
(-0.0142537 0.00397312 0)
(-0.0149439 0.0038696 0)
(-0.0156155 0.00375969 0)
(-0.0162673 0.00364407 0)
(-0.0168984 0.00352324 0)
(-0.0175079 0.00339763 0)
(-0.018095 0.00326763 0)
(-0.0186588 0.00313355 0)
(-0.0191987 0.00299568 0)
(-0.0197139 0.00285425 0)
(-0.020204 0.00270947 0)
(-0.0206682 0.00256153 0)
(-0.021106 0.00241068 0)
(-0.0215171 0.0022571 0)
(-0.0219008 0.00210096 0)
(-0.0222568 0.00194247 0)
(-0.0225846 0.00178183 0)
(-0.022884 0.0016192 0)
(-0.0231546 0.00145477 0)
(-0.0233961 0.00128873 0)
(-0.0236083 0.00112125 0)
(-0.0237909 0.000952524 0)
(-0.0239437 0.000782746 0)
(-0.0240665 0.000612075 0)
(-0.0241594 0.000440675 0)
(-0.024222 0.000268728 0)
(-0.0242544 9.64164e-05 0)
(-0.0242565 -7.60815e-05 0)
(-0.0242283 -0.000248589 0)
(-0.0241698 -0.000420951 0)
(-0.0240811 -0.000592998 0)
(-0.0239622 -0.000764527 0)
(-0.0238133 -0.000935349 0)
(-0.0236345 -0.00110529 0)
(-0.023426 -0.00127417 0)
(-0.023188 -0.00144177 0)
(-0.0229207 -0.00160791 0)
(-0.0226244 -0.00177237 0)
(-0.0222995 -0.00193493 0)
(-0.0219463 -0.0020954 0)
(-0.0215651 -0.00225359 0)
(-0.0211564 -0.00240927 0)
(-0.0207206 -0.00256223 0)
(-0.0202583 -0.00271222 0)
(-0.0197699 -0.00285904 0)
(-0.0192561 -0.00300246 0)
(-0.0187174 -0.0031422 0)
(-0.0181546 -0.00327801 0)
(-0.0175684 -0.00340957 0)
(-0.0169595 -0.00353654 0)
(-0.0163288 -0.00365851 0)
(-0.0156773 -0.00377503 0)
(-0.0150059 -0.00388553 0)
(-0.0143158 -0.00398933 0)
(-0.0136084 -0.00408554 0)
(-0.0128849 -0.00417312 0)
(-0.012147 -0.0042508 0)
(-0.0113966 -0.00431703 0)
(-0.0106357 -0.00436996 0)
(-0.00986678 -0.00440738 0)
(-0.00909257 -0.00442676 0)
(-0.00831623 -0.00442521 0)
(-0.00754138 -0.00439951 0)
(-0.0067721 -0.00434615 0)
(-0.00601296 -0.00426149 0)
(-0.00526908 -0.00414187 0)
(-0.00454609 -0.00398377 0)
(-0.00385011 -0.00378406 0)
(-0.00318767 -0.0035403 0)
(-0.00256574 -0.00325101 0)
(-0.00199167 -0.00291604 0)
(-0.00147306 -0.00253696 0)
(-0.00101781 -0.00211743 0)
(-0.000633856 -0.00166384 0)
(-0.000329014 -0.00118581 0)
(-0.000116233 -0.000697313 0)
(-1.74848e-05 -0.000220297 0)
(-2.06187e-05 0.000199133 0)
(-0.0001285 0.000772169 0)
(-0.000352341 0.00140716 0)
(-0.000669754 0.00200439 0)
(-0.00107 0.00255347 0)
(-0.00154543 0.00305309 0)
(-0.00208808 0.00350027 0)
(-0.0026897 0.00389245 0)
(-0.00334217 0.00422861 0)
(-0.00403769 0.00450947 0)
(-0.00476878 0.00473736 0)
(-0.00552835 0.00491576 0)
(-0.00630989 0.00504883 0)
(-0.00710741 0.00514113 0)
(-0.00791543 0.00519726 0)
(-0.00872912 0.00522167 0)
(-0.00954417 0.00521854 0)
(-0.0103568 0.00519165 0)
(-0.0111637 0.00514439 0)
(-0.0119621 0.00507966 0)
(-0.0127494 0.00499996 0)
(-0.0135235 0.0049074 0)
(-0.0142825 0.00480369 0)
(-0.0150247 0.00469027 0)
(-0.0157488 0.0045683 0)
(-0.0164533 0.00443874 0)
(-0.0171372 0.00430238 0)
(-0.0177994 0.00415984 0)
(-0.0184388 0.00401161 0)
(-0.0190548 0.00385816 0)
(-0.0196463 0.00369989 0)
(-0.0202127 0.0035371 0)
(-0.0207533 0.00337007 0)
(-0.0212674 0.00319909 0)
(-0.0217545 0.0030244 0)
(-0.0222138 0.00284626 0)
(-0.0226451 0.00266489 0)
(-0.0230477 0.00248052 0)
(-0.0234211 0.00229337 0)
(-0.0237651 0.00210368 0)
(-0.0240792 0.00191167 0)
(-0.0243631 0.00171754 0)
(-0.0246166 0.0015215 0)
(-0.0248392 0.00132379 0)
(-0.0250307 0.00112463 0)
(-0.0251911 0.000924222 0)
(-0.02532 0.000722758 0)
(-0.0254174 0.000520443 0)
(-0.0254832 0.000317501 0)
(-0.0255171 0.000114141 0)
(-0.0255194 -8.94411e-05 0)
(-0.0254898 -0.00029304 0)
(-0.0254285 -0.000496458 0)
(-0.0253355 -0.000699488 0)