/*--------------------------------*- C++ -*----------------------------------*\
| =========                 |                                                 |
| \\      /  F ield         | OpenFOAM: The Open Source CFD Toolbox           |
|  \\    /   O peration     | Version:  2212                                  |
|   \\  /    A nd           | Website:  www.openfoam.com                      |
|    \\/     M anipulation  |                                                 |
\*---------------------------------------------------------------------------*/
FoamFile
{
    version     2.0;
    format      ascii;
    arch        "LSB;label=32;scalar=64";
    class       volScalarField;
    location    "0.0595";
    object      p;
}
// * * * * * * * * * * * * * * * * * * * * * * * * * * * * * * * * * * * * * //

dimensions      [0 2 -2 0 0 0 0];

internalField   nonuniform List<scalar> 
10000
(
1.38103e-07
8.38766e-05
-0.000132485
-0.000689409
-0.00153748
-0.00262241
-0.00389065
-0.00529122
-0.00677799
-0.00831034
-0.00985259
-0.0113737
-0.0128467
-0.014248
-0.0155574
-0.0167574
-0.0178333
-0.0187724
-0.0195641
-0.0201994
-0.0206712
-0.0209739
-0.0211032
-0.021056
-0.0208306
-0.0204261
-0.0198427
-0.0190815
-0.0181445
-0.0170342
-0.015754
-0.0143082
-0.0127013
-0.0109385
-0.0090258
-0.0069693
-0.0047757
-0.00245216
-6.25751e-06
0.00255409
0.00522058
0.00798464
0.0108374
0.0137695
0.0167716
0.0198341
0.022947
0.0261005
0.0292842
0.0324878
0.0357008
0.0389125
0.0421122
0.0452893
0.0484332
0.0515331
0.0545785
0.0575591
0.0604645
0.0632844
0.0660087
0.0686278
0.0711321
0.0735127
0.0757608
0.0778681
0.0798269
0.0816298
0.0832701
0.0847418
0.0860394
0.0871583
0.088095
0.0888464
0.0894107
0.089787
0.0899754
0.0899772
0.089795
0.0894329
0.0888962
0.0881921
0.0873292
0.0863176
0.0851698
0.0838999
0.0825247
0.0810632
0.0795375
0.0779723
0.076396
0.0748406
0.0733423
0.0719422
0.0706858
0.0696228
0.0688043
0.0682793
0.0680893
0.0681879
-8.57329e-05
-4.57908e-06
-0.000214389
-0.000710566
-0.00144412
-0.00237684
-0.00346959
-0.00468203
-0.00597585
-0.00731601
-0.0086709
-0.0100123
-0.0113154
-0.012558
-0.0137209
-0.0147874
-0.015743
-0.0165752
-0.0172736
-0.0178292
-0.0182348
-0.0184845
-0.0185739
-0.0184997
-0.0182597
-0.0178528
-0.0172788
-0.0165383
-0.0156329
-0.0145649
-0.0133372
-0.0119535
-0.0104178
-0.00873525
-0.00691103
-0.00495097
-0.00286131
-0.000648702
0.00167973
0.00411655
0.00665393
0.00928373
0.0119975
0.0147865
0.0176418
0.0205543
0.0235145
0.0265131
0.0295402
0.032586
0.0356404
0.0386934
0.041735
0.0447548
0.0477428
0.0506889
0.0535832
0.0564158
0.0591769
0.0618569
0.0644462
0.0669357
0.0693165
0.0715802
0.0737187
0.0757242
0.0775895
0.0793078
0.080873
0.0822796
0.0835225
0.0845979
0.0855024
0.0862337
0.0867902
0.0871714
0.0873778
0.087411
0.0872737
0.0869703
0.0865063
0.0858889
0.0851266
0.0842294
0.0832094
0.0820804
0.0808585
0.079562
0.0782114
0.07683
0.0754438
0.0740817
0.0727758
0.0715612
0.0704757
0.0695584
0.0688466
0.0683747
0.0681873
0.0682863
0.00012353
0.00019731
-1.25165e-05
-0.000477468
-0.00114581
-0.00198606
-0.00296656
-0.00405363
-0.00521466
-0.00641917
-0.00763901
-0.00884869
-0.0100253
-0.0111484
-0.0122
-0.0131641
-0.0140267
-0.0147758
-0.0154013
-0.0158943
-0.0162477
-0.0164555
-0.0165133
-0.0164175
-0.0161659
-0.0157571
-0.0151906
-0.0144668
-0.013587
-0.0125532
-0.0113679
-0.0100346
-0.00855691
-0.00693951
-0.00518733
-0.0033058
-0.0013008
0.000821365
0.00305398
0.00538997
0.00782192
0.0103421
0.0129423
0.0156144
0.0183497
0.0211396
0.0239751
0.0268472
0.0297464
0.0326633
0.0355883
0.038512
0.0414245
0.044316
0.0471771
0.049998
0.0527693
0.0554816
0.0581255
0.0606918
0.0631715
0.065556
0.0678368
0.0700059
0.0720557
0.0739789
0.0757687
0.0774189
0.0789236
0.0802777
0.0814768
0.0825171
0.0833958
0.0841109
0.084661
0.085046
0.0852665
0.0853242
0.0852221
0.0849647
0.0845575
0.0840076
0.0833232
0.0825142
0.0815922
0.0805705
0.0794645
0.0782915
0.0770707
0.0758236
0.0745742
0.0733485
0.0721749
0.0710841
0.0701082
0.0692798
0.0686294
0.0681858
0.067999
0.0680971
0.0006673
0.000683257
0.000443384
-2.14561e-05
-0.00066415
-0.00145659
-0.00237118
-0.00337877
-0.00445112
-0.00556141
-0.00668466
-0.00779781
-0.00887999
-0.00991244
-0.0108783
-0.0117626
-0.0125521
-0.0132355
-0.0138027
-0.0142455
-0.0145567
-0.0147307
-0.0147628
-0.0146496
-0.0143886
-0.0139785
-0.0134186
-0.012709
-0.0118509
-0.010846
-0.00969665
-0.00840588
-0.00697734
-0.00541523
-0.00372419
-0.00190934
2.37496e-05
0.00206904
0.00422017
0.0064704
0.00881264
0.0112394
0.0137431
0.0163155
0.0189487
0.0216343
0.0243636
0.027128
0.0299184
0.0327257
0.0355408
0.0383545
0.0411573
0.04394
0.0466934
0.0494082
0.0520753
0.0546858
0.0572306
0.0597008
0.062088
0.0643838
0.0665803
0.0686698
0.0706451
0.0724991
0.0742256
0.0758186
0.0772726
0.0785827
0.0797449
0.0807558
0.0816129
0.0823142
0.0828587
0.0832463
0.0834778
0.0835551
0.0834812
0.0832605
0.0828986
0.0824022
0.0817793
0.0810394
0.0801936
0.0792548
0.0782374
0.0771575
0.0760332
0.0748842
0.0737323
0.0726011
0.071516
0.0705037
0.0695923
0.0688102
0.068184
0.0677403
0.0675264
0.0675743
0.001502
0.00140794
0.00110417
0.00061271
-3.15778e-05
-0.000803716
-0.00167948
-0.00263387
-0.00364238
-0.00468161
-0.00572951
-0.00676552
-0.00777075
-0.00872805
-0.00962194
-0.0104385
-0.0111655
-0.0117921
-0.0123089
-0.0127078
-0.0129822
-0.0131264
-0.0131361
-0.0130077
-0.0127389
-0.012328
-0.0117745
-0.0110784
-0.0102406
-0.00926264
-0.00814665
-0.00689546
-0.00551251
-0.00400171
-0.00236742
-0.000614481
0.00125178
0.00322563
0.00530101
0.00747152
0.00973032
0.0120703
0.014484
0.0169639
0.0195021
0.0220906
0.0247212
0.0273854
0.0300747
0.0327802
0.0354932
0.0382048
0.0409059
0.0435877
0.0462412
0.0488578
0.0514285
0.0539447
0.0563978
0.0587793
0.0610811
0.0632952
0.0654139
0.0674301
0.0693366
0.0711271
0.0727953
0.0743357
0.075743
0.0770127
0.078141
0.0791248
0.0799617
0.0806501
0.0811889
0.0815783
0.081819
0.0819131
0.0818636
0.0816748
0.0813521
0.0809018
0.0803317
0.0796509
0.0788699
0.0780009
0.0770573
0.0760542
0.0750081
0.0739372
0.0728611
0.071801
0.0707793
0.0698196
0.0689463
0.068184
0.0675562
0.0670869
0.0668129
0.066758
0.00257882
0.00233726
0.00194143
0.00139926
0.000729268
-4.68081e-05
-0.000907653
-0.00183215
-0.00279922
-0.0037885
-0.00478069
-0.00575762
-0.00670237
-0.00759945
-0.00843474
-0.0091955
-0.0098703
-0.0104491
-0.0109231
-0.0112848
-0.0115277
-0.0116465
-0.011637
-0.0114959
-0.0112207
-0.01081
-0.0102629
-0.00957949
-0.00876063
-0.00780762
-0.00672248
-0.00550783
-0.0041669
-0.00270336
-0.00112133
0.000574555
0.00237924
0.00428728
0.00629286
0.00838986
0.0105717
0.0128317
0.0151625
0.017557
0.0200077
0.0225068
0.0250464
0.0276184
0.0302146
0.0328264
0.0354454
0.038063
0.0406707
0.0432596
0.0458216
0.0483479
0.0508302
0.05326
0.0556292
0.0579295
0.0601531
0.0622925
0.0643403
0.0662894
0.0681333
0.0698658
0.0714809
0.0729733
0.0743381
0.0755709
0.0766682
0.0776271
0.0784455
0.0791217
0.0796548
0.0800449
0.080293
0.0804011
0.0803722
0.0802103
0.0799205
0.0795091
0.0789833
0.0783517
0.0776243
0.0768123
0.0759284
0.0749863
0.0740013
0.0729897
0.0719693
0.0709588
0.0699782
0.069048
0.0681893
0.0674232
0.0667706
0.0662525
0.0658904
0.0656948
0.00384855
0.00343505
0.00292581
0.00231289
0.00159639
0.000795106
-7.22086e-05
-0.000987764
-0.00193377
-0.00289265
-0.00384758
-0.00478259
-0.00568263
-0.00653386
-0.00732354
-0.00804006
-0.00867296
-0.00921301
-0.00965206
-0.00998306
-0.0102
-0.0102979
-0.0102727
-0.0101213
-0.00984145
-0.00943155
-0.00889095
-0.00821965
-0.00741833
-0.00648827
-0.00543137
-0.0042501
-0.00294747
-0.00152698
7.45746e-06
0.00165142
0.00340005
0.00524816
0.00719023
0.00922034
0.0113322
0.0135192
0.0157746
0.0180914
0.0204624
0.0228802
0.025337
0.0278252
0.0303367
0.0328633
0.035397
0.0379293
0.0404521
0.042957
0.0454359
0.0478806
0.0502829
0.0526346
0.0549278
0.0571548
0.059308
0.06138
0.0633638
0.0652526
0.0670402
0.0687205
0.0702878
0.0717371
0.0730636
0.0742632
0.0753326
0.076269
0.0770703
0.077735
0.0782623
0.0786522
0.0789059
0.0790252
0.0790128
0.0788728
0.0786099
0.07823
0.0777399
0.0771478
0.0764629
0.0756955
0.0748575
0.0739613
0.0730208
0.0720508
0.0710672
0.0700867
0.0691266
0.0682049
0.0673398
0.066549
0.0658511
0.0652644
0.0647928
0.0644317
0.00526506
0.00466471
0.00402676
0.00332732
0.00254746
0.00170332
0.000811622
-0.000112911
-0.00105539
-0.00200084
-0.00293468
-0.00384297
-0.00471246
-0.00553087
-0.00628679
-0.00696972
-0.00757023
-0.00807989
-0.00849124
-0.00879776
-0.00899392
-0.00907512
-0.00903759
-0.00887839
-0.0085954
-0.00818723
-0.00765323
-0.0069934
-0.00620838
-0.0052994
-0.0042683
-0.00311743
-0.00184959
-0.000468128
0.00102316
0.00262002
0.00431787
0.00611173
0.00799626
0.00996575
0.0120141
0.0141351
0.0163222
0.0185687
0.0208676
0.0232118
0.0255937
0.028006
0.030441
0.0328907
0.0353472
0.0378026
0.0402488
0.0426779
0.0450821
0.0474533
0.0497835
0.052065
0.0542902
0.0564514
0.0585414
0.060553
0.0624795
0.0643145
0.0660517
0.0676853
0.06921
0.0706208
0.071913
0.073083
0.0741273
0.0750433
0.0758291
0.076483
0.0770044
0.0773933
0.0776507
0.0777784
0.077779
0.0776561
0.0774143
0.0770591
0.076597
0.0760353
0.0753826
0.0746486
0.0738438
0.0729799
0.0720692
0.0711251
0.0701616
0.0691936
0.0682364
0.0673053
0.0664158
0.0655828
0.0648228
0.0641518
0.0635553
0.0630133
0.00678731
0.0059921
0.00521516
0.00441723
0.00356069
0.00265945
0.00172851
0.000779896
-0.000174064
-0.0011207
-0.00204751
-0.00294247
-0.00379399
-0.00459119
-0.00532401
-0.00598306
-0.0065599
-0.00704686
-0.00743718
-0.007725
-0.00790525
-0.00797371
-0.00792693
-0.0077622
-0.00747764
-0.00707203
-0.00654474
-0.00589581
-0.00512593
-0.00423633
-0.00322874
-0.00210537
-0.000868986
0.000477193
0.00192954
0.00348399
0.00513611
0.00688109
0.00871378
0.0106287
0.0126199
0.0146815
0.0168071
0.0189903
0.0212243
0.0235023
0.0258169
0.0281611
0.0305273
0.032908
0.0352953
0.0376816
0.0400593
0.0424206
0.0447579
0.0470634
0.0493294
0.0515483
0.0537127
0.0558153
0.0578491
0.0598071
0.0616828
0.0634699
0.0651624
0.0667548
0.0682417
0.0696183
0.0708802
0.0720238
0.0730458
0.0739436
0.0747151
0.075359
0.0758745
0.0762615
0.076521
0.0766546
0.0766647
0.0765547
0.0763288
0.0759922
0.0755506
0.0750111
0.0743814
0.0736704
0.0728877
0.0720438
0.0711498
0.0702176
0.0692598
0.0682894
0.0673197
0.0663639
0.0654351
0.0645454
0.0637099
0.0629424
0.0622106
0.0614794
0.00837979
0.0073864
0.00646403
0.00555885
0.00461532
0.00364558
0.0026632
0.00167784
0.000699614
-0.000260815
-0.00119287
-0.00208624
-0.00293087
-0.00371725
-0.00443654
-0.00508048
-0.00564151
-0.0061128
-0.00648828
-0.00676273
-0.00693156
-0.00699093
-0.00693776
-0.00676971
-0.00648504
-0.00608268
-0.00556216
-0.00492364
-0.0041678
-0.00329586
-0.00230954
-0.00121099
-2.85889e-06
0.00131171
0.00272921
0.00424571
0.00585696
0.00755828
0.00934464
0.0112107
0.0131509
0.0151595
0.0172303
0.019357
0.0215331
0.023752
0.0260067
0.0282902
0.0305953
0.0329144
0.0352402
0.0375653
0.0398822
0.0421834
0.0444614
0.0467088
0.0489179
0.0510815
0.0531924
0.0552434
0.0572277
0.0591385
0.0609696
0.0627148
0.0643682
0.0659244
0.0673782
0.0687249
0.0699604
0.0710808
0.0720831
0.0729647
0.0737235
0.0743581
0.0748677
0.0752522
0.0755124
0.0756496
0.0756661
0.0755651
0.0753503
0.0750264
0.0745989
0.074074
0.0734589
0.0727616
0.0719908
0.0711559
0.070267
0.0693346
0.0683698
0.067384
0.0663888
0.0653955
0.0644147
0.0634568
0.0625352
0.0616623
0.0607885
0.0598645
0.0100118
0.00882014
0.0077488
0.0067302
0.00569186
0.00464454
0.0036008
0.00256824
0.00155499
0.000569964
-0.000377947
-0.00127996
-0.00212747
-0.00291227
-0.0036266
-0.00426328
-0.00481558
-0.00527758
-0.00564388
-0.00590977
-0.00607125
-0.00612492
-0.00606805
-0.00589859
-0.00561509
-0.00521668
-0.00470299
-0.00407428
-0.00333136
-0.00247546
-0.00150824
-0.000431817
0.000751161
0.00203764
0.00342424
0.00490717
0.00648225
0.00814491
0.00989028
0.0117132
0.0136083
0.01557
0.0175923
0.0196692
0.0217943
0.0239611
0.026163
0.028393
0.0306442
0.0329093
0.035181
0.0374523
0.0397159
0.0419644
0.0441906
0.0463872
0.0485468
0.0506622
0.0527265
0.0547327
0.056674
0.0585441
0.0603365
0.0620455
0.0636651
0.0651901
0.0666155
0.0679365
0.0691491
0.0702496
0.0712348
0.0721023
0.0728499
0.0734761
0.07398
0.0743614
0.074621
0.0747599
0.0747801
0.0746844
0.0744764
0.0741601
0.0737406
0.0732235
0.0726154
0.0719235
0.0711556
0.0703202
0.069426
0.0684826
0.0674998
0.0664875
0.0654557
0.0644139
0.063371
0.0623353
0.0613196
0.0603351
0.0593155
0.0581981
0.0116572
0.010269
0.00904723
0.00791112
0.00677207
0.00564007
0.004527
0.00343863
0.00238139
0.00136258
0.00038971
-0.000529817
-0.00138876
-0.00218004
-0.00289701
-0.00353341
-0.00408342
-0.0045418
-0.00490395
-0.00516571
-0.00532353
-0.00537449
-0.0053163
-0.00514723
-0.00486603
-0.00447204
-0.00396513
-0.00334569
-0.00261457
-0.00177302
-0.000822746
0.000234108
0.00139496
0.00265683
0.00401642
0.00546999
0.00701345
0.00864234
0.0103519
0.0121372
0.013993
0.0159138
0.0178939
0.0199273
0.022008
0.0241296
0.0262855
0.0284691
0.0306736
0.0328917
0.0351167
0.0373414
0.039559
0.0417621
0.0439437
0.0460967
0.0482137
0.0502878
0.0523122
0.0542802
0.0561851
0.0580204
0.0597802
0.0614584
0.0630496
0.0645484
0.0659498
0.0672493
0.0684427
0.0695263
0.0704971
0.0713526
0.0720905
0.0727092
0.0732078
0.0735858
0.0738438
0.0739827
0.0740043
0.0739109
0.0737056
0.0733923
0.0729754
0.0724601
0.0718523
0.0711584
0.0703853
0.0695407
0.0686324
0.0676687
0.0666584
0.06561
0.064532
0.0634327
0.0623194
0.0611986
0.0600827
0.0589821
0.0578149
0.0565054
0.0132932
0.0117115
0.0103391
0.00908296
0.00783904
0.0066169
0.00542805
0.00427683
0.00316811
0.00210786
0.00110227
0.000157579
-0.00072018
-0.00152505
-0.0022513
-0.00289354
-0.00344688
-0.00390682
-0.00426929
-0.00453075
-0.0046882
-0.00473921
-0.00468183
-0.0045146
-0.00423663
-0.0038475
-0.00334724
-0.00273637
-0.00201584
-0.00118699
-0.000251551
0.000788321
0.00193005
0.00317072
0.00450706
0.00593542
0.00745172
0.00905161
0.0107305
0.0124835
0.0143056
0.0161914
0.0181353
0.0201315
0.0221742
0.0242571
0.0263739
0.0285179
0.0306825
0.0328608
0.035046
0.0372314
0.03941
0.0415748
0.0437188
0.045835
0.0479164
0.049956
0.0519472
0.0538834
0.055758
0.0575647
0.0592975
0.0609506
0.0625184
0.0639958
0.0653777
0.0666597
0.0678375
0.0689076
0.0698667
0.0707123
0.0714422
0.0720545
0.0725482
0.0729228
0.0731785
0.0733161
0.0733368
0.0732429
0.073037
0.0727226
0.0723037
0.0717848
0.0711713
0.0704688
0.0696836
0.0688223
0.067892
0.0669
0.0658539
0.0647611
0.0636292
0.0624648
0.0612742
0.0600625
0.0588419
0.0576223
0.056307
0.0548081
0.0149005
0.0131287
0.0116064
0.0102287
0.00887702
0.00756064
0.00629097
0.00507112
0.00390476
0.00279666
0.00175184
0.00077538
-0.000127585
-0.000952111
-0.0016934
-0.00234697
-0.00290861
-0.00337449
-0.00374122
-0.00400584
-0.00416585
-0.00421923
-0.00416444
-0.00400037
-0.00372639
-0.00334233
-0.00284844
-0.00224539
-0.00153421
-0.000716322
0.00020643
0.00123187
0.00235745
0.00358029
0.00489714
0.00630432
0.00779782
0.00937336
0.0110265
0.0127525
0.0145464
0.0164028
0.0183165
0.0202817
0.0222927
0.0243434
0.0264276
0.0285387
0.0306702
0.0328155
0.0349679
0.0371208
0.0392674
0.0414008
0.0435141
0.0456004
0.0476528
0.0496646
0.0516291
0.0535398
0.0553902
0.0571741
0.0588856
0.060519
0.0620687
0.0635294
0.0648963
0.0661647
0.0673307
0.0683904
0.0693406
0.0701787
0.0709022
0.0715093
0.0719989
0.0723701
0.0726231
0.0727583
0.0727766
0.0726798
0.0724704
0.0721514
0.0717263
0.0711992
0.0705747
0.0698579
0.0690543
0.0681698
0.0672107
0.0661834
0.0650944
0.0639505
0.0627578
0.0615223
0.0602489
0.0589419
0.0576132
0.0562728
0.0548096
0.0531244
0.0164621
0.0145038
0.0128328
0.011333
0.00987154
0.00845787
0.0071034
0.00581034
0.00458127
0.0034199
0.00233031
0.00131661
0.000383009
-0.000466475
-0.00122785
-0.00189739
-0.00247161
-0.00294734
-0.00332178
-0.00359251
-0.00375757
-0.00381535
-0.00376465
-0.00360473
-0.00333529
-0.00295639
-0.00246846
-0.00187231
-0.00116913
-0.000360472
0.000551747
0.00156535
0.0026778
0.00388618
0.0051872
0.00657716
0.00805214
0.00960798
0.0112403
0.0129444
0.0147154
0.0165482
0.0184374
0.0203776
0.0223631
0.024388
0.026446
0.0285307
0.0306358
0.0327548
0.0348812
0.0370085
0.0391298
0.0412385
0.0433278
0.0453908
0.0474209
0.0494113
0.0513555
0.0532469
0.0550792
0.0568462
0.0585421
0.0601611
0.0616976
0.0631465
0.0645027
0.0657618
0.0669195
0.0679722
0.0689163
0.0697492
0.0704683
0.0710717
0.0715579
0.0719263
0.0721764
0.0723083
0.0723228
0.0722213
0.0720059
0.0716793
0.0712445
0.0707051
0.0700651
0.069329
0.0685017
0.0675884
0.0665946
0.0655259
0.0643882
0.0631871
0.0619281
0.0606164
0.0592558
0.0578499
0.0564108
0.0549484
0.0533383
0.0514701
0.0179629
0.0158218
0.0140038
0.0123816
0.0108091
0.0092959
0.00785366
0.00648367
0.00518772
0.00396867
0.0028297
0.00177409
0.000805198
-7.36888e-05
-0.000859434
-0.00154898
-0.00213945
-0.00262833
-0.00301342
-0.00329284
-0.00346505
-0.00352885
-0.00348346
-0.0033285
-0.00306394
-0.00269006
-0.00220748
-0.0016172
-0.000920617
-0.000119388
0.00078455
0.00178899
0.00289132
0.00408855
0.00537734
0.00675405
0.00821482
0.00975554
0.0113719
0.0130591
0.0148125
0.0166271
0.0184977
0.0204188
0.0223849
0.0243901
0.0264281
0.0284929
0.0305781
0.0326775
0.0347845
0.0368927
0.0389955
0.0410862
0.0431581
0.0452046
0.0472188
0.0491943
0.0511243
0.0530025
0.0548227
0.0565786
0.0582644
0.0598744
0.0614028
0.0628445
0.0641946
0.0654484
0.0666018
0.0676507
0.0685917
0.0694218
0.0701386
0.0707398
0.071224
0.07159
0.0718372
0.0719655
0.0719752
0.0718675
0.0716442
0.0713076
0.0708602
0.070305
0.0696456
0.0688859
0.0680303
0.0670833
0.0660497
0.0649346
0.063743
0.0624799
0.06115
0.0597578
0.0583065
0.0567989
0.0552475
0.0536627
0.0519068
0.0498589
0.0193898
0.0170694
0.0151059
0.0133616
0.0116772
0.0100629
0.00853052
0.00708076
0.00571458
0.00443417
0.00324199
0.00214061
0.00113255
0.000220395
-0.000593331
-0.0013062
-0.00191605
-0.00242093
-0.00281917
-0.00310937
-0.00329041
-0.00336156
-0.00332243
-0.00317296
-0.00291334
-0.00254412
-0.00206615
-0.00148065
-0.000789148
6.61349e-06
0.000904633
0.0019026
0.0029978
0.00418718
0.00546739
0.00683482
0.00828565
0.00981576
0.0114208
0.0130962
0.0148373
0.0166392
0.0184967
0.0204046
0.0223573
0.0243488
0.0263731
0.0284243
0.0304961
0.0325823
0.0346765
0.0367722
0.038863
0.0409422
0.0430033
0.0450397
0.0470445
0.0490113
0.0509334
0.0528046
0.0546185
0.0563691
0.0580504
0.0596566
0.061182
0.0626214
0.0639698
0.0652227
0.0663754
0.067424
0.0683649
0.069195
0.0699117
0.0705127
0.0709961
0.0713606
0.0716053
0.0717298
0.0717342
0.0716193
0.0713867
0.071038
0.0705754
0.0700016
0.0693194
0.0685325
0.0676446
0.0666598
0.0655823
0.0644164
0.0631666
0.0618373
0.0604326
0.0589565
0.0574116
0.0558001
0.0541352
0.0524275
0.0505271
0.0483025
0.0207308
0.0182344
0.0161272
0.014261
0.0124644
0.0107477
0.00912347
0.00759159
0.00615249
0.00480781
0.00355931
0.00240884
0.00135838
0.000409832
-0.000434858
-0.00117392
-0.00180576
-0.00232898
-0.00274238
-0.00304503
-0.00323628
-0.00331582
-0.00328359
-0.00313981
-0.00288497
-0.00251987
-0.00204562
-0.00146363
-0.000775524
1.68491e-05
0.000911359
0.00190557
0.00299666
0.00418153
0.00545684
0.00681898
0.00826409
0.00978806
0.0113866
0.0130551
0.014789
0.0165836
0.0184338
0.0203341
0.0222791
0.024263
0.0262798
0.0283236
0.0303884
0.0324678
0.0345556
0.0366453
0.0387306
0.0408049
0.0428617
0.0448944
0.0468961
0.0488604
0.0507809
0.0526511
0.0544648
0.0562158
0.057898
0.0595057
0.0610332
0.0624752
0.0638266
0.0650826
0.0662387
0.0672906
0.0682347
0.0690677
0.0697867
0.0703894
0.0708737
0.0712378
0.0714806
0.0716016
0.0716005
0.0714779
0.0712348
0.0708725
0.0703929
0.0697979
0.0690904
0.0682732
0.0673498
0.0663237
0.0651986
0.0639783
0.0626667
0.0612677
0.059785
0.058222
0.056581
0.054864
0.0530845
0.0512538
0.0492099
0.0468112
0.0219754
0.0193057
0.0170563
0.015069
0.0131599
0.01134
0.0096224
0.00800665
0.00649251
0.00508111
0.00377368
0.00257149
0.00147598
0.000488488
-0.000389662
-0.00115727
-0.00181324
-0.00235665
-0.0027868
-0.00310323
-0.00330572
-0.00339432
-0.0033693
-0.00323117
-0.00298073
-0.00261905
-0.00214745
-0.00156749
-0.000880933
-8.97753e-05
0.000803695
0.00179691
0.00288698
0.00407076
0.00534488
0.00670569
0.0081493
0.00967157
0.0112682
0.0129349
0.0146669
0.0164596
0.0183078
0.0202062
0.0221494
0.0241316
0.026147
0.0281897
0.0302537
0.0323326
0.0344203
0.0365105
0.0385968
0.0406726
0.0427315
0.0447668
0.0467718
0.04874
0.0506649
0.0525402
0.0543595
0.0561166
0.0578053
0.0594199
0.0609547
0.0624042
0.0637632
0.0650268
0.0661903
0.0672493
0.0681999
0.0690388
0.0697629
0.0703696
0.0708565
0.0712216
0.0714637
0.0715818
0.0715754
0.0714448
0.0711905
0.0708136
0.0703153
0.0696975
0.0689623
0.0681124
0.0671508
0.0660806
0.0649049
0.063627
0.0622506
0.0607789
0.0592153
0.0575631
0.0558242
0.0540001
0.0521051
0.0501513
0.0479647
0.0453943
0.0231136
0.0202733
0.017883
0.015775
0.0137534
0.0118298
0.0100178
0.00831667
0.00672579
0.00524572
0.00387727
0.00262128
0.00147858
0.000450022
-0.000463628
-0.00126163
-0.00194338
-0.00250845
-0.00295658
-0.00328776
-0.00350217
-0.00360017
-0.00358237
-0.00344962
-0.00320299
-0.00284379
-0.00237354
-0.00179395
-0.00110698
-0.000314769
0.000580216
0.00157529
0.00266751
0.00385367
0.00513034
0.0064938
0.00794012
0.00946516
0.0110647
0.0127344
0.0144697
0.0162657
0.0181175
0.0200196
0.0219667
0.0239532
0.0259732
0.028021
0.0300903
0.0321751
0.0342691
0.0363662
0.0384598
0.0405436
0.042611
0.0446552
0.0466698
0.048648
0.0505836
0.05247
0.0543009
0.0560698
0.0577707
0.0593976
0.0609449
0.0624069
0.0637783
0.065054
0.066229
0.0672989
0.0682597
0.0691078
0.0698399
0.0704531
0.0709446
0.0713125
0.0715552
0.0716713
0.0716603
0.0715217
0.071256
0.0708637
0.0703458
0.0697037
0.0689392
0.0680548
0.0670528
0.065936
0.0647072
0.0633692
0.0619252
0.0603784
0.0587318
0.0569883
0.0551497
0.0532172
0.051206
0.0491289
0.0468003
0.0440596
0.0241366
0.0211276
0.0185977
0.0163693
0.0142352
0.0122074
0.0103003
0.0085127
0.00684367
0.00529343
0.00386236
0.00255085
0.00135925
0.000287942
-0.000662773
-0.0014926
-0.00220141
-0.00278921
-0.0032562
-0.00360275
-0.00382939
-0.00393684
-0.00392604
-0.00379813
-0.00355447
-0.0031966
-0.00272619
-0.00214516
-0.00145565
-0.000660021
0.000239138
0.00123905
0.00233667
0.00352874
0.00481173
0.00618183
0.00763511
0.00916745
0.0107747
0.0124524
0.014196
0.0160007
0.0178614
0.0197729
0.0217297
0.0237264
0.025757
0.0278158
0.0298967
0.0319936
0.0341003
0.0362105
0.038318
0.0404161
0.0424982
0.0445578
0.0465882
0.0485829
0.0505353
0.0524389
0.0542872
0.0560738
0.0577925
0.0594373
0.0610025
0.0624821
0.0638707
0.065163
0.066354
0.0674389
0.0684137
0.0692745
0.0700176
0.07064
0.0711387
0.0715114
0.0717562
0.0718717
0.0718568
0.0717109
0.0714338
0.0710259
0.0704877
0.0698204
0.0690255
0.068105
0.0670609
0.0658956
0.0646116
0.0632113
0.0616977
0.0600736
0.058342
0.0565056
0.0545657
0.0525237
0.0503955
0.0481947
0.0457246
0.0428148
0.0250359
0.0218597
0.0191911
0.0168428
0.0145962
0.0124639
0.0104609
0.00858603
0.00683779
0.00521618
0.00372121
0.00235282
0.00111099
-4.35289e-06
-0.000993302
-0.00185602
-0.0025928
-0.00320408
-0.00369044
-0.00405263
-0.00429153
-0.0044082
-0.00440389
-0.00428007
-0.0040383
-0.00368033
-0.00320806
-0.00262362
-0.00192937
-0.00112781
-0.000221681
0.000786138
0.00189252
0.00309407
0.00438716
0.00576797
0.00723253
0.00877675
0.0103964
0.0120871
0.0138442
0.0156628
0.0175379
0.0194643
0.0214366
0.0234493
0.0254966
0.0275725
0.0296711
0.0317864
0.033912
0.0360418
0.0381694
0.0402881
0.0423915
0.0444728
0.0465255
0.0485428
0.0505183
0.0524451
0.0543169
0.056127
0.0578694
0.0595378
0.0611261
0.0626285
0.0640394
0.0653531
0.0665645
0.0676689
0.0686616
0.0695387
0.0702963
0.0709309
0.0714394
0.0718193
0.0720683
0.0721848
0.0721672
0.0720147
0.0717268
0.0713034
0.0707448
0.0700519
0.0692258
0.0682681
0.0671806
0.0659653
0.0646243
0.06316
0.061575
0.0598719
0.0580536
0.0561226
0.0540801
0.0519274
0.0496814
0.0473566
0.0447449
0.0416665
0.0258034
0.0224612
0.0196545
0.0171866
0.0148274
0.0125903
0.010491
0.0085281
0.00669985
0.00500593
0.00344605
0.00201977
0.000726712
-0.000433592
-0.00146162
-0.00235795
-0.00312329
-0.00375844
-0.00426438
-0.00464217
-0.00489306
-0.00501845
-0.0050199
-0.00489912
-0.00465791
-0.00429823
-0.00382223
-0.00323226
-0.00253088
-0.00172076
-0.000804731
0.000214185
0.00133273
0.00254739
0.00385447
0.00525011
0.00673035
0.00829106
0.00992797
0.0116366
0.0134122
0.01525
0.017145
0.019092
0.0210855
0.0231201
0.0251899
0.027289
0.0294116
0.0315514
0.0337023
0.0358581
0.0380121
0.0401579
0.0422888
0.0443983
0.0464796
0.048526
0.0505307
0.0524871
0.0543884
0.0562282
0.058
0.0596976
0.0613148
0.0628454
0.0642835
0.0656237
0.0668603
0.0679885
0.0690034
0.0699008
0.0706764
0.0713266
0.071848
0.0722376
0.0724932
0.0726125
0.0725939
0.0724361
0.0721382
0.0716999
0.0711212
0.0704025
0.0695449
0.0685493
0.0674175
0.066151
0.0647517
0.063222
0.0615641
0.0597806
0.0578741
0.055847
0.0537006
0.0514361
0.0490714
0.0466219
0.0438683
0.0406213
0.0264315
0.022924
0.0199796
0.0173921
0.0149202
0.012578
0.010382
0.00833055
0.00642164
0.0046547
0.00302913
0.00154423
0.000199239
-0.00100664
-0.00207429
-0.00300467
-0.00379883
-0.00445796
-0.00498335
-0.00537642
-0.00563877
-0.00577213
-0.00577832
-0.00565928
-0.00541705
-0.00505386
-0.00457209
-0.00397432
-0.00326329
-0.00244179
-0.00151282
-0.000479532
0.000654656
0.00188615
0.00321119
0.00462589
0.00612626
0.00770808
0.00936701
0.0110985
0.0128978
0.0147602
0.0166805
0.0186536
0.0206742
0.0227365
0.0248348
0.0269633
0.029116
0.0312867
0.0334692
0.0356571
0.037844
0.0400233
0.0421884
0.0443325
0.0464488
0.0485306
0.0505709
0.052563
0.0545002
0.0563757
0.058183
0.0599158
0.0615674
0.0631317
0.0646025
0.0659742
0.0672411
0.0683978
0.0694394
0.0703612
0.0711588
0.0718282
0.0723657
0.0727682
0.0730329
0.0731574
0.0731396
0.072978
0.0726715
0.0722192
0.071621
0.070877
0.0699877
0.068954
0.0677772
0.0664587
0.0650003
0.063404
0.061672
0.0598068
0.0578107
0.0556863
0.0534347
0.0510572
0.0485727
0.0459976
0.0431013
0.0396852
0.0269129
0.0232401
0.020158
0.0174509
0.0148662
0.0124186
0.0101256
0.00798505
0.00599495
0.00415444
0.00246265
0.000918632
-0.000478727
-0.00173056
-0.00283811
-0.00380267
-0.00462563
-0.00530851
-0.00585295
-0.00626074
-0.00653377
-0.00667407
-0.00668369
-0.00656485
-0.00631983
-0.00595114
-0.0054614
-0.00485339
-0.00412998
-0.00329415
-0.00234907
-0.00129806
-0.000144644
0.00110751
0.0024546
0.00389268
0.00541766
0.00702526
0.00871103
0.0104704
0.0122986
0.0141909
0.0161421
0.018147
0.0202002
0.0222962
0.0244291
0.026593
0.028782
0.0309899
0.0332103
0.0354369
0.0376631
0.0398824
0.042088
0.0442733
0.0464312
0.0485547
0.0506371
0.0526714
0.0546507
0.0565682
0.0584172
0.060191
0.061883
0.0634867
0.0649958
0.0664045
0.0677067
0.0688969
0.0699699
0.0709206
0.0717443
0.0724368
0.072994
0.0734126
0.0736895
0.0738218
0.0738073
0.0736439
0.0733303
0.0728655
0.0722488
0.07148
0.0705594
0.0694876
0.0682656
0.0668948
0.0653765
0.0637129
0.0619058
0.0599576
0.0578708
0.0556477
0.0532896
0.0507979
0.0481925
0.0454906
0.0424505
0.0388639
0.02724
0.0234018
0.0201818
0.0173549
0.014657
0.0121038
0.00971321
0.00748326
0.00541156
0.00349707
0.00173875
0.000135307
-0.00131464
-0.00261257
-0.00376002
-0.00475861
-0.00561006
-0.00631622
-0.00687907
-0.00730073
-0.00758338
-0.0077293
-0.0077408
-0.00762039
-0.00737064
-0.00699429
-0.00649418
-0.00587327
-0.00513461
-0.00428138
-0.00331692
-0.00224469
-0.00106832
0.000208465
0.0015818
0.00304763
0.00460177
0.00623983
0.00795733
0.00974963
0.011612
0.0135395
0.0155271
0.0175695
0.0196613
0.0217968
0.0239703
0.0261759
0.0284074
0.0306587
0.0329234
0.035195
0.0374671
0.0397329
0.0419857
0.0442187
0.0464246
0.0485966
0.0507276
0.0528106
0.0548385
0.0568043
0.0587013
0.0605223
0.0622607
0.0639097
0.065463
0.0669141
0.0682571
0.0694861
0.0705953
0.0715797
0.0724341
0.0731539
0.0737348
0.0741732
0.0744655
0.0746087
0.0746
0.0744373
0.0741186
0.0736429
0.073009
0.0722165
0.0712653
0.0701558
0.0688888
0.0674655
0.065887
0.0641553
0.0622723
0.0602402
0.0580614
0.0557385
0.0532727
0.0506654
0.0479375
0.0451075
0.041922
0.0381633
0.0274054
0.0234012
0.0200429
0.0170958
0.0142844
0.011625
0.00913657
0.0068168
0.00466318
0.00267448
0.000849423
-0.000813564
-0.00231613
-0.00366005
-0.00484716
-0.00587937
-0.00675875
-0.00748747
-0.00806783
-0.00850225
-0.00879316
-0.00894311
-0.00895474
-0.00883081
-0.00857417
-0.00818779
-0.0076747
-0.00703805
-0.00628112
-0.00540727
-0.00442002
-0.00332295
-0.00211974
-0.000814227
0.000589622
0.00208764
0.00367554
0.00534885
0.00710302
0.0089334
0.0108352
0.0128034
0.014833
0.0169185
0.0190547
0.0212357
0.0234559
0.0257093
0.0279896
0.0302907
0.0326061
0.0349293
0.0372537
0.0395727
0.0418793
0.0441666
0.0464273
0.0486543
0.0508406
0.0529789
0.055062
0.0570828
0.059034
0.0609087
0.0626997
0.0644003
0.0660036
0.0675032
0.0688926
0.0701657
0.0713166
0.0723396
0.0732294
0.0739811
0.0745901
0.0750522
0.0753637
0.0755211
0.0755214
0.0753619
0.0750407
0.074556
0.0739066
0.0730917
0.072111
0.0709646
0.0696531
0.0681774
0.0665386
0.0647384
0.0627788
0.0606619
0.0583902
0.0559662
0.0533913
0.0506668
0.047815
0.0448551
0.0415223
0.0375892
0.0274016
0.0232307
0.0197334
0.0166653
0.0137398
0.0109739
0.00838715
0.00597726
0.00374147
0.00167841
-0.00021347
-0.00193596
-0.00349097
-0.00488055
-0.00610682
-0.00717203
-0.00807855
-0.00882886
-0.00942557
-0.00987133
-0.0101689
-0.0103211
-0.0103309
-0.0102013
-0.00993536
-0.00953635
-0.00900747
-0.0083521
-0.00757372
-0.0066759
-0.00566228
-0.00453654
-0.00330248
-0.00196403
-0.000525308
0.00100941
0.00263574
0.00434915
0.00614504
0.00801868
0.0099652
0.0119796
0.0140568
0.0161912
0.0183776
0.0206103
0.0228833
0.0251906
0.0275261
0.0298833
0.0322558
0.0346372
0.0370207
0.0393995
0.0417666
0.0441149
0.0464371
0.048726
0.0509743
0.0531747
0.0553198
0.0574021
0.0594144
0.0613493
0.0631995
0.0649579
0.0666176
0.0681717
0.0696135
0.0709366
0.0721346
0.0732016
0.0741321
0.0749206
0.0755622
0.0760524
0.0763871