/*--------------------------------*- C++ -*----------------------------------*\
| =========                 |                                                 |
| \\      /  F ield         | OpenFOAM: The Open Source CFD Toolbox           |
|  \\    /   O peration     | Version:  2212                                  |
|   \\  /    A nd           | Website:  www.openfoam.com                      |
|    \\/     M anipulation  |                                                 |
\*---------------------------------------------------------------------------*/
FoamFile
{
    version     2.0;
    format      ascii;
    arch        "LSB;label=32;scalar=64";
    class       volVectorField;
    location    "0.0065";
    object      U;
}
// * * * * * * * * * * * * * * * * * * * * * * * * * * * * * * * * * * * * * //

dimensions      [0 1 -1 0 0 0 0];

internalField   nonuniform List<vector> 
10000
(
(4.33179e-06 -3.99223e-06 0)
(1.30638e-05 -5.71864e-06 0)
(1.98402e-05 -4.05998e-06 0)
(1.84371e-05 -7.78271e-07 0)
(7.08915e-06 2.87072e-06 0)
(-1.42452e-05 6.36834e-06 0)
(-4.47278e-05 9.46258e-06 0)
(-8.34077e-05 1.21215e-05 0)
(-0.000129188 1.43464e-05 0)
(-0.000181049 1.61707e-05 0)
(-0.000237998 1.76427e-05 0)
(-0.000299162 1.88438e-05 0)
(-0.000363744 1.97945e-05 0)
(-0.000431007 2.05161e-05 0)
(-0.000500289 2.10207e-05 0)
(-0.00057103 2.13464e-05 0)
(-0.000642712 2.15453e-05 0)
(-0.000714896 2.16367e-05 0)
(-0.000787186 2.16013e-05 0)
(-0.000859208 2.14404e-05 0)
(-0.000930654 2.11755e-05 0)
(-0.00100126 2.08494e-05 0)
(-0.0010708 2.05078e-05 0)
(-0.00113907 2.01556e-05 0)
(-0.00120588 1.97606e-05 0)
(-0.00127106 1.9293e-05 0)
(-0.00133446 1.87443e-05 0)
(-0.00139595 1.81221e-05 0)
(-0.0014554 1.74488e-05 0)
(-0.00151269 1.67521e-05 0)
(-0.00156773 1.60505e-05 0)
(-0.00162043 1.53361e-05 0)
(-0.00167072 1.4603e-05 0)
(-0.00171853 1.38532e-05 0)
(-0.00176381 1.30776e-05 0)
(-0.00180652 1.22853e-05 0)
(-0.00184661 1.14822e-05 0)
(-0.00188404 1.06725e-05 0)
(-0.00191879 9.87274e-06 0)
(-0.00195082 9.06778e-06 0)
(-0.00198007 8.25063e-06 0)
(-0.00200655 7.42628e-06 0)
(-0.00203019 6.57656e-06 0)
(-0.00205097 5.71603e-06 0)
(-0.00206888 4.86029e-06 0)
(-0.00208386 3.98903e-06 0)
(-0.00209591 3.11428e-06 0)
(-0.00210504 2.24709e-06 0)
(-0.0021112 1.36761e-06 0)
(-0.0021144 4.93349e-07 0)
(-0.00211467 -3.5842e-07 0)
(-0.00211199 -1.21521e-06 0)
(-0.00210636 -2.07798e-06 0)
(-0.00209781 -2.92763e-06 0)
(-0.00208632 -3.78335e-06 0)
(-0.0020719 -4.65465e-06 0)
(-0.00205457 -5.51505e-06 0)
(-0.00203435 -6.36233e-06 0)
(-0.00201122 -7.21617e-06 0)
(-0.00198522 -8.06889e-06 0)
(-0.00195639 -8.90697e-06 0)
(-0.00192473 -9.74152e-06 0)
(-0.00189027 -1.05773e-05 0)
(-0.00185305 -1.13989e-05 0)
(-0.00181312 -1.22043e-05 0)
(-0.00177048 -1.30089e-05 0)
(-0.00172517 -1.38137e-05 0)
(-0.00167726 -1.46056e-05 0)
(-0.00162681 -1.53795e-05 0)
(-0.00157386 -1.6132e-05 0)
(-0.00151851 -1.68514e-05 0)
(-0.00146086 -1.75298e-05 0)
(-0.00140102 -1.81701e-05 0)
(-0.0013391 -1.87705e-05 0)
(-0.00127521 -1.93217e-05 0)
(-0.00120952 -1.9825e-05 0)
(-0.00114217 -2.02919e-05 0)
(-0.00107332 -2.0721e-05 0)
(-0.00100315 -2.10914e-05 0)
(-0.000931887 -2.13859e-05 0)
(-0.000859785 -2.16024e-05 0)
(-0.000787123 -2.17343e-05 0)
(-0.000714216 -2.17584e-05 0)
(-0.000641435 -2.16518e-05 0)
(-0.000569209 -2.14077e-05 0)
(-0.00049801 -2.10217e-05 0)
(-0.000428362 -2.04703e-05 0)
(-0.000360862 -1.9717e-05 0)
(-0.000296183 -1.87354e-05 0)
(-0.000235078 -1.7509e-05 0)
(-0.000178365 -1.60088e-05 0)
(-0.000126932 -1.41861e-05 0)
(-8.17291e-05 -1.19979e-05 0)
(-4.37552e-05 -9.43222e-06 0)
(-1.3991e-05 -6.50638e-06 0)
(6.69944e-06 -3.26243e-06 0)
(1.7709e-05 1.7389e-07 0)
(1.9071e-05 3.41565e-06 0)
(1.26769e-05 5.46496e-06 0)
(4.04723e-06 4.05476e-06 0)
(5.34863e-06 -1.27094e-05 0)
(1.40364e-05 -1.39068e-05 0)
(1.18214e-05 -2.21473e-06 0)
(-1.00971e-05 1.53356e-05 0)
(-5.5153e-05 3.41225e-05 0)
(-0.000123565 5.22501e-05 0)
(-0.000214076 6.88012e-05 0)
(-0.000324875 8.35252e-05 0)
(-0.000453852 9.63292e-05 0)
(-0.000598732 0.000107268 0)
(-0.000757284 0.000116426 0)
(-0.00092737 0.00012395 0)
(-0.00110693 0.000130006 0)
(-0.00129405 0.000134718 0)
(-0.001487 0.000138209 0)
(-0.00168416 0.00014061 0)
(-0.00188413 0.000142062 0)
(-0.00208564 0.00014267 0)
(-0.00228752 0.000142549 0)
(-0.00248876 0.000141751 0)
(-0.00268849 0.000140356 0)
(-0.00288592 0.000138441 0)
(-0.00308039 0.000136097 0)
(-0.00327132 0.000133389 0)
(-0.00345816 0.00013036 0)
(-0.00364045 0.000127027 0)
(-0.00381779 0.000123407 0)
(-0.0039898 0.00011951 0)
(-0.00415617 0.000115369 0)
(-0.0043166 0.00011102 0)
(-0.00447083 0.000106492 0)
(-0.00461863 0.000101822 0)
(-0.00475978 9.70169e-05 0)
(-0.0048941 9.20984e-05 0)
(-0.00502142 8.70776e-05 0)
(-0.00514158 8.19484e-05 0)
(-0.00525443 7.6737e-05 0)
(-0.00535985 7.14431e-05 0)
(-0.00545771 6.60749e-05 0)
(-0.0055479 6.06539e-05 0)
(-0.00563031 5.51577e-05 0)
(-0.00570485 4.9593e-05 0)
(-0.00577144 4.39721e-05 0)
(-0.00582999 3.82784e-05 0)
(-0.00588042 3.25387e-05 0)
(-0.00592268 2.67715e-05 0)
(-0.00595671 2.09602e-05 0)
(-0.00598245 1.51245e-05 0)
(-0.00599991 9.28724e-06 0)
(-0.00600906 3.44154e-06 0)
(-0.00600986 -2.40212e-06 0)
(-0.00600235 -8.22741e-06 0)
(-0.00598652 -1.4043e-05 0)
(-0.00596236 -1.98566e-05 0)
(-0.00592991 -2.56597e-05 0)
(-0.00588921 -3.14462e-05 0)
(-0.00584027 -3.72169e-05 0)
(-0.00578311 -4.29636e-05 0)
(-0.00571784 -4.86655e-05 0)
(-0.00564449 -5.4314e-05 0)
(-0.0055631 -5.9919e-05 0)
(-0.00547378 -6.5479e-05 0)
(-0.00537666 -7.09716e-05 0)
(-0.0052718 -7.63873e-05 0)
(-0.00515929 -8.17383e-05 0)
(-0.00503931 -8.70213e-05 0)
(-0.00491201 -9.22083e-05 0)
(-0.0047775 -9.72804e-05 0)
(-0.00463593 -0.000102234 0)
(-0.00448755 -0.000107049 0)
(-0.0043326 -0.000111683 0)
(-0.00417126 -0.00011611 0)
(-0.00400379 -0.000120324 0)
(-0.00383056 -0.000124308 0)
(-0.00365191 -0.000128022 0)
(-0.00346819 -0.00013144 0)
(-0.00327981 -0.000134552 0)
(-0.00308727 -0.000137333 0)
(-0.00289116 -0.000139717 0)
(-0.00269205 -0.00014163 0)
(-0.0024906 -0.000143009 0)
(-0.00228763 -0.000143791 0)
(-0.00208409 -0.000143889 0)
(-0.00188101 -0.000143199 0)
(-0.00167954 -0.00014162 0)
(-0.00148097 -0.00013905 0)
(-0.00128683 -0.000135369 0)
(-0.00109875 -0.000130441 0)
(-0.000918532 -0.000124126 0)
(-0.000748088 -0.00011629 0)
(-0.000589521 -0.000106796 0)
(-0.000445066 -9.55229e-05 0)
(-0.000317005 -8.23992e-05 0)
(-0.000207574 -6.74423e-05 0)
(-0.000118828 -5.0809e-05 0)
(-5.24027e-05 -3.29042e-05 0)
(-9.13282e-06 -1.46319e-05 0)
(1.16579e-05 2.15195e-06 0)
(1.36966e-05 1.37904e-05 0)
(5.39847e-06 1.26761e-05 0)
(2.75744e-06 -1.8748e-05 0)
(2.16132e-06 -1.21225e-05 0)
(-1.91695e-05 2.02623e-05 0)
(-7.00156e-05 6.47077e-05 0)
(-0.000154048 0.000112219 0)
(-0.000271582 0.000158378 0)
(-0.000421137 0.000201304 0)
(-0.000600424 0.000240067 0)
(-0.000806641 0.000274368 0)
(-0.00103672 0.0003041 0)
(-0.00128753 0.000329353 0)
(-0.00155596 0.000350347 0)
(-0.00183903 0.000367378 0)
(-0.0021339 0.000380742 0)
(-0.00243788 0.000390771 0)
(-0.00274855 0.000397769 0)
(-0.00306368 0.000402048 0)
(-0.00338129 0.000403925 0)
(-0.0036996 0.000403672 0)
(-0.00401702 0.00040154 0)
(-0.00433212 0.000397744 0)
(-0.00464368 0.000392483 0)
(-0.0049506 0.000385927 0)
(-0.00525195 0.000378251 0)
(-0.0055469 0.000369599 0)
(-0.00583473 0.000360086 0)
(-0.00611476 0.000349809 0)
(-0.00638644 0.000338839 0)
(-0.00664925 0.000327233 0)
(-0.00690274 0.000315062 0)
(-0.00714651 0.000302382 0)
(-0.00738018 0.000289254 0)
(-0.00760345 0.000275736 0)
(-0.00781597 0.000261862 0)
(-0.00801747 0.000247676 0)
(-0.00820771 0.000233198 0)
(-0.00838641 0.000218441 0)
(-0.00855338 0.000203441 0)
(-0.0087084 0.000188204 0)
(-0.00885129 0.000172747 0)
(-0.00898189 0.000157106 0)
(-0.00910002 0.000141264 0)
(-0.00920555 0.000125244 0)
(-0.00929837 0.000109083 0)
(-0.00937834 9.27712e-05 0)
(-0.00944535 7.63389e-05 0)
(-0.00949937 5.98363e-05 0)
(-0.00954029 4.32509e-05 0)
(-0.00956804 2.66038e-05 0)
(-0.00958264 9.9541e-06 0)
(-0.00958403 -6.70566e-06 0)
(-0.00957216 -2.33832e-05 0)
(-0.0095471 -4.00259e-05 0)
(-0.00950886 -5.66204e-05 0)
(-0.0094574 -7.31957e-05 0)
(-0.00939283 -8.97249e-05 0)
(-0.00931524 -0.00010616 0)
(-0.00922466 -0.000122502 0)
(-0.00912115 -0.000138745 0)
(-0.00900488 -0.000154842 0)
(-0.00887597 -0.00017077 0)
(-0.0087345 -0.000186535 0)
(-0.00858066 -0.000202118 0)
(-0.00841465 -0.00021748 0)
(-0.00823665 -0.000232606 0)
(-0.00804685 -0.000247486 0)
(-0.0078455 -0.000262079 0)
(-0.00763289 -0.000276339 0)
(-0.00740927 -0.000290229 0)
(-0.00717494 -0.000303704 0)
(-0.00693025 -0.000316704 0)
(-0.0066756 -0.000329173 0)
(-0.00641141 -0.000341064 0)
(-0.00613812 -0.000352308 0)
(-0.00585628 -0.000362821 0)
(-0.00556648 -0.000372525 0)
(-0.00526942 -0.000381343 0)
(-0.00496584 -0.000389159 0)
(-0.00465661 -0.000395815 0)
(-0.0043427 -0.000401137 0)
(-0.00402523 -0.000404948 0)
(-0.00370549 -0.000407048 0)
(-0.0033849 -0.000407198 0)
(-0.0030651 -0.000405133 0)
(-0.0027479 -0.000400576 0)
(-0.00243535 -0.000393241 0)
(-0.00212972 -0.000382807 0)
(-0.0018335 -0.000368938 0)
(-0.00154937 -0.0003513 0)
(-0.00128024 -0.000329586 0)
(-0.00102919 -0.000303523 0)
(-0.000799385 -0.000272914 0)
(-0.000594006 -0.000237706 0)
(-0.000416106 -0.000198094 0)
(-0.000268382 -0.000154659 0)
(-0.000152858 -0.000108625 0)
(-7.04306e-05 -6.23203e-05 0)
(-2.00854e-05 -1.98445e-05 0)
(1.9377e-06 1.17042e-05 0)
(3.27763e-06 1.89487e-05 0)
(-4.2445e-07 -1.74851e-05 0)
(-1.37063e-05 7.39932e-06 0)
(-5.92032e-05 6.96177e-05 0)
(-0.000143123 0.000150286 0)
(-0.000268485 0.000235878 0)
(-0.000435649 0.000319496 0)
(-0.000642866 0.000397758 0)
(-0.000887405 0.000469056 0)
(-0.00116591 0.00053259 0)
(-0.00147472 0.000588095 0)
(-0.00180996 0.000635595 0)
(-0.0021678 0.000675341 0)
(-0.00254449 0.000707739 0)
(-0.00293646 0.000733321 0)
(-0.00334035 0.000752617 0)
(-0.00375301 0.000766188 0)
(-0.00417156 0.000774575 0)
(-0.00459341 0.000778324 0)
(-0.00501624 0.000777943 0)
(-0.00543796 0.000773948 0)
(-0.00585674 0.000766753 0)
(-0.00627093 0.000756743 0)
(-0.00667906 0.000744251 0)
(-0.00707986 0.000729566 0)
(-0.00747222 0.000712959 0)
(-0.00785515 0.000694666 0)
(-0.00822781 0.000674886 0)
(-0.00858941 0.000653784 0)
(-0.00893927 0.000631489 0)
(-0.00927679 0.000608125 0)
(-0.00960141 0.000583797 0)
(-0.00991263 0.000558596 0)
(-0.01021 0.000532622 0)
(-0.0104931 0.000505941 0)
(-0.0107616 0.000478617 0)
(-0.0110151 0.000450713 0)
(-0.0112532 0.000422259 0)
(-0.0114757 0.000393304 0)
(-0.0116823 0.000363891 0)
(-0.0118728 0.000334033 0)
(-0.0120468 0.000303782 0)
(-0.0122043 0.000273179 0)
(-0.012345 0.000242225 0)
(-0.0124687 0.000210978 0)
(-0.0125753 0.000179487 0)
(-0.0126646 0.000147752 0)
(-0.0127366 0.00011583 0)
(-0.0127912 8.37888e-05 0)
(-0.0128283 5.16327e-05 0)
(-0.0128477 1.93941e-05 0)
(-0.0128496 -1.28581e-05 0)
(-0.0128338 -4.51083e-05 0)
(-0.0128004 -7.73481e-05 0)
(-0.0127494 -0.000109521 0)
(-0.0126809 -0.000141586 0)
(-0.0125948 -0.000173539 0)
(-0.0124914 -0.000205344 0)
(-0.0123707 -0.000236945 0)
(-0.0122328 -0.000268306 0)
(-0.0120778 -0.000299401 0)
(-0.011906 -0.000330184 0)
(-0.0117176 -0.000360612 0)
(-0.0115127 -0.000390651 0)
(-0.0112916 -0.00042026 0)
(-0.0110546 -0.000449392 0)
(-0.0108019 -0.000478 0)
(-0.0105339 -0.000506029 0)
(-0.0102509 -0.000533406 0)
(-0.00995331 -0.000560054 0)
(-0.00964153 -0.000585895 0)
(-0.00931607 -0.000610841 0)
(-0.0089774 -0.000634793 0)
(-0.00862607 -0.000657632 0)
(-0.00826273 -0.000679231 0)
(-0.00788811 -0.000699449 0)
(-0.007503 -0.000718119 0)
(-0.00710826 -0.000735042 0)
(-0.00670494 -0.000749981 0)
(-0.00629423 -0.000762667 0)
(-0.00587743 -0.00077279 0)
(-0.00545599 -0.000779995 0)
(-0.00503161 -0.000783884 0)
(-0.00460622 -0.000784024 0)
(-0.00418195 -0.00077994 0)
(-0.00376117 -0.000771118 0)
(-0.00334649 -0.000757004 0)
(-0.00294083 -0.000737026 0)
(-0.00254738 -0.000710613 0)
(-0.00216957 -0.000677213 0)
(-0.00181099 -0.000636326 0)
(-0.00147543 -0.000587543 0)
(-0.00116678 -0.000530629 0)
(-0.000888874 -0.000465638 0)
(-0.00064531 -0.000393067 0)
(-0.000439212 -0.000314086 0)
(-0.000272942 -0.000230932 0)
(-0.000147628 -0.000147514 0)
(-6.24729e-05 -7.01873e-05 0)
(-1.4804e-05 -9.21497e-06 0)
(6.72663e-08 1.74789e-05 0)
(-3.61798e-06 -6.98457e-06 0)
(-3.1121e-05 4.83193e-05 0)
(-0.000103526 0.000149449 0)
(-0.000223119 0.000274141 0)
(-0.000391227 0.000405229 0)
(-0.000607924 0.000533409 0)
(-0.00087117 0.000653888 0)
(-0.0011778 0.000764093 0)
(-0.00152403 0.000862749 0)
(-0.00190565 0.000949308 0)
(-0.00231831 0.00102372 0)
(-0.00275756 0.00108627 0)
(-0.00321908 0.00113748 0)
(-0.0036987 0.00117805 0)
(-0.00419249 0.00120877 0)
(-0.00469678 0.00123048 0)
(-0.00520817 0.00124402 0)
(-0.00572357 0.00125019 0)
(-0.00624016 0.00124978 0)
(-0.00675545 0.00124352 0)
(-0.00726721 0.00123211 0)
(-0.00777346 0.00121618 0)
(-0.00827244 0.00119627 0)
(-0.00876257 0.00117284 0)
(-0.00924249 0.00114632 0)
(-0.00971097 0.00111706 0)
(-0.0101669 0.00108538 0)
(-0.0106094 0.00105155 0)
(-0.0110377 0.00101581 0)
(-0.0114508 0.000978341 0)
(-0.0118482 0.000939331 0)
(-0.0122293 0.00089892 0)
(-0.0125934 0.00085724 0)
(-0.0129401 0.000814408 0)
(-0.0132688 0.000770508 0)
(-0.0135792 0.000725641 0)
(-0.0138709 0.000679884 0)
(-0.0141434 0.000633291 0)
(-0.0143964 0.000585948 0)
(-0.0146296 0.000537904 0)
(-0.0148428 0.000489196 0)
(-0.0150357 0.00043991 0)
(-0.015208 0.000390101 0)
(-0.0153595 0.000339798 0)
(-0.01549 0.000289083 0)
(-0.0155995 0.000238023 0)
(-0.0156876 0.000186647 0)
(-0.0157545 0.000135025 0)
(-0.0157998 8.32459e-05 0)
(-0.0158237 3.13482e-05 0)
(-0.015826 -2.06283e-05 0)
(-0.0158066 -7.26076e-05 0)
(-0.0157658 -0.000124529 0)
(-0.0157033 -0.000176358 0)
(-0.0156193 -0.000228042 0)
(-0.015514 -0.000279508 0)
(-0.0153873 -0.0003307 0)
(-0.0152395 -0.000381573 0)
(-0.0150706 -0.000432059 0)
(-0.0148809 -0.000482086 0)
(-0.0146706 -0.000531603 0)
(-0.0144399 -0.00058055 0)
(-0.0141891 -0.000628845 0)
(-0.0139185 -0.000676413 0)
(-0.0136284 -0.000723198 0)
(-0.0133191 -0.000769122 0)
(-0.0129911 -0.000814075 0)
(-0.0126448 -0.000857955 0)
(-0.0122807 -0.000900668 0)
(-0.0118993 -0.000942089 0)
(-0.0115012 -0.000982061 0)
(-0.0110869 -0.00102042 0)
(-0.0106573 -0.00105701 0)
(-0.0102131 -0.00109161 0)
(-0.0097551 -0.00112398 0)
(-0.00928437 -0.00115383 0)
(-0.00880201 -0.00118085 0)
(-0.00830927 -0.00120468 0)
(-0.00780757 -0.00122487 0)
(-0.00729852 -0.00124091 0)
(-0.00678393 -0.00125227 0)
(-0.00626585 -0.00125834 0)
(-0.00574658 -0.00125843 0)
(-0.00522867 -0.00125179 0)
(-0.00471495 -0.00123762 0)
(-0.00420854 -0.00121511 0)
(-0.00371289 -0.0011834 0)
(-0.0032317 -0.00114166 0)
(-0.00276895 -0.00108909 0)
(-0.00232882 -0.00102501 0)
(-0.00191563 -0.000948906 0)
(-0.00153379 -0.00086055 0)
(-0.00118761 -0.000760145 0)
(-0.000881106 -0.000648554 0)
(-0.000617826 -0.000527611 0)
(-0.00040055 -0.000400579 0)
(-0.000230859 -0.000272813 0)
(-0.00010859 -0.000152578 0)
(-3.29322e-05 -5.25134e-05 0)
(-3.32421e-06 6.41825e-06 0)
(-6.59762e-06 1.27464e-05 0)
(-4.85228e-05 0.000111799 0)
(-0.000148785 0.000261519 0)
(-0.000304853 0.000437675 0)
(-0.000515951 0.000620731 0)
(-0.000781394 0.000799451 0)
(-0.00109873 0.000967685 0)
(-0.00146437 0.001122 0)
(-0.00187406 0.00126053 0)
(-0.0023232 0.00138243 0)
(-0.00280699 0.00148753 0)
(-0.00332055 0.00157616 0)
(-0.00385911 0.00164896 0)
(-0.00441802 0.0017068 0)
(-0.00499289 0.00175073 0)
(-0.00557963 0.00178186 0)
(-0.00617441 0.00180136 0)
(-0.00677375 0.00181035 0)
(-0.00737447 0.00180993 0)
(-0.00797369 0.0018011 0)
(-0.00856884 0.00178483 0)
(-0.00915765 0.00176197 0)
(-0.00973807 0.00173333 0)
(-0.0103083 0.00169959 0)
(-0.0108668 0.00166135 0)
(-0.011412 0.00161914 0)
(-0.0119428 0.00157341 0)
(-0.0124579 0.00152454 0)
(-0.0129565 0.00147287 0)
(-0.0134376 0.00141869 0)
(-0.0139004 0.00136225 0)
(-0.0143442 0.00130376 0)
(-0.0147683 0.00124342 0)
(-0.0151721 0.00118138 0)
(-0.015555 0.00111778 0)
(-0.0159165 0.00105275 0)
(-0.0162562 0.000986405 0)
(-0.0165737 0.000918847 0)
(-0.0168684 0.000850158 0)
(-0.0171401 0.000780458 0)
(-0.0173884 0.000709816 0)
(-0.017613 0.000638297 0)
(-0.0178137 0.000566018 0)
(-0.0179902 0.000493065 0)
(-0.0181423 0.000419487 0)
(-0.0182697 0.000345386 0)
(-0.0183724 0.000270867 0)
(-0.0184503 0.000195992 0)
(-0.018503 0.000120838 0)
(-0.0185308 4.55158e-05 0)
(-0.0185335 -2.98941e-05 0)
(-0.0185109 -0.000105332 0)
(-0.0184633 -0.0001807 0)
(-0.0183905 -0.000255908 0)
(-0.0182928 -0.000330894 0)
(-0.01817 -0.000405578 0)
(-0.0180225 -0.000479851 0)
(-0.0178503 -0.000553633 0)
(-0.0176537 -0.000626851 0)
(-0.0174328 -0.000699407 0)
(-0.0171878 -0.000771193 0)
(-0.0169192 -0.000842126 0)
(-0.0166272 -0.000912114 0)
(-0.016312 -0.000981042 0)
(-0.0159742 -0.00104879 0)
(-0.0156142 -0.00111526 0)
(-0.0152323 -0.00118031 0)
(-0.0148292 -0.00124381 0)
(-0.0144053 -0.00130558 0)
(-0.0139613 -0.00136545 0)
(-0.013498 -0.00142323 0)
(-0.0130159 -0.00147868 0)
(-0.012516 -0.00153154 0)
(-0.0119992 -0.00158149 0)
(-0.0114664 -0.00162819 0)
(-0.0109189 -0.00167123 0)
(-0.010358 -0.00171016 0)
(-0.00978509 -0.00174442 0)
(-0.00920185 -0.0017734 0)
(-0.00861015 -0.0017964 0)
(-0.00801208 -0.00181264 0)
(-0.00740998 -0.00182125 0)
(-0.00680648 -0.00182125 0)
(-0.0062045 -0.00181163 0)
(-0.00560725 -0.00179129 0)
(-0.00501823 -0.0017591 0)
(-0.00444129 -0.00171389 0)
(-0.0038806 -0.00165458 0)
(-0.00334056 -0.00158012 0)
(-0.00282577 -0.00148967 0)
(-0.00234098 -0.00138261 0)
(-0.00189098 -0.00125873 0)
(-0.00148051 -0.00111841 0)
(-0.00111398 -0.000962911 0)
(-0.000795384 -0.000794693 0)
(-0.000528012 -0.00061792 0)
(-0.000314131 -0.000439132 0)
(-0.000154562 -0.000268048 0)
(-5.07348e-05 -0.000118881 0)
(-6.54356e-06 -1.42536e-05 0)
(-9.30493e-06 4.12927e-05 0)
(-6.50494e-05 0.000197557 0)
(-0.000192419 0.000405754 0)
(-0.000384319 0.000640748 0)
(-0.000637414 0.000881736 0)
(-0.000950076 0.00111615 0)
(-0.00131918 0.00133676 0)
(-0.00174064 0.00153936 0)
(-0.0022098 0.00172156 0)
(-0.00272163 0.00188221 0)
(-0.00327095 0.00202102 0)
(-0.00385255 0.00213831 0)
(-0.00446126 0.00223487 0)
(-0.0050921 0.00231179 0)
(-0.00574032 0.00237034 0)
(-0.00640142 0.00241193 0)
(-0.00707127 0.00243803 0)
(-0.00774606 0.00245011 0)
(-0.00842229 0.00244959 0)
(-0.00909681 0.00243782 0)
(-0.00976677 0.00241604 0)
(-0.0104296 0.00238537 0)
(-0.0110831 0.00234687 0)
(-0.0117252 0.00230144 0)
(-0.012354 0.0022499 0)
(-0.0129681 0.00219295 0)
(-0.0135659 0.00213122 0)
(-0.0141462 0.00206522 0)
(-0.0147079 0.00199541 0)
(-0.01525 0.00192217 0)
(-0.0157714 0.00184584 0)
(-0.0162715 0.00176672 0)
(-0.0167494 0.00168505 0)
(-0.0172044 0.00160105 0)
(-0.017636 0.00151494 0)
(-0.0180434 0.00142685 0)
(-0.0184262 0.00133696 0)
(-0.018784 0.00124542 0)
(-0.0191161 0.00115235 0)
(-0.0194223 0.00105786 0)
(-0.0197022 0.000962102 0)
(-0.0199553 0.00086519 0)
(-0.0201814 0.000767212 0)
(-0.0203803 0.000668308 0)
(-0.0205517 0.000568596 0)
(-0.0206953 0.000468166 0)
(-0.020811 0.000367141 0)
(-0.0208986 0.000265656 0)
(-0.0209582 0.000163805 0)
(-0.0209894 6.16953e-05 0)
(-0.0209923 -4.05381e-05 0)
(-0.0209669 -0.000142786 0)
(-0.0209132 -0.00024495 0)
(-0.0208312 -0.000346908 0)
(-0.020721 -0.000448543 0)
(-0.0205827 -0.000549747 0)
(-0.0204165 -0.000650409 0)
(-0.0202224 -0.000750404 0)
(-0.0200008 -0.000849606 0)
(-0.0197519 -0.000947893 0)
(-0.019476 -0.00104514 0)
(-0.0191733 -0.00114122 0)
(-0.0188442 -0.00123599 0)
(-0.0184892 -0.00132929 0)
(-0.0181086 -0.001421 0)
(-0.017703 -0.00151096 0)
(-0.0172728 -0.00159897 0)
(-0.0168186 -0.00168484 0)
(-0.0163412 -0.00176837 0)
(-0.0158412 -0.00184931 0)
(-0.0153193 -0.0019274 0)
(-0.0147764 -0.00200231 0)
(-0.0142134 -0.00207368 0)
(-0.0136315 -0.0021411 0)
(-0.0130317 -0.0022041 0)
(-0.0124154 -0.00226213 0)
(-0.0117841 -0.00231456 0)
(-0.0111393 -0.00236067 0)
(-0.010483 -0.00239963 0)
(-0.00981714 -0.00243052 0)
(-0.00914417 -0.0024523 0)
(-0.00846665 -0.00246382 0)
(-0.00778748 -0.00246381 0)
(-0.00710987 -0.00245095 0)
(-0.00643732 -0.0024238 0)
(-0.00577367 -0.00238093 0)
(-0.00512312 -0.00232089 0)
(-0.00449016 -0.00224228 0)
(-0.00387955 -0.00214384 0)
(-0.0032962 -0.00202453 0)
(-0.00274522 -0.00188363 0)
(-0.00223177 -0.00172097 0)
(-0.00176093 -0.00153712 0)
(-0.00133755 -0.00133367 0)
(-0.000966079 -0.00111359 0)
(-0.00065048 -0.000881781 0)
(-0.00039388 -0.000645664 0)
(-0.000198253 -0.000415919 0)
(-6.73748e-05 -0.000207586 0)
(-9.44246e-06 -4.39404e-05 0)
(-1.17097e-05 7.79564e-05 0)
(-8.02015e-05 0.000304391 0)
(-0.000233105 0.000580795 0)
(-0.000458986 0.00088188 0)
(-0.00075218 0.00118648 0)
(-0.00110983 0.00148125 0)
(-0.00152801 0.00175823 0)
(-0.00200203 0.00201258 0)
(-0.00252677 0.00224152 0)
(-0.00309682 0.00244363 0)
(-0.00370663 0.00261849 0)
(-0.00435066 0.00276649 0)
(-0.00502345 0.00288851 0)
(-0.00571972 0.00298585 0)
(-0.00643442 0.00306007 0)
(-0.00716279 0.00311288 0)
(-0.0079004 0.00314605 0)
(-0.00864316 0.0031614 0)
(-0.00938733 0.00316067 0)
(-0.0101295 0.00314556 0)
(-0.0108666 0.00311763 0)
(-0.0115959 0.0030783 0)
(-0.0123149 0.00302888 0)
(-0.0130214 0.00297053 0)
(-0.0137135 0.00290428 0)
(-0.0143892 0.00283103 0)
(-0.0150472 0.00275156 0)
(-0.015686 0.00266656 0)
(-0.0163042 0.00257661 0)
(-0.0169009 0.00248221 0)
(-0.017475 0.00238379 0)
(-0.0180255 0.00228173 0)
(-0.0185517 0.00217637 0)
(-0.0190527 0.00206796 0)
(-0.0195278 0.00195677 0)
(-0.0199764 0.00184305 0)
(-0.0203979 0.00172698 0)
(-0.0207918 0.00160873 0)
(-0.0211575 0.00148852 0)
(-0.0214946 0.00136648 0)
(-0.0218027 0.00124278 0)
(-0.0220814 0.00111758 0)
(-0.0223304 0.000991033 0)
(-0.0225493 0.000863269 0)
(-0.0227379 0.00073445 0)
(-0.022896 0.000604727 0)
(-0.0230234 0.000474237 0)
(-0.0231199 0.00034313 0)
(-0.0231853 0.000211562 0)
(-0.0232197 7.96752e-05 0)
(-0.0232229 -5.23878e-05 0)
(-0.0231949 -0.000184479 0)
(-0.0231357 -0.000316442 0)
(-0.0230455 -0.000448136 0)
(-0.0229241 -0.000579423 0)
(-0.0227718 -0.000710149 0)
(-0.0225888 -0.000840148 0)
(-0.0223752 -0.000969277 0)
(-0.0221312 -0.00109739 0)
(-0.0218572 -0.00122432 0)
(-0.0215534 -0.00134987 0)
(-0.0212202 -0.0014739 0)
(-0.020858 -0.00159622 0)
(-0.0204671 -0.00171666 0)
(-0.0200482 -0.001835 0)
(-0.0196017 -0.00195105 0)
(-0.0191282 -0.00206458 0)
(-0.0186283 -0.00217534 0)
(-0.0181029 -0.00228304 0)
(-0.0175525 -0.00238738 0)
(-0.0169782 -0.002488 0)
(-0.0163808 -0.0025845 0)
(-0.0157613 -0.00267641 0)
(-0.015121 -0.0027632 0)
(-0.0144611 -0.00284426 0)
(-0.0137831 -0.00291888 0)
(-0.0130886 -0.00298627 0)
(-0.0123794 -0.0030455 0)
(-0.0116574 -0.00309553 0)
(-0.0109251 -0.00313518 0)
(-0.0101848 -0.00316314 0)
(-0.00943947 -0.00317796 0)
(-0.00869216 -0.00317809 0)
(-0.00794632 -0.00316184 0)
(-0.00720574 -0.00312749 0)
(-0.00647451 -0.00307325 0)
(-0.0057571 -0.00299738 0)
(-0.00505826 -0.00289818 0)
(-0.00438303 -0.00277415 0)
(-0.00373663 -0.00262403 0)
(-0.00312445 -0.00244705 0)
(-0.00255198 -0.00224303 0)
(-0.00202469 -0.00201266 0)
(-0.00154784 -0.00175778 0)
(-0.00112644 -0.00148177 0)
(-0.000765191 -0.00119003 0)
(-0.000468185 -0.000890556 0)
(-0.0002386 -0.000594516 0)
(-8.24918e-05 -0.000317224 0)
(-1.19777e-05 -8.18369e-05 0)
(-1.38314e-05 0.000122006 0)
(-9.38545e-05 0.000430616 0)
(-0.000270166 0.000784586 0)
(-0.000527641 0.00115886 0)
(-0.000858355 0.00153251 0)
(-0.00125827 0.00189204 0)
(-0.00172253 0.00222897 0)
(-0.00224574 0.0025381 0)
(-0.00282228 0.00281633 0)
(-0.00344634 0.00306208 0)
(-0.00411202 0.0032749 0)
(-0.00481346 0.00345518 0)
(-0.00554494 0.00360396 0)
(-0.00630089 0.00372275 0)
(-0.00707605 0.0038134 0)
(-0.00786543 0.00387792 0)
(-0.00866435 0.00391844 0)
(-0.00946852 0.00393709 0)
(-0.010274 0.003936 0)
(-0.0110771 0.00391716 0)
(-0.0118747 0.00388247 0)
(-0.0126637 0.00383368 0)
(-0.0134416 0.00377237 0)
(-0.014206 0.00369996 0)
(-0.0149547 0.0036177 0)
(-0.0156859 0.00352672 0)
(-0.0163978 0.00342797 0)
(-0.017089 0.00332229 0)
(-0.0177581 0.00321041 0)
(-0.0184038 0.00309295 0)
(-0.0190251 0.00297047 0)
(-0.0196209 0.00284341 0)
(-0.0201903 0.00271219 0)
(-0.0207325 0.00257719 0)
(-0.0212467 0.00243868 0)
(-0.0217322 0.00229698 0)
(-0.0221884 0.00215234 0)
(-0.0226147 0.002005 0)
(-0.0230105 0.00185516 0)
(-0.0233753 0.00170307 0)
(-0.0237087 0.0015489 0)
(-0.0240103 0.00139285 0)
(-0.0242797 0.00123511 0)
(-0.0245167 0.00107588 0)
(-0.0247208 0.000915327 0)
(-0.0248918 0.000753638 0)
(-0.0250297 0.000591008 0)
(-0.025134 0.000427617 0)
(-0.0252049 0.000263635 0)
(-0.025242 9.92561e-05 0)
(-0.0252455 -6.53255e-05 0)
(-0.0252151 -0.000229942 0)
(-0.0251511 -0.000394414 0)
(-0.0250534 -0.000558547 0)
(-0.024922 -0.000722157 0)
(-0.0247572 -0.000885061 0)
(-0.0245592 -0.00104707 0)
(-0.024328 -0.00120798 0)
(-0.024064 -0.00136761 0)
(-0.0237674 -0.00152574 0)
(-0.0234387 -0.00168217 0)
(-0.0230781 -0.00183668 0)
(-0.0226861 -0.00198906 0)
(-0.0222632 -0.00213906 0)
(-0.0218099 -0.00228645 0)
(-0.0213267 -0.00243096 0)
(-0.0208144 -0.00257231 0)
(-0.0202736 -0.00271017 0)
(-0.019705 -0.00284421 0)
(-0.0191096 -0.00297404 0)
(-0.0184882 -0.00309921 0)
(-0.0178418 -0.0032192 0)
(-0.0171717 -0.00333346 0)
(-0.016479 -0.00344132 0)
(-0.0157652 -0.00354202 0)
(-0.0150318 -0.0036347 0)
(-0.0142806 -0.00371837 0)
(-0.0135134 -0.00379189 0)
(-0.0127325 -0.00385399 0)
(-0.0119403 -0.00390322 0)
(-0.0111394 -0.00393798 0)
(-0.0103329 -0.00395655 0)
(-0.00952407 -0.00395702 0)
(-0.00871654 -0.00393741 0)
(-0.00791431 -0.00389564 0)
(-0.0071217 -0.00382959 0)
(-0.00634338 -0.00373718 0)
(-0.00558433 -0.00361643 0)
(-0.00484984 -0.00346557 0)
(-0.00414537 -0.00328317 0)
(-0.00347661 -0.0030683 0)
(-0.00284939 -0.00282077 0)
(-0.00226952 -0.00254131 0)
(-0.00174275 -0.00223193 0)
(-0.00127467 -0.00189625 0)
(-0.000870788 -0.00153996 0)
(-0.000536164 -0.00117133 0)
(-0.000275185 -0.000801625 0)
(-9.6002e-05 -0.000446057 0)
(-1.41778e-05 -0.000127085 0)
(-1.56779e-05 0.000172606 0)
(-0.000105986 0.000574395 0)
(-0.000303476 0.0010147 0)
(-0.000589855 0.00146899 0)
(-0.000955218 0.00191703 0)
(-0.00139437 0.00234545 0)
(-0.00190152 0.0027457 0)
(-0.00247052 0.00311234 0)
(-0.00309519 0.00344211 0)
(-0.00376929 0.00373335 0)
(-0.00448658 0.00398563 0)
(-0.0052409 0.00419943 0)
(-0.00602624 0.00437598 0)
(-0.00683683 0.004517 0)
(-0.00766716 0.00462461 0)
(-0.00851205 0.00470116 0)
(-0.00936664 0.00474914 0)
(-0.0102265 0.00477103 0)
(-0.0110874 0.0047693 0)
(-0.0119456 0.00474631 0)
(-0.0127977 0.00470428 0)
(-0.0136406 0.00464526 0)
(-0.0144716 0.00457115 0)
(-0.0152881 0.00448362 0)
(-0.0160878 0.00438418 0)
(-0.0168688 0.00427416 0)
(-0.0176293 0.0041547 0)
(-0.0183676 0.00402684 0)
(-0.0190823 0.00389142 0)
(-0.0197721 0.00374921 0)
(-0.0204357 0.00360087 0)
(-0.0210722 0.00344697 0)
(-0.0216805 0.00328798 0)
(-0.0222597 0.00312437 0)
(-0.022809 0.00295652 0)
(-0.0233277 0.00278476 0)
(-0.023815 0.00260942 0)
(-0.0242703 0.00243079 0)
(-0.0246931 0.00224915 0)
(-0.0250828 0.00206473 0)
(-0.0254389 0.00187781 0)
(-0.0257611 0.00168862 0)
(-0.0260489 0.00149737 0)
(-0.0263019 0.0013043 0)
(-0.0265199 0.00110965 0)
(-0.0267026 0.000913633 0)
(-0.0268498 0.000716458 0)
(-0.0269613 0.000518364 0)
(-0.0270369 0.000319568 0)
(-0.0270766 0.000120292 0)
(-0.0270802 -7.92424e-05 0)
(-0.0270478 -0.000278816 0)
(-0.0269794 -0.000478205 0)
(-0.026875 -0.000677179 0)
(-0.0267347 -0.000875523 0)
(-0.0265587 -0.00107301 0)
(-0.0263471 -0.0012694 0)
(-0.0261002 -0.00146445 0)
(-0.0258182 -0.00165794 0)
(-0.0255015 -0.00184961 0)
(-0.0251503 -0.0020392 0)
(-0.0247652 -0.00222646 0)
(-0.0243465 -0.00241112 0)
(-0.0238948 -0.0025929 0)
(-0.0234106 -0.00277148 0)
(-0.0228946 -0.00294656 0)
(-0.0223474 -0.00311778 0)
(-0.0217697 -0.00328477 0)
(-0.0211625 -0.00344709 0)
(-0.0205266 -0.00360427 0)
(-0.0198629 -0.00375578 0)
(-0.0191726 -0.003901 0)
(-0.0184569 -0.00403924 0)
(-0.0177172 -0.00416972 0)
(-0.0169548 -0.00429152 0)
(-0.0161716 -0.00440359 0)
(-0.0153693 -0.00450474 0)
(-0.01455 -0.00459363 0)
(-0.0137159 -0.00466873 0)
(-0.0128697 -0.00472833 0)
(-0.0120141 -0.00477055 0)
(-0.0111522 -0.00479332 0)
(-0.0102877 -0.00479446 0)
(-0.00942418 -0.00477161 0)
(-0.0085659 -0.00472235 0)
(-0.00771734 -0.00464423 0)
(-0.00688336 -0.00453481 0)
(-0.00606914 -0.00439181 0)
(-0.00528019 -0.00421319 0)
(-0.00452221 -0.0039973 0)
(-0.00380119 -0.00374306 0)
(-0.00312324 -0.00345016 0)
(-0.00249461 -0.00311935 0)
(-0.0019215 -0.00275265 0)
(-0.00141014 -0.00235378 0)
(-0.000966835 -0.00192852 0)
(-0.000597596 -0.00148513 0)
(-0.000307977 -0.00103476 0)
(-0.000107968 -0.000592185 0)
(-1.60956e-05 -0.000178845 0)
(-1.72916e-05 0.000228997 0)
(-0.000116682 0.000733861 0)
(-0.000333151 0.00126861 0)
(-0.00064572 0.00180944 0)
(-0.00104278 0.00233698 0)
(-0.00151805 0.00283834 0)
(-0.00206484 0.00330509 0)
(-0.00267628 0.00373178 0)
(-0.00334556 0.00411512 0)
(-0.004066 0.00445348 0)
(-0.00483098 0.0047465 0)
(-0.00563406 0.00499483 0)
(-0.00646897 0.0051999 0)
(-0.00732971 0.0053637 0)
(-0.00821057 0.00548864 0)
(-0.00910619 0.00557742 0)
(-0.0100115 0.00563285 0)
(-0.010922 0.00565782 0)
(-0.0118333 0.00565513 0)
(-0.0127415 0.00562752 0)
(-0.013643 0.00557754 0)
(-0.0145347 0.00550758 0)
(-0.0154136 0.0054198 0)
(-0.0162772 0.00531618 0)
(-0.017123 0.00519846 0)
(-0.017949 0.00506821 0)
(-0.0187532 0.00492676 0)
(-0.019534 0.00477531 0)
(-0.0202898 0.00461489 0)
(-0.0210193 0.0044464 0)
(-0.0217211 0.00427059 0)
(-0.0223942 0.00408815 0)
(-0.0230375 0.00389968 0)
(-0.02365 0.00370569 0)
(-0.0242309 0.00350664 0)
(-0.0247793 0.00330295 0)
(-0.0252947 0.00309499 0)
(-0.0257761 0.00288312 0)
(-0.0262232 0.00266767 0)
(-0.0266353 0.00244893 0)
(-0.0270119 0.00222721 0)
(-0.0273525 0.00200278 0)
(-0.0276568 0.00177594 0)
(-0.0279243 0.00154694 0)
(-0.0281548 0.00131605 0)
(-0.028348 0.00108355 0)
(-0.0285036 0.000849686 0)
(-0.0286214 0.000614736 0)
(-0.0287014 0.000378953 0)
(-0.0287433 0.000142601 0)
(-0.0287471 -9.40514e-05 0)
(-0.0287128 -0.00033075 0)
(-0.0286405 -0.000567229 0)
(-0.0285301 -0.000803216 0)
(-0.0283818 -0.00103845 0)
(-0.0281957 -0.00127265 0)