/*--------------------------------*- C++ -*----------------------------------*\
| =========                 |                                                 |
| \\      /  F ield         | OpenFOAM: The Open Source CFD Toolbox           |
|  \\    /   O peration     | Version:  2212                                  |
|   \\  /    A nd           | Website:  www.openfoam.com                      |
|    \\/     M anipulation  |                                                 |
\*---------------------------------------------------------------------------*/
FoamFile
{
    version     2.0;
    format      ascii;
    arch        "LSB;label=32;scalar=64";
    class       volVectorField;
    location    "0.0065";
    object      U_0;
}
// * * * * * * * * * * * * * * * * * * * * * * * * * * * * * * * * * * * * * //

dimensions      [0 1 -1 0 0 0 0];

internalField   nonuniform List<vector> 
10000
(
(4.77309e-06 -3.00124e-06 0)
(9.93699e-06 2.16492e-06 0)
(3.26433e-06 8.01461e-06 0)
(-1.32772e-05 8.95747e-06 0)
(-3.63326e-05 9.11385e-06 0)
(-6.42708e-05 9.73285e-06 0)
(-9.79878e-05 1.09722e-05 0)
(-0.000137669 1.24525e-05 0)
(-0.000183276 1.39829e-05 0)
(-0.000234196 1.54391e-05 0)
(-0.000289848 1.67103e-05 0)
(-0.000349544 1.77962e-05 0)
(-0.000412538 1.8724e-05 0)
(-0.000478183 1.94233e-05 0)
(-0.00054581 1.99156e-05 0)
(-0.000614793 2.03103e-05 0)
(-0.00068467 2.05946e-05 0)
(-0.000754988 2.07318e-05 0)
(-0.000825246 2.07022e-05 0)
(-0.000895133 2.05041e-05 0)
(-0.000964363 2.01804e-05 0)
(-0.00103263 1.98123e-05 0)
(-0.00109974 1.9442e-05 0)
(-0.00116552 1.90253e-05 0)
(-0.00122977 1.85447e-05 0)
(-0.00129236 1.8036e-05 0)
(-0.00135318 1.75169e-05 0)
(-0.00141215 1.69824e-05 0)
(-0.00146915 1.64292e-05 0)
(-0.00152411 1.58527e-05 0)
(-0.00157697 1.52338e-05 0)
(-0.00162764 1.45626e-05 0)
(-0.00167606 1.38743e-05 0)
(-0.00172218 1.31976e-05 0)
(-0.00176594 1.25269e-05 0)
(-0.00180729 1.18431e-05 0)
(-0.00184616 1.11247e-05 0)
(-0.0018825 1.03767e-05 0)
(-0.00191624 9.60151e-06 0)
(-0.00194736 8.79711e-06 0)
(-0.0019758 7.99501e-06 0)
(-0.00200153 7.202e-06 0)
(-0.0020245 6.40134e-06 0)
(-0.0020447 5.58786e-06 0)
(-0.0020621 4.73888e-06 0)
(-0.00207665 3.86631e-06 0)
(-0.00208835 3.01663e-06 0)
(-0.00209718 2.17419e-06 0)
(-0.0021031 1.31212e-06 0)
(-0.00210614 4.49304e-07 0)
(-0.00210626 -4.18926e-07 0)
(-0.00210344 -1.30303e-06 0)
(-0.0020977 -2.17585e-06 0)
(-0.00208906 -3.03882e-06 0)
(-0.00207749 -3.91915e-06 0)
(-0.00206301 -4.7979e-06 0)
(-0.00204566 -5.64992e-06 0)
(-0.00202543 -6.49564e-06 0)
(-0.00200235 -7.34671e-06 0)
(-0.00197646 -8.18229e-06 0)
(-0.00194779 -9.00035e-06 0)
(-0.00191635 -9.81637e-06 0)
(-0.00188217 -1.06231e-05 0)
(-0.00184535 -1.14085e-05 0)
(-0.00180589 -1.2181e-05 0)
(-0.00176384 -1.29422e-05 0)
(-0.00171926 -1.36763e-05 0)
(-0.00167223 -1.43845e-05 0)
(-0.00162279 -1.50858e-05 0)
(-0.00157099 -1.57783e-05 0)
(-0.00151691 -1.64409e-05 0)
(-0.00146064 -1.70698e-05 0)
(-0.00140224 -1.76776e-05 0)
(-0.00134178 -1.82639e-05 0)
(-0.00127937 -1.88189e-05 0)
(-0.00121512 -1.9348e-05 0)
(-0.00114916 -1.98624e-05 0)
(-0.00108163 -2.03459e-05 0)
(-0.00101267 -2.0762e-05 0)
(-0.000942519 -2.10928e-05 0)
(-0.000871397 -2.13472e-05 0)
(-0.000799559 -2.15274e-05 0)
(-0.000727297 -2.16112e-05 0)
(-0.000654965 -2.15745e-05 0)
(-0.000582976 -2.14123e-05 0)
(-0.000511798 -2.11224e-05 0)
(-0.000441951 -2.06741e-05 0)
(-0.000374032 -2.00153e-05 0)
(-0.000308723 -1.91097e-05 0)
(-0.000246782 -1.79439e-05 0)
(-0.000189043 -1.64997e-05 0)
(-0.000136403 -1.474e-05 0)
(-8.98252e-05 -1.26193e-05 0)
(-5.03361e-05 -1.01127e-05 0)
(-1.89618e-05 -7.2268e-06 0)
(3.35781e-06 -3.9847e-06 0)
(1.5889e-05 -4.8507e-07 0)
(1.84927e-05 2.92573e-06 0)
(1.27987e-05 5.30419e-06 0)
(4.19723e-06 4.17625e-06 0)
(1.23572e-05 -1.39033e-05 0)
(2.19898e-05 -2.28587e-06 0)
(1.12516e-05 2.20895e-05 0)
(-2.58347e-05 3.7458e-05 0)
(-8.58819e-05 4.94032e-05 0)
(-0.000165614 6.12716e-05 0)
(-0.000264128 7.34153e-05 0)
(-0.000380552 8.52093e-05 0)
(-0.000513228 9.62618e-05 0)
(-0.000660507 0.000106138 0)
(-0.00082043 0.000114635 0)
(-0.000991004 0.000121805 0)
(-0.00117041 0.000127597 0)
(-0.00135675 0.000132085 0)
(-0.00154828 0.00013537 0)
(-0.00174354 0.000137548 0)
(-0.00194114 0.000138791 0)
(-0.00213975 0.000139218 0)
(-0.00233835 0.000138907 0)
(-0.00253591 0.000137874 0)
(-0.00273159 0.000136259 0)
(-0.00292473 0.000134171 0)
(-0.00311467 0.000131693 0)
(-0.00330085 0.000128876 0)
(-0.00348282 0.000125752 0)
(-0.00366016 0.000122368 0)
(-0.00383253 0.000118758 0)
(-0.00399961 0.000114952 0)
(-0.00416115 0.000110994 0)
(-0.00431687 0.000106891 0)
(-0.00446654 0.000102634 0)
(-0.00460998 9.82243e-05 0)
(-0.00474698 9.36795e-05 0)
(-0.00487737 8.90339e-05 0)
(-0.005001 8.42791e-05 0)
(-0.00511773 7.94161e-05 0)
(-0.0052274 7.44562e-05 0)
(-0.00532985 6.9387e-05 0)
(-0.00542498 6.42182e-05 0)
(-0.00551267 5.89463e-05 0)
(-0.00559279 5.35855e-05 0)
(-0.00566526 4.81856e-05 0)
(-0.00572999 4.27315e-05 0)
(-0.00578687 3.71969e-05 0)
(-0.00583585 3.16051e-05 0)
(-0.00587687 2.59635e-05 0)
(-0.00590983 2.02832e-05 0)
(-0.00593469 1.45882e-05 0)
(-0.00595147 8.86333e-06 0)
(-0.0059601 3.10137e-06 0)
(-0.00596056 -2.66551e-06 0)
(-0.00595287 -8.42534e-06 0)
(-0.00593701 -1.4193e-05 0)
(-0.00591297 -1.99637e-05 0)
(-0.00588084 -2.57124e-05 0)
(-0.00584061 -3.14253e-05 0)
(-0.00579227 -3.71061e-05 0)
(-0.00573591 -4.27528e-05 0)
(-0.00567164 -4.83499e-05 0)
(-0.00559947 -5.38897e-05 0)
(-0.00551945 -5.93735e-05 0)
(-0.00543173 -6.47879e-05 0)
(-0.00533644 -7.01145e-05 0)
(-0.0052336 -7.53581e-05 0)
(-0.00512335 -8.05277e-05 0)
(-0.0050059 -8.55987e-05 0)
(-0.00488137 -9.05381e-05 0)
(-0.00474981 -9.53526e-05 0)
(-0.00461143 -0.000100066 0)
(-0.00446649 -0.000104666 0)
(-0.00431515 -0.000109112 0)
(-0.00415756 -0.000113393 0)
(-0.00399394 -0.000117516 0)
(-0.00382464 -0.000121464 0)
(-0.00364997 -0.000125201 0)
(-0.00347018 -0.000128696 0)
(-0.00328564 -0.000131932 0)
(-0.00309682 -0.000134865 0)
(-0.00290423 -0.000137428 0)
(-0.00270838 -0.000139556 0)
(-0.00250988 -0.000141196 0)
(-0.00230954 -0.000142281 0)
(-0.00210824 -0.000142715 0)
(-0.00190695 -0.000142393 0)
(-0.00170674 -0.000141213 0)
(-0.00150891 -0.000139068 0)
(-0.00131495 -0.000135825 0)
(-0.00112649 -0.000131327 0)
(-0.000945296 -0.000125419 0)
(-0.000773293 -0.000117965 0)
(-0.000612633 -0.000108832 0)
(-0.000465618 -9.78938e-05 0)
(-0.00033461 -8.50609e-05 0)
(-0.000221942 -7.03159e-05 0)
(-0.000129802 -5.37708e-05 0)
(-6.00131e-05 -3.578e-05 0)
(-1.36542e-05 -1.71716e-05 0)
(9.67087e-06 3.1651e-07 0)
(1.33059e-05 1.30722e-05 0)
(5.47551e-06 1.28687e-05 0)
(1.39229e-05 -3.11668e-05 0)
(2.22761e-05 -4.64619e-06 0)
(3.11805e-06 5.22285e-05 0)
(-5.45786e-05 9.89767e-05 0)
(-0.000149321 0.000139412 0)
(-0.000277411 0.000177872 0)
(-0.000436721 0.000214359 0)
(-0.000624408 0.000248529 0)
(-0.000837752 0.00027952 0)
(-0.00107367 0.000306845 0)
(-0.00132895 0.000330359 0)
(-0.00160066 0.000349914 0)
(-0.00188582 0.000365746 0)
(-0.00218155 0.000378055 0)
(-0.00248534 0.000387029 0)
(-0.00279476 0.000392996 0)
(-0.0031077 0.000396333 0)
(-0.00342231 0.00039733 0)
(-0.00373684 0.000396265 0)
(-0.00404979 0.000393426 0)
(-0.00435986 0.000388981 0)
(-0.00466592 0.000383181 0)
(-0.00496698 0.000376226 0)
(-0.00526219 0.000368257 0)
(-0.00555078 0.000359411 0)
(-0.00583208 0.000349804 0)
(-0.00610554 0.000339526 0)
(-0.00637063 0.000328653 0)
(-0.00662691 0.00031727 0)
(-0.00687398 0.00030544 0)
(-0.00711146 0.000293187 0)
(-0.00733901 0.00028054 0)
(-0.00755633 0.000267532 0)
(-0.00776313 0.000254181 0)
(-0.00795917 0.000240508 0)
(-0.0081442 0.000226522 0)
(-0.00831801 0.00021226 0)
(-0.00848038 0.000197743 0)
(-0.0086311 0.00018296 0)
(-0.00877002 0.000167942 0)
(-0.00889696 0.000152711 0)
(-0.00901172 0.000137282 0)
(-0.00911424 0.000121699 0)
(-0.00920438 0.000105954 0)
(-0.00928198 9.00387e-05 0)
(-0.00934698 7.40208e-05 0)
(-0.00939928 5.7917e-05 0)
(-0.00943877 4.17006e-05 0)
(-0.00946549 2.54186e-05 0)
(-0.00947938 9.10795e-06 0)
(-0.00948034 -7.24719e-06 0)
(-0.0094684 -2.36127e-05 0)
(-0.00944364 -3.99416e-05 0)
(-0.00940599 -5.62525e-05 0)
(-0.00935548 -7.25388e-05 0)
(-0.00929223 -8.87316e-05 0)
(-0.00921627 -0.00010481 0)
(-0.00912762 -0.000120799 0)
(-0.00902642 -0.000136677 0)
(-0.00891283 -0.000152391 0)
(-0.00878691 -0.000167927 0)
(-0.00864877 -0.000183281 0)
(-0.00849861 -0.000198418 0)
(-0.00833665 -0.000213318 0)
(-0.008163 -0.000227978 0)
(-0.00797787 -0.000242366 0)
(-0.0077815 -0.000256437 0)
(-0.00757415 -0.000270178 0)
(-0.00735605 -0.000283588 0)
(-0.00712749 -0.000296636 0)
(-0.00688879 -0.000309272 0)
(-0.00664029 -0.000321462 0)
(-0.00638236 -0.000333174 0)
(-0.00611543 -0.000344346 0)
(-0.00583999 -0.000354893 0)
(-0.00555658 -0.000364734 0)
(-0.00526579 -0.000373784 0)
(-0.00496832 -0.00038192 0)
(-0.00466493 -0.000388992 0)
(-0.00435652 -0.000394846 0)
(-0.00404413 -0.000399321 0)
(-0.00372897 -0.000402208 0)
(-0.00341238 -0.000403251 0)
(-0.00309589 -0.000402171 0)
(-0.00278124 -0.00039868 0)
(-0.00247043 -0.000392468 0)
(-0.0021657 -0.00038319 0)
(-0.00186949 -0.000370476 0)
(-0.00158448 -0.000353967 0)
(-0.0013136 -0.00033333 0)
(-0.00105998 -0.000308264 0)
(-0.000826911 -0.000278534 0)
(-0.000617709 -0.000244036 0)
(-0.000435585 -0.000204892 0)
(-0.000283437 -0.000161597 0)
(-0.000163542 -0.000115283 0)
(-7.70931e-05 -6.8159e-05 0)
(-2.34021e-05 -2.41735e-05 0)
(9.1775e-07 9.61787e-06 0)
(3.20643e-06 1.8866e-05 0)
(8.41885e-06 -4.27384e-05 0)
(3.76526e-06 4.85225e-06 0)
(-3.61609e-05 0.000101711 0)
(-0.000122171 0.000190877 0)
(-0.000254393 0.00027237 0)
(-0.000430082 0.000348818 0)
(-0.000646304 0.000420473 0)
(-0.00089948 0.00048622 0)
(-0.00118587 0.00054526 0)
(-0.00150136 0.000597117 0)
(-0.00184203 0.000641444 0)
(-0.0022039 0.000678349 0)
(-0.00258314 0.000708195 0)
(-0.00297626 0.000731367 0)
(-0.00337986 0.000748377 0)
(-0.00379087 0.000759794 0)
(-0.00420653 0.000766127 0)
(-0.00462436 0.000768011 0)
(-0.00504216 0.00076598 0)
(-0.00545799 0.000760526 0)
(-0.0058701 0.00075207 0)
(-0.00627698 0.000741006 0)
(-0.00667732 0.000727669 0)
(-0.00706996 0.000712366 0)
(-0.0074539 0.00069537 0)
(-0.00782824 0.000676884 0)
(-0.00819222 0.000657078 0)
(-0.00854512 0.000636108 0)
(-0.00888631 0.000614101 0)
(-0.00921527 0.000591169 0)
(-0.00953149 0.000567399 0)
(-0.00983453 0.000542871 0)
(-0.0101239 0.000517645 0)
(-0.0103994 0.000491752 0)
(-0.0106605 0.000465231 0)
(-0.0109069 0.000438125 0)
(-0.0111383 0.000410476 0)
(-0.0113545 0.000382338 0)
(-0.0115553 0.000353726 0)
(-0.0117402 0.000324672 0)
(-0.0119093 0.00029524 0)
(-0.0120621 0.000265438 0)
(-0.0121986 0.000235284 0)
(-0.0123186 0.000204846 0)
(-0.012422 0.000174149 0)
(-0.0125086 0.000143214 0)
(-0.0125783 0.000112106 0)
(-0.012631 8.08433e-05 0)
(-0.0126667 4.9426e-05 0)
(-0.0126853 1.79308e-05 0)
(-0.0126868 -1.35789e-05 0)
(-0.0126711 -4.51075e-05 0)
(-0.0126383 -7.66295e-05 0)
(-0.0125884 -0.000108079 0)
(-0.0125215 -0.000139422 0)
(-0.0124376 -0.000170635 0)
(-0.0123367 -0.000201668 0)
(-0.0122191 -0.000232487 0)
(-0.0120848 -0.000263073 0)
(-0.0119339 -0.000293383 0)
(-0.0117667 -0.000323356 0)
(-0.0115832 -0.000352959 0)
(-0.0113839 -0.000382165 0)
(-0.0111687 -0.000410931 0)
(-0.010938 -0.000439207 0)
(-0.0106921 -0.000466953 0)
(-0.0104313 -0.000494129 0)
(-0.0101558 -0.000520688 0)
(-0.009866 -0.000546578 0)
(-0.0095624 -0.000571745 0)
(-0.00924537 -0.000596124 0)
(-0.00891531 -0.000619631 0)
(-0.00857274 -0.000642167 0)
(-0.00821829 -0.000663623 0)
(-0.00785263 -0.00068387 0)
(-0.00747643 -0.000702744 0)
(-0.00709046 -0.000720041 0)
(-0.00669572 -0.000735533 0)
(-0.00629328 -0.000748972 0)
(-0.00588431 -0.000760071 0)
(-0.00547016 -0.000768488 0)
(-0.00505242 -0.000773814 0)
(-0.0046329 -0.000775596 0)
(-0.00421362 -0.000773337 0)
(-0.00379682 -0.000766493 0)
(-0.00338506 -0.000754473 0)
(-0.00298122 -0.00073666 0)
(-0.00258847 -0.00071243 0)
(-0.00221019 -0.000681178 0)
(-0.00185 -0.000642339 0)
(-0.00151179 -0.000595435 0)
(-0.00119958 -0.000540149 0)
(-0.000917379 -0.000476439 0)
(-0.000668981 -0.000404684 0)
(-0.000457759 -0.000325925 0)
(-0.000286376 -0.000242269 0)
(-0.000156303 -0.000157484 0)
(-6.71007e-05 -7.77629e-05 0)
(-1.64795e-05 -1.3331e-05 0)
(-1.75073e-07 1.67154e-05 0)
(1.7685e-06 -4.14038e-05 0)
(-2.07858e-05 3.66204e-05 0)
(-8.86835e-05 0.000178959 0)
(-0.000208423 0.000317622 0)
(-0.000381212 0.000447783 0)
(-0.000604489 0.000570538 0)
(-0.000875317 0.000684777 0)
(-0.00118969 0.000789155 0)
(-0.00154302 0.000882551 0)
(-0.00193084 0.00096431 0)
(-0.00234843 0.0010342 0)
(-0.0027911 0.00109248 0)
(-0.0032545 0.00113954 0)
(-0.00373437 0.00117613 0)
(-0.00422684 0.00120309 0)
(-0.00472828 0.00122124 0)
(-0.00523536 0.00123146 0)
(-0.0057451 0.00123459 0)
(-0.00625486 0.00123147 0)
(-0.00676228 0.00122285 0)
(-0.00726529 0.00120945 0)
(-0.00776203 0.00119187 0)
(-0.0082509 0.00117063 0)
(-0.00873047 0.00114621 0)
(-0.0091995 0.00111901 0)
(-0.00965691 0.00108939 0)
(-0.0101017 0.00105763 0)
(-0.0105331 0.00102399 0)
(-0.0109502 0.000988655 0)
(-0.0113524 0.000951784 0)
(-0.0117391 0.000913529 0)
(-0.0121097 0.000874021 0)
(-0.0124636 0.000833366 0)
(-0.0128005 0.000791635 0)
(-0.0131198 0.000748905 0)
(-0.0134213 0.00070526 0)
(-0.0137044 0.000660736 0)
(-0.0139688 0.000615395 0)
(-0.0142143 0.000569318 0)
(-0.0144406 0.000522554 0)
(-0.0146473 0.000475165 0)
(-0.0148343 0.000427215 0)
(-0.0150013 0.000378717 0)
(-0.0151481 0.000329728 0)
(-0.0152746 0.000280354 0)
(-0.0153805 0.000230634 0)
(-0.0154658 0.00018059 0)
(-0.0155303 0.0001303 0)
(-0.0155741 7.98346e-05 0)
(-0.0155969 2.92338e-05 0)
(-0.0155988 -2.14384e-05 0)
(-0.0155798 -7.21102e-05 0)
(-0.0155399 -0.000122741 0)
(-0.015479 -0.000173284 0)
(-0.0153972 -0.000223659 0)
(-0.0152948 -0.000273799 0)
(-0.0151717 -0.00032367 0)
(-0.015028 -0.000373221 0)
(-0.0148639 -0.000422368 0)
(-0.0146796 -0.00047105 0)
(-0.0144754 -0.000519222 0)
(-0.0142513 -0.000566819 0)
(-0.0140076 -0.000613761 0)
(-0.0137448 -0.000659989 0)
(-0.013463 -0.000705448 0)
(-0.0131625 -0.000750058 0)
(-0.0128438 -0.000793734 0)
(-0.0125073 -0.000836416 0)
(-0.0121534 -0.000878037 0)
(-0.0117825 -0.000918484 0)
(-0.0113952 -0.00095762 0)
(-0.0109921 -0.000995318 0)
(-0.0105739 -0.00103144 0)
(-0.0101411 -0.00106581 0)
(-0.00969468 -0.00109818 0)
(-0.00923549 -0.0011283 0)
(-0.00876449 -0.00115588 0)
(-0.00828287 -0.00118057 0)
(-0.00779194 -0.00120194 0)
(-0.00729315 -0.00121951 0)
(-0.00678817 -0.00123276 0)
(-0.0062789 -0.00124106 0)
(-0.00576751 -0.00124369 0)
(-0.00525642 -0.00123989 0)
(-0.00474833 -0.00122882 0)
(-0.00424628 -0.0012096 0)
(-0.00375366 -0.00118131 0)
(-0.00327415 -0.00114303 0)
(-0.00281168 -0.00109387 0)
(-0.00237047 -0.00103304 0)
(-0.00195495 -0.000959905 0)
(-0.00156967 -0.00087411 0)
(-0.00121913 -0.000775708 0)
(-0.000907572 -0.000665401 0)
(-0.000638819 -0.000544849 0)
(-0.000415993 -0.00041715 0)
(-0.000241057 -0.000287494 0)
(-0.000114246 -0.000163972 0)
(-3.51398e-05 -5.92071e-05 0)
(-3.70896e-06 4.63342e-06 0)
(-4.04652e-06 -2.56375e-05 0)
(-4.4525e-05 9.50788e-05 0)
(-0.000142113 0.000289288 0)
(-0.000298301 0.000483101 0)
(-0.000512702 0.000668047 0)
(-0.000783291 0.000842915 0)
(-0.00110681 0.00100553 0)
(-0.00147872 0.0011539 0)
(-0.0018943 0.00128647 0)
(-0.0023484 0.00140244 0)
(-0.00283588 0.00150172 0)
(-0.00335164 0.00158453 0)
(-0.00389074 0.00165156 0)
(-0.00444845 0.00170376 0)
(-0.0050204 0.00174224 0)
(-0.00560256 0.00176822 0)
(-0.00619119 0.00178294 0)
(-0.00678289 0.00178756 0)
(-0.00737463 0.00178322 0)
(-0.00796372 0.00177099 0)
(-0.00854774 0.00175183 0)
(-0.00912461 0.00172662 0)
(-0.00969243 0.00169613 0)
(-0.0102495 0.00166101 0)
(-0.0107945 0.00162183 0)
(-0.0113261 0.00157909 0)
(-0.0118431 0.00153322 0)
(-0.0123445 0.00148457 0)
(-0.0128294 0.00143343 0)
(-0.0132971 0.00138006 0)
(-0.0137467 0.00132467 0)
(-0.0141777 0.00126742 0)
(-0.0145893 0.00120846 0)
(-0.0149811 0.00114793 0)
(-0.0153525 0.00108595 0)
(-0.0157031 0.00102263 0)
(-0.0160324 0.000958069 0)
(-0.01634 0.000892315 0)
(-0.0166256 0.000825483 0)
(-0.0168888 0.000757686 0)
(-0.0171292 0.000688969 0)
(-0.0173467 0.000619408 0)
(-0.017541 0.000549108 0)
(-0.0177118 0.000478134 0)
(-0.0178589 0.00040656 0)
(-0.0179821 0.00033449 0)
(-0.0180814 0.00026199 0)
(-0.0181565 0.000189122 0)
(-0.0182074 0.000115994 0)
(-0.018234 4.27082e-05 0)
(-0.0182363 -3.06817e-05 0)
(-0.0182142 -0.000104104 0)
(-0.0181678 -0.00017745 0)
(-0.0180971 -0.000250638 0)
(-0.0180022 -0.000323601 0)
(-0.0178831 -0.000396246 0)
(-0.01774 -0.000468482 0)
(-0.017573 -0.000540243 0)
(-0.0173823 -0.00061144 0)
(-0.0171681 -0.000681962 0)
(-0.0169306 -0.000751721 0)
(-0.0166702 -0.000820649 0)
(-0.016387 -0.000888657 0)
(-0.0160814 -0.000955631 0)
(-0.0157538 -0.00102147 0)
(-0.0154046 -0.00108607 0)
(-0.0150342 -0.00114934 0)
(-0.014643 -0.00121116 0)
(-0.0142317 -0.00127141 0)
(-0.0138007 -0.00132992 0)
(-0.0133506 -0.00138653 0)
(-0.0128823 -0.00144104 0)
(-0.0123963 -0.00149323 0)
(-0.0118935 -0.00154282 0)
(-0.011375 -0.0015895 0)
(-0.0108417 -0.00163289 0)
(-0.0102948 -0.00167258 0)
(-0.00973565 -0.00170804 0)
(-0.00916575 -0.0017387 0)
(-0.00858683 -0.00176388 0)
(-0.00800078 -0.00178278 0)
(-0.0074098 -0.00179454 0)
(-0.00681635 -0.00179815 0)
(-0.00622321 -0.00179256 0)
(-0.00563346 -0.00177661 0)
(-0.00505049 -0.00174911 0)
(-0.0044781 -0.00170879 0)
(-0.00392038 -0.00165444 0)
(-0.00338172 -0.00158487 0)
(-0.00286676 -0.00149908 0)
(-0.00238034 -0.00139628 0)
(-0.00192742 -0.00127607 0)
(-0.00151293 -0.00113865 0)
(-0.00114153 -0.000985045 0)
(-0.000817476 -0.00081751 0)
(-0.00054446 -0.000640001 0)
(-0.000325152 -0.000458864 0)
(-0.000160802 -0.000283633 0)
(-5.32524e-05 -0.000128537 0)
(-7.00811e-06 -1.73084e-05 0)
(-8.54526e-06 2.23325e-06 0)
(-6.53075e-05 0.000179228 0)
(-0.000192007 0.000432778 0)
(-0.000384132 0.000687755 0)
(-0.000639907 0.000932739 0)
(-0.000956563 0.00116458 0)
(-0.00133041 0.00138017 0)
(-0.00175675 0.00157665 0)
(-0.00223026 0.00175219 0)
(-0.00274546 0.00190583 0)
(-0.00329684 0.00203736 0)
(-0.00387896 0.00214724 0)
(-0.00448648 0.00223634 0)
(-0.0051143 0.00230586 0)
(-0.00575766 0.00235721 0)
(-0.00641215 0.00239195 0)
(-0.0070737 0.00241166 0)
(-0.00773861 0.00241793 0)
(-0.00840354 0.00241221 0)
(-0.0090655 0.0023959 0)
(-0.00972182 0.00237026 0)
(-0.0103701 0.00233644 0)
(-0.0110084 0.00229547 0)
(-0.0116347 0.00224823 0)
(-0.0122474 0.00219548 0)
(-0.0128451 0.00213788 0)
(-0.0134265 0.00207598 0)
(-0.0139904 0.00201028 0)
(-0.0145359 0.00194116 0)
(-0.015062 0.00186898 0)
(-0.0155678 0.00179404 0)
(-0.0160527 0.00171656 0)
(-0.0165158 0.00163674 0)
(-0.0169567 0.00155478 0)
(-0.0173746 0.00147085 0)
(-0.0177691 0.00138506 0)
(-0.0181396 0.00129758 0)
(-0.0184858 0.00120854 0)
(-0.0188072 0.00111803 0)
(-0.0191033 0.00102618 0)
(-0.0193739 0.00093311 0)
(-0.0196186 0.000838902 0)
(-0.0198372 0.000743676 0)
(-0.0200294 0.000647574 0)
(-0.0201949 0.000550684 0)
(-0.0203336 0.000453092 0)
(-0.0204453 0.000354925 0)
(-0.0205298 0.000256302 0)
(-0.0205872 0.000157325 0)
(-0.0206171 5.81126e-05 0)
(-0.0206197 -4.12213e-05 0)
(-0.0205949 -0.000140584 0)
(-0.0205428 -0.000239863 0)
(-0.0204632 -0.000338927 0)
(-0.0203564 -0.000437667 0)
(-0.0202225 -0.000535981 0)
(-0.0200615 -0.000633763 0)
(-0.0198737 -0.000730889 0)
(-0.0196592 -0.00082723 0)
(-0.0194183 -0.000922666 0)
(-0.0191511 -0.00101709 0)
(-0.0188582 -0.00111039 0)
(-0.0185396 -0.00120241 0)
(-0.0181959 -0.00129304 0)
(-0.0178275 -0.00138214 0)
(-0.0174347 -0.00146957 0)
(-0.017018 -0.00155519 0)
(-0.0165781 -0.00163882 0)
(-0.0161155 -0.00172029 0)
(-0.0156308 -0.0017994 0)
(-0.0151247 -0.0018759 0)
(-0.0145981 -0.00194952 0)
(-0.0140517 -0.00201997 0)
(-0.0134865 -0.00208689 0)
(-0.0129036 -0.00214983 0)
(-0.0123042 -0.0022083 0)
(-0.0116896 -0.00226172 0)
(-0.0110613 -0.00230941 0)
(-0.0104209 -0.0023506 0)
(-0.00977047 -0.00238436 0)
(-0.00911205 -0.00240966 0)
(-0.00844807 -0.00242534 0)
(-0.00778128 -0.00243013 0)
(-0.00711472 -0.00242263 0)
(-0.00645175 -0.00240136 0)
(-0.0057961 -0.00236476 0)
(-0.00515186 -0.00231124 0)
(-0.00452348 -0.00223927 0)
(-0.00391566 -0.00214738 0)
(-0.00333338 -0.00203431 0)
(-0.00278184 -0.00189915 0)
(-0.00226634 -0.00174147 0)
(-0.00179219 -0.00156158 0)
(-0.00136446 -0.0013608 0)
(-0.000987914 -0.00114184 0)
(-0.000666905 -0.000909345 0)
(-0.000404987 -0.000670509 0)
(-0.000204591 -0.000435814 0)
(-6.99503e-05 -0.000220365 0)
(-9.91546e-06 -4.8371e-05 0)
(-1.20662e-05 4.03179e-05 0)
(-8.30673e-05 0.000286622 0)
(-0.000236545 0.000608157 0)
(-0.000463025 0.000930378 0)
(-0.000758348 0.00124029 0)
(-0.00111897 0.00153354 0)
(-0.0015406 0.00180573 0)
(-0.00201795 0.00205369 0)
(-0.00254539 0.00227521 0)
(-0.00311705 0.00246914 0)
(-0.00372707 0.00263525 0)
(-0.00436966 0.00277413 0)
(-0.00503922 0.00288688 0)
(-0.00573038 0.00297498 0)
(-0.00643806 0.00304016 0)
(-0.00715755 0.00308433 0)
(-0.00788449 0.00310943 0)
(-0.00861495 0.00311741 0)
(-0.00934533 0.00311011 0)
(-0.0100724 0.00308928 0)
(-0.0107933 0.00305649 0)
(-0.0115054 0.00301319 0)
(-0.0122065 0.00296066 0)
(-0.0128945 0.00290002 0)
(-0.0135676 0.00283226 0)
(-0.0142244 0.00275822 0)
(-0.0148632 0.0026786 0)
(-0.015483 0.00259402 0)
(-0.0160825 0.002505 0)
(-0.0166606 0.00241199 0)
(-0.0172166 0.00231535 0)
(-0.0177496 0.00221542 0)
(-0.0182587 0.00211246 0)
(-0.0187433 0.0020067 0)
(-0.0192027 0.00189838 0)
(-0.0196364 0.00178767 0)
(-0.0200437 0.00167474 0)
(-0.0204243 0.0015598 0)
(-0.0207775 0.00144299 0)
(-0.0211031 0.00132444 0)
(-0.0214005 0.00120429 0)
(-0.0216696 0.0010827 0)
(-0.0219099 0.000959825 0)
(-0.0221211 0.000835794 0)
(-0.022303 0.000710756 0)
(-0.0224555 0.000584836 0)
(-0.0225783 0.000458173 0)
(-0.0226712 0.000330925 0)
(-0.0227342 0.000203243 0)
(-0.0227672 7.52547e-05 0)
(-0.02277 -5.29097e-05 0)
(-0.0227428 -0.000181099 0)
(-0.0226855 -0.000309156 0)
(-0.0225981 -0.000436945 0)
(-0.0224807 -0.000564337 0)
(-0.0223335 -0.000691176 0)
(-0.0221566 -0.000817306 0)
(-0.0219502 -0.000942588 0)
(-0.0217144 -0.00106687 0)
(-0.0214496 -0.00118999 0)
(-0.021156 -0.00131179 0)
(-0.020834 -0.00143214 0)
(-0.020484 -0.00155085 0)
(-0.0201063 -0.00166775 0)
(-0.0197013 -0.00178267 0)
(-0.0192696 -0.00189544 0)
(-0.0188118 -0.00200585 0)
(-0.0183284 -0.00211369 0)
(-0.01782 -0.00221872 0)
(-0.0172874 -0.00232066 0)
(-0.0167314 -0.00241921 0)
(-0.0161527 -0.00251402 0)
(-0.0155525 -0.0026047 0)
(-0.0149316 -0.00269079 0)
(-0.0142913 -0.00277172 0)
(-0.013633 -0.00284687 0)
(-0.0129579 -0.00291549 0)
(-0.0122678 -0.00297671 0)
(-0.0115646 -0.00302952 0)
(-0.0108503 -0.00307278 0)
(-0.0101272 -0.00310518 0)
(-0.00939794 -0.00312529 0)
(-0.00866547 -0.0031315 0)
(-0.00793307 -0.00312209 0)
(-0.00720434 -0.00309521 0)
(-0.00648326 -0.00304897 0)
(-0.00577416 -0.00298142 0)
(-0.00508174 -0.00289068 0)
(-0.00441101 -0.002775 0)
(-0.0037672 -0.00263289 0)
(-0.00315583 -0.00246328 0)
(-0.00258252 -0.00226571 0)
(-0.00205294 -0.00204054 0)
(-0.00157259 -0.00178929 0)
(-0.0011468 -0.001515 0)
(-0.000780657 -0.00122278 0)
(-0.000478695 -0.000920331 0)
(-0.000244582 -0.000618624 0)
(-8.48847e-05 -0.000333065 0)
(-1.23945e-05 -8.76066e-05 0)
(-1.48113e-05 8.6756e-05 0)
(-9.80247e-05 0.00041485 0)
(-0.000275735 0.000812861 0)
(-0.000533958 0.00120864 0)
(-0.000866228 0.0015885 0)
(-0.00126815 0.00194695 0)
(-0.00173455 0.00227915 0)
(-0.0022595 0.00258139 0)
(-0.00283696 0.00285128 0)
(-0.00346075 0.00308756 0)
(-0.00412462 0.00329007 0)
(-0.00482248 0.00345947 0)
(-0.00554851 0.00359708 0)
(-0.00629706 0.00370468 0)
(-0.00706283 0.00378438 0)
(-0.00784088 0.00383841 0)
(-0.00862664 0.00386911 0)
(-0.00941592 0.00387878 0)
(-0.010205 0.00386966 0)
(-0.0109903 0.00384385 0)
(-0.0117689 0.00380327 0)
(-0.0125381 0.00374967 0)
(-0.0132953 0.00368459 0)
(-0.0140385 0.00360943 0)
(-0.0147656 0.00352538 0)
(-0.015475 0.00343347 0)
(-0.0161652 0.0033346 0)
(-0.0168347 0.00322951 0)
(-0.0174824 0.00311886 0)
(-0.0181071 0.0030032 0)
(-0.0187078 0.00288298 0)
(-0.0192837 0.00275861 0)
(-0.0198338 0.00263046 0)
(-0.0203574 0.00249881 0)
(-0.0208539 0.00236393 0)
(-0.0213225 0.00222608 0)
(-0.0217627 0.00208547 0)
(-0.0221739 0.00194233 0)
(-0.0225556 0.00179685 0)
(-0.0229074 0.00164922 0)
(-0.0232288 0.0014996 0)
(-0.0235195 0.00134819 0)
(-0.0237791 0.00119519 0)
(-0.0240074 0.00104077 0)
(-0.024204 0.00088507 0)
(-0.0243687 0.000728287 0)
(-0.0245013 0.00057061 0)
(-0.0246017 0.000412209 0)
(-0.0246698 0.000253251 0)
(-0.0247054 9.3916e-05 0)
(-0.0247085 -6.56212e-05 0)
(-0.024679 -0.000225189 0)
(-0.0246171 -0.000384599 0)
(-0.0245227 -0.000543674 0)
(-0.0243959 -0.000702247 0)
(-0.0242368 -0.000860136 0)
(-0.0240457 -0.00101715 0)
(-0.0238227 -0.00117309 0)
(-0.023568 -0.00132779 0)
(-0.0232819 -0.00148104 0)
(-0.0229647 -0.00163266 0)
(-0.0226169 -0.00178246 0)
(-0.0222387 -0.00193022 0)
(-0.0218306 -0.00207573 0)
(-0.0213931 -0.00221876 0)
(-0.0209268 -0.00235911 0)
(-0.0204322 -0.0024965 0)
(-0.01991 -0.00263067 0)
(-0.0193608 -0.0027613 0)
(-0.0187855 -0.00288808 0)
(-0.0181849 -0.00301061 0)
(-0.0175599 -0.00312846 0)
(-0.0169115 -0.00324114 0)
(-0.016241 -0.00334806 0)
(-0.0155495 -0.00344854 0)
(-0.0148385 -0.0035418 0)
(-0.0141095 -0.00362691 0)
(-0.0133643 -0.00370282 0)
(-0.0126048 -0.00376828 0)
(-0.0118334 -0.0038219 0)
(-0.0110524 -0.0038621 0)
(-0.0102646 -0.00388713 0)
(-0.0094732 -0.00389508 0)
(-0.00868163 -0.00388385 0)
(-0.00789368 -0.00385127 0)
(-0.00711352 -0.00379504 0)
(-0.00634571 -0.00371288 0)
(-0.00559514 -0.00360255 0)
(-0.00486706 -0.003462 0)
(-0.00416698 -0.00328951 0)
(-0.00350067 -0.00308383 0)
(-0.00287407 -0.00284438 0)
(-0.00229321 -0.00257155 0)
(-0.00176406 -0.00226693 0)
(-0.00129252 -0.00193375 0)
(-0.000884505 -0.00157735 0)
(-0.000545508 -0.00120563 0)
(-0.000280434 -0.000829651 0)
(-9.80138e-05 -0.000464699 0)
(-1.44838e-05 -0.000134025 0)
(-1.69347e-05 0.00014024 0)
(-0.000110663 0.000561222 0)
(-0.000309921 0.00104411 0)
(-0.000596907 0.00151986 0)
(-0.000963228 0.00197435 0)
(-0.00140341 0.00240185 0)
(-0.00191132 0.00279711 0)
(-0.00248043 0.00315614 0)
(-0.00310418 0.00347641 0)
(-0.00377598 0.00375674 0)
(-0.00448931 0.00399704 0)
(-0.00523781 0.0041981 0)
(-0.00601533 0.0043615 0)
(-0.00681605 0.00448931 0)
(-0.00763448 0.00458398 0)
(-0.00846547 0.00464813 0)
(-0.00930427 0.00468449 0)
(-0.0101465 0.00469575 0)
(-0.0109883 0.00468451 0)
(-0.011826 0.00465326 0)
(-0.0126564 0.00460426 0)
(-0.0134767 0.00453957 0)
(-0.0142842 0.00446105 0)
(-0.0150767 0.00437032 0)
(-0.0158521 0.00426883 0)
(-0.0166086 0.00415779 0)
(-0.0173446 0.00403828 0)
(-0.0180587 0.00391122 0)
(-0.0187494 0.00377739 0)
(-0.0194157 0.00363743 0)
(-0.0200564 0.00349194 0)
(-0.0206706 0.00334139 0)
(-0.0212573 0.00318621 0)
(-0.0218158 0.00302678 0)
(-0.0223453 0.00286342 0)
(-0.0228451 0.00269644 0)
(-0.0233146 0.00252613 0)
(-0.0237531 0.00235275 0)
(-0.0241602 0.00217651 0)
(-0.0245354 0.00199765 0)
(-0.0248783 0.00181642 0)
(-0.0251883 0.00163304 0)
(-0.0254652 0.00144771 0)
(-0.0257086 0.00126065 0)
(-0.0259182 0.00107208 0)
(-0.0260939 0.0008822 0)
(-0.0262354 0.000691236 0)
(-0.0263424 0.000499403 0)
(-0.026415 0.000306902 0)
(-0.0264529 0.000113944 0)
(-0.0264562 -7.92592e-05 0)
(-0.0264248 -0.000272491 0)
(-0.0263588 -0.000465527 0)
(-0.0262581 -0.000658162 0)
(-0.0261229 -0.00085019 0)
(-0.0259533 -0.00104138 0)
(-0.0257494 -0.00123151 0)
(-0.0255116 -0.00142034 0)
(-0.02524 -0.00160767 0)
(-0.0249349 -0.00179325 0)
(-0.0245967 -0.00197686 0)
(-0.0242258 -0.00215825 0)
(-0.0238225 -0.00233717 0)
(-0.0233873 -0.00251335 0)
(-0.0229209 -0.00268654 0)
(-0.0224236 -0.00285645 0)
(-0.0218962 -0.00302277 0)
(-0.0213393 -0.00318516 0)
(-0.0207538 -0.00334326 0)
(-0.0201403 -0.00349665 0)
(-0.0194999 -0.00364488 0)
(-0.0188335 -0.00378742 0)
(-0.0181422 -0.00392367 0)
(-0.0174272 -0.00405293 0)
(-0.0166899 -0.00417436 0)
(-0.0159318 -0.00428702 0)
(-0.0151545 -0.00438981 0)
(-0.0143599 -0.00448146 0)
(-0.0135501 -0.00456052 0)
(-0.0127274 -0.00462532 0)
(-0.0118944 -0.00467399 0)
(-0.0110541 -0.00470448 0)
(-0.0102096 -0.00471454 0)
(-0.00936471 -0.00470171 0)
(-0.00852326 -0.00466344 0)
(-0.00768961 -0.00459706 0)
(-0.00686848 -0.00449991 0)
(-0.00606499 -0.00436941 0)
(-0.00528457 -0.00420321 0)
(-0.00453297 -0.0039993 0)
(-0.00381623 -0.00375621 0)
(-0.00314061 -0.00347322 0)
(-0.0025125 -0.00315062 0)
(-0.00193834 -0.00278999 0)
(-0.00142468 -0.00239459 0)
(-0.000978191 -0.00196976 0)
(-0.000605348 -0.00152336 0)
(-0.000312222 -0.00106624 0)
(-0.000109466 -0.000613209 0)
(-1.6254e-05 -0.000186677 0)
(-1.86515e-05 0.00019957 0)
(-0.000121394 0.000723457 0)
(-0.000339542 0.0012992 0)
(-0.000652507 0.00186091 0)
(-0.00104982 0.00239481 0)
(-0.00152497 0.00289502 0)
(-0.00207116 0.0033562 0)
(-0.00268104 0.00377431 0)
(-0.00334749 0.00414684 0)
(-0.00406353 0.00447267 0)
(-0.00482232 0.00475187 0)
(-0.00561722 0.0049855 0)
(-0.00644185 0.00517536 0)
(-0.00729017 0.00532387 0)
(-0.0081565 0.0054338 0)
(-0.00903554 0.00550821 0)
(-0.00992239 0.00555017 0)
(-0.0108126 0.00556282 0)
(-0.0117019 0.00554914 0)
(-0.0125868 0.00551197 0)
(-0.0134638 0.00545393 0)
(-0.01433 0.00537742 0)
(-0.0151827 0.0052846 0)
(-0.0160195 0.00517735 0)
(-0.0168383 0.00505734 0)
(-0.0176371 0.00492602 0)
(-0.0184142 0.00478464 0)
(-0.0191681 0.00463428 0)
(-0.0198974 0.00447586 0)
(-0.0206009 0.00431015 0)
(-0.0212774 0.00413784 0)
(-0.0219259 0.00395953 0)
(-0.0225454 0.0037757 0)
(-0.0231351 0.00358679 0)
(-0.0236941 0.00339322 0)
(-0.0242218 0.00319536 0)
(-0.0247175 0.00299354 0)
(-0.0251805 0.00278805 0)
(-0.0256104 0.00257919 0)
(-0.0260065 0.00236723 0)
(-0.0263684 0.00215245 0)
(-0.0266957 0.00193514 0)
(-0.026988 0.00171552 0)
(-0.027245 0.00149386 0)
(-0.0274663 0.00127041 0)
(-0.0276518 0.00104542 0)
(-0.0278011 0.000819163 0)
(-0.0279141 0.000591872 0)
(-0.0279907 0.000363787 0)
(-0.0280308 0.00013517 0)
(-0.0280342 -9.37264e-05 0)
(-0.0280011 -0.000322653 0)
(-0.0279313 -0.000551354 0)
(-0.0278251 -0.000779578 0)
(-0.0276824 -0.00100708 0)