/*--------------------------------*- C++ -*----------------------------------*\
| =========                 |                                                 |
| \\      /  F ield         | OpenFOAM: The Open Source CFD Toolbox           |
|  \\    /   O peration     | Version:  2212                                  |
|   \\  /    A nd           | Website:  www.openfoam.com                      |
|    \\/     M anipulation  |                                                 |
\*---------------------------------------------------------------------------*/
FoamFile
{
    version     2.0;
    format      ascii;
    arch        "LSB;label=32;scalar=64";
    class       volScalarField;
    location    "0.029";
    object      p;
}
// * * * * * * * * * * * * * * * * * * * * * * * * * * * * * * * * * * * * * //

dimensions      [0 2 -2 0 0 0 0];

internalField   nonuniform List<scalar> 
10000
(
1.90075e-07
4.47185e-05
-0.000175168
-0.000681202
-0.0014207
-0.00234035
-0.00339071
-0.00452803
-0.0057139
-0.00691486
-0.00810191
-0.00925004
-0.0103375
-0.0113456
-0.0122586
-0.0130632
-0.0137482
-0.0143046
-0.0147244
-0.0150017
-0.015132
-0.0151119
-0.0149386
-0.0146104
-0.0141264
-0.0134873
-0.0126948
-0.0117512
-0.0106589
-0.00942083
-0.00804016
-0.00652072
-0.00486682
-0.00308334
-0.00117555
0.000850868
0.00298986
0.00523511
0.00758015
0.0100183
0.0125429
0.0151467
0.0178225
0.0205625
0.023359
0.0262038
0.0290888
0.0320062
0.034948
0.0379059
0.0408716
0.0438366
0.0467922
0.04973
0.0526417
0.0555187
0.0583528
0.0611356
0.0638585
0.0665131
0.069091
0.0715839
0.0739842
0.0762843
0.078477
0.0805551
0.0825119
0.084341
0.0860364
0.0875928
0.0890052
0.0902695
0.0913818
0.0923386
0.0931374
0.0937763
0.0942542
0.094571
0.0947278
0.0947263
0.0945693
0.0942606
0.0938055
0.0932111
0.0924862
0.0916413
0.0906886
0.089643
0.0885215
0.0873438
0.0861321
0.0849122
0.0837137
0.0825709
0.081523
0.0806139
0.0798907
0.0794019
0.0791945
0.0792452
-3.95165e-05
7.88293e-08
-0.000206038
-0.000648474
-0.00127975
-0.00206159
-0.0029578
-0.00393344
-0.00495652
-0.00599793
-0.00703173
-0.00803488
-0.00898712
-0.00987067
-0.0106701
-0.0113725
-0.011967
-0.0124445
-0.0127971
-0.0130185
-0.0131038
-0.0130492
-0.0128521
-0.0125106
-0.0120236
-0.0113912
-0.0106144
-0.00969486
-0.00863489
-0.00743709
-0.00610438
-0.00464013
-0.00304823
-0.00133307
0.000500399
0.00244686
0.00450058
0.00665561
0.00890584
0.011245
0.0136667
0.0161643
0.0187306
0.0213584
0.02404
0.0267677
0.0295338
0.0323307
0.0351509
0.0379865
0.0408294
0.0436714
0.0465042
0.0493199
0.0521103
0.0548674
0.0575834
0.0602502
0.0628595
0.0654034
0.0678739
0.0702631
0.0725638
0.0747691
0.0768719
0.0788656
0.0807438
0.0825008
0.0841308
0.0856289
0.0869909
0.0882129
0.0892914
0.0902234
0.0910068
0.0916401
0.0921227
0.0924548
0.0926376
0.0926732
0.0925646
0.0923158
0.0919323
0.0914213
0.0907917
0.0900538
0.0892194
0.0883028
0.0873205
0.0862909
0.0852348
0.0841754
0.0831396
0.0821571
0.0812608
0.0804855
0.0798664
0.0794381
0.0792447
0.0792958
0.000181199
0.000201771
-6.62085e-06
-0.000418852
-0.000989541
-0.00168834
-0.00248626
-0.0033544
-0.00426564
-0.0051946
-0.00611795
-0.00701477
-0.00786633
-0.00865597
-0.00936908
-0.00999307
-0.0105174
-0.0109333
-0.0112333
-0.0114109
-0.0114607
-0.0113788
-0.0111625
-0.0108099
-0.01032
-0.0096925
-0.00892804
-0.00802786
-0.00699384
-0.00582839
-0.00453422
-0.00311438
-0.00157244
8.75263e-05
0.00186091
0.00374263
0.00572721
0.00780903
0.0099823
0.0122411
0.0145792
0.0169903
0.0194676
0.022004
0.024592
0.0272243
0.0298934
0.0325924
0.0353138
0.0380498
0.0407929
0.0435348
0.0462679
0.0489844
0.0516765
0.0543365
0.0569567
0.0595295
0.0620469
0.0645011
0.0668846
0.0691901
0.0714106
0.0735395
0.07557
0.0774958
0.0793109
0.0810099
0.0825875
0.084039
0.0853606
0.0865487
0.0876003
0.0885128
0.0892841
0.0899133
0.0903998
0.0907441
0.0909475
0.0910122
0.0909413
0.0907391
0.0904112
0.0899648
0.0894086
0.0887525
0.0880078
0.0871882
0.0863091
0.0853877
0.0844432
0.083497
0.0825729
0.0816971
0.0808975
0.0802028
0.079642
0.0792432
0.0790503
0.0790887
0.000678298
0.0006355
0.00039573
-1.65907e-05
-0.000563552
-0.0012196
-0.00196016
-0.00276071
-0.00359778
-0.00444907
-0.00529381
-0.00611292
-0.00688924
-0.00760749
-0.00825412
-0.00881718
-0.00928651
-0.00965369
-0.00991149
-0.0100537
-0.010075
-0.00997122
-0.00973939
-0.00937764
-0.00888499
-0.00826127
-0.0075069
-0.00662284
-0.00561065
-0.00447236
-0.00321045
-0.00182775
-0.000327631
0.00128603
0.00300886
0.00483602
0.00676231
0.00878234
0.0108906
0.0130815
0.0153491
0.0176872
0.0200892
0.0225481
0.0250568
0.0276081
0.0301953
0.0328113
0.035449
0.038101
0.0407596
0.0434171
0.046066
0.0486987
0.0513078
0.0538859
0.0564255
0.0589191
0.061359
0.0637379
0.0660485
0.0682838
0.0704371
0.072502
0.074472
0.0763411
0.0781035
0.0797542
0.0812881
0.0827009
0.083989
0.0851491
0.0861785
0.0870748
0.0878362
0.088462
0.0889517
0.0893058
0.0895255
0.0896134
0.0895725
0.0894073
0.0891234
0.088728
0.0882292
0.0876365
0.0869605
0.0862139
0.0854113
0.0845687
0.0837037
0.0828356
0.0819859
0.0811773
0.0804338
0.0797803
0.0792415
0.0788425
0.0786208
0.0786009
0.00140587
0.00125858
0.000959612
0.000523924
-2.3659e-05
-0.000661457
-0.00136874
-0.00212457
-0.00290877
-0.003702
-0.00448587
-0.00524322
-0.00595846
-0.00661765
-0.00720848
-0.00771999
-0.00814255
-0.00846787
-0.00868913
-0.00880028
-0.00879639
-0.00867338
-0.00842815
-0.00805868
-0.00756393
-0.00694377
-0.00619856
-0.00532918
-0.00433699
-0.00322367
-0.00199138
-0.000642778
0.000818957
0.0023901
0.00406644
0.00584334
0.00771587
0.00967892
0.0117272
0.0138555
0.0160579
0.0183286
0.020661
0.0230483
0.0254836
0.0279603
0.0304717
0.0330111
0.0355715
0.0381457
0.0407264
0.043306
0.0458773
0.0484329
0.0509656
0.0534681
0.0559335
0.0583543
0.060723
0.0630326
0.0652763
0.0674473
0.069539
0.0715453
0.07346
0.0752772
0.0769915
0.0785981
0.0800923
0.0814699
0.0827274
0.0838621
0.0848713
0.0857528
0.0865052
0.0871277
0.0876198
0.0879821
0.0882159
0.0883238
0.0883089
0.0881757
0.0879298
0.0875779
0.087128
0.0865886
0.0859696
0.085283
0.0845422
0.0837621
0.0829587
0.0821494
0.0813527
0.0805886
0.0798777
0.0792414
0.0787011
0.0782785
0.0779991
0.0778783
0.00231798
0.00203869
0.00165836
0.00117895
0.000609687
-3.12699e-05
-0.000726096
-0.00145735
-0.00220776
-0.00296055
-0.00369971
-0.00441008
-0.00507764
-0.00568976
-0.00623528
-0.00670428
-0.00708795
-0.0073784
-0.00756896
-0.00765386
-0.00762834
-0.00748863
-0.00723182
-0.00685594
-0.0063599
-0.00574341
-0.00500678
-0.00415082
-0.00317675
-0.00208608
-0.000880706
0.000436901
0.00186372
0.00339612
0.00503008
0.00676115
0.0085846
0.0104956
0.0124892
0.0145602
0.0167032
0.0189122
0.0211809
0.0235026
0.0258709
0.0282793
0.0307215
0.0331909
0.0356807
0.0381838
0.0406933
0.0432018
0.0457022
0.0481875
0.0506505
0.0530844
0.0554821
0.0578366
0.0601406
0.0623874
0.0645704
0.066683
0.0687189
0.0706721
0.0725366
0.0743068
0.0759778
0.0775447
0.0790031
0.0803489
0.081579
0.0826908
0.0836818
0.08455
0.0852939
0.0859129
0.0864066
0.0867756
0.0870212
0.087146
0.0871532
0.087047
0.0868329
0.0865173
0.0861075
0.0856114
0.0850382
0.084399
0.0837064
0.0829739
0.0822158
0.0814473
0.0806846
0.079945
0.0792463
0.0786065
0.0780443
0.077578
0.0772182
0.0769674
0.00337114
0.00294251
0.00246448
0.00192477
0.00131594
0.000653515
-4.71444e-05
-0.000771642
-0.00150539
-0.00223395
-0.00294338
-0.00362052
-0.00425306
-0.00482967
-0.00534021
-0.00577576
-0.00612823
-0.00639046
-0.00655605
-0.00661957
-0.00657641
-0.00642297
-0.00615657
-0.0057755
-0.00527877
-0.00466599
-0.00393741
-0.00309371
-0.00213597
-0.00106555
0.000115764
0.00140561
0.00280108
0.00429871
0.00589456
0.00758434
0.00936361
0.0112278
0.0131721
0.0151916
0.0172811
0.0194346
0.0216457
0.0239084
0.0262163
0.0285633
0.0309431
0.0333495
0.0357757
0.0382149
0.0406603
0.0431048
0.0455415
0.0479636
0.0503641
0.0527363
0.0550735
0.0573686
0.0596147
0.0618054
0.0639343
0.0659948
0.0679807
0.0698864
0.0717062
0.0734348
0.0750672
0.0765989
0.0780256
0.0793433
0.0805492
0.0816407
0.0826156
0.0834716
0.0842075
0.0848228
0.0853174
0.0856915
0.0859468
0.0860855
0.0861106
0.0860264
0.0858378
0.0855511
0.0851728
0.0847102
0.0841719
0.0835683
0.082911
0.082212
0.0814837
0.0807393
0.0799932
0.0792603
0.0785558
0.0778948
0.0772933
0.0767669
0.0763103
0.0759119
0.00452465
0.00393714
0.00335012
0.00273735
0.00207502
0.00137635
0.00065487
-7.76938e-05
-0.000809269
-0.0015275
-0.00222037
-0.00287649
-0.00348522
-0.00403662
-0.00452164
-0.00493215
-0.00526072
-0.00550085
-0.0056467
-0.00569319
-0.00563599
-0.00547173
-0.00519794
-0.00481303
-0.00431617
-0.00370709
-0.00298601
-0.00215347
-0.00121036
-0.000158009
0.00100189
0.00226707
0.00363464
0.00510122
0.00666304
0.00831594
0.0100557
0.011878
0.0137784
0.015752
0.0177935
0.0198972
0.0220571
0.0242669
0.0265209
0.0288131
0.0311372
0.0334872
0.0358565
0.0382387
0.0406269
0.0430143
0.0453942
0.0477599
0.0501048
0.0524222
0.0547055
0.0569479
0.0591428
0.0612838
0.0633648
0.0653791
0.0673208
0.0691845
0.0709649
0.0726568
0.0742554
0.0757562
0.077155
0.0784482
0.0796329
0.0807066
0.081667
0.0825119
0.0832404
0.083852
0.0843467
0.0847248
0.0849875
0.085137
0.0851763
0.0851092
0.0849405
0.0846756
0.0843207
0.0838827
0.0833697
0.0827912
0.0821575
0.0814791
0.0807669
0.0800322
0.0792878
0.0785467
0.0778216
0.0771247
0.07647
0.0758711
0.0753064
0.074751
0.00574296
0.00499236
0.00428924
0.00359427
0.00286783
0.00212128
0.00136687
0.000614004
-0.000127419
-0.000847078
-0.00153479
-0.00218069
-0.00277558
-0.00331092
-0.00377876
-0.00417177
-0.00448326
-0.0047071
-0.00483809
-0.00487156
-0.00480358
-0.00463111
-0.00435192
-0.00396455
-0.00346827
-0.00286293
-0.00214876
-0.00132626
-0.000396189
0.000640228
0.00178123
0.00302461
0.00436758
0.00580673
0.00733834
0.00895857
0.0106634
0.0124487
0.0143102
0.0162431
0.0182423
0.0203019
0.0224161
0.0245794
0.0267857
0.0290293
0.0313042
0.0336043
0.0359233
0.038255
0.0405926
0.0429295
0.0452592
0.0475753
0.0498712
0.0521402
0.0543761
0.0565724
0.0587224
0.0608199
0.0628588
0.0648326
0.0667357
0.0685628
0.070309
0.0719689
0.073538
0.075012
0.0763867
0.0776587
0.0788251
0.0798833
0.0808308
0.0816658
0.0823875
0.0829955
0.0834898
0.0838705
0.0841386
0.0842961
0.084346
0.0842915
0.0841371
0.0838876
0.0835491
0.0831279
0.0826317
0.0820687
0.081448
0.0807788
0.0800704
0.0793333
0.0785783
0.0778165
0.0770584
0.0763138
0.0755954
0.0749149
0.0742352
0.0735189
0.00699593
0.0060818
0.00525861
0.00447514
0.00367676
0.00287344
0.00207635
0.00129307
0.00053164
-0.000199476
-0.000891743
-0.00153684
-0.00212686
-0.00265437
-0.00311246
-0.00349467
-0.00379506
-0.00400805
-0.00412874
-0.00415298
-0.00407731
-0.00389904
-0.00361623
-0.00322759
-0.00273255
-0.00213106
-0.00142326
-0.000609622
0.000308979
0.00133142
0.00245602
0.00368044
0.00500186
0.00641705
0.00792235
0.00951401
0.0111883
0.0129414
0.014769
0.0166664
0.0186284
0.0206494
0.022724
0.0248464
0.0270111
0.0292122
0.0314441
0.0337006
0.0359758
0.0382633
0.0405568
0.0428497
0.0451358
0.0474086
0.0496618
0.0518889
0.0540838
0.0562401
0.0583513
0.0604113
0.0624138
0.0643528
0.0662227
0.0680186
0.0697354
0.071368
0.0729119
0.0743629
0.0757172
0.0769713
0.078122
0.0791667
0.0801032
0.0809296
0.0816453
0.0822499
0.0827433
0.0831253
0.0833968
0.0835599
0.0836169
0.0835708
0.0834257
0.0831863
0.0828579
0.0824467
0.0819593
0.081403
0.0807857
0.0801156
0.0794009
0.0786508
0.0778747
0.0770819
0.0762808
0.0754794
0.0746894
0.0739209
0.0731225
0.072245
0.00825842
0.00718263
0.00623783
0.00536164
0.00448568
0.00361885
0.00277151
0.00194959
0.00115953
0.000408353
-0.000296885
-0.000949349
-0.00154235
-0.0020694
-0.00252445
-0.00290194
-0.00319651
-0.00340332
-0.00351786
-0.0035364
-0.00345595
-0.00327411
-0.00298928
-0.00260049
-0.00210723
-0.00150952
-0.000807572
-1.7667e-06
0.000907025
0.00191746
0.00302791
0.00423613
0.00553918
0.0069337
0.00841631
0.0099836
0.0116319
0.0133574
0.0151559
0.0170227
0.0189527
0.0209406
0.022981
0.0250684
0.0271973
0.029362
0.0315569
0.033776
0.0360135
0.0382632
0.0405189
0.0427742
0.0450229
0.0472588
0.0494755
0.0516669
0.053827
0.0559495
0.0580279
0.060056
0.0620279
0.0639376
0.0657798
0.0675496
0.0692418
0.0708515
0.0723743
0.0738064
0.0751438
0.0763828
0.0775204
0.0785539
0.0794812
0.0803005
0.0810111
0.0816125
0.0821043
0.0824866
0.0827599
0.082926
0.082987
0.0829457
0.0828057
0.0825715
0.0822479
0.0818403
0.0813544
0.0807968
0.0801745
0.0794949
0.0787653
0.0779935
0.0771874
0.0763548
0.0755027
0.0746375
0.0737699
0.0729093
0.0719907
0.0709538
0.00950941
0.0082753
0.0072089
0.00623751
0.00527992
0.00434446
0.00344095
0.00257377
0.001748
0.000969422
0.000243845
-0.000423081
-0.0010258
-0.00155884
-0.00201689
-0.00239507
-0.00268868
-0.00289343
-0.00300544
-0.00302141
-0.00293877
-0.00275547
-0.0024701
-0.00208206
-0.00159109
-0.000997026
-0.00030016
0.000498856
0.0013992
0.00239967
0.00349841
0.00469298
0.0059805
0.00735778
0.00882154
0.0103685
0.011995
0.0136975
0.0154715
0.0173126
0.0192157
0.0211758
0.0231876
0.0252457
0.0273445
0.0294786
0.0316424
0.0338303
0.0360362
0.0382543
0.0404785
0.0427024
0.04492
0.0471251
0.0493115
0.0514734
0.0536047
0.0556992
0.0577505
0.0597525
0.0616994
0.0635854
0.0654051
0.0671536
0.0688259
0.0704171
0.0719231
0.0733399
0.0746636
0.0758906
0.0770177
0.0780425
0.0789625
0.0797761
0.0804824
0.0810808
0.0815709
0.0819524
0.0822259
0.0823929
0.0824553
0.0824156
0.0822771
0.0820437
0.0817198
0.0813098
0.080819
0.0802532
0.0796189
0.0789225
0.0781705
0.0773692
0.0765256
0.0756462
0.0747367
0.0738022
0.0728529
0.0718976
0.0708586
0.0696657
0.0107315
0.00934296
0.00815605
0.00708831
0.00604633
0.00503826
0.00407376
0.00315601
0.00228874
0.00147658
0.000724382
3.68201e-05
-0.000581519
-0.0011261
-0.0015924
-0.00197601
-0.00227297
-0.00247943
-0.00259219
-0.00260839
-0.00252572
-0.0023427
-0.00205827
-0.0016718
-0.00118318
-0.000592586
9.97251e-05
0.000893168
0.00178675
0.00277907
0.00386826
0.0050518
0.00632681
0.00769016
0.00913872
0.0106693
0.0122784
0.0139621
0.0157163
0.0175365
0.0194178
0.0213554
0.0233439
0.025378
0.0274525
0.0295618
0.0317005
0.033863
0.0360435
0.0382362
0.0404349
0.0426336
0.0448261
0.0470066
0.0491689
0.0513072
0.0534156
0.0554879
0.0575178
0.0594994
0.0614269
0.0632944
0.0650967
0.0668289
0.068486
0.0700631
0.0715562
0.0729613
0.0742747
0.0754926
0.0766121
0.0776303
0.078545
0.0793543
0.0800572
0.080653
0.0811411
0.0815211
0.0817935
0.0819596
0.0820212
0.0819805
0.0818402
0.0816036
0.0812745
0.0808569
0.0803555
0.0797757
0.0791233
0.0784038
0.0776227
0.0767856
0.0758981
0.074966
0.0739941
0.0729861
0.0719522
0.0709007
0.0697422
0.068397
0.0119099
0.0103711
0.00906536
0.00790085
0.00677278
0.00568917
0.00465978
0.00368694
0.0027733
0.00192245
0.00113836
0.000424882
-0.000214204
-0.000775145
-0.00125411
-0.00164728
-0.00195131
-0.00216291
-0.00227922
-0.00229803
-0.00221748
-0.00203625
-0.00175368
-0.00136943
-0.000883391
-0.000295805
0.000392819
0.00118179
0.00207011
0.00305625
0.00413812
0.00531317
0.00657855
0.00793133
0.00936843
0.0108866
0.0124823
0.0141516
0.0158905
0.0176946
0.0195591
0.0214792
0.0234497
0.0254654
0.0275211
0.0296112
0.0317306
0.0338738
0.0360348
0.0382081
0.0403875
0.042567
0.0447405
0.0469024
0.0490465
0.0511671
0.0532584
0.0553143
0.0573286
0.0592953
0.0612087
0.063063
0.064853
0.0665737
0.0682201
0.0697875
0.0712716
0.0726688
0.0739752
0.0751872
0.0763017
0.0773157
0.078227
0.0790335
0.079734
0.0803278
0.0808139
0.0811919
0.0814622
0.0816262
0.0816852
0.0816409
0.0814956
0.0812521
0.0809136
0.0804839
0.0799672
0.0793685
0.0786927
0.0779446
0.0771287
0.07625
0.0753135
0.0743242
0.0732858
0.0722012
0.0710805
0.0699321
0.0686555
0.0671621
0.0130323
0.0113472
0.00992432
0.0086631
0.00744789
0.00628668
0.00518936
0.00415765
0.00319352
0.00229973
0.00147932
0.000735418
7.12338e-05
-0.000510153
-0.00100564
-0.00141198
-0.00172616
-0.00194576
-0.00206829
-0.00209174
-0.00201489
-0.00183685
-0.00155702
-0.00117523
-0.000691631
-0.000106659
0.000579121
0.00136495
0.00224965
0.00323146
0.00430819
0.00547732
0.00673615
0.00808173
0.00951095
0.0110205
0.0126068
0.014266
0.0159941
0.0177868
0.0196395
0.0215472
0.0235049
0.0255075
0.0275498
0.0296265
0.0317324
0.0338619
0.0360094
0.0381691
0.0403352
0.0425015
0.0446621
0.0468113
0.0489431
0.0510519
0.053132
0.0551772
0.0571813
0.0591386
0.0610432
0.0628896
0.0646723
0.0663863
0.0680266
0.0695884
0.0710678
0.0724608
0.0737638
0.0749729
0.0760851
0.0770973
0.0780071
0.0788123
0.0795116
0.080104
0.0805883
0.0809643
0.0812321
0.0813929
0.0814477
0.0813976
0.0812444
0.0809906
0.0806392
0.0801937
0.0796579
0.0790361
0.0783323
0.0775506
0.0766951
0.0757702
0.0747806
0.0737303
0.0726222
0.0714585
0.0702496
0.069004
0.0676111
0.0659735
0.0140877
0.0122602
0.0107219
0.00936418
0.00806102
0.00682066
0.00565317
0.00455966
0.00354161
0.00260121
0.00174083
0.000962836
0.000269784
-0.000335589
-0.000850744
-0.00127329
-0.00160062
-0.00183055
-0.00196127
-0.00199129
-0.00191963
-0.00174565
-0.00146905
-0.00108988
-0.000608533
-2.5515e-05
0.000658507
0.00144257
0.00232522
0.00330459
0.00437849
0.00554445
0.00679976
0.00814145
0.00956633
0.011071
0.0126519
0.0143053
0.0160271
0.0178131
0.0196587
0.0215591
0.0235091
0.0255039
0.0275384
0.0296072
0.0317051
0.0338267
0.0359665
0.0381186
0.0402772
0.0424363
0.0445898
0.0467322
0.0488576
0.0509605
0.053035
0.0550751
0.0570746
0.0590278
0.0609291
0.0627727
0.064553
0.066265
0.0679037
0.0694645
0.0709432
0.0723361
0.0736391
0.0748485
0.075961
0.0769738
0.0778841
0.0786898
0.0793891
0.0799809
0.0804642
0.0808383
0.0811035
0.0812603
0.0813094
0.0812514
0.0810879
0.0808212
0.0804542
0.0799899
0.0794316
0.0787827
0.0780467
0.0772273
0.0763282
0.0753536
0.0743073
0.0731929
0.0720124
0.0707678
0.0694697
0.0681271
0.0666195
0.0648415
0.0150667
0.0131
0.0114481
0.00999415
0.00860243
0.00728164
0.00604217
0.00488462
0.00380999
0.00281999
0.00191642
0.00110129
0.00037651
-0.000255853
-0.00079368
-0.00123488
-0.00157762
-0.00182005
-0.00196081
-0.00199884
-0.00193342
-0.00176418
-0.00149111
-0.00111452
-0.000634946
-5.30196e-05
0.000630399
0.00141408
0.00229637
0.00327535
0.00434886
0.00551444
0.00676932
0.00811041
0.00953443
0.011038
0.0126176
0.0142693
0.0159894
0.0177733
0.0196166
0.0215146
0.0234622
0.0254545
0.0274864
0.0295528
0.0316483
0.0337677
0.0359054
0.0380557
0.0402127
0.0423702
0.0445225
0.0466641
0.048789
0.0508917
0.0529663
0.0550069
0.0570073
0.058962
0.0608651
0.0627108
0.0644936
0.0662084
0.0678503
0.0694145
0.0708969
0.0722934
0.0735999
0.0748127
0.0759285
0.0769443
0.0778574
0.0786652
0.079366
0.0799585
0.0804415
0.0808144
0.0810768
0.0812289
0.0812709
0.0812034
0.0810278
0.0807462
0.0803613
0.0798755
0.0792915
0.0786121
0.0778404
0.0769799
0.0760341
0.0750066
0.0739007
0.0727194
0.0714644
0.0701374
0.0687495
0.0673102
0.0656895
0.0637741
0.0159606
0.0138577
0.0120937
0.0105439
0.00906322
0.00766088
0.00634803
0.00512467
0.0039912
0.00294923
0.00200008
0.00114516
0.000386046
-0.0002757
-0.000838487
-0.00130064
-0.00166071
-0.0019174
-0.00206969
-0.00211683
-0.00205841
-0.00189433
-0.00162487
-0.00125057
-0.000772085
-0.000190245
0.000493803
0.00127857
0.00216232
0.00314313
0.00421885
0.00538692
0.00664443
0.00798818
0.00941487
0.0109211
0.0125034
0.0141579
0.0158805
0.017667
0.0195129
0.0214134
0.0233637
0.0253587
0.0273935
0.0294627
0.0315615
0.0336843
0.0358257
0.0379798
0.0401407
0.0423026
0.0444596
0.0466061
0.0487364
0.0508446
0.052925
0.0549716
0.0569785
0.0589399
0.06085
0.0627029
0.0644931
0.0662156
0.0678654
0.0694376
0.0709278
0.0723319
0.0736455
0.074865
0.0759871
0.0770086
0.0779266
0.0787385
0.0794425
0.080037
0.0805209
0.0808929
0.0811526
0.0812994
0.0813336
0.0812555
0.0810665
0.0807685
0.0803637
0.079854
0.0792414
0.0785284
0.0777181
0.0768137
0.0758185
0.0747354
0.0735673
0.0723167
0.0709853
0.0695746
0.0680964
0.0665608
0.0648282
0.0627779
0.0167619
0.0145251
0.0126502
0.011005
0.00943532
0.00795068
0.006563
0.00527233
0.00407842
0.00298243
0.00198558
0.00108884
0.000293269
-0.000400001
-0.000989662
-0.00147459
-0.00185367
-0.00212604
-0.00229099
-0.00234803
-0.00229707
-0.00213835
-0.00187237
-0.00149981
-0.00102153
-0.000438682
0.000247286
0.00103476
0.001922
0.00290707
0.00398768
0.0051611
0.00642428
0.00777402
0.00920702
0.0107199
0.0123089
0.0139703
0.0156999
0.0174936
0.0193469
0.021255
0.0232131
0.025216
0.0272589
0.0293366
0.031444
0.0335758
0.0357263
0.0378899
0.0400606
0.0422325
0.0444001
0.0465574
0.0486987
0.0508181
0.05291
0.0549683
0.0569872
0.0589607
0.0608829
0.062748
0.0645507
0.0662859
0.0679483
0.069533
0.0710353
0.0724508
0.0737754
0.0750051
0.0761366
0.0771666
0.078092
0.0789102
0.0796192
0.0802174
0.0807032
0.0810751
0.081332
0.0814735
0.0814995
0.0814104
0.0812072
0.0808915
0.0804649
0.0799289
0.0792853
0.0785363
0.0776851
0.0767346
0.0756875
0.0745463
0.0733135
0.0719917
0.0705823
0.0690869
0.0675179
0.0658859
0.0640424
0.0618593
0.0174641
0.0150951
0.0131102
0.0113698
0.00971093
0.00814361
0.00668014
0.00532069
0.00406489
0.00291335
0.00186701
0.000926594
9.27805e-05
-0.000633674
-0.00125188
-0.00176107
-0.00216054
-0.00244969
-0.00262805
-0.00269549
-0.00265226
-0.00249884
-0.0022359
-0.00186432
-0.00138529
-0.000800305
-0.000110968
0.000681092
0.00157409
0.00256591
0.00365408
0.00483571
0.00610773
0.00746691
0.0089099
0.0104332
0.012033
0.0137055
0.0154467
0.0172523
0.0191178
0.0210385
0.0230094
0.0250254
0.0270818
0.0291733
0.0312949
0.0334411
0.0356064
0.037785
0.0399712
0.0421591
0.0443429
0.0465168
0.0486748
0.0508112
0.0529203
0.054996
0.0570323
0.0590233
0.0609629
0.0628456
0.0646659
0.0664186
0.0680985
0.0697001
0.0712187
0.0726499
0.0739893
0.075233
0.0763773
0.0774189
0.0783544
0.0791812
0.0798973
0.0805008
0.0809897
0.0813622
0.081617
0.0817535
0.0817715
0.0816711
0.0814531
0.0811185
0.0806685
0.0801044
0.0794279
0.0786413
0.0777473
0.0767486
0.0756473
0.0744457
0.0731462
0.0717514
0.0702626
0.0686814
0.067021
0.0652924
0.0633385
0.0610238
0.0180612
0.0155613
0.0134669
0.0116314
0.00988305
0.00823253
0.00669255
0.0052632
0.00394414
0.00273569
0.00163836
0.00065271
-0.000220869
-0.000981914
-0.00163006
-0.00216474
-0.00258559
-0.00289222
-0.0030845
-0.00316265
-0.00312714
-0.00297865
-0.00271807
-0.00234662
-0.00186585
-0.00127743
-0.000582996
0.000215753
0.00111685
0.00211794
0.00321637
0.00440921
0.00569336
0.00706549
0.00852214
0.0100597
0.0116744
0.0133623
0.0151196
0.0169418
0.0188244
0.0207625
0.0227513
0.0247857
0.0268609
0.0289717
0.0311129
0.033279
0.0354646
0.037664
0.0398715
0.0420811
0.0442869
0.046483
0.0486636
0.0508228
0.0529548
0.0550536
0.0571129
0.0591267
0.0610893
0.0629948
0.064838
0.0666132
0.0683151
0.0699382
0.0714776
0.0729288
0.0742872
0.0755487
0.0767094
0.0777658
0.0787144
0.0795525
0.0802778
0.0808884
0.0813818
0.081756
0.0820096
0.0821418
0.0821522
0.0820406
0.0818072
0.0814528
0.0809781
0.0803846
0.079674
0.0788483
0.07791
0.0768611
0.0757036
0.0744396
0.0730717
0.0716022
0.0700328
0.0683647
0.0666119
0.0647862
0.0627219
0.0602762
0.0185478
0.0159179
0.0137144
0.0117835
0.00994518
0.00821082
0.00659358
0.00509335
0.00370976
0.00244309
0.00129352
0.000261332
-0.000653289
-0.00145023
-0.00212937
-0.00269044
-0.0031333
-0.00345787
-0.00366437
-0.00375322
-0.00372509
-0.00358092
-0.00332193
-0.00294971
-0.00246601
-0.00187256
-0.00117107
-0.000363434
0.000548117
0.00156104
0.00267259
0.00387978
0.00517941
0.00656803
0.00804202
0.00959775
0.0112315
0.0129393
0.0147172
0.0165606
0.018465
0.0204256
0.0224374
0.0244956
0.0265949
0.0287303
0.0308965
0.0330881
0.0352997
0.0375257
0.0397602
0.0419971
0.0442306
0.0464548
0.0486637
0.0508515
0.0530123
0.0551398
0.0572277
0.05927
0.0612611
0.0631949
0.065066
0.0668688
0.0685975
0.0702468
0.0718116
0.0732872
0.0746689
0.0759522
0.0771331
0.0782077
0.0791725
0.0800247
0.0807617
0.0813813
0.0818809
0.0822583
0.082512
0.0826409
0.0826442
0.0825214
0.0822724
0.0818974
0.0813975
0.0807739
0.0800282
0.0791622
0.0781779
0.077077
0.0758615
0.0745336
0.0730956
0.0715501
0.0698985
0.0681423
0.0662961
0.0643726
0.0621973
0.0596204
0.0189193
0.0161594
0.0138469
0.0118202
0.00989116
0.00807211
0.0063767
0.00480459
0.0033553
0.00202916
0.000826198
-0.000253656
-0.00121041
-0.00204427
-0.00275518
-0.00334323
-0.00380849
-0.00415124
-0.00437192
-0.00447114
-0.00444983
-0.00430926
-0.00405103
-0.00367693
-0.00318881
-0.00258846
-0.00187783
-0.00105908
-0.000134644
0.000892832
0.00202052
0.00324531
0.00456384
0.0059725
0.00746763
0.0090456
0.0107026
0.0124347
0.0142377
0.016107
0.0180382
0.0200262
0.0220663
0.0241534
0.0262822
0.0284476
0.0306444
0.0328671
0.0351105
0.0373687
0.0396359
0.041906
0.044173
0.046431
0.0486741
0.0508964
0.0530916
0.0552535
0.0573758
0.0594524
0.0614775
0.0634451
0.0653494
0.0671847
0.0689452
0.0706255
0.0722204
0.0737251
0.0751344
0.0764438
0.0776487
0.0787452
0.0797296
0.0805988
0.0813502
0.0819812
0.0824891
0.0828715
0.0831268
0.0832535
0.0832505
0.0831168
0.082852
0.0824564
0.081931
0.0812769
0.0804953
0.0795878
0.078556
0.0774017
0.0761268
0.0747334
0.0732239
0.0716008
0.0698655
0.0680197
0.0660788
0.0640562
0.0617688
0.0590599
0.019171
0.0162803
0.0138582
0.0117354
0.00971484
0.00780999
0.00603532
0.00439027
0.00287423
0.00148748
0.00022999
-0.000898533
-0.00189835
-0.00276977
-0.00351302
-0.00412839
-0.00461627
-0.00497715
-0.00521165
-0.00532067
-0.00530549
-0.00516772
-0.0049092
-0.00453182
-0.00403751
-0.00342828
-0.00270637
-0.00187417
-0.000934237
0.000110704
0.00125768
0.00250338
0.00384427
0.00527667
0.00679689
0.00840124
0.0100859
0.0118466
0.0136793
0.0155793
0.0175421
0.0195628
0.0216363
0.0237575
0.0259212
0.0281221
0.0303551
0.0326147
0.0348956
0.0371918
0.0394975
0.0418065
0.0441128
0.0464107
0.0486938
0.0509562
0.0531917
0.0553939
0.0575563
0.0596731
0.0617379
0.0637448
0.0656877
0.0675608
0.0693582
0.0710745
0.0727044
0.0742428
0.0756844
0.0770241
0.0782572
0.0793795
0.0803871
0.0812767
0.0820454
0.0826905
0.0832091
0.0835987
0.0838572
0.083983
0.0839745
0.0838304
0.0835504
0.0831346
0.0825839
0.0818989
0.0810807
0.0801305
0.0790501
0.0778411
0.0765055
0.0750453
0.0734627
0.0717604
0.0699398
0.0680027
0.0659654
0.063842
0.0614411
0.0585986
0.0192985
0.0162757
0.0137426
0.0115228
0.00940986
0.00741801
0.00556284
0.00384373
0.00225987
0.000811448
-0.000501613
-0.00167966
-0.00272322
-0.00363267
-0.0044086
-0.00505147
-0.00556189
-0.00594055
-0.00618834
-0.0063065
-0.00629666
-0.00616068
-0.00590051
-0.00551814
-0.00501572
-0.00439557
-0.00366014
-0.00281197
-0.00185371
-0.000788248
0.000381238
0.00165123
0.00301809
0.00447809
0.00602749
0.00766246
0.009379
0.0111729
0.01304
0.0149756
0.016975
0.0190334
0.0211455
0.0233062
0.0255102
0.0277523
0.0300272
0.0323294
0.0346535
0.0369936
0.0393435
0.0416974
0.0440491
0.0463926
0.0487217
0.0510302
0.0533119
0.0555602
0.0577688
0.0599315
0.0620419
0.0640936
0.0660807
0.067997
0.0698368
0.0715944
0.0732644
0.0748414
0.0763197
0.0776942
0.0789598
0.080112
0.0811467
0.0820603
0.0828498
0.0835121
0.084044
0.084443
0.0847065
0.0848328
0.08482
0.0846668
0.0843725
0.0839371
0.0833611
0.0826449
0.0817894
0.0807959
0.0796659
0.0784013
0.0770037
0.0754752
0.0738179
0.0720346
0.070127
0.0680968
0.0659611
0.063735
0.0612187
0.0582404
0.0192972
0.0161402
0.0134945
0.0111762
0.00896966
0.00688959
0.0049526
0.00315819
0.00150542
-5.64715e-06
-0.00137513
-0.00260344
-0.0036912
-0.00463909
-0.00544784
-0.00611814
-0.00665077
-0.00704669
-0.00730714
-0.00743369
-0.00742822
-0.0072927
-0.00702922
-0.00664
-0.00612748
-0.00549423
-0.00474285
-0.00387597
-0.00289641
-0.00180728
-0.000611981
0.00068583
0.00208244
0.00357405
0.00515678
0.00682665
0.00857956
0.0104113
0.0123175
0.0142935
0.0163347
0.0184359
0.020592
0.0227976
0.0250474
0.0273363
0.0296588
0.0320095
0.0343827
0.0367724
0.0391727
0.0415774
0.0439805
0.0463757
0.0487568
0.0511174
0.0534512
0.0557518
0.0580126
0.0602272
0.0623889
0.0644915
0.0665284
0.0684938
0.0703815
0.0721858
0.073901
0.0755215
0.0770415
0.0784553
0.0797579
0.0809443
0.0820103
0.0829519
0.0837657
0.0844484
0.0849966
0.0854073
0.085678
0.0858067
0.0857913
0.0856303
0.0853228
0.0848684
0.0842673
0.0835199
0.0826268
0.0815894
0.0804092
0.0790879
0.077627
0.0760285
0.0742949
0.072429
0.0704323
0.0683068
0.0660705
0.0637396
0.0611054
0.0579887
0.0191617
0.0158684
0.013108
0.0106894
0.00838763
0.00621803
0.00419787
0.00232687
0.000604058
-0.000970547
-0.00239714
-0.00367628
-0.00480866
-0.00579521
-0.00663676
-0.00733421
-0.00788859
-0.00830119
-0.00857358
-0.00870758
-0.00870518
-0.00856852
-0.00829991
-0.00790188
-0.00737714
-0.00672842
-0.00595842
-0.00506991
-0.00406598
-0.00294996
-0.00172542
-0.000396095
0.00103419
0.00256149
0.00418178
0.00589092
0.00768474
0.00955897
0.0115092
0.0135308
0.0156187
0.017768
0.0199733
0.0222293
0.0245307
0.0268721
0.029248
0.031653
0.0340811
0.0365265
0.0389833
0.041445
0.0439056
0.0463586
0.0487978
0.0512166
0.0536088
0.0559677
0.0582868
0.0605593
0.0627785
0.0649378
0.0670308
0.069051
0.0709925
0.072849
0.0746149
0.076284
0.0778505
0.0793085
0.0806528
0.0818781
0.0829798
0.0839535
0.0847954
0.0855019
0.0860694
0.0864947
0.0867751
0.0869084
0.0868924
0.0867253
0.0864058
0.0859332
0.0853075
0.084529
0.0835983
0.0825168
0.0812858
0.0799066
0.078381
0.0767111
0.0748994
0.0729489
0.070861
0.0686378
0.0662985
0.0638605
0.0611054
0.0578467
0.0188866
0.0154544
0.0125772
0.010056
0.0076572
0.00539648
0.00329179
0.00134294
-0.000450975
-0.00208997
-0.00357436
-0.00490479
-0.00608212
-0.00710737
-0.00798153
-0.00870577
-0.00928139
-0.00971001
-0.00999343
-0.0101336
-0.0101327
-0.00999314
-0.00971749
-0.00930857
-0.00876928
-0.00810246
-0.00731097
-0.00639783
-0.00536637
-0.00422009
-0.00296269
-0.00159801
-0.000130025
0.00143713
0.00309926
0.00485217
0.00669159
0.00861318
0.0106124
0.0126845
0.0148244
0.017027
0.019287
0.021599
0.0239575
0.0263572
0.0287924
0.0312575
0.0337466
0.0362539
0.0387732
0.0412981
0.0438224
0.0463395
0.048843
0.0513264
0.0537832
0.0562068
0.0585902
0.0609269
0.0632098
0.0654321
0.0675872
0.0696686
0.0716697
0.0735842
0.0754062
0.0771293
0.0787476
0.0802551
0.0816461
0.0829151
0.0840571
0.0850672
0.0859413