/*--------------------------------*- C++ -*----------------------------------*\
| =========                 |                                                 |
| \\      /  F ield         | OpenFOAM: The Open Source CFD Toolbox           |
|  \\    /   O peration     | Version:  2212                                  |
|   \\  /    A nd           | Website:  www.openfoam.com                      |
|    \\/     M anipulation  |                                                 |
\*---------------------------------------------------------------------------*/
FoamFile
{
    version     2.0;
    format      ascii;
    arch        "LSB;label=32;scalar=64";
    class       surfaceScalarField;
    location    "0.029";
    object      phi_0;
}
// * * * * * * * * * * * * * * * * * * * * * * * * * * * * * * * * * * * * * //

dimensions      [0 3 -1 0 0 0 0];

oriented        oriented;

internalField   nonuniform List<scalar> 
19800
(
6.04007e-11
-6.04525e-11
1.80907e-10
-1.20498e-10
2.92345e-10
-1.11444e-10
3.6213e-10
-6.97637e-11
3.70071e-10
-7.93416e-12
3.03509e-10
6.65597e-11
1.5624e-10
1.47269e-10
-7.36046e-11
2.29848e-10
-3.84986e-10
3.11374e-10
-7.74961e-10
3.89981e-10
-1.23941e-09
4.64457e-10
-1.77346e-09
5.34044e-10
-2.3718e-09
5.98351e-10
-3.02887e-09
6.57082e-10
-3.73897e-09
7.10102e-10
-4.49642e-09
7.57445e-10
-5.29549e-09
7.99077e-10
-6.13062e-09
8.35116e-10
-6.99629e-09
8.6567e-10
-7.88714e-09
8.90849e-10
-8.79796e-09
9.10807e-10
-9.72374e-09
9.25772e-10
-1.06596e-08
9.35893e-10
-1.1601e-08
9.41363e-10
-1.25434e-08
9.42389e-10
-1.34825e-08
9.39133e-10
-1.44143e-08
9.31771e-10
-1.53348e-08
9.20532e-10
-1.62404e-08
9.05606e-10
-1.71276e-08
8.8714e-10
-1.79929e-08
8.65315e-10
-1.88332e-08
8.40328e-10
-1.96456e-08
8.12368e-10
-2.04272e-08
7.81591e-10
-2.11753e-08
7.48163e-10
-2.18876e-08
7.12266e-10
-2.25617e-08
6.74058e-10
-2.31953e-08
6.33684e-10
-2.37866e-08
5.91297e-10
-2.43337e-08
5.47073e-10
-2.48349e-08
5.01178e-10
-2.52886e-08
4.53743e-10
-2.56936e-08
4.04909e-10
-2.60484e-08
3.54837e-10
-2.63521e-08
3.03673e-10
-2.66036e-08
2.51551e-10
-2.68022e-08
1.98617e-10
-2.69472e-08
1.45014e-10
-2.70381e-08
9.08916e-11
-2.70745e-08
3.64028e-11
-2.70562e-08
-1.83075e-11
-2.69831e-08
-7.3104e-11
-2.68553e-08
-1.27825e-10
-2.6673e-08
-1.82292e-10
-2.64367e-08
-2.36361e-10
-2.61468e-08
-2.89892e-10
-2.58041e-08
-3.42705e-10
-2.54094e-08
-3.94626e-10
-2.4964e-08
-4.45487e-10
-2.44689e-08
-4.95081e-10
-2.39257e-08
-5.43218e-10
-2.33359e-08
-5.89754e-10
-2.27014e-08
-6.34511e-10
-2.20241e-08
-6.77255e-10
-2.13063e-08
-7.1779e-10
-2.05504e-08
-7.55953e-10
-1.97589e-08
-7.91528e-10
-1.89346e-08
-8.24277e-10
-1.80806e-08
-8.54016e-10
-1.72e-08
-8.80573e-10
-1.62963e-08
-9.03734e-10
-1.5373e-08
-9.23272e-10
-1.4434e-08
-9.38994e-10
-1.34833e-08
-9.50702e-10
-1.25252e-08
-9.5817e-10
-1.1564e-08
-9.61193e-10
-1.06043e-08
-9.59613e-10
-9.65107e-09
-9.53278e-10
-8.70906e-09
-9.42002e-10
-7.78346e-09
-9.25599e-10
-6.87954e-09
-9.03912e-10
-6.00273e-09
-8.76813e-10
-5.15855e-09
-8.44182e-10
-4.35263e-09
-8.05919e-10
-3.59066e-09
-7.61961e-10
-2.87838e-09
-7.12291e-10
-2.22145e-09
-6.56933e-10
-1.62548e-09
-5.9596e-10
-1.09595e-09
-5.29532e-10
-6.38022e-10
-4.57932e-10
-2.56421e-10
-3.81602e-10
4.48072e-11
-3.01228e-10
2.62677e-10
-2.1787e-10
3.95861e-10
-1.33186e-10
4.45695e-10
-4.98336e-11
4.17777e-10
2.79211e-11
3.24633e-10
9.31495e-11
1.9039e-10
1.34246e-10
5.92979e-11
1.3109e-10
5.92976e-11
1.39296e-10
-1.99739e-10
3.45559e-10
-3.2676e-10
4.99491e-10
-2.65374e-10
5.34337e-10
-1.04627e-10
4.05308e-10
1.21114e-10
8.37307e-11
3.88113e-10
-4.46166e-10
6.77177e-10
-1.19059e-09
9.74272e-10
-2.14874e-09
1.26952e-09
-3.31496e-09
1.5562e-09
-4.68007e-09
1.82957e-09
-6.23259e-09
2.08657e-09
-7.95945e-09
2.32521e-09
-9.84654e-09
2.54416e-09
-1.18791e-08
2.74271e-09
-1.40422e-08
2.9205e-09
-1.63205e-08
3.07741e-09
-1.8699e-08
3.21363e-09
-2.11627e-08
3.32942e-09
-2.3697e-08
3.42516e-09
-2.62876e-08
3.50138e-09
-2.89204e-08
3.55864e-09
-3.15821e-08
3.59754e-09
-3.42595e-08
3.61876e-09
-3.69401e-08
3.62298e-09
-3.96118e-08
3.61083e-09
-4.2263e-08
3.583e-09
-4.48827e-08
3.54022e-09
-4.74603e-08
3.48318e-09
-4.99857e-08
3.41255e-09
-5.24494e-08
3.32902e-09
-5.48424e-08
3.23329e-09
-5.7156e-08
3.12602e-09
-5.93823e-08
3.00786e-09
-6.15136e-08
2.87945e-09
-6.35428e-08
2.74146e-09
-6.54632e-08
2.59451e-09
-6.72688e-08
2.43921e-09
-6.89537e-08
2.27617e-09
-7.05126e-08
2.106e-09
-7.19407e-08
1.92929e-09
-7.32335e-08
1.74662e-09
-7.43872e-08
1.55855e-09
-7.5398e-08
1.36568e-09
-7.6263e-08
1.16858e-09
-7.69792e-08
9.67805e-10
-7.75445e-08
7.63899e-10
-7.79569e-08
5.57438e-10
-7.82151e-08
3.48998e-10
-7.83178e-08
1.39145e-10
-7.82645e-08
-7.15455e-11
-7.80552e-08
-2.82497e-10
-7.76899e-08
-4.93114e-10
-7.71694e-08
-7.02772e-10
-7.64949e-08
-9.10849e-10
-7.56681e-08
-1.11673e-09
-7.4691e-08
-1.31979e-09
-7.35663e-08
-1.51935e-09
-7.2297e-08
-1.71472e-09
-7.08869e-08
-1.90523e-09
-6.93399e-08
-2.09017e-09
-6.76609e-08
-2.26882e-09
-6.58549e-08
-2.44047e-09
-6.39278e-08
-2.60439e-09
-6.18858e-08
-2.75981e-09
-5.97357e-08
-2.90597e-09
-5.74852e-08
-3.04211e-09
-5.5142e-08
-3.16746e-09
-5.27148e-08
-3.28121e-09
-5.02127e-08
-3.38263e-09
-4.76455e-08
-3.47094e-09
-4.50234e-08
-3.54538e-09
-4.23573e-08
-3.60517e-09
-3.96584e-08
-3.64954e-09
-3.69389e-08
-3.67774e-09
-3.4211e-08
-3.68907e-09
-3.14878e-08
-3.68284e-09
-2.87826e-08
-3.65843e-09
-2.61094e-08
-3.61522e-09
-2.34824e-08
-3.55264e-09
-2.09161e-08
-3.47015e-09
-1.84256e-08
-3.36732e-09
-1.6026e-08
-3.2438e-09
-1.37325e-08
-3.09935e-09
-1.15606e-08
-2.93386e-09
-9.52553e-09
-2.74741e-09
-7.6422e-09
-2.54026e-09
-5.9252e-09
-2.31297e-09
-4.3883e-09
-2.06644e-09
-3.04414e-09
-1.80209e-09
-1.90372e-09
-1.52202e-09
-9.75623e-10
-1.22932e-09
-2.64984e-10
-9.28506e-10
2.28019e-10
-6.26185e-10
5.10332e-10
-3.32146e-10
5.99166e-10
-6.09125e-11
5.26432e-10
1.6589e-10
3.44342e-10
3.16336e-10
1.31094e-10
3.44339e-10
1.904e-10
1.48788e-10
-3.48534e-10
3.33118e-10
-5.11086e-10
4.071e-10
-3.39348e-10
2.84524e-10
1.79494e-11
-9.26901e-11
4.98325e-10
-7.62123e-10
1.05756e-09
-1.74542e-09
1.66046e-09
-3.05174e-09
2.28059e-09
-4.68092e-09
2.89871e-09
-6.62568e-09
3.50096e-09
-8.87361e-09
4.07751e-09
-1.14085e-08
4.6215e-09
-1.42116e-08
5.12825e-09
-1.7262e-08
5.59461e-09
-2.0538e-08
6.01865e-09
-2.40167e-08
6.39925e-09
-2.76753e-08
6.73596e-09
-3.14904e-08
7.02878e-09
-3.54392e-08
7.27816e-09
-3.94988e-08
7.48475e-09
-4.36469e-08
7.64948e-09
-4.78616e-08
7.77342e-09
-5.21219e-08
7.85777e-09
-5.64069e-08
7.90384e-09
-6.06969e-08
7.91299e-09
-6.49727e-08
7.88661e-09
-6.92159e-08
7.82616e-09
-7.34088e-08
7.73311e-09
-7.75345e-08
7.60893e-09
-8.15771e-08
7.45508e-09
-8.55211e-08
7.27306e-09
-8.93521e-08
7.06433e-09
-9.30564e-08
6.83032e-09
-9.6621e-08
6.57247e-09
-1.00034e-07
6.29219e-09
-1.03283e-07
5.99088e-09
-1.06359e-07
5.66991e-09
-1.0925e-07
5.33062e-09
-1.11948e-07
4.97437e-09
-1.14445e-07
4.60248e-09
-1.16732e-07
4.21624e-09
-1.18802e-07
3.81691e-09
-1.20649e-07
3.40577e-09
-1.22268e-07
2.98408e-09
-1.23652e-07
2.55311e-09
-1.24798e-07
2.11408e-09
-1.25703e-07
1.66823e-09
-1.26362e-07
1.21682e-09
-1.26774e-07
7.61093e-10
-1.26937e-07
3.02312e-10
-1.26851e-07
-1.58254e-10
-1.26514e-07
-6.19324e-10
-1.25927e-07
-1.07958e-09
-1.25092e-07
-1.53767e-09
-1.24011e-07
-1.99227e-09
-1.22686e-07
-2.44198e-09
-1.2112e-07
-2.8854e-09
-1.19318e-07
-3.32107e-09
-1.17286e-07
-3.74754e-09
-1.15028e-07
-4.16328e-09
-1.12551e-07
-4.56678e-09
-1.09863e-07
-4.95649e-09
-1.06973e-07
-5.33082e-09
-1.03889e-07
-5.68815e-09
-1.00622e-07
-6.02686e-09
-9.71829e-08
-6.3453e-09
-9.35832e-08
-6.64181e-09
-8.98359e-08
-6.9147e-09
-8.59548e-08
-7.1623e-09
-8.19545e-08
-7.38295e-09
-7.78505e-08
-7.57497e-09
-7.36592e-08
-7.73671e-09
-6.93978e-08
-7.86655e-09
-6.50844e-08
-7.96287e-09
-6.07381e-08
-8.02409e-09
-5.63784e-08
-8.04871e-09
-5.2026e-08
-8.0353e-09
-4.77019e-08
-7.98253e-09
-4.3428e-08
-7.88915e-09
-3.92266e-08
-7.754e-09
-3.51207e-08
-7.57609e-09
-3.11334e-08
-7.3546e-09
-2.72883e-08
-7.08892e-09
-2.36089e-08
-6.77873e-09
-2.01187e-08
-6.42399e-09
-1.68411e-08
-6.0251e-09
-1.37984e-08
-5.58292e-09
-1.10124e-08
-5.09899e-09
-8.50313e-09
-4.57567e-09
-6.28876e-09
-4.01646e-09
-4.38444e-09
-3.42635e-09
-2.80137e-09
-2.8124e-09
-1.54526e-09
-2.1846e-09
-6.14447e-10
-1.55699e-09
2.78528e-12
-9.4938e-10
3.31609e-10
-3.8973e-10
4.14919e-10
8.25881e-11
3.18205e-10
4.13048e-10
1.34784e-10
5.27771e-10
3.25186e-10
1.039e-10
-4.52413e-10
1.793e-10
-5.86505e-10
7.70619e-11
-2.37109e-10
-2.97465e-10
3.9248e-10
-1.00862e-09
1.20947e-09
-2.09846e-09
2.14739e-09
-3.59162e-09
3.15361e-09
-5.49894e-09
4.18792e-09
-7.82045e-09
5.22022e-09
-1.05478e-08
6.2283e-09
-1.36661e-08
7.19584e-09
-1.71557e-08
8.11114e-09
-2.09934e-08
8.96589e-09
-2.51531e-08
9.75435e-09
-2.96072e-08
1.04727e-08
-3.43267e-08
1.11188e-08
-3.9282e-08
1.16913e-08
-4.44431e-08
1.21899e-08
-4.97801e-08
1.26151e-08
-5.52631e-08
1.29678e-08
-6.08628e-08
1.32492e-08
-6.65505e-08
1.3461e-08
-7.22979e-08
1.36052e-08
-7.80777e-08
1.36837e-08
-8.38635e-08
1.36988e-08
-8.96296e-08
1.36527e-08
-9.53515e-08
1.3548e-08
-1.01005e-07
1.33871e-08
-1.06569e-07
1.31724e-08
-1.1202e-07
1.29064e-08
-1.17339e-07
1.25917e-08
-1.22505e-07
1.22307e-08
-1.27501e-07
1.18259e-08
-1.32308e-07
1.13798e-08
-1.36911e-07
1.08948e-08
-1.41293e-07
1.03733e-08
-1.45441e-07
9.81769e-09
-1.49341e-07
9.2303e-09
-1.5298e-07
8.61345e-09
-1.56347e-07
7.96941e-09
-1.59431e-07
7.30045e-09
-1.62223e-07
6.60878e-09
-1.64713e-07
5.89662e-09
-1.66896e-07
5.16615e-09
-1.68762e-07
4.41955e-09
-1.70307e-07
3.65899e-09
-1.71525e-07
2.88663e-09
-1.72413e-07
2.10465e-09
-1.72967e-07
1.31524e-09
-1.73186e-07
5.2058e-10
-1.73067e-07
-2.7711e-10
-1.7261e-07
-1.07558e-09
-1.71817e-07
-1.87254e-09
-1.70689e-07
-2.66568e-09
-1.69229e-07
-3.45264e-09
-1.6744e-07
-4.23103e-09
-1.65327e-07
-4.99841e-09
-1.62896e-07
-5.75227e-09
-1.60153e-07
-6.49005e-09
-1.57107e-07
-7.20917e-09
-1.53767e-07
-7.90698e-09
-1.50143e-07
-8.58081e-09
-1.46246e-07
-9.22791e-09
-1.42088e-07
-9.84551e-09
-1.37685e-07
-1.04308e-08
-1.33049e-07
-1.0981e-08
-1.28198e-07
-1.14931e-08
-1.23148e-07
-1.19644e-08
-1.17918e-07
-1.23919e-08
-1.12528e-07
-1.27728e-08
-1.06999e-07
-1.31042e-08
-1.01353e-07
-1.33834e-08
-9.56115e-08
-1.36076e-08
-8.98004e-08
-1.3774e-08
-8.39446e-08
-1.38799e-08
-7.80702e-08
-1.3923e-08
-7.22047e-08
-1.39009e-08
-6.6376e-08
-1.38112e-08
-6.06131e-08
-1.3652e-08
-5.49457e-08
-1.34215e-08
-4.94038e-08
-1.3118e-08
-4.40178e-08
-1.27405e-08
-3.88187e-08
-1.22881e-08
-3.38369e-08
-1.17605e-08
-2.9103e-08
-1.11579e-08
-2.46468e-08
-1.04813e-08
-2.0497e-08
-9.73269e-09
-1.6681e-08
-8.91502e-09
-1.32238e-08
-8.03284e-09
-1.01477e-08
-7.09259e-09
-7.47083e-09
-6.10321e-09
-5.20618e-09
-5.07704e-09
-3.35983e-09
-4.03095e-09
-1.9289e-09
-2.98793e-09
-8.98929e-10
-1.97934e-09
-2.4084e-10
-1.04781e-09
9.28762e-11
-2.51129e-10
1.72278e-10
3.33646e-10
9.5079e-11
6.04976e-10
4.2026e-10
3.29223e-11
-4.8533e-10
-5.64637e-11
-4.97099e-10
-4.02984e-10
1.09405e-10
-1.09937e-09
1.08886e-09
-2.20988e-09
2.31998e-09
-3.77701e-09
3.71452e-09
-5.82578e-09
5.20239e-09
-8.36712e-09
6.72926e-09
-1.14005e-08
8.25361e-09
-1.49163e-08
9.74406e-09
-1.88975e-08
1.11771e-08
-2.33217e-08
1.25353e-08
-2.81618e-08
1.38061e-08
-3.33879e-08
1.49804e-08
-3.89673e-08
1.60522e-08
-4.48659e-08
1.70174e-08
-5.10486e-08
1.78739e-08
-5.74795e-08
1.86208e-08
-6.41226e-08
1.92582e-08
-7.09421e-08
1.97873e-08
-7.79024e-08
2.02096e-08
-8.49687e-08
2.05273e-08
-9.21066e-08
2.07431e-08
-9.92828e-08
2.08599e-08
-1.06465e-07
2.08808e-08
-1.13621e-07
2.08093e-08
-1.20722e-07
2.06489e-08
-1.27738e-07
2.04031e-08
-1.34642e-07
2.00757e-08
-1.41406e-07
1.96703e-08
-1.48005e-07
1.91908e-08
-1.54415e-07
1.86408e-08
-1.60613e-07
1.80241e-08
-1.66577e-07
1.73443e-08
-1.72288e-07
1.66053e-08
-1.77725e-07
1.58106e-08
-1.82871e-07
1.49639e-08
-1.8771e-07
1.40686e-08
-1.92225e-07
1.31283e-08
-1.96402e-07
1.21465e-08
-2.00228e-07
1.11266e-08
-2.03691e-07
1.00721e-08
-2.06781e-07
8.98627e-09
-2.09487e-07
7.8725e-09
-2.11802e-07
6.7341e-09
-2.13717e-07
5.57441e-09
-2.15227e-07
4.39676e-09
-2.16327e-07
3.20447e-09
-2.17013e-07
2.00089e-09
-2.17282e-07
7.89388e-10
-2.17132e-07
-4.26654e-10
-2.16564e-07
-1.64378e-09
-2.15578e-07
-2.8585e-09
-2.14176e-07
-4.06727e-09
-2.12362e-07
-5.2665e-09
-2.10141e-07
-6.45252e-09
-2.07518e-07
-7.6216e-09
-2.045e-07
-8.76993e-09
-2.01097e-07
-9.89363e-09
-1.97317e-07
-1.09887e-08
-1.93173e-07
-1.20513e-08
-1.88676e-07
-1.30771e-08
-1.83842e-07
-1.40621e-08
-1.78685e-07
-1.50021e-08
-1.73223e-07
-1.58928e-08
-1.67475e-07
-1.67299e-08
-1.61459e-07
-1.75091e-08
-1.55197e-07
-1.82261e-08
-1.48712e-07
-1.88764e-08
-1.42029e-07
-1.94559e-08
-1.35173e-07
-1.99602e-08
-1.28172e-07
-2.03851e-08
-1.21053e-07
-2.07266e-08
-1.13846e-07
-2.09804e-08
-1.06583e-07
-2.11428e-08
-9.92962e-08
-2.12101e-08
-9.20182e-08
-2.11788e-08
-8.47838e-08
-2.10456e-08
-7.76282e-08
-2.08077e-08
-7.05872e-08
-2.04624e-08
-6.36974e-08
-2.00078e-08
-5.69957e-08
-1.94422e-08
-5.05191e-08
-1.87647e-08
-4.43043e-08
-1.79752e-08
-3.83877e-08
-1.70745e-08
-3.28046e-08
-1.60644e-08
-2.75891e-08
-1.49482e-08
-2.2773e-08
-1.37311e-08
-1.83855e-08
-1.24203e-08
-1.44521e-08
-1.1026e-08
-1.09935e-08
-9.56178e-09
-8.02436e-09
-8.04621e-09
-5.5514e-09
-6.50391e-09
-3.5717e-09
-4.96763e-09
-2.0703e-09
-3.48073e-09
-1.01753e-09
-2.10058e-09
-3.65999e-10
-9.0267e-10
-4.72655e-11
1.49156e-11
3.21494e-11
5.2556e-10
4.52409e-10
-4.85478e-11
-4.36787e-10
-3.34353e-10
-2.11318e-10
-9.69038e-10
7.44104e-10
-2.03544e-09
2.15526e-09
-3.59245e-09
3.87698e-09
-5.67935e-09
5.80142e-09
-8.31904e-09
7.84208e-09
-1.15208e-08
9.93102e-09
-1.52825e-08
1.20154e-08
-1.95928e-08
1.40543e-08
-2.44325e-08
1.60167e-08
-2.97763e-08
1.78791e-08
-3.55942e-08
1.9624e-08
-4.18525e-08
2.12387e-08
-4.85146e-08
2.27142e-08
-5.55419e-08
2.40447e-08
-6.28944e-08
2.52264e-08
-7.05313e-08
2.62577e-08
-7.84114e-08
2.71384e-08
-8.64936e-08
2.78695e-08
-9.47369e-08
2.84529e-08
-1.03101e-07
2.88913e-08
-1.11546e-07
2.91881e-08
-1.20033e-07
2.93472e-08
-1.28525e-07
2.93727e-08
-1.36985e-07
2.92692e-08
-1.45378e-07
2.90414e-08
-1.53669e-07
2.86943e-08
-1.61826e-07
2.82327e-08
-1.69818e-07
2.7662e-08
-1.77614e-07
2.69872e-08
-1.85187e-07
2.62135e-08
-1.92509e-07
2.53461e-08
-1.99555e-07
2.43902e-08
-2.063e-07
2.33509e-08
-2.12723e-07
2.22333e-08
-2.18802e-07
2.10424e-08
-2.24516e-07
1.97833e-08
-2.29849e-07
1.84608e-08
-2.34782e-07
1.70799e-08
-2.39301e-07
1.56454e-08
-2.43391e-07
1.41621e-08
-2.47039e-07
1.26347e-08
-2.50235e-07
1.1068e-08
-2.52968e-07
9.46663e-09
-2.55228e-07
7.83534e-09
-2.5701e-07
6.17881e-09
-2.58308e-07
4.50175e-09
-2.59116e-07
2.80887e-09
-2.59431e-07
1.10492e-09
-2.59253e-07
-6.053e-10
-2.5858e-07
-2.31693e-09
-2.57413e-07
-4.02503e-09
-2.55756e-07
-5.72464e-09
-2.53611e-07
-7.41069e-09
-2.50986e-07
-9.078e-09
-2.47886e-07
-1.07213e-08
-2.44321e-07
-1.23353e-08
-2.403e-07
-1.39145e-08
-2.35835e-07
-1.54534e-08
-2.3094e-07
-1.69463e-08
-2.2563e-07
-1.83875e-08
-2.19921e-07
-1.97712e-08
-2.13831e-07
-2.10916e-08
-2.07382e-07
-2.23426e-08
-2.00593e-07
-2.35183e-08
-1.9349e-07
-2.46127e-08
-1.86096e-07
-2.56196e-08
-1.78439e-07
-2.65332e-08
-1.70548e-07
-2.73473e-08
-1.62452e-07
-2.80561e-08
-1.54183e-07
-2.86538e-08
-1.45775e-07
-2.91346e-08
-1.37263e-07
-2.9493e-08
-1.28682e-07
-2.97236e-08
-1.2007e-07
-2.98216e-08
-1.11467e-07
-2.97821e-08
-1.02912e-07
-2.96008e-08
-9.44456e-08
-2.9274e-08
-8.61099e-08
-2.87982e-08
-7.79469e-08
-2.81708e-08
-6.9999e-08
-2.73901e-08
-6.23087e-08
-2.6455e-08
-5.49182e-08
-2.53657e-08
-4.78689e-08
-2.41239e-08
-4.12008e-08
-2.27325e-08
-3.49523e-08
-2.11967e-08
-2.91594e-08
-1.9524e-08
-2.38547e-08
-1.7725e-08
-1.90666e-08
-1.5814e-08
-1.48183e-08
-1.38101e-08
-1.11261e-08
-1.17384e-08
-7.99842e-09
-9.63161e-09
-5.43352e-09
-7.53252e-09
-3.41792e-09
-5.49633e-09
-1.92417e-09
-3.59433e-09
-9.08611e-10
-1.91823e-09
-3.09135e-10
-5.84555e-10
-4.25522e-11
2.58973e-10
4.09863e-10
-1.33452e-10
-3.03338e-10
-6.31512e-10
2.86748e-10
-1.58e-09
1.69259e-09
-3.04705e-09
3.62229e-09
-5.08225e-09
5.91219e-09
-7.71866e-09
8.43782e-09
-1.09748e-08
1.10982e-08
-1.48566e-08
1.38128e-08
-1.93593e-08
1.65181e-08
-2.44689e-08
1.91639e-08
-3.01636e-08
2.17115e-08
-3.64157e-08
2.41311e-08
-4.31919e-08
2.64002e-08
-5.04551e-08
2.8502e-08
-5.81653e-08
3.04244e-08
-6.62798e-08
3.21592e-08
-7.47546e-08
3.37012e-08
-8.35445e-08
3.50476e-08
-9.26037e-08
3.61976e-08
-1.01886e-07
3.71521e-08
-1.11347e-07
3.79131e-08
-1.20939e-07
3.84841e-08
-1.3062e-07
3.88689e-08
-1.40345e-07
3.90723e-08
-1.50072e-07
3.90997e-08
-1.5976e-07
3.89568e-08
-1.69368e-07
3.86497e-08
-1.78858e-07
3.81846e-08
-1.88194e-07
3.75682e-08
-1.97339e-07
3.6807e-08
-2.0626e-07
3.59078e-08
-2.14923e-07
3.48774e-08
-2.233e-07
3.37227e-08
-2.3136e-07
3.24503e-08
-2.39076e-07
3.1067e-08
-2.46423e-07
2.95797e-08
-2.53375e-07
2.79949e-08
-2.59911e-07
2.63193e-08
-2.6601e-07
2.45595e-08
-2.71652e-07
2.27218e-08
-2.76819e-07
2.08128e-08
-2.81496e-07
1.88389e-08
-2.85667e-07
1.68063e-08
-2.89321e-07
1.47214e-08
-2.92445e-07
1.25904e-08
-2.95029e-07
1.04197e-08
-2.97066e-07
8.21536e-09
-2.98548e-07
5.98379e-09
-2.9947e-07
3.73124e-09
-2.99829e-07
1.46407e-09
-2.99623e-07
-8.11306e-10
-2.98852e-07
-3.08842e-09
-2.97516e-07
-5.36073e-09
-2.95619e-07
-7.62157e-09
-2.93166e-07
-9.86419e-09
-2.90162e-07
-1.20817e-08
-2.86616e-07
-1.42672e-08
-2.82538e-07
-1.64135e-08
-2.77939e-07
-1.85133e-08
-2.72833e-07
-2.05594e-08
-2.67235e-07
-2.25443e-08
-2.61162e-07
-2.44603e-08
-2.54633e-07
-2.62998e-08
-2.4767e-07
-2.8055e-08
-2.40295e-07
-2.97179e-08
-2.32532e-07
-3.12809e-08
-2.24409e-07
-3.27357e-08
-2.15954e-07
-3.40746e-08
-2.07198e-07
-3.52895e-08
-1.98173e-07
-3.63726e-08
-1.88913e-07
-3.73161e-08
-1.79454e-07
-3.81125e-08
-1.69834e-07
-3.87542e-08
-1.60093e-07
-3.92341e-08
-1.50271e-07
-3.95454e-08
-1.40412e-07
-3.96814e-08
-1.30557e-07
-3.96363e-08
-1.20754e-07
-3.94044e-08
-1.11047e-07
-3.8981e-08
-1.01483e-07
-3.83621e-08
-9.21093e-08
-3.75444e-08
-8.29735e-08
-3.65259e-08
-7.41226e-08
-3.53058e-08
-6.56036e-08
-3.38848e-08
-5.74622e-08
-3.22652e-08
-4.97429e-08
-3.04518e-08
-4.24878e-08
-2.84518e-08
-3.57365e-08
-2.62753e-08
-2.95248e-08
-2.39367e-08
-2.3884e-08
-2.14548e-08
-1.88398e-08
-1.88543e-08
-1.4411e-08
-1.61672e-08
-1.06081e-08
-1.34345e-08
-7.4321e-09
-1.07085e-08
-4.87277e-09
-8.05566e-09
-2.90712e-09
-5.55999e-09
-1.49798e-09
-3.32735e-09
-5.92762e-10
-1.48977e-09
-1.22377e-10
-2.11411e-10
2.8749e-10
-2.18226e-10
-8.51061e-11
-9.34716e-10
1.00323e-09
-2.20992e-09
2.9678e-09
-4.09496e-09
5.50734e-09
-6.62765e-09
8.44488e-09
-9.83256e-09
1.16427e-08
-1.3722e-08
1.49876e-08
-1.82971e-08
1.8388e-08
-2.35493e-08
2.17702e-08
-2.94611e-08
2.50757e-08
-3.60078e-08
2.82583e-08
-4.31586e-08
3.12819e-08
-5.08771e-08
3.41188e-08
-5.91232e-08
3.67481e-08
-6.78532e-08
3.91544e-08
-7.70211e-08
4.13271e-08
-8.65789e-08
4.3259e-08
-9.64776e-08
4.49462e-08
-1.06667e-07
4.63872e-08
-1.17098e-07
4.75826e-08
-1.27719e-07
4.85346e-08
-1.38482e-07
4.92469e-08
-1.49337e-07
4.97242e-08
-1.60237e-07
4.99723e-08
-1.71135e-07
4.99975e-08
-1.81985e-07
4.98069e-08
-1.92743e-07
4.94079e-08
-2.03367e-07
4.88084e-08
-2.13815e-07
4.80164e-08
-2.24049e-07
4.70404e-08
-2.3403e-07
4.58888e-08
-2.43722e-07
4.457e-08
-2.53092e-07
4.30927e-08
-2.62107e-07
4.14655e-08
-2.70737e-07
3.96969e-08
-2.78953e-07
3.77955e-08
-2.86728e-07
3.57697e-08
-2.94036e-07
3.36279e-08
-3.00856e-07
3.13786e-08
-3.07164e-07
2.90299e-08
-3.12941e-07
2.65901e-08
-3.1817e-07
2.40674e-08
-3.22833e-07
2.14698e-08
-3.26917e-07
1.88053e-08
-3.30408e-07
1.6082e-08
-3.33297e-07
1.3308e-08
-3.35572e-07
1.04911e-08
-3.37228e-07
7.63951e-09
-3.38258e-07
4.76124e-09
-3.38659e-07
1.86439e-09
-3.38427e-07
-1.04282e-09
-3.37563e-07
-3.95211e-09
-3.36069e-07
-6.8551e-09
-3.33947e-07
-9.74328e-09
-3.31203e-07
-1.2608e-08
-3.27844e-07
-1.54406e-08
-3.2388e-07
-1.8232e-08
-3.1932e-07
-2.09732e-08
-3.14178e-07
-2.36551e-08
-3.0847e-07
-2.62681e-08
-3.02211e-07
-2.88028e-08
-2.95422e-07
-3.12496e-08
-2.88123e-07
-3.35986e-08
-2.80338e-07
-3.584e-08
-2.72092e-07
-3.79638e-08
-2.63413e-07
-3.99599e-08
-2.5433e-07
-4.18183e-08
-2.44876e-07
-4.35289e-08
-2.35084e-07
-4.50817e-08
-2.2499e-07
-4.64667e-08
-2.14632e-07
-4.76743e-08
-2.04049e-07
-4.86947e-08
-1.93285e-07
-4.95187e-08
-1.82382e-07
-5.01373e-08
-1.71385e-07
-5.05419e-08
-1.60342e-07
-5.07245e-08
-1.49301e-07
-5.06777e-08
-1.3831e-07
-5.03948e-08
-1.27421e-07
-4.98699e-08
-1.16685e-07
-4.90982e-08
-1.06154e-07
-4.80762e-08
-9.58781e-08
-4.68014e-08
-8.59104e-08
-4.52735e-08
-7.63016e-08
-4.34936e-08
-6.71015e-08
-4.14653e-08
-5.83583e-08
-3.9195e-08
-5.01179e-08
-3.66922e-08
-4.24231e-08
-3.39702e-08
-3.53129e-08
-3.10469e-08
-2.88215e-08
-2.79461e-08
-2.29777e-08
-2.46982e-08
-1.7803e-08
-2.13419e-08
-1.33112e-08
-1.79262e-08
-9.50719e-09
-1.45125e-08
-6.38531e-09
-1.11775e-08
-3.92885e-09
-8.01644e-09
-2.10911e-09
-5.1471e-09
-8.85032e-10
-2.71386e-09
-2.03433e-10
-8.93004e-10
8.40533e-11
-3.01117e-10
2.16003e-10
-1.23638e-09
1.93848e-09
-2.84253e-09
4.57396e-09
-5.15328e-09
7.81809e-09
-8.19325e-09
1.14849e-08
-1.19771e-08
1.54266e-08
-1.65094e-08
1.952e-08
-2.17855e-08
2.3664e-08
-2.77917e-08
2.77764e-08
-3.45065e-08
3.17906e-08
-4.19017e-08
3.56534e-08
-4.99428e-08
3.9323e-08
-5.85905e-08
4.27664e-08
-6.78011e-08
4.59587e-08
-7.75278e-08
4.88811e-08
-8.77211e-08
5.15204e-08
-9.83295e-08
5.38675e-08
-1.093e-07
5.59171e-08
-1.2058e-07
5.76669e-08
-1.32115e-07
5.91173e-08
-1.4385e-07
6.02704e-08
-1.55734e-07
6.11303e-08
-1.67712e-07
6.17025e-08
-1.79733e-07
6.19935e-08
-1.91747e-07
6.2011e-08
-2.03703e-07
6.17633e-08
-2.15555e-07
6.12594e-08
-2.27255e-07
6.05085e-08
-2.38759e-07
5.95207e-08
-2.50025e-07
5.83059e-08
-2.6101e-07
5.68744e-08
-2.71677e-07
5.52366e-08
-2.81987e-07
5.34031e-08
-2.91906e-07
5.13843e-08
-3.014e-07
4.91908e-08
-3.10438e-07
4.6833e-08
-3.18989e-07
4.43214e-08
-3.27028e-07
4.16664e-08
-3.34527e-07
3.88782e-08
-3.41465e-07
3.59671e-08
-3.47818e-07
3.29433e-08
-3.53567e-07
2.98167e-08
-3.58695e-07
2.65975e-08
-3.63185e-07
2.32955e-08
-3.67024e-07
1.99208e-08
-3.70199e-07
1.64833e-08
-3.72701e-07
1.29929e-08
-3.74521e-07
9.45949e-09
-3.75653e-07
5.89317e-09
-3.76092e-07
2.304e-09
-3.75837e-07
-1.29786e-09
-3.74887e-07
-4.90216e-09
-3.73244e-07
-8.49852e-09
-3.70911e-07
-1.20764e-08
-3.67894e-07
-1.56251e-08
-3.64201e-07
-1.91338e-08
-3.59841e-07
-2.25914e-08
-3.54828e-07
-2.59867e-08
-3.49174e-07
-2.93084e-08
-3.42898e-07
-3.25448e-08
-3.36016e-07
-3.56843e-08
-3.28551e-07
-3.87148e-08
-3.20525e-07
-4.16244e-08
-3.11965e-07
-4.44008e-08
-3.02897e-07
-4.70318e-08
-2.93351e-07
-4.95051e-08
-2.83362e-07
-5.18081e-08
-2.72962e-07
-5.39287e-08
-2.62189e-07
-5.58546e-08
-2.51082e-07
-5.75735e-08
-2.39683e-07
-5.90735e-08
-2.28035e-07
-6.03429e-08
-2.16183e-07
-6.13705e-08
-2.04175e-07
-6.21452e-08
-1.9206e-07
-6.26569e-08
-1.79889e-07
-6.28957e-08
-1.67714e-07
-6.28528e-08
-1.55588e-07
-6.25202e-08
-1.43567e-07
-6.18912e-08
-1.31705e-07
-6.096e-08
-1.20059e-07
-5.97226e-08
-1.08684e-07
-5.81767e-08
-9.7635e-08
-5.6322e-08
-8.69681e-08
-5.41605e-08
-7.67364e-08
-5.1697e-08
-6.69916e-08
-4.89398e-08
-5.77831e-08
-4.59007e-08
-4.91571e-08
-4.25962e-08
-4.11557e-08
-3.90483e-08
-3.38166e-08
-3.52853e-08
-2.71716e-08
-3.13433e-08
-2.12459e-08
-2.72676e-08
-1.60574e-08
-2.31147e-08
-1.16155e-08
-1.89544e-08
-7.92075e-09
-1.48723e-08
-4.96377e-09
-1.09734e-08
-2.72559e-09
-7.38528e-09
-1.17777e-09
-4.26168e-09
-2.8352e-10
-1.78725e-09
-1.99472e-10
-3.81282e-10
5.97291e-10
-1.53207e-09
3.08927e-09
-3.4679e-09
6.50979e-09
-6.20531e-09
1.05555e-08
-9.75537e-09
1.50349e-08
-1.41219e-08
1.97931e-08
-1.9301e-08
2.46991e-08
-2.52809e-08
2.9644e-08
-3.20424e-08
3.45378e-08
-3.95591e-08
3.93073e-08
-4.77984e-08
4.38928e-08
-5.67223e-08
4.82468e-08
-6.62877e-08
5.23318e-08
-7.64476e-08
5.61186e-08
-8.71518e-08
5.95854e-08
-9.83476e-08
6.27161e-08
-1.0998e-07
6.54998e-08
-1.21993e-07
6.79299e-08
-1.34329e-07
7.00032e-08
-1.46931e-07
7.17195e-08
-1.59742e-07
7.30812e-08
-1.72705e-07
7.40927e-08
-1.85762e-07
7.476e-08
-1.98859e-07
7.50908e-08
-2.11942e-07
7.50938e-08
-2.24957e-07
7.47786e-08
-2.37854e-07
7.41558e-08
-2.50582e-07
7.32365e-08
-2.63093e-07
7.20322e-08
-2.75342e-07
7.05549e-08
-2.87285e-07
6.88167e-08
-2.98878e-07
6.68302e-08
-3.10083e-07
6.46077e-08
-3.2086e-07
6.2162e-08
-3.31175e-07
5.95055e-08
-3.40993e-07
5.66509e-08
-3.50283e-07
5.36108e-08
-3.59014e-07
5.03975e-08
-3.67159e-07
4.70235e-08
-3.74693e-07
4.35011e-08
-3.81592e-07
3.98425e-08
-3.87835e-07
3.606e-08
-3.93403e-07
3.21655e-08
-3.98279e-07
2.81712e-08
-4.02447e-07
2.40891e-08
-4.05895e-07
1.99311e-08
-4.08612e-07
1.57093e-08
-4.10588e-07
1.14357e-08
-4.11817e-07
7.12241e-09
-4.12295e-07
2.78165e-09
-4.12018e-07
-1.57432e-09
-4.10987e-07
-5.93311e-09
-4.09204e-07
-1.02821e-08
-4.06671e-07
-1.46087e-08
-4.03396e-07
-1.88999e-08
-3.99388e-07
-2.31426e-08
-3.94655e-07
-2.73235e-08
-3.89213e-07
-3.1429e-08
-3.83076e-07
-3.54455e-08
-3.76262e-07
-3.9359e-08
-3.68791e-07
-4.31554e-08
-3.60685e-07
-4.68202e-08
-3.51971e-07
-5.0339e-08
-3.42674e-07
-5.36971e-08
-3.32826e-07
-5.68799e-08
-3.22459e-07
-5.98724e-08
-3.11607e-07
-6.26598e-08
-3.00309e-07
-6.52274e-08
-2.88603e-07
-6.75604e-08
-2.76532e-07
-6.96443e-08
-2.64141e-07
-7.14649e-08
-2.51475e-07
-7.30082e-08
-2.38585e-07
-7.42608e-08
-2.2552e-07
-7.52097e-08
-2.12335e-07
-7.58427e-08
-1.99082e-07
-7.61485e-08
-1.85818e-07
-7.61165e-08
-1.72601e-07
-7.57376e-08
-1.59488e-07
-7.50038e-08
-1.46539e-07
-7.39088e-08
-1.33814e-07
-7.2448e-08
-1.21371e-07
-7.06191e-08
-1.09271e-07
-6.84221e-08
-9.75718e-08
-6.58599e-08
-8.63304e-08
-6.29385e-08
-7.56021e-08
-5.96681e-08
-6.54397e-08
-5.60631e-08
-5.58927e-08
-5.21431e-08
-4.7007e-08
-4.7934e-08
-3.88235e-08
-4.34688e-08
-3.13778e-08
-3.87889e-08
-2.46993e-08
-3.3946e-08
-1.88107e-08
-2.90033e-08
-1.3727e-08
-2.40381e-08
-9.45538e-09
-1.9144e-08
-5.9949e-09
-1.44339e-08
-3.33698e-09
-1.00432e-08
-1.46609e-09
-6.13256e-09
-3.61481e-10
-2.89186e-09
-5.60949e-10
-4.58377e-10
1.05568e-09
-1.8196e-09
4.45049e-09
-4.08025e-09
8.77044e-09
-7.24075e-09
1.3716e-08
-1.12987e-08
1.90929e-08
-1.62469e-08
2.47413e-08
-2.20722e-08
3.05244e-08
-2.87553e-08
3.6327e-08
-3.62705e-08
4.2053e-08
-4.45861e-08
4.76228e-08
-5.36647e-08
5.29714e-08
-6.34641e-08
5.80462e-08
-7.39373e-08
6.2805e-08
-8.50337e-08
6.72151e-08
-9.66997e-08
7.12514e-08
-1.08879e-07
7.48954e-08
-1.21513e-07
7.81343e-08
-1.34544e-07
8.096e-08
-1.47909e-07
8.33685e-08
-1.61549e-07
8.53593e-08
-1.75402e-07
8.69348e-08
-1.89409e-07
8.80995e-08
-2.0351e-07
8.88605e-08
-2.17645e-07
8.92262e-08
-2.31758e-07
8.92065e-08
-2.45792e-07
8.88125e-08
-2.59692e-07
8.80564e-08
-2.73407e-07
8.69509e-08
-2.86884e-07
8.55095e-08
-3.00075e-07
8.3746e-08
-3.12933e-07
8.16748e-08
-3.25413e-07
7.93103e-08
-3.37473e-07
7.66671e-08
-3.49071e-07
7.376e-08
-3.60169e-07
7.06039e-08
-3.70732e-07
6.72136e-08
-3.80725e-07
6.36037e-08
-3.90116e-07
5.97891e-08
-3.98877e-07
5.57843e-08
-4.0698e-07
5.16039e-08
-4.144e-07
4.72623e-08
-4.21114e-07
4.2774e-08
-4.27101e-07
3.81532e-08
-4.32344e-07
3.34143e-08
-4.36827e-07
2.85715e-08
-4.40535e-07
2.36389e-08
-4.43456e-07
1.86308e-08
-4.45582e-07
1.35615e-08
-4.46905e-07
8.44526e-09
-4.4742e-07
3.2966e-09
-4.47124e-07
-1.86996e-09
-4.46017e-07
-7.03973e-09
-4.44102e-07
-1.21978e-08
-4.41381e-07
-1.73292e-08
-4.37863e-07
-2.24185e-08
-4.33555e-07
-2.74504e-08
-4.28469e-07
-3.24089e-08
-4.2262e-07
-3.72782e-08
-4.16024e-07
-4.2042e-08
-4.08699e-07
-4.66838e-08
-4.00667e-07
-5.1187e-08
-3.91953e-07
-5.55345e-08
-3.82583e-07
-5.97092e-08
-3.72586e-07
-6.3694e-08
-3.61994e-07
-6.74714e-08
-3.50843e-07
-7.10239e-08
-3.39169e-07
-7.43342e-08
-3.27011e-07
-7.73847e-08
-3.14413e-07
-8.01584e-08
-3.01419e-07
-8.2638e-08
-2.88077e-07
-8.4807e-08
-2.74437e-07
-8.66491e-08
-2.60549e-07
-8.81484e-08
-2.46469e-07
-8.929e-08
-2.32252e-07
-9.00597e-08
-2.17956e-07
-9.04443e-08
-2.0364e-07
-9.04318e-08
-1.89367e-07
-9.00114e-08
-1.75196e-07
-8.91744e-08
-1.61191e-07
-8.79134e-08
-1.47416e-07
-8.62236e-08
-1.33933e-07
-8.41025e-08
-1.20804e-07
-8.15504e-08
-1.08093e-07
-7.85712e-08
-9.58592e-08
-7.51722e-08
-8.41618e-08
-7.13655e-08
-7.30571e-08
-6.71679e-08
-6.2598e-08
-6.26022e-08
-5.2834e-08
-5.7698e-08
-4.381e-08
-5.24928e-08
-3.55658e-08
-4.70332e-08
-2.81354e-08
-4.13763e-08
-2.15469e-08
-3.55918e-08
-1.58215e-08
-2.97635e-08
-1.09737e-08
-2.39918e-08
-7.01155e-09
-1.83961e-08
-3.93698e-09
-1.31178e-08
-1.74725e-09
-8.32228e-09
-4.36765e-10
-4.20235e-09
-9.97705e-10
-5.32365e-10
1.58804e-09
-2.09789e-09
6.01602e-09
-4.67651e-09
1.13491e-08
-8.25372e-09
1.72932e-08
-1.28142e-08
2.36534e-08
-1.83396e-08
3.02667e-08
-2.48075e-08
3.69922e-08
-3.21903e-08
4.37099e-08
-4.04556e-08
5.03184e-08
-4.95659e-08
5.67331e-08
-5.94785e-08
6.2884e-08
-7.01464e-08
6.87141e-08
-8.15187e-08
7.41773e-08
-9.3541e-08
7.92373e-08
-1.06156e-07
8.38661e-08
-1.19303e-07
8.80429e-08
-1.32922e-07
9.17531e-08
-1.46949e-07
9.49872e-08
-1.61321e-07
9.77406e-08
-1.75974e-07
1.00012e-07
-1.90844e-07
1.01805e-07
-2.05867e-07
1.03123e-07
-2.20981e-07
1.03974e-07
-2.36123e-07
1.04368e-07
-2.51233e-07
1.04317e-07
-2.66252e-07
1.03832e-07
-2.81123e-07
1.02927e-07
-2.95789e-07
1.01617e-07
-3.10197e-07
9.99177e-08
-3.24295e-07
9.78445e-08
-3.38035e-07
9.54139e-08
-3.51367e-07
9.26426e-08
-3.64247e-07
8.95475e-08
-3.76633e-07
8.61457e-08
-3.88483e-07
8.24543e-08
-3.9976e-07
7.84904e-08
-4.10428e-07
7.42712e-08
-4.20452e-07
6.98136e-08
-4.29803e-07
6.51348e-08
-4.3845e-07
6.02515e-08
-4.46369e-07
5.51807e-08
-4.53534e-07
4.9939e-08
-4.59924e-07
4.45431e-08
-4.65519e-07
3.90096e-08
-4.70303e-07
3.33552e-08
-4.7426e-07
2.75963e-08
-4.77379e-07
2.17495e-08
-4.79649e-07
1.58315e-08
-4.81062e-07
9.85891e-09
-4.81615e-07
3.84864e-09
-4.81302e-07
-2.18239e-09
-4.80125e-07
-8.21707e-09
-4.78085e-07
-1.42381e-08
-4.75186e-07
-2.02278e-08
-4.71436e-07
-2.61686e-08
-4.66844e-07
-3.20422e-08
-4.61422e-07
-3.78305e-08
-4.55186e-07
-4.35148e-08