/*--------------------------------*- C++ -*----------------------------------*\
| =========                 |                                                 |
| \\      /  F ield         | OpenFOAM: The Open Source CFD Toolbox           |
|  \\    /   O peration     | Version:  2212                                  |
|   \\  /    A nd           | Website:  www.openfoam.com                      |
|    \\/     M anipulation  |                                                 |
\*---------------------------------------------------------------------------*/
FoamFile
{
    version     2.0;
    format      ascii;
    arch        "LSB;label=32;scalar=64";
    class       volVectorField;
    location    "0.029";
    object      U_0;
}
// * * * * * * * * * * * * * * * * * * * * * * * * * * * * * * * * * * * * * //

dimensions      [0 1 -1 0 0 0 0];

internalField   nonuniform List<vector> 
10000
(
(2.85662e-06 -2.62385e-06 0)
(1.19802e-05 -5.19779e-06 0)
(2.41947e-05 -5.13614e-06 0)
(3.39243e-05 -3.98918e-06 0)
(3.81475e-05 -2.08664e-06 0)
(3.54225e-05 2.85574e-07 0)
(2.48411e-05 2.89258e-06 0)
(6.01326e-06 5.5384e-06 0)
(-2.10787e-05 8.14128e-06 0)
(-5.62164e-05 1.06274e-05 0)
(-9.90336e-05 1.29507e-05 0)
(-0.000149066 1.51111e-05 0)
(-0.000205808 1.70929e-05 0)
(-0.000268711 1.88864e-05 0)
(-0.000337198 2.05032e-05 0)
(-0.000410708 2.19374e-05 0)
(-0.000488671 2.31885e-05 0)
(-0.000570509 2.42682e-05 0)
(-0.000655676 2.51764e-05 0)
(-0.00074363 2.59128e-05 0)
(-0.000833832 2.64954e-05 0)
(-0.000925779 2.69326e-05 0)
(-0.00101898 2.72273e-05 0)
(-0.00111295 2.73857e-05 0)
(-0.00120724 2.7415e-05 0)
(-0.00130142 2.73185e-05 0)
(-0.00139506 2.71002e-05 0)
(-0.00148777 2.67693e-05 0)
(-0.00157916 2.6332e-05 0)
(-0.00166888 2.57901e-05 0)
(-0.00175659 2.51476e-05 0)
(-0.00184194 2.44137e-05 0)
(-0.00192465 2.35976e-05 0)
(-0.00200441 2.27025e-05 0)
(-0.00208096 2.17301e-05 0)
(-0.00215405 2.06844e-05 0)
(-0.00222342 1.95721e-05 0)
(-0.00228885 1.83981e-05 0)
(-0.00235015 1.71666e-05 0)
(-0.00240711 1.58832e-05 0)
(-0.00245956 1.45523e-05 0)
(-0.00250734 1.31773e-05 0)
(-0.00255031 1.17602e-05 0)
(-0.00258833 1.03052e-05 0)
(-0.00262128 8.82056e-06 0)
(-0.00264906 7.31054e-06 0)
(-0.00267158 5.77693e-06 0)
(-0.00268878 4.22379e-06 0)
(-0.00270059 2.65376e-06 0)
(-0.00270696 1.07072e-06 0)
(-0.00270787 -5.17884e-07 0)
(-0.0027033 -2.1081e-06 0)
(-0.00269325 -3.69754e-06 0)
(-0.00267773 -5.27978e-06 0)
(-0.00265679 -6.85026e-06 0)
(-0.00263046 -8.40735e-06 0)
(-0.00259881 -9.94562e-06 0)
(-0.00256192 -1.14581e-05 0)
(-0.00251989 -1.29401e-05 0)
(-0.00247282 -1.43861e-05 0)
(-0.00242087 -1.57896e-05 0)
(-0.00236418 -1.71473e-05 0)
(-0.00230292 -1.84554e-05 0)
(-0.00223728 -1.97061e-05 0)
(-0.00216748 -2.08921e-05 0)
(-0.00209373 -2.20091e-05 0)
(-0.00201629 -2.30512e-05 0)
(-0.00193543 -2.40115e-05 0)
(-0.00185144 -2.48848e-05 0)
(-0.00176463 -2.56668e-05 0)
(-0.00167533 -2.63505e-05 0)
(-0.00158389 -2.69279e-05 0)
(-0.00149068 -2.73935e-05 0)
(-0.0013961 -2.7742e-05 0)
(-0.00130055 -2.79657e-05 0)
(-0.00120447 -2.80575e-05 0)
(-0.00110832 -2.80129e-05 0)
(-0.00101256 -2.78284e-05 0)
(-0.000917672 -2.7498e-05 0)
(-0.000824168 -2.70145e-05 0)
(-0.000732565 -2.63718e-05 0)
(-0.000643398 -2.55649e-05 0)
(-0.000557216 -2.45887e-05 0)
(-0.000474578 -2.3439e-05 0)
(-0.00039605 -2.21124e-05 0)
(-0.000322205 -2.06069e-05 0)
(-0.000253613 -1.89201e-05 0)
(-0.000190842 -1.70502e-05 0)
(-0.000134448 -1.49982e-05 0)
(-8.49662e-05 -1.27682e-05 0)
(-4.28967e-05 -1.03676e-05 0)
(-8.68579e-06 -7.80911e-06 0)
(1.73035e-05 -5.11643e-06 0)
(3.48381e-05 -2.33502e-06 0)
(4.38939e-05 4.5125e-07 0)
(4.47759e-05 3.09456e-06 0)
(3.82968e-05 5.32557e-06 0)
(2.61644e-05 6.63732e-06 0)
(1.21353e-05 6.10954e-06 0)
(2.65552e-06 2.65393e-06 0)
(7.04572e-06 -1.2509e-05 0)
(2.4526e-05 -2.20176e-05 0)
(4.42118e-05 -1.96386e-05 0)
(5.52012e-05 -1.13776e-05 0)
(5.13198e-05 6.42847e-07 0)
(2.93028e-05 1.50606e-05 0)
(-1.30016e-05 3.06874e-05 0)
(-7.66461e-05 4.67285e-05 0)
(-0.00016184 6.26079e-05 0)
(-0.00026824 7.79553e-05 0)
(-0.000395045 9.25377e-05 0)
(-0.000541219 0.000106187 0)
(-0.00070552 0.000118816 0)
(-0.00088656 0.000130375 0)
(-0.00108291 0.000140822 0)
(-0.00129306 0.000150156 0)
(-0.00151549 0.000158377 0)
(-0.0017487 0.000165501 0)
(-0.00199118 0.00017154 0)
(-0.00224143 0.000176525 0)
(-0.00249802 0.000180482 0)
(-0.00275953 0.00018345 0)
(-0.00302458 0.000185461 0)
(-0.00329185 0.000186555 0)
(-0.00356005 0.000186768 0)
(-0.00382796 0.000186133 0)
(-0.00409438 0.000184686 0)
(-0.0043582 0.000182469 0)
(-0.00461831 0.000179518 0)
(-0.0048737 0.000175866 0)
(-0.00512339 0.000171548 0)
(-0.00536644 0.000166602 0)
(-0.00560197 0.000161064 0)
(-0.00582916 0.000154967 0)
(-0.00604723 0.000148344 0)
(-0.00625542 0.00014123 0)
(-0.00645306 0.000133655 0)
(-0.00663951 0.000125652 0)
(-0.00681417 0.000117249 0)
(-0.00697648 0.000108483 0)
(-0.00712595 9.93826e-05 0)
(-0.0072621 8.99757e-05 0)
(-0.00738452 8.02919e-05 0)
(-0.00749283 7.03611e-05 0)
(-0.00758669 6.0212e-05 0)
(-0.00766581 4.98751e-05 0)
(-0.00772994 3.93778e-05 0)
(-0.00777887 2.87472e-05 0)
(-0.00781242 1.80147e-05 0)
(-0.00783049 7.20909e-06 0)
(-0.00783297 -3.64241e-06 0)
(-0.00781984 -1.4509e-05 0)
(-0.00779109 -2.53586e-05 0)
(-0.00774678 -3.61603e-05 0)
(-0.007687 -4.68823e-05 0)
(-0.00761188 -5.74935e-05 0)
(-0.00752163 -6.79622e-05 0)
(-0.00741647 -7.8254e-05 0)
(-0.00729669 -8.83322e-05 0)
(-0.00716262 -9.816e-05 0)
(-0.00701466 -0.000107702 0)
(-0.00685323 -0.000116923 0)
(-0.00667885 -0.000125786 0)
(-0.00649205 -0.000134252 0)
(-0.00629343 -0.000142282 0)
(-0.00608364 -0.000149837 0)
(-0.00586343 -0.000156876 0)
(-0.00563354 -0.000163358 0)
(-0.0053948 -0.000169244 0)
(-0.0051481 -0.000174495 0)
(-0.00489439 -0.000179072 0)
(-0.00463467 -0.000182932 0)
(-0.00436998 -0.000186036 0)
(-0.00410144 -0.000188343 0)
(-0.00383023 -0.000189811 0)
(-0.00355755 -0.000190403 0)
(-0.00328466 -0.000190083 0)
(-0.0030129 -0.000188819 0)
(-0.00274364 -0.000186578 0)
(-0.00247828 -0.000183325 0)
(-0.00221825 -0.000179031 0)
(-0.00196504 -0.00017367 0)
(-0.00172016 -0.000167219 0)
(-0.00148514 -0.000159661 0)
(-0.0012615 -0.000150986 0)
(-0.00105078 -0.000141192 0)
(-0.000854498 -0.000130286 0)
(-0.00067414 -0.000118288 0)
(-0.000511128 -0.000105235 0)
(-0.000366793 -9.11894e-05 0)
(-0.000242332 -7.62461e-05 0)
(-0.000138746 -6.05513e-05 0)
(-5.67519e-05 -4.43278e-05 0)
(3.3427e-06 -2.7917e-05 0)
(4.18204e-05 -1.18494e-05 0)
(5.98096e-05 3.04738e-06 0)
(5.95971e-05 1.54723e-05 0)
(4.51428e-05 2.33722e-05 0)
(2.3596e-05 2.35806e-05 0)
(6.11109e-06 1.21285e-05 0)
(7.93566e-06 -2.78068e-05 0)
(2.54397e-05 -4.34e-05 0)
(4.0681e-05 -3.32777e-05 0)
(4.02194e-05 -9.36228e-06 0)
(1.63648e-05 2.36774e-05 0)
(-3.52711e-05 6.25214e-05 0)
(-0.000117538 0.000104537 0)
(-0.000231896 0.000147754 0)
(-0.000378773 0.000190764 0)
(-0.000557706 0.000232602 0)
(-0.00076769 0.00027256 0)
(-0.00100727 0.00031018 0)
(-0.00127464 0.000345164 0)
(-0.00156784 0.000377295 0)
(-0.00188472 0.000406461 0)
(-0.00222301 0.000432605 0)
(-0.00258045 0.0004557 0)
(-0.0029547 0.000475762 0)
(-0.00334346 0.000492833 0)
(-0.00374444 0.000506962 0)
(-0.00415537 0.000518215 0)
(-0.00457404 0.000526677 0)
(-0.00499831 0.000532433 0)
(-0.00542607 0.000535576 0)
(-0.00585531 0.000536207 0)
(-0.00628407 0.000534419 0)
(-0.00671046 0.000530314 0)
(-0.00713269 0.000523996 0)
(-0.00754903 0.000515568 0)
(-0.00795783 0.000505129 0)
(-0.00835753 0.000492782 0)
(-0.00874664 0.000478624 0)
(-0.00912373 0.000462756 0)
(-0.00948749 0.000445274 0)
(-0.00983666 0.000426274 0)
(-0.01017 0.000405852 0)
(-0.0104865 0.000384103 0)
(-0.0107851 0.000361116 0)
(-0.0110648 0.000336981 0)
(-0.0113247 0.000311787 0)
(-0.0115641 0.000285625 0)
(-0.0117821 0.000258579 0)
(-0.0119782 0.000230734 0)
(-0.0121516 0.000202176 0)
(-0.0123018 0.000172992 0)
(-0.0124285 0.00014326 0)
(-0.0125311 0.000113066 0)
(-0.0126093 8.24961e-05 0)
(-0.012663 5.16313e-05 0)
(-0.0126918 2.05596e-05 0)
(-0.0126956 -1.06334e-05 0)
(-0.0126744 -4.18657e-05 0)
(-0.0126282 -7.30466e-05 0)
(-0.0125571 -0.000104082 0)
(-0.0124613 -0.000134884 0)
(-0.0123408 -0.000165359 0)
(-0.0121962 -0.00019541 0)
(-0.0120277 -0.000224942 0)
(-0.0118359 -0.000253854 0)
(-0.0116212 -0.000282043 0)
(-0.0113843 -0.000309403 0)
(-0.0111258 -0.000335833 0)
(-0.0108467 -0.000361225 0)
(-0.0105478 -0.000385468 0)
(-0.01023 -0.000408451 0)
(-0.00989438 -0.000430063 0)
(-0.00954212 -0.000450191 0)
(-0.00917445 -0.000468719 0)
(-0.00879268 -0.000485532 0)
(-0.00839823 -0.000500518 0)
(-0.00799262 -0.000513564 0)
(-0.00757744 -0.000524555 0)
(-0.00715436 -0.00053338 0)
(-0.00672517 -0.000539927 0)
(-0.00629171 -0.000544085 0)
(-0.00585591 -0.00054575 0)
(-0.00541979 -0.000544823 0)
(-0.00498542 -0.000541213 0)
(-0.00455498 -0.000534829 0)
(-0.00413066 -0.000525591 0)
(-0.00371472 -0.000513423 0)
(-0.00330948 -0.000498263 0)
(-0.00291728 -0.000480064 0)
(-0.00254047 -0.000458794 0)
(-0.00218142 -0.000434445 0)
(-0.00184247 -0.000407031 0)
(-0.00152591 -0.000376602 0)
(-0.00123396 -0.000343247 0)
(-0.000968728 -0.000307112 0)
(-0.00073214 -0.000268418 0)
(-0.000525883 -0.000227492 0)
(-0.000351305 -0.000184804 0)
(-0.000209295 -0.000141031 0)
(-0.00010011 -9.7155e-05 0)
(-2.31464e-05 -5.45948e-05 0)
(2.33532e-05 -1.54128e-05 0)
(4.26213e-05 1.74003e-05 0)
(3.98206e-05 3.95731e-05 0)
(2.3496e-05 4.51589e-05 0)
(6.65598e-06 2.61696e-05 0)
(6.29443e-06 -4.12698e-05 0)
(1.71023e-05 -5.81774e-05 0)
(1.83385e-05 -3.40246e-05 0)
(-3.39e-06 1.33861e-05 0)
(-5.64001e-05 7.62492e-05 0)
(-0.000145649 0.000149048 0)
(-0.000274365 0.000227412 0)
(-0.000444269 0.000308006 0)
(-0.000655805 0.000388415 0)
(-0.000908539 0.000466849 0)
(-0.00120126 0.000542023 0)
(-0.00153218 0.000613046 0)
(-0.00189915 0.000679275 0)
(-0.00229969 0.000740284 0)
(-0.00273108 0.000795812 0)
(-0.00319049 0.000845687 0)
(-0.00367497 0.000889842 0)
(-0.00418153 0.000928269 0)
(-0.00470717 0.000961016 0)
(-0.00524891 0.000988158 0)
(-0.00580377 0.00100982 0)
(-0.00636884 0.00102611 0)
(-0.00694128 0.00103721 0)
(-0.00751831 0.00104327 0)
(-0.00809723 0.00104447 0)
(-0.00867545 0.00104099 0)
(-0.00925046 0.00103302 0)
(-0.00981982 0.00102075 0)
(-0.0103812 0.00100437 0)
(-0.0109325 0.000984081 0)
(-0.0114715 0.000960072 0)
(-0.0119962 0.000932537 0)
(-0.0125048 0.000901662 0)
(-0.0129953 0.000867635 0)
(-0.0134662 0.000830646 0)
(-0.0139158 0.000790878 0)
(-0.0143427 0.000748514 0)
(-0.0147454 0.000703728 0)
(-0.0151226 0.0006567 0)
(-0.0154732 0.000607603 0)
(-0.015796 0.000556607 0)
(-0.01609 0.000503883 0)
(-0.0163544 0.0004496 0)
(-0.0165882 0.000393922 0)
(-0.0167908 0.000337017 0)
(-0.0169615 0.000279049 0)
(-0.0170998 0.000220178 0)
(-0.0172052 0.000160572 0)
(-0.0172773 0.000100401 0)
(-0.017316 3.98269e-05 0)
(-0.017321 -2.09803e-05 0)
(-0.0172922 -8.18503e-05 0)
(-0.0172298 -0.000142612 0)
(-0.0171337 -0.000203086 0)
(-0.0170042 -0.000263092 0)
(-0.0168416 -0.00032245 0)
(-0.0166463 -0.000380975 0)
(-0.016419 -0.000438474 0)
(-0.0161601 -0.000494751 0)
(-0.0158705 -0.000549611 0)
(-0.0155509 -0.000602852 0)
(-0.0152024 -0.000654268 0)
(-0.0148261 -0.000703649 0)
(-0.014423 -0.000750784 0)
(-0.0139946 -0.00079546 0)
(-0.0135422 -0.000837457 0)
(-0.0130675 -0.000876557 0)
(-0.012572 -0.000912541 0)
(-0.0120575 -0.000945186 0)
(-0.0115261 -0.000974273 0)
(-0.0109796 -0.000999583 0)
(-0.0104202 -0.0010209 0)
(-0.00985025 -0.00103801 0)
(-0.00927203 -0.0010507 0)
(-0.00868804 -0.00105877 0)
(-0.00810087 -0.00106202 0)
(-0.00751318 -0.00106027 0)
(-0.00692776 -0.00105334 0)
(-0.00634746 -0.00104106 0)
(-0.00577521 -0.00102331 0)
(-0.00521399 -0.000999938 0)
(-0.00466683 -0.000970855 0)
(-0.00413682 -0.000935985 0)
(-0.00362701 -0.000895294 0)
(-0.00314049 -0.000848788 0)
(-0.00268026 -0.000796527 0)
(-0.00224926 -0.00073864 0)
(-0.00185032 -0.000675343 0)
(-0.00148608 -0.000606963 0)
(-0.00115891 -0.000533976 0)
(-0.000870874 -0.000457055 0)
(-0.000623558 -0.000377145 0)
(-0.000417965 -0.000295561 0)
(-0.000254307 -0.000214127 0)
(-0.000131785 -0.000135375 0)
(-4.83024e-05 -6.28216e-05 0)
(-1.71426e-07 -1.32725e-06 0)
(1.8283e-05 4.25087e-05 0)
(1.58619e-05 5.98605e-05 0)
(5.39767e-06 3.84104e-05 0)
(3.64929e-06 -4.85873e-05 0)
(3.83155e-06 -5.86023e-05 0)
(-1.5373e-05 -1.30153e-05 0)
(-6.55406e-05 6.54245e-05 0)
(-0.000154598 0.000165906 0)
(-0.000287651 0.000280653 0)
(-0.000468024 0.000403493 0)
(-0.0006974 0.000529724 0)
(-0.000976269 0.000655749 0)
(-0.00130406 0.0007789 0)
(-0.0016794 0.000897217 0)
(-0.00210029 0.00100925 0)
(-0.00256422 0.00111395 0)
(-0.00306831 0.00121063 0)
(-0.00360941 0.00129878 0)
(-0.00418417 0.00137811 0)
(-0.00478912 0.00144845 0)
(-0.00542069 0.00150975 0)
(-0.00607528 0.00156204 0)
(-0.0067493 0.00160543 0)
(-0.00743916 0.00164006 0)
(-0.00814135 0.00166613 0)
(-0.0088524 0.00168387 0)
(-0.00956892 0.00169351 0)
(-0.0102876 0.00169533 0)
(-0.0110053 0.00168961 0)
(-0.0117189 0.00167664 0)
(-0.0124255 0.00165672 0)
(-0.0131221 0.00163015 0)
(-0.0138061 0.00159724 0)
(-0.0144749 0.00155831 0)
(-0.015126 0.00151365 0)
(-0.0157569 0.00146357 0)
(-0.0163656 0.00140837 0)
(-0.0169498 0.00134836 0)
(-0.0175077 0.00128382 0)
(-0.0180373 0.00121506 0)
(-0.0185369 0.00114237 0)
(-0.019005 0.00106603 0)
(-0.0194399 0.000986315 0)
(-0.0198404 0.000903516 0)
(-0.0202051 0.000817901 0)
(-0.020533 0.000729748 0)
(-0.0208231 0.000639329 0)
(-0.0210743 0.000546912 0)
(-0.021286 0.000452766 0)
(-0.0214574 0.000357161 0)
(-0.021588 0.000260366 0)
(-0.0216773 0.000162652 0)
(-0.0217251 6.42914e-05 0)
(-0.0217311 -3.44425e-05 0)
(-0.0216952 -0.000133268 0)
(-0.0216175 -0.000231902 0)
(-0.021498 -0.000330059 0)
(-0.0213371 -0.000427449 0)
(-0.0211352 -0.000523772 0)
(-0.0208929 -0.000618725 0)
(-0.0206106 -0.000712 0)
(-0.0202893 -0.000803281 0)
(-0.0199299 -0.000892247 0)
(-0.0195334 -0.000978571 0)
(-0.019101 -0.00106192 0)
(-0.0186341 -0.00114196 0)
(-0.0181342 -0.00121835 0)
(-0.0176028 -0.00129073 0)
(-0.0170418 -0.00135876 0)
(-0.016453 -0.00142209 0)
(-0.0158386 -0.00148037 0)
(-0.0152007 -0.00153323 0)
(-0.0145417 -0.00158032 0)
(-0.0138641 -0.0016213 0)
(-0.0131705 -0.00165582 0)
(-0.0124638 -0.00168354 0)
(-0.0117467 -0.00170412 0)
(-0.0110225 -0.00171725 0)
(-0.0102942 -0.00172262 0)
(-0.00956507 -0.00171993 0)
(-0.00883859 -0.00170893 0)
(-0.00811821 -0.00168936 0)
(-0.00740747 -0.00166101 0)
(-0.00671002 -0.0016237 0)
(-0.00602953 -0.00157727 0)
(-0.00536969 -0.00152166 0)
(-0.00473421 -0.00145682 0)
(-0.00412676 -0.00138281 0)
(-0.00355091 -0.00129977 0)
(-0.00301016 -0.00120793 0)
(-0.00250782 -0.0011077 0)
(-0.00204696 -0.000999659 0)
(-0.00163034 -0.000884608 0)
(-0.0012603 -0.000763669 0)
(-0.000938642 -0.000638365 0)
(-0.000666481 -0.000510757 0)
(-0.000444061 -0.000383622 0)
(-0.000270546 -0.000260693 0)
(-0.000143776 -0.000146981 0)
(-5.99961e-05 -4.91815e-05 0)
(-1.35168e-05 2.38967e-05 0)
(3.87042e-06 6.0733e-05 0)
(3.25598e-06 4.51824e-05 0)
(7.27606e-07 -4.79942e-05 0)
(-1.16455e-05 -4.03959e-05 0)
(-5.52681e-05 3.52215e-05 0)
(-0.00013866 0.000152615 0)
(-0.000268647 0.000298324 0)
(-0.000450083 0.000462448 0)
(-0.000686015 0.000637151 0)
(-0.000978013 0.000816277 0)
(-0.00132636 0.000995099 0)
(-0.00173035 0.00117002 0)
(-0.0021884 0.0013383 0)
(-0.00269826 0.0014979 0)
(-0.00325715 0.00164733 0)
(-0.00386184 0.00178552 0)
(-0.00450879 0.00191172 0)
(-0.00519424 0.00202544 0)
(-0.00591423 0.0021264 0)
(-0.00666472 0.00221448 0)
(-0.0074416 0.00228967 0)
(-0.00824074 0.00235209 0)
(-0.00905803 0.00240191 0)
(-0.00988939 0.00243939 0)
(-0.0107308 0.00246482 0)
(-0.0115784 0.00247854 0)
(-0.0124283 0.00248091 0)
(-0.0132768 0.00247233 0)
(-0.0141203 0.00245322 0)
(-0.0149553 0.00242398 0)
(-0.0157785 0.00238506 0)
(-0.0165867 0.00233689 0)
(-0.0173768 0.00227992 0)
(-0.018146 0.00221458 0)
(-0.0188914 0.00214131 0)
(-0.0196104 0.00206057 0)
(-0.0203005 0.00197278 0)
(-0.0209595 0.00187837 0)
(-0.0215851 0.00177777 0)
(-0.0221752 0.0016714 0)
(-0.022728 0.00155969 0)
(-0.0232417 0.00144304 0)
(-0.0237147 0.00132186 0)
(-0.0241455 0.00119656 0)
(-0.0245327 0.00106754 0)
(-0.0248751 0.000935202 0)
(-0.0251718 0.000799935 0)
(-0.0254216 0.000662138 0)
(-0.025624 0.000522209 0)
(-0.0257781 0.000380543 0)
(-0.0258834 0.000237536 0)
(-0.0259397 9.35904e-05 0)
(-0.0259465 -5.08894e-05 0)
(-0.0259039 -0.000195494 0)
(-0.0258119 -0.000339807 0)
(-0.0256706 -0.000483408 0)
(-0.0254804 -0.000625869 0)
(-0.0252418 -0.000766755 0)
(-0.0249553 -0.000905622 0)
(-0.0246218 -0.00104202 0)
(-0.0242423 -0.00117548 0)
(-0.0238177 -0.00130554 0)
(-0.0233493 -0.00143172 0)
(-0.0228387 -0.00155355 0)
(-0.0222873 -0.00167051 0)
(-0.0216969 -0.00178212 0)
(-0.0210694 -0.00188788 0)
(-0.0204069 -0.00198727 0)
(-0.0197117 -0.00207978 0)
(-0.0189862 -0.0021649 0)
(-0.018233 -0.00224212 0)
(-0.0174548 -0.00231092 0)
(-0.0166547 -0.0023708 0)
(-0.0158357 -0.00242127 0)
(-0.015001 -0.00246184 0)
(-0.0141541 -0.00249202 0)
(-0.0132985 -0.00251138 0)
(-0.0124379 -0.00251947 0)
(-0.0115762 -0.00251588 0)
(-0.0107173 -0.00250025 0)
(-0.00986516 -0.00247223 0)
(-0.00902402 -0.00243154 0)
(-0.00819802 -0.00237792 0)
(-0.00739141 -0.00231123 0)
(-0.00660845 -0.00223135 0)
(-0.00585338 -0.00213828 0)
(-0.00513037 -0.00203214 0)
(-0.00444352 -0.00191317 0)
(-0.00379677 -0.00178178 0)
(-0.00319384 -0.00163859 0)
(-0.0026382 -0.00148449 0)
(-0.00213292 -0.00132068 0)
(-0.0016806 -0.00114879 0)
(-0.00128326 -0.000970998 0)
(-0.000942179 -0.000790167 0)
(-0.000657728 -0.000610071 0)
(-0.000429199 -0.000435652 0)
(-0.00025461 -0.000273369 0)
(-0.000130448 -0.000131628 0)
(-5.14002e-05 -2.12294e-05 0)
(-1.04571e-05 4.39791e-05 0)
(7.31977e-07 4.48643e-05 0)
(-2.17752e-06 -3.89548e-05 0)
(-2.79825e-05 -1.46553e-06 0)
(-9.81727e-05 0.00011392 0)
(-0.000217726 0.000278716 0)
(-0.000391867 0.000477305 0)
(-0.000624792 0.000698025 0)
(-0.000919123 0.000931421 0)
(-0.00127602 0.00117005 0)
(-0.00169549 0.00140806 0)
(-0.00217655 0.00164091 0)
(-0.00271739 0.00186509 0)
(-0.00331549 0.00207795 0)
(-0.00396778 0.00227748 0)
(-0.00467072 0.00246221 0)
(-0.00542042 0.00263111 0)
(-0.00621274 0.00278346 0)
(-0.00704332 0.00291884 0)
(-0.00790768 0.00303702 0)
(-0.00880128 0.00313796 0)
(-0.00971951 0.00322175 0)
(-0.0106578 0.0032886 0)
(-0.0116116 0.00333881 0)
(-0.0125763 0.00337275 0)
(-0.0135477 0.00339085 0)
(-0.0145213 0.00339358 0)
(-0.0154931 0.00338146 0)
(-0.0164589 0.00335502 0)
(-0.0174147 0.00331482 0)
(-0.0183569 0.00326144 0)
(-0.0192818 0.00319546 0)
(-0.0201859 0.00311747 0)
(-0.0210659 0.00302808 0)
(-0.0219187 0.00292786 0)
(-0.0227412 0.00281743 0)
(-0.0235307 0.00269737 0)
(-0.0242845 0.00256826 0)
(-0.025 0.00243069 0)
(-0.025675 0.00228523 0)
(-0.0263072 0.00213245 0)
(-0.0268947 0.00197292 0)
(-0.0274356 0.0018072 0)
(-0.0279282 0.00163583 0)
(-0.0283709 0.00145938 0)
(-0.0287625 0.00127838 0)
(-0.0291016 0.00109338 0)
(-0.0293872 0.000904919 0)
(-0.0296185 0.000713545 0)
(-0.0297946 0.000519803 0)
(-0.0299149 0.000324238 0)
(-0.029979 0.000127396 0)
(-0.0299867 -7.01659e-05 0)
(-0.0299378 -0.000267884 0)
(-0.0298324 -0.000465189 0)
(-0.0296707 -0.000661507 0)
(-0.029453 -0.00085625 0)
(-0.02918 -0.00104882 0)
(-0.0288523 -0.00123862 0)
(-0.0284708 -0.00142501 0)
(-0.0280366 -0.00160739 0)
(-0.027551 -0.0017851 0)
(-0.0270154 -0.0019575 0)
(-0.0264314 -0.00212392 0)
(-0.0258009 -0.00228369 0)
(-0.0251257 -0.00243615 0)
(-0.0244082 -0.00258059 0)
(-0.0236507 -0.00271634 0)
(-0.0228557 -0.0028427 0)
(-0.0220261 -0.00295897 0)
(-0.0211647 -0.00306446 0)
(-0.0202748 -0.00315848 0)
(-0.0193597 -0.00324036 0)
(-0.0184228 -0.00330942 0)
(-0.017468 -0.00336501 0)
(-0.0164989 -0.0034065 0)
(-0.0155197 -0.00343328 0)
(-0.0145346 -0.00344478 0)
(-0.0135478 -0.00344047 0)
(-0.0125637 -0.00341985 0)
(-0.0115871 -0.0033825 0)
(-0.0106223 -0.00332804 0)
(-0.00967429 -0.00325618 0)
(-0.00874763 -0.00316673 0)
(-0.00784713 -0.0030596 0)
(-0.00697748 -0.00293483 0)
(-0.00614334 -0.0027926 0)
(-0.00534922 -0.0026333 0)
(-0.00459948 -0.00245755 0)
(-0.00389822 -0.00226622 0)
(-0.00324923 -0.00206054 0)
(-0.00265589 -0.00184217 0)
(-0.00212108 -0.0016133 0)
(-0.00164706 -0.00137677 0)
(-0.00123532 -0.00113628 0)
(-0.000886484 -0.000896593 0)
(-0.000600123 -0.000663811 0)
(-0.000374628 -0.000445736 0)
(-0.000206984 -0.000252299 0)
(-9.25369e-05 -9.601e-05 0)
(-2.58746e-05 7.41864e-06 0)
(-1.91031e-06 3.67092e-05 0)
(-4.99003e-06 -2.13693e-05 0)
(-4.44243e-05 5.91759e-05 0)
(-0.000142185 0.00022491 0)
(-0.000299492 0.000446007 0)
(-0.000519653 0.000705357 0)
(-0.000806053 0.000989732 0)
(-0.00116061 0.00128838 0)
(-0.00158394 0.00159265 0)
(-0.00207564 0.00189565 0)
(-0.00263437 0.00219194 0)
(-0.00325799 0.00247726 0)
(-0.00394371 0.00274832 0)
(-0.00468813 0.00300258 0)
(-0.00548741 0.00323819 0)
(-0.00633734 0.00345377 0)
(-0.0072334 0.00364836 0)
(-0.0081709 0.00382138 0)
(-0.00914496 0.00397246 0)
(-0.0101506 0.00410152 0)
(-0.0111829 0.00420862 0)
(-0.0122367 0.00429398 0)
(-0.0133072 0.00435795 0)
(-0.0143893 0.00440097 0)
(-0.0154782 0.00442357 0)
(-0.0165693 0.00442632 0)
(-0.0176578 0.00440986 0)
(-0.0187393 0.00437487 0)
(-0.0198094 0.00432206 0)
(-0.020864 0.00425216 0)
(-0.021899 0.0041659 0)
(-0.0229107 0.00406405 0)
(-0.0238952 0.00394737 0)
(-0.0248492 0.00381663 0)
(-0.0257692 0.00367258 0)
(-0.0266522 0.003516 0)
(-0.0274952 0.00334765 0)
(-0.0282954 0.00316826 0)
(-0.0290501 0.00297861 0)
(-0.0297571 0.00277942 0)
(-0.030414 0.00257142 0)
(-0.0310187 0.00235535 0)
(-0.0315694 0.00213193 0)
(-0.0320644 0.00190187 0)
(-0.0325021 0.00166589 0)
(-0.0328812 0.0014247 0)
(-0.0332004 0.00117901 0)
(-0.0334588 0.00092952 0)
(-0.0336556 0.000676951 0)
(-0.03379 0.000422012 0)
(-0.0338616 0.000165423 0)
(-0.03387 -9.20895e-05 0)
(-0.0338153 -0.000349792 0)
(-0.0336973 -0.000606943 0)
(-0.0335164 -0.000862792 0)
(-0.033273 -0.00111657 0)
(-0.0329676 -0.0013675 0)
(-0.0326012 -0.0016148 0)
(-0.0321747 -0.00185765 0)
(-0.0316892 -0.00209525 0)
(-0.0311463 -0.00232676 0)
(-0.0305475 -0.00255133 0)
(-0.0298946 -0.00276811 0)
(-0.0291897 -0.00297622 0)
(-0.0284349 -0.0031748 0)
(-0.0276326 -0.00336295 0)
(-0.0267857 -0.00353978 0)
(-0.0258968 -0.00370439 0)
(-0.0249692 -0.00385589 0)
(-0.024006 -0.00399338 0)
(-0.0230107 -0.00411598 0)
(-0.0219872 -0.00422281 0)
(-0.0209391 -0.00431302 0)
(-0.0198707 -0.00438578 0)
(-0.0187862 -0.00444027 0)
(-0.0176901 -0.00447573 0)
(-0.0165869 -0.00449144 0)
(-0.0154815 -0.00448672 0)
(-0.0143787 -0.00446097 0)
(-0.0132834 -0.00441366 0)
(-0.0122009 -0.00434433 0)
(-0.0111362 -0.00425265 0)
(-0.0100946 -0.00413841 0)
(-0.00908112 -0.00400153 0)
(-0.00810104 -0.0038421 0)
(-0.00715937 -0.00366043 0)
(-0.00626103 -0.00345706 0)
(-0.00541074 -0.00323281 0)
(-0.00461296 -0.00298887 0)
(-0.00387179 -0.00272684 0)
(-0.00319093 -0.00244885 0)
(-0.00257353 -0.00215764 0)
(-0.00202215 -0.00185677 0)
(-0.0015386 -0.00155075 0)
(-0.00112381 -0.00124527 0)
(-0.000777782 -0.000947515 0)
(-0.000499451 -0.00066649 0)
(-0.000286479 -0.000413438 0)
(-0.000135069 -0.000202254 0)
(-4.16283e-05 -5.00633e-05 0)
(-4.53214e-06 2.04436e-05 0)
(-7.64821e-06 4.63501e-06 0)
(-6.06062e-05 0.000141797 0)
(-0.00018617 0.000368934 0)
(-0.000381835 0.000655707 0)
(-0.000648942 0.000983839 0)
(-0.000989864 0.001339 0)
(-0.00140568 0.00170931 0)
(-0.00189633 0.00208508 0)
(-0.00246089 0.0024585 0)
(-0.00309757 0.00282328 0)
(-0.00380386 0.00317446 0)
(-0.0045766 0.00350811 0)
(-0.00541208 0.0038212 0)
(-0.00630612 0.00411144 0)
(-0.00725419 0.00437713 0)
(-0.00825145 0.00461706 0)
(-0.00929284 0.00483043 0)
(-0.0103731 0.00501677 0)
(-0.011487 0.00517591 0)
(-0.0126291 0.00530788 0)
(-0.0137939 0.00541292 0)
(-0.0149762 0.0054914 0)
(-0.0161706 0.00554384 0)
(-0.0173718 0.00557086 0)
(-0.0185748 0.00557315 0)
(-0.0197745 0.00555148 0)
(-0.0209661 0.00550667 0)
(-0.0221448 0.00543958 0)
(-0.0233061 0.0053511 0)
(-0.0244457 0.00524215 0)
(-0.0255592 0.00511367 0)
(-0.0266428 0.0049666 0)
(-0.0276926 0.00480189 0)
(-0.0287049 0.00462049 0)
(-0.0296763 0.00442335 0)
(-0.0306036 0.00421142 0)
(-0.0314838 0.00398565 0)
(-0.032314 0.00374696 0)
(-0.0330915 0.00349629 0)
(-0.0338139 0.00323455 0)
(-0.0344789 0.00296267 0)
(-0.0350845 0.00268154 0)
(-0.0356288 0.00239207 0)
(-0.0361101 0.00209516 0)
(-0.0365269 0.0017917 0)
(-0.0368778 0.00148258 0)
(-0.0371619 0.0011687 0)
(-0.0373782 0.000850955 0)
(-0.0375259 0.000530238 0)
(-0.0376046 0.000207459 0)
(-0.0376138 -0.000116467 0)
(-0.0375536 -0.00044062 0)
(-0.0374238 -0.000764064 0)
(-0.0372249 -0.00108585 0)
(-0.0369572 -0.00140502 0)
(-0.0366215 -0.0017206 0)
(-0.0362186 -0.00203158 0)
(-0.0357496 -0.00233697 0)
(-0.0352159 -0.00263574 0)
(-0.0346189 -0.00292684 0)
(-0.0339605 -0.00320921 0)
(-0.0332427 -0.00348178 0)
(-0.0324675 -0.00374347 0)
(-0.0316375 -0.00399317 0)
(-0.0307553 -0.00422977 0)
(-0.0298239 -0.00445217 0)
(-0.0288463 -0.00465923 0)
(-0.0278259 -0.00484985 0)
(-0.0267664 -0.00502292 0)
(-0.0256714 -0.00517733 0)
(-0.024545 -0.005312 0)
(-0.0233915 -0.00542587 0)
(-0.0222154 -0.00551792 0)
(-0.0210212 -0.00558714 0)
(-0.0198138 -0.0056326 0)
(-0.0185982 -0.00565342 0)
(-0.0173796 -0.00564878 0)
(-0.0161632 -0.00561795 0)
(-0.0149545 -0.00556029 0)
(-0.0137589 -0.00547528 0)
(-0.0125821 -0.00536255 0)
(-0.0114297 -0.00522185 0)
(-0.0103071 -0.00505315 0)
(-0.00921998 -0.0048566 0)
(-0.00817373 -0.00463263 0)
(-0.00717364 -0.00438195 0)
(-0.00622478 -0.00410564 0)
(-0.00533195 -0.00380519 0)
(-0.00449958 -0.00348259 0)
(-0.00373169 -0.00314044 0)
(-0.00303177 -0.00278208 0)
(-0.00240268 -0.00241171 0)
(-0.00184663 -0.00203462 0)
(-0.00136498 -0.00165739 0)
(-0.000958253 -0.00128817 0)
(-0.000626049 -0.000937006 0)
(-0.000366841 -0.000616222 0)
(-0.000177812 -0.000340794 0)
(-5.72749e-05 -0.000128853 0)
(-7.06619e-06 -3.92039e-06 0)
(-1.01571e-05 3.88088e-05 0)
(-7.63303e-05 0.000246182 0)
(-0.000229434 0.000546114 0)
(-0.000463457 0.000908148 0)
(-0.000777716 0.00131333 0)
(-0.0011735 0.00174649 0)
(-0.00165098 0.00219485 0)
(-0.00220933 0.00264786 0)
(-0.00284697 0.00309689 0)
(-0.00356161 0.00353492 0)
(-0.00435031 0.0039563 0)
(-0.00520948 0.00435654 0)
(-0.00613507 0.00473212 0)
(-0.00712255 0.00508032 0)
(-0.00816705 0.00539912 0)
(-0.00926339 0.00568703 0)
(-0.0104062 0.00594307 0)
(-0.0115899 0.00616664 0)
(-0.0128087 0.00635747 0)
(-0.0140571 0.00651556 0)
(-0.0153292 0.00664114 0)
(-0.0166193 0.00673464 0)
(-0.0179217 0.00679663 0)
(-0.0192308 0.00682782 0)
(-0.0205411 0.00682903 0)
(-0.0218473 0.00680116 0)
(-0.0231442 0.00674518 0)
(-0.0244266 0.00666211 0)
(-0.0256897 0.00655301 0)
(-0.0269289 0.006419 0)
(-0.0281395 0.00626118 0)
(-0.0293174 0.0060807 0)
(-0.0304582 0.00587871 0)
(-0.0315583 0.00565635 0)
(-0.0326138 0.00541479 0)
(-0.0336212 0.00515516 0)
(-0.0345774 0.00487862 0)
(-0.0354791 0.0045863 0)
(-0.0363236 0.00427934 0)
(-0.0371081 0.00395886 0)
(-0.0378304 0.00362598 0)
(-0.038488 0.0032818 0)
(-0.039079 0.00292742 0)
(-0.0396016 0.00256394 0)
(-0.0400541 0.00219246 0)
(-0.0404352 0.00181408 0)
(-0.0407437 0.00142987 0)
(-0.0409785 0.00104095 0)
(-0.0411389 0.000648402 0)
(-0.0412244 0.000253348 0)
(-0.0412345 -0.000143097 0)
(-0.0411691 -0.000539803 0)
(-0.0410283 -0.000935628 0)
(-0.0408124 -0.00132941 0)
(-0.0405218 -0.00171998 0)
(-0.0401574 -0.00210614 0)
(-0.03972 -0.00248667 0)
(-0.039211 -0.00286035 0)
(-0.0386316 -0.00322592 0)
(-0.0379835 -0.0035821 0)
(-0.0372687 -0.00392762 0)
(-0.0364893 -0.00426115 0)
(-0.0356477 -0.00458138 0)
(-0.0347464 -0.00488696 0)
(-0.0337884 -0.00517656 0)
(-0.0327768 -0.00544881 0)
(-0.0317149 -0.00570236 0)
(-0.0306065 -0.00593586 0)
(-0.0294552 -0.00614796 0)
(-0.0282653 -0.00633732 0)
(-0.0270411 -0.00650266 0)
(-0.025787 -0.00664268 0)
(-0.024508 -0.00675614 0)
(-0.023209 -0.00684187 0)
(-0.0218951 -0.00689873 0)
(-0.0205718 -0.00692568 0)
(-0.0192446 -0.00692174 0)
(-0.0179191 -0.00688607 0)
(-0.0166011 -0.00681791 0)
(-0.0152965 -0.00671668 0)
(-0.0140113 -0.00658195 0)
(-0.0127515 -0.00641347 0)
(-0.0115229 -0.00621123 0)
(-0.0103314 -0.00597549 0)
(-0.009183 -0.00570678 0)
(-0.00808316 -0.00540601 0)
(-0.00703734 -0.00507451 0)
(-0.00605068 -0.00471408 0)
(-0.00512797 -0.00432711 0)
(-0.00427355 -0.00391667 0)
(-0.00349127 -0.00348665 0)
(-0.0027844 -0.00304191 0)
(-0.00215558 -0.00258844 0)
(-0.00160668 -0.00213362 0)
(-0.00113883 -0.00168646 0)
(-0.000752386 -0.00125787 0)
(-0.000446715 -0.000861052 0)
(-0.000220035 -0.000511786 0)
(-7.25679e-05 -0.000228868 0)
(-9.48701e-06 -3.62117e-05 0)
(-1.25338e-05 8.0851e-05 0)
(-9.14974e-05 0.000371914 0)
(-0.000271626 0.000756077 0)
(-0.000543568 0.00120316 0)
(-0.000904685 0.00169384 0)
(-0.00135519 0.0022123 0)
(-0.00189427 0.00274512 0)
(-0.00252026 0.00328106 0)
(-0.00323089 0.00381079 0)
(-0.0040233 0.00432662 0)
(-0.00489401 0.00482233 0)
(-0.00583902 0.00529288 0)
(-0.00685387 0.00573429 0)
(-0.00793366 0.00614344 0)
(-0.00907316 0.00651799 0)
(-0.0102669 0.00685621 0)
(-0.011509 0.0071569 0)
(-0.0127937 0.00741935 0)
(-0.014115 0.00764317 0)
(-0.0154668 0.00782834 0)
(-0.016843 0.00797509 0)
(-0.0182375 0.00808388 0)
(-0.0196443 0.00815536 0)
(-0.0210576 0.00819032 0)
(-0.0224714 0.0081897 0)
(-0.0238801 0.00815454 0)
(-0.0252782 0.00808597 0)
(-0.0266602 0.00798518 0)
(-0.0280211 0.00785341 0)
(-0.0293557 0.00769196 0)
(-0.0306593 0.00750215 0)
(-0.0319273 0.00728531 0)
(-0.0331553 0.00704282 0)
(-0.0343392 0.00677603 0)
(-0.0354749 0.0064863 0)
(-0.0365589 0.00617501 0)
(-0.0375874 0.00584352 0)
(-0.0385574 0.00549318 0)
(-0.0394658 0.00512534 0)
(-0.0403096 0.00474135 0)
(-0.0410863 0.00434252 0)
(-0.0417935 0.00393019 0)
(-0.0424291 0.00350568 0)
(-0.0429911 0.0030703 0)
(-0.0434777 0.00262535 0)
(-0.0438876 0.00217214 0)
(-0.0442193 0.00171198 0)
(-0.0444719 0.00124619 0)
(-0.0446444 0.000776086 0)
(-0.0447364 0.000302989 0)
(-0.0447474 -0.00017176 0)
(-0.0446773 -0.000646808 0)
(-0.0445261 -0.00112079 0)
(-0.0442942 -0.00159232 0)
(-0.043982 -0.00205998 0)
(-0.0435904 -0.00252236 0)
(-0.0431205 -0.00297801 0)
(-0.0425733 -0.00342544 0)
(-0.0419506 -0.00386317 0)