/*--------------------------------*- C++ -*----------------------------------*\
| =========                 |                                                 |
| \\      /  F ield         | OpenFOAM: The Open Source CFD Toolbox           |
|  \\    /   O peration     | Version:  2212                                  |
|   \\  /    A nd           | Website:  www.openfoam.com                      |
|    \\/     M anipulation  |                                                 |
\*---------------------------------------------------------------------------*/
FoamFile
{
    version     2.0;
    format      ascii;
    arch        "LSB;label=32;scalar=64";
    class       volScalarField;
    location    "0.021";
    object      p;
}
// * * * * * * * * * * * * * * * * * * * * * * * * * * * * * * * * * * * * * //

dimensions      [0 2 -2 0 0 0 0];

internalField   nonuniform List<scalar> 
10000
(
3.55687e-08
1.82246e-05
-0.000205518
-0.000664473
-0.00132194
-0.00213803
-0.00306718
-0.00406552
-0.00509475
-0.00612192
-0.0071197
-0.00806556
-0.00893972
-0.00972541
-0.0104087
-0.010978
-0.0114242
-0.0117401
-0.0119193
-0.0119572
-0.0118506
-0.0115974
-0.0111965
-0.0106475
-0.00995121
-0.00910871
-0.00812177
-0.00699278
-0.00572479
-0.00432132
-0.00278646
-0.0011249
0.000658612
0.00255946
0.00457289
0.00669362
0.00891585
0.0112337
0.0136409
0.0161311
0.0186977
0.0213344
0.0240351
0.0267929
0.0296006
0.0324507
0.0353363
0.0382502
0.0411852
0.0441337
0.0470881
0.0500412
0.0529858
0.0559146
0.05882
0.0616946
0.0645311
0.0673222
0.0700604
0.0727385
0.0753491
0.0778852
0.08034
0.0827063
0.0849773
0.087146
0.089206
0.0911513
0.0929758
0.0946737
0.0962397
0.097669
0.0989576
0.100102
0.1011
0.101948
0.102645
0.10319
0.10358
0.103817
0.103902
0.103837
0.103626
0.103274
0.102788
0.102175
0.101446
0.100612
0.0996867
0.0986881
0.0976362
0.0965552
0.0954729
0.0944214
0.0934381
0.0925661
0.0918533
0.0913515
0.091114
0.0911336
-1.03391e-05
4.13669e-05
-0.000142804
-0.000531645
-0.00108608
-0.00177606
-0.00256459
-0.00341595
-0.00429748
-0.00518048
-0.00604051
-0.00685655
-0.00761091
-0.00828808
-0.00887421
-0.00935768
-0.00972921
-0.00998106
-0.0101069
-0.010102
-0.00996278
-0.00968694
-0.00927313
-0.00872078
-0.00802999
-0.00720133
-0.00623599
-0.00513591
-0.00390366
-0.00254244
-0.00105603
0.000551245
0.002275
0.00411093
0.00605453
0.00810089
0.0102448
0.0124808
0.0148028
0.0172045
0.0196795
0.0222219
0.0248259
0.0274851
0.0301924
0.0329404
0.0357224
0.0385317
0.0413611
0.0442035
0.0470515
0.0498982
0.0527365
0.0555591
0.0583589
0.061129
0.0638624
0.0665519
0.0691903
0.0717706
0.0742859
0.0767295
0.0790949
0.0813754
0.0835643
0.085655
0.0876416
0.0895185
0.09128
0.0929205
0.0944354
0.0958203
0.0970715
0.0981861
0.0991617
0.0999963
0.100688
0.101236
0.101641
0.101902
0.102021
0.102001
0.101846
0.101561
0.101153
0.10063
0.100003
0.0992811
0.0984797
0.0976147
0.0967056
0.0957746
0.0948468
0.0939501
0.0931163
0.0923802
0.0917781
0.0913466
0.0911326
0.0911528
0.000253478
0.000296313
0.000118709
-0.000239524
-0.000739778
-0.00135476
-0.00205436
-0.00280822
-0.00358851
-0.0043705
-0.00513188
-0.00585348
-0.00651925
-0.0071147
-0.00762692
-0.00804471
-0.00835845
-0.0085605
-0.00864464
-0.00860599
-0.0084408
-0.0081467
-0.00772222
-0.00716659
-0.00647953
-0.00566125
-0.00471261
-0.0036352
-0.00243127
-0.00110382
0.000343579
0.00190709
0.00358276
0.00536653
0.00725403
0.00924054
0.0113213
0.013491
0.0157439
0.0180736
0.0204743
0.0229403
0.025466
0.0280449
0.0306703
0.0333352
0.0360331
0.0387574
0.041501
0.044257
0.0470187
0.049779
0.052531
0.0552677
0.057982
0.0606674
0.0633172
0.0659246
0.0684824
0.0709838
0.0734225
0.0757918
0.0780853
0.0802967
0.0824196
0.0844478
0.0863758
0.0881981
0.0899093
0.0915042
0.0929786
0.0943285
0.0955505
0.0966417
0.0976001
0.0984239
0.0991116
0.099663
0.100078
0.100358
0.100505
0.100521
0.10041
0.100177
0.0998304
0.0993766
0.0988255
0.0981884
0.0974785
0.0967115
0.0959053
0.09508
0.094258
0.0934638
0.0927247
0.0920698
0.0915283
0.0911297
0.0909161
0.0909144
0.000809311
0.000779152
0.000565536
0.000199692
-0.000285299
-0.000865515
-0.00151515
-0.0022084
-0.00292197
-0.00363443
-0.0043261
-0.00497989
-0.00558032
-0.00611412
-0.00656964
-0.00693615
-0.00720442
-0.007367
-0.00741781
-0.00735195
-0.00716588
-0.00685704
-0.00642383
-0.00586532
-0.00518096
-0.00437083
-0.0034356
-0.00237661
-0.00119598
0.000103411
0.0015182
0.00304505
0.00468047
0.00642058
0.00826119
0.0101979
0.0122259
0.01434
0.0165344
0.0188034
0.0211416
0.0235434
0.026003
0.0285142
0.0310703
0.0336649
0.0362918
0.0389444
0.0416157
0.0442989
0.0469877
0.0496752
0.0523545
0.0550188
0.0576613
0.0602757
0.0628555
0.0653938
0.0678839
0.0703194
0.072694
0.0750013
0.077235
0.0793888
0.0814567
0.083433
0.0853123
0.0870895
0.0887592
0.0903166
0.0917578
0.0930792
0.0942774
0.0953496
0.0962939
0.0971088
0.0977932
0.0983472
0.0987714
0.099067
0.0992357
0.0992801
0.0992044
0.0990138
0.0987144
0.0983137
0.0978211
0.0972475
0.0966059
0.0959106
0.0951776
0.0944252
0.0936729
0.0929427
0.0922581
0.0916439
0.0911248
0.0907259
0.0904803
0.09041
0.00158402
0.00143467
0.00115279
0.000755078
0.000262038
-0.000306413
-0.000928315
-0.00158254
-0.00224906
-0.00290967
-0.00354789
-0.00414814
-0.00469627
-0.00517998
-0.00558836
-0.00591157
-0.00614108
-0.00626965
-0.00629146
-0.00620181
-0.00599737
-0.00567564
-0.0052349
-0.00467397
-0.00399214
-0.00318939
-0.0022663
-0.00122403
-6.46448e-05
0.00120913
0.00259428
0.00408775
0.00568635
0.0073864
0.00918403
0.0110751
0.0130549
0.0151179
0.0172587
0.0194719
0.0217526
0.0240954
0.0264942
0.028943
0.0314353
0.0339653
0.0365268
0.0391133
0.0417181
0.0443346
0.0469565
0.049577
0.0521895
0.0547873
0.057364
0.0599135
0.0624291
0.0649043
0.0673324
0.0697076
0.0720238
0.0742745
0.0764534
0.0785547
0.0805726
0.0825017
0.0843369
0.0860731
0.0877052
0.0892288
0.0906402
0.091936
0.0931127
0.0941675
0.0950989
0.0959057
0.0965871
0.0971435
0.0975756
0.0978848
0.0980727
0.098142
0.0980966
0.0979414
0.0976822
0.0973261
0.0968823
0.0963613
0.0957751
0.0951365
0.09446
0.0937616
0.0930588
0.0923708
0.0917178
0.0911204
0.0905997
0.0901767
0.0898708
0.0896924
0.00251397
0.00221902
0.00184799
0.00140047
0.000880658
0.000305422
-0.000307669
-0.0009412
-0.00157839
-0.00220389
-0.0028033
-0.00336311
-0.00387089
-0.00431516
-0.00468569
-0.0049736
-0.00517098
-0.0052711
-0.00526845
-0.00515871
-0.00493861
-0.00460589
-0.00415876
-0.00359587
-0.00291647
-0.00212044
-0.00120829
-0.000181178
0.000958876
0.00220939
0.00356781
0.00503128
0.00659667
0.00826056
0.0100193
0.0118691
0.0138049
0.0158215
0.0179136
0.0200764
0.0223049
0.0245939
0.0269374
0.0293294
0.0317641
0.0342354
0.0367373
0.0392636
0.0418079
0.0443639
0.0469251
0.0494848
0.0520366
0.0545743
0.0570915
0.059582
0.0620396
0.0644576
0.0668299
0.0691507
0.071414
0.0736135
0.075743
0.077797
0.0797702
0.081657
0.0834526
0.0851521
0.0867506
0.088244
0.0896288
0.0909017
0.092059
0.0930983
0.0940182
0.0948177
0.0954966
0.0960549
0.0964937
0.0968143
0.0970184
0.0971085
0.0970883
0.0969624
0.0967363
0.0964169
0.0960128
0.0955338
0.0949906
0.0943947
0.0937589
0.0930977
0.0924265
0.0917619
0.0911207
0.0905199
0.0899775
0.0895111
0.0891236
0.0888121
0.00355123
0.00309878
0.00262509
0.00211385
0.00155209
0.000953425
0.000333025
-0.00029584
-0.000919689
-0.0015252
-0.00209974
-0.0026318
-0.00311041
-0.00352517
-0.00386681
-0.00412716
-0.00429895
-0.00437613
-0.00435364
-0.00422759
-0.00399488
-0.00365326
-0.00320096
-0.00263671
-0.0019597
-0.0011697
-0.000267269
0.000746262
0.00186902
0.00309884
0.00443348
0.00587021
0.00740603
0.0090379
0.0107623
0.0125751
0.0144715
0.0164464
0.0184951
0.0206131
0.0227952
0.025036
0.0273299
0.0296712
0.0320543
0.0344731
0.0369217
0.0393943
0.0418846
0.0443864
0.0468933
0.0493988
0.0518966
0.0543807
0.056845
0.0592832
0.061689
0.0640562
0.0663789
0.0686514
0.0708678
0.0730217
0.0751074
0.0771198
0.0790535
0.0809033
0.082664
0.0843312
0.0859002
0.087367
0.0887284
0.0899809
0.0911212
0.0921469
0.0930569
0.0938504
0.094527
0.0950868
0.0955308
0.0958605
0.0960776
0.0961843
0.0961843
0.0960818
0.0958821
0.0955916
0.0952182
0.0947706
0.0942584
0.093692
0.0930827
0.0924436
0.091788
0.0911301
0.0904836
0.0898624
0.0892818
0.0887565
0.0882733
0.0878151
0.00465654
0.00404253
0.00345858
0.00287389
0.00225827
0.00162313
0.000981566
0.000343649
-0.000279988
-0.000878167
-0.00144009
-0.00195556
-0.00241494
-0.00280917
-0.00312993
-0.00336972
-0.003522
-0.00358134
-0.00354338
-0.00340452
-0.00316196
-0.00281351
-0.00235738
-0.00179235
-0.0011177
-0.000333222
0.000560414
0.00156183
0.00266936
0.00388105
0.00519467
0.00660778
0.00811762
0.00972132
0.0114155
0.0131956
0.0150568
0.0169949
0.0190053
0.0210836
0.0232246
0.0254228
0.0276729
0.0299693
0.0323066
0.034679
0.0370806
0.0395057
0.0419482
0.0444021
0.0468609
0.0493183
0.0517686
0.0542058
0.0566235
0.0590155
0.0613757
0.0636983
0.0659774
0.0682074
0.0703825
0.0724964
0.074544
0.0765201
0.0784195
0.0802369
0.0819673
0.0836064
0.0851498
0.0865936
0.0879344
0.089169
0.0902944
0.0913085
0.0922103
0.0929988
0.0936733
0.0942339
0.0946818
0.0950184
0.0952453
0.0953649
0.0953804
0.0952961
0.0951167
0.094848
0.0944967
0.0940708
0.0935789
0.0930303
0.0924356
0.0918057
0.0911523
0.090487
0.0898212
0.0891662
0.0885351
0.08794
0.0873522
0.0867413
0.00579704
0.00502247
0.00432452
0.00365947
0.0029816
0.00229999
0.0016259
0.000967453
0.000333023
-0.000268523
-0.000828048
-0.00133649
-0.00178544
-0.00216705
-0.00247394
-0.00269944
-0.00283782
-0.00288418
-0.00283478
-0.00268644
-0.00243659
-0.00208312
-0.00162438
-0.00105915
-0.000386814
0.000392558
0.00127823
0.00226891
0.00336312
0.00455903
0.00585438
0.00724691
0.00873431
0.0103136
0.011981
0.0137324
0.0155631
0.017469
0.019446
0.0214897
0.0235946
0.0257555
0.0279673
0.0302247
0.0325221
0.0348537
0.0372141
0.0395978
0.0419987
0.0444106
0.0468274
0.0492433
0.0516523
0.0540486
0.0564257
0.0587776
0.0610983
0.0633822
0.0656235
0.0678167
0.0699559
0.0720355
0.0740502
0.0759952
0.0778651
0.0796547
0.0813591
0.0829741
0.0844954
0.0859193
0.0872425
0.0884618
0.0895746
0.090579
0.0914738
0.0922579
0.0929304
0.0934913
0.0939417
0.0942832
0.0945173
0.0946464
0.0946735
0.0946025
0.0944376
0.0941837
0.0938467
0.0934338
0.092953
0.0924127
0.0918221
0.0911905
0.0905277
0.0898438
0.0891479
0.0884487
0.0877579
0.0870857
0.0863886
0.085624
0.00694571
0.00601431
0.00520103
0.0044512
0.00370497
0.00296919
0.00225401
0.00156583
0.000911177
0.000297233
-0.000268376
-0.000777962
-0.00122416
-0.00160007
-0.00189928
-0.00211609
-0.00224552
-0.00228343
-0.00222636
-0.00207159
-0.00181679
-0.00146
-0.000999732
-0.000434799
0.000235213
0.00100987
0.00188843
0.00286985
0.00395256
0.00513475
0.00641448
0.00778962
0.0092579
0.0108163
0.0124607
0.014187
0.0159914
0.01787
0.0198185
0.0218321
0.0239058
0.0260348
0.0282138
0.0304376
0.0327006
0.0349974
0.0373226
0.0396708
0.0420359
0.0444118
0.0467928
0.0491731
0.0515468
0.0539082
0.0562507
0.0585684
0.0608556
0.0631067
0.0653159
0.0674777
0.0695867
0.0716373
0.0736244
0.0755431
0.0773881
0.0791542
0.0808368
0.0824316
0.0839345
0.0853416
0.08665
0.0878567
0.0889592
0.0899555
0.0908445
0.0916248
0.0922953
0.0928559
0.0933078
0.0936525
0.0938916
0.0940273
0.0940623
0.094
0.0938439
0.0935983
0.0932686
0.0928614
0.0923841
0.0918438
0.0912481
0.0906053
0.0899238
0.0892121
0.0884774
0.0877263
0.0869691
0.086215
0.0854066
0.0844906
0.00807949
0.00699647
0.00606891
0.00523172
0.00441225
0.00361679
0.00285418
0.00212898
0.00144647
0.000812662
0.000233753
-0.000283885
-0.000733865
-0.00111012
-0.0014072
-0.00162033
-0.0017453
-0.00177869
-0.00171737
-0.00155888
-0.00130123
-0.000942629
-0.000481652
8.25064e-05
0.000750032
0.00152043
0.00239286
0.00336636
0.00443938
0.00560999
0.00687662
0.00823753
0.00968997
0.0112305
0.0128554
0.0145609
0.0163434
0.0181989
0.0201233
0.0221118
0.0241594
0.0262615
0.0284129
0.0306084
0.0328426
0.0351102
0.037406
0.0397245
0.0420596
0.0444054
0.0467565
0.0491071
0.0514516
0.0537838
0.0560975
0.0583868
0.0606463
0.0628703
0.0650531
0.0671892
0.0692733
0.0713002
0.0732647
0.0751619
0.0769865
0.0787335
0.0803983
0.0819768
0.0834648
0.0848586
0.0861552
0.0873519
0.0884461
0.0894361
0.0903203
0.0910973
0.0917659
0.092326
0.0927786
0.0931253
0.0933677
0.0935073
0.0935467
0.0934885
0.0933359
0.093093
0.0927647
0.0923572
0.0918765
0.0913287
0.0907203
0.0900583
0.0893504
0.0886035
0.0878231
0.0870141
0.0861861
0.0853473
0.0844279
0.0833646
0.00917865
0.00795021
0.00691063
0.00598488
0.00508935
0.00423006
0.00341505
0.00264738
0.00193117
0.00127136
0.000673078
0.000141621
-0.000317609
-0.000699493
-0.000999413
-0.00121338
-0.00133799
-0.00137025
-0.00130764
-0.00114787
-0.000889124
-0.000529917
-6.90077e-05
0.000494009
0.00115898
0.0019256
0.00279301
0.00375983
0.00482472
0.00598621
0.0072426
0.00859192
0.0100314
0.0115575
0.0131665
0.0148552
0.01662
0.0184569
0.0203616
0.0223295
0.0243558
0.026436
0.0285649
0.0307374
0.0329483
0.0351923
0.0374643
0.0397586
0.0420694
0.0443909
0.0467179
0.0490447
0.0513655
0.0536743
0.0559649
0.0582317
0.0604692
0.0626718
0.0648337
0.0669496
0.0690144
0.0710227
0.0729696
0.07485
0.0766587
0.0783907
0.0800419
0.081608
0.0830849
0.0844688
0.0857566
0.0869458
0.0880339
0.089019
0.0898995
0.0906739
0.0913409
0.0919003
0.0923534
0.0927013
0.0929451
0.0930861
0.0931262
0.093068
0.0929146
0.0926698
0.0923381
0.0919247
0.0914345
0.0908727
0.0902449
0.0895574
0.0888169
0.0880289
0.0871975
0.0863263
0.0854245
0.0844997
0.0834708
0.0822652
0.0102275
0.0088593
0.00771025
0.00669653
0.00572356
0.00479743
0.0039263
0.00311208
0.0023576
0.00166688
0.0010443
0.000494211
2.10409e-05
-0.00037101
-0.000678118
-0.000896961
-0.00102481
-0.00105906
-0.000997639
-0.000838598
-0.000580217
-0.000221361
0.000238676
0.000800247
0.00146303
0.00222639
0.00308955
0.0040512
0.00510988
0.00626441
0.00751325
0.0088539
0.0102832
0.011798
0.013395
0.015071
0.0168222
0.0186446
0.0205339
0.0224858
0.0244958
0.0265589
0.0286703
0.0308249
0.0330178
0.0352437
0.0374973
0.0397729
0.0420649
0.0443679
0.0466766
0.0489851
0.0512878
0.0535787
0.055852
0.058102
0.0603232
0.0625099
0.0646564
0.0667577
0.0688084
0.0708034
0.0727375
0.0746057
0.0764028
0.0781243
0.0797659
0.0813237
0.0827932
0.0841705
0.0854525
0.0866367
0.0877207
0.0887025
0.0895806
0.0903531
0.0910189
0.091578
0.0920312
0.0923793
0.0926229
0.0927626
0.0928003
0.0927388
0.092581
0.0923305
0.0919911
0.0915667
0.0910615
0.0904801
0.0898275
0.0891095
0.0883313
0.0874975
0.086611
0.0856746
0.0846972
0.0836864
0.0825504
0.0812079
0.011213
0.00971022
0.00845455
0.00735391
0.00630312
0.00530855
0.00437869
0.00351469
0.00271835
0.00199289
0.001342
0.000769209
0.000278062
-0.000128076
-0.000446127
-0.000673358
-0.000807484
-0.00084646
-0.000788331
-0.000631599
-0.000374903
-1.72625e-05
0.000441479
0.00100134
0.00166219
0.00242316
0.00328305
0.0042408
0.00529541
0.00644554
0.00768921
0.00902368
0.0104459
0.0119529
0.0135417
0.0152088
0.0169505
0.0187625
0.020641
0.0225815
0.0245796
0.0266304
0.0287292
0.0308711
0.0330513
0.0352644
0.0375048
0.0397673
0.0420462
0.0443362
0.0466321
0.0489279
0.051218
0.0534967
0.0557582
0.057997
0.0602074
0.0623837
0.0645203
0.0666121
0.0686542
0.0706408
0.0725669
0.0744274
0.0762174
0.0779327
0.0795692
0.0811225
0.0825881
0.0839619
0.0852409
0.0864227
0.0875049
0.0884852
0.089362
0.0901337
0.090799
0.091358
0.091811
0.0921583
0.0923998
0.092536
0.092569
0.0925016
0.0923367
0.092077
0.0917255
0.0912856
0.0907608
0.0901553
0.0894737
0.0887207
0.0879008
0.0870174
0.0860729
0.0850691
0.0840154
0.0829192
0.0816788
0.0802048
0.0121243
0.0104921
0.00913254
0.0079459
0.00681763
0.00575399
0.00476368
0.00384745
0.00300649
0.00224328
0.00156073
0.000961747
0.000449108
2.54661e-05
-0.000306772
-0.000545354
-0.000688307
-0.000734196
-0.000681246
-0.000528042
-0.000273945
8.14871e-05
0.000538553
0.00109703
0.00175628
0.00251536
0.00337323
0.00432899
0.00538168
0.00652961
0.00777041
0.00910135
0.0105197
0.0120225
0.0136068
0.0152689
0.0170049
0.0188109
0.0206829
0.0226167
0.0246075
0.0266508
0.028742
0.0308764
0.033049
0.0352543
0.037487
0.0397417
0.042013
0.0442957
0.0465842
0.0488727
0.0511557
0.0534278
0.0556832
0.0579163
0.0601211
0.0622923
0.0644243
0.0665122
0.0685506
0.0705338
0.0724565
0.074314
0.0761016
0.0778151
0.0794505
0.081003
0.082468
0.0838416
0.0851207
0.0863029
0.0873854
0.0883661
0.0892432
0.0900152
0.090681
0.0912401
0.0916925
0.0920378
0.0922758
0.0924071
0.0924338
0.0923586
0.0921838
0.0919117
0.0915444
0.0910849
0.0905367
0.0899035
0.0891892
0.0883977
0.0875325
0.0865967
0.0855918
0.0845194
0.0833891
0.0822084
0.0808661
0.0792656
0.0129521
0.0111956
0.00973485
0.00846348
0.00725811
0.00612507
0.00507328
0.00410314
0.00321541
0.00241192
0.00169497
0.00106684
0.000529617
8.55112e-05
-0.000263569
-0.000515985
-0.000670103
-0.000724463
-0.000677991
-0.000529709
-0.000279124
7.37769e-05
0.000528998
0.00108616
0.0017443
0.0025024
0.00335973
0.00431549
0.00536831
0.00651613
0.00775646
0.00908677
0.0105045
0.0120068
0.0135901
0.0152509
0.0169854
0.0187896
0.0206597
0.0225911
0.0245793
0.02662
0.0287087
0.0308407
0.0330107
0.0352134
0.0374436
0.039696
0.0419653
0.044246
0.0465325
0.0488193
0.0511009
0.053372
0.0556268
0.0578593
0.0600639
0.0622352
0.064368
0.066457
0.0684968
0.0704815
0.0724057
0.0742649
0.0760548
0.077771
0.0794091
0.0809645
0.0824324
0.083809
0.0850914
0.0862767
0.087362
0.0883452
0.0892245
0.0899982
0.0906652
0.0912247
0.091676
0.0920187
0.0922525
0.092378
0.0923973
0.0923126
0.0921255
0.0918378
0.0914513
0.0909692
0.0903946
0.0897308
0.0889807
0.0881475
0.0872343
0.0862435
0.0851767
0.0840348
0.0828278
0.0815635
0.080122
0.0783997
0.0136886
0.0118125
0.0102535
0.00889874
0.00761667
0.00641408
0.00530013
0.00427483
0.00333862
0.00249278
0.00173901
0.00107922
0.000515001
4.79036e-05
-0.000320417
-0.00058854
-0.000755439
-0.000819862
-0.00078102
-0.000638549
-0.00039225
-4.2164e-05
0.000411277
0.000967303
0.00162495
0.00238339
0.00324194
0.00419957
0.00525446
0.00640429
0.00764673
0.00897949
0.0103999
0.0119049
0.013491
0.0151543
0.0168914
0.0186981
0.0205705
0.0225041
0.0244945
0.0265376
0.0286288
0.0307633
0.0329359
0.0351412
0.0373742
0.0396298
0.0419025
0.0441866
0.0464766
0.0487672
0.0510532
0.0533289
0.0555883
0.0578256
0.0600352
0.0622121
0.0643508
0.0664461
0.0684922
0.0704832
0.072414
0.07428
0.0760767
0.0777998
0.0794446
0.0810065
0.0824809
0.083864
0.0851528
0.0863442
0.0874351
0.0884231
0.0893063
0.0900833
0.0907524
0.0913125
0.0917628
0.0921028
0.0923321
0.0924515
0.0924623
0.0923662
0.0921646
0.0918587
0.0914507
0.0909435
0.0903401
0.089643
0.0888543
0.0879768
0.0870132
0.0859657
0.0848356
0.0836236
0.0823401
0.080993
0.0794547
0.0776145
0.0143274
0.0123358
0.0106813
0.00924451
0.00788627
0.00661405
0.00543741
0.00435594
0.00336968
0.00247973
0.00168724
0.000993596
0.000400262
-9.16527e-05
-0.000481011
-0.000766583
-0.000947447
-0.00102308
-0.000993022
-0.000857089
-0.000615412
-0.000268331
0.000183371
0.000738711
0.00139691
0.00215729
0.00301888
0.0039801
0.00503891
0.0061931
0.00744054
0.00877886
0.0102052
0.0117162
0.0133084
0.0149783
0.016722
0.0185356
0.0204146
0.0223551
0.0243526
0.026403
0.0285016
0.0306435
0.0328236
0.0350368
0.0372781
0.0395423
0.0418237
0.0441166
0.0464159
0.0487161
0.0510119
0.0532977
0.0555671
0.0578145
0.0600345
0.0622222
0.0643721
0.0664786
0.068536
0.0705385
0.0724809
0.0743585
0.0761667
0.0779008
0.0795563
0.0811286
0.0826132
0.0840064
0.0853049
0.0865053
0.0876044
0.0885996
0.0894888
0.0902703
0.0909424
0.0915038
0.0919537
0.0922914
0.0925164
0.0926291
0.0926304
0.0925214
0.0923033
0.0919775
0.0915462
0.0910122
0.0903778
0.0896449
0.0888152
0.0878912
0.0868753
0.0857697
0.0845753
0.0832927
0.0819326
0.0805037
0.0788705
0.0769161
0.0148637
0.0127598
0.0110118
0.00949425
0.00806054
0.00671859
0.0054786
0.00434002
0.00330245
0.00236674
0.00153389
0.00080486
0.000180657
-0.000337709
-0.000749346
-0.00105352
-0.00124958
-0.00133741
-0.0013169
-0.001188
-0.000951128
-0.000607138
-0.000156974
0.000398575
0.00105881
0.00182279
0.00268901
0.00365558
0.00472047
0.00588169
0.00713703
0.00848389
0.00991918
0.0114396
0.0130418
0.0147221
0.0164765
0.0183009
0.0201912
0.0221431
0.0241526
0.0262152
0.0283261
0.0304804
0.0326733
0.0348997
0.0371546
0.0394326
0.0417281
0.0440355
0.0463496
0.0486651
0.0509764
0.0532775
0.0555624
0.0578254
0.0600613
0.062265
0.0644311
0.066554
0.0686277
0.0706467
0.0726057
0.0744997
0.0763238
0.0780732
0.0797435
0.0813301
0.0828288
0.0842356
0.085547
0.0867594
0.0878694
0.0888741
0.0897713
0.090559
0.0912354
0.0917993
0.0922497
0.0925857
0.0928065
0.0929121
0.092903
0.09278
0.0925444
0.0921975
0.0917417
0.0911791
0.0905117
0.0897409
0.0888682
0.0878959
0.0868263
0.0856613
0.0844016
0.0830479
0.0816113
0.0801013
0.0783747
0.0763088
0.0152933
0.0130793
0.0112393
0.00964194
0.00813314
0.00672146
0.00541757
0.00422084
0.00313086
0.00214817
0.00127354
0.000507756
-0.000148513
-0.000694487
-0.00112951
-0.00145319
-0.00166547
-0.00176629
-0.00175573
-0.00163415
-0.00140233
-0.00106129
-0.000611895
-5.48068e-05
0.000609012
0.00137808
0.00225053
0.00322446
0.00429797
0.005469
0.00673511
0.00809345
0.00954093
0.0110743
0.0126902
0.0143847
0.0161538
0.0179934
0.0198993
0.0218676
0.0238938
0.0259733
0.0281014
0.0302733
0.0324842
0.0347292
0.037003
0.0393002
0.0416151
0.0439426
0.0462773
0.0486136
0.0509458
0.0532678
0.0555737
0.0578578
0.060115
0.0623401
0.0645275
0.0666717
0.0687668
0.0708073
0.0727877
0.0747027
0.0765472
0.0783163
0.0800056
0.0816108
0.0831274
0.0845514
0.085879
0.0871064
0.0882298
0.0892464
0.0901538
0.0909497
0.0916322
0.0922001
0.0926521
0.0929871
0.093204
0.0933023
0.0932823
0.093145
0.0928914
0.0925228
0.0920413
0.0914486
0.0907464
0.0899358
0.0890185
0.0879965
0.0868718
0.0856462
0.0843204
0.082895
0.0813819
0.0797909
0.0779719
0.0757965
0.0156122
0.0132898
0.0113587
0.00968197
0.00809821
0.0066165
0.00524823
0.00399262
0.0028492
0.00181851
0.000901071
9.74258e-05
-0.000591836
-0.00116626
-0.00162562
-0.00196976
-0.0021989
-0.00231316
-0.0023129
-0.00219885
-0.00197202
-0.00163332
-0.00118346
-0.000623381
4.54179e-05
0.000821037
0.00170158
0.00268524
0.00377007
0.0049537
0.00623342
0.00760633
0.00906941
0.0106194
0.0122527
0.0139653
0.0157531
0.0176122
0.0195385
0.0215278
0.0235754
0.0256767
0.027827
0.0300216
0.0322559
0.0345248
0.0368227
0.0391445
0.0414845
0.0438376
0.0461984
0.048561
0.0509196
0.0532681
0.0556006
0.0579115
0.0601954
0.0624471
0.0646611
0.0668317
0.0689532
0.0710201
0.0730267
0.0749674
0.0768368
0.0786302
0.080343
0.081971
0.0835096
0.0849544
0.0863015
0.0875467
0.0886864
0.0897175
0.0906375
0.0914439
0.0921347
0.0927081
0.093163
0.0934977
0.093711
0.0938023
0.0937718
0.0936202
0.0933485
0.0929577
0.0924493
0.0918251
0.0910866
0.090235
0.0892718
0.0881987
0.0870175
0.0857302
0.0843373
0.0828395
0.0812494
0.0795774
0.0776667
0.075383
0.0158165
0.0133871
0.0113655
0.00960924
0.00795033
0.00639817
0.00496484
0.00364975
0.00245214
0.00137252
0.000411426
-0.000430822
-0.00115388
-0.00175764
-0.0022421
-0.00260741
-0.00285381
-0.0029818
-0.0029921
-0.00288558
-0.00266317
-0.00232566
-0.00187399
-0.00130963
-0.000634514
0.000149389
0.00104026
0.00203624
0.00313505
0.00433402
0.00563035
0.00702116
0.0085034
0.0100736
0.011728
0.0134625
0.0152733
0.0171564
0.0191078
0.0211227
0.0231964
0.0253244
0.027502
0.0297248
0.0319878
0.0342857
0.0366132
0.038965
0.0413357
0.04372
0.0461124
0.0485067
0.0508972
0.0532779
0.0556428
0.0579862
0.0603025
0.0625862
0.0648319
0.0670342
0.0691873
0.0712856
0.0733231
0.0752942
0.0771934
0.0790158
0.0807569
0.082412
0.0839765
0.0854457
0.0868155
0.0880818
0.0892408
0.0902893
0.0912245
0.0920438
0.0927447
0.0933255
0.0937843
0.0941198
0.0943303
0.0944153
0.0943749
0.0942095
0.0939195
0.0935057
0.0929696
0.0923129
0.0915371
0.0906433
0.0896328
0.088507
0.0872681
0.0859178
0.0844569
0.0828859
0.0812182
0.0794648
0.0774625
0.0750711
0.0159028
0.0133668
0.0112548
0.00941888
0.00768429
0.00606123
0.00456222
0.0031869
0.00193444
0.00080518
-0.000200336
-0.0010819
-0.00183955
-0.00247343
-0.00298364
-0.00337047
-0.00363444
-0.00377643
-0.00379728
-0.00369776
-0.00347868
-0.00314106
-0.00268639
-0.00211656
-0.00143355
-0.000639251
0.000264416
0.00127525
0.00239066
0.00360786
0.00492403
0.00633625
0.00784122
0.00943525
0.0111145
0.0128751
0.0147133
0.016625
0.0186057
0.0206508
0.0227555
0.0249152
0.0271255
0.0293817
0.0316786
0.0340109
0.0363734
0.0387609
0.0411679
0.043589
0.0460183
0.0484499
0.050878
0.0532966
0.0556998
0.0580815
0.0604358
0.0627571
0.06504
0.0672794
0.0694693
0.071604
0.0736775
0.0756838
0.0776176
0.0794739
0.0812479
0.0829347
0.084529
0.0860263
0.0874224
0.0887131
0.0898946
0.0909635
0.0919168
0.0927513
0.0934644
0.0940539
0.0945183
0.0948557
0.0950647
0.0951447
0.0950952
0.0949161
0.0946076
0.0941704
0.0936059
0.0929161
0.0921022
0.0911651
0.0901058
0.088926
0.0876279
0.0862135
0.0846833
0.0830381
0.0812918
0.0794566
0.0773624
0.0748634
0.0158678
0.0132247
0.0110221
0.00910609
0.00729524
0.00560068
0.00403538
0.002599
0.00129093
0.000111403
-0.000939285
-0.00186105
-0.00265412
-0.00331868
-0.00385506
-0.00426371
-0.00454553
-0.00470149
-0.00473234
-0.00463876
-0.00442177
-0.00408294
-0.00362418
-0.00304741
-0.00235453
-0.00154753
-0.000628665
0.000399525
0.0015343
0.00277286
0.00411229
0.00554939
0.00708058
0.00870211
0.0104102
0.0122013
0.0140712
0.0160159
0.0180305
0.0201104
0.0222509
0.0244476
0.0266958
0.0289906
0.0313267
0.033699
0.0361021
0.038531
0.0409799
0.0434431
0.0459149
0.0483894
0.0508609
0.0533235
0.0557708
0.0581964
0.0605944
0.062959
0.0652849
0.0675669
0.0697991
0.0719754
0.0740898
0.0761365
0.07811
0.0800051
0.0818167
0.0835393
0.0851677
0.086697
0.0881231
0.0894419
0.0906495
0.0917421
0.0927161
0.0935682
0.0942954
0.0948957
0.0953674
0.0957086
0.0959178
0.0959938
0.0959359
0.0957435
0.0954166
0.0949559
0.094363
0.0936396
0.0927868
0.0918051
0.0906957
0.0894606
0.0881021
0.0866222
0.0850214
0.0833006
0.0814747
0.0795568
0.0773697
0.0747624
0.0157083
0.0129572
0.0106631
0.00866634
0.00677852
0.00501159
0.00337918
0.00188096
0.000516446
-0.000714232
-0.00181099
-0.00277384
-0.00360296
-0.00429866
-0.00486154
-0.00529232
-0.00559197
-0.00576135
-0.00580115
-0.00571233
-0.00549641
-0.00515534
-0.00469109
-0.00410551
-0.00340058
-0.00257861
-0.00164219
-0.00059402
0.000563137
0.00182636
0.00319244
0.00465783
0.00621884
0.00787179
0.00961305
0.0114388
0.013345
0.0153269
0.0173799
0.0194995
0.021681
0.0239198
0.026211
0.0285496
0.0309304
0.0333481
0.0357977
0.0382735
0.0407698
0.0432807
0.0458005
0.0483237
0.0508445
0.0533568
0.0558539
0.0583293
0.0607768
0.0631906
0.0655655
0.0678958
0.0701757
0.072399
0.0745598
0.0766521
0.0786704
0.0806092
0.082463
0.0842261
0.0858928
0.0874585
0.0889188
0.0902698
0.0915072
0.0926267
0.0936243
0.0944965
0.0952404
0.0958538
0.0963351
0.0966823
0.0968933
0.0969665
0.0969008
0.0966956
0.0963507
0.095867
0.095246
0.0944888
0.0935962
0.0925688
0.0914082
0.0901166
0.0886964
0.0871495
0.0854767
0.0836788
0.0817719
0.0797698
0.0774886
0.0747712
0.0154216
0.0125607
0.0101739
0.00809526
0.00612934
0.00428896
0.00258845
0.00102743
-0.000394643
-0.00167759
-0.00282136
-0.00382601
-0.00469171
-0.00541904
-0.00600874
-0.00646165
-0.00677858
-0.00696038
-0.00700804
-0.00692299
-0.00670716
-0.00636254
-0.005891
-0.00529448
-0.00457531
-0.00373612
-0.00277965
-0.00170859
-0.000525849
0.000765322
0.00216135
0.00365853
0.00525321
0.00694178
0.00872051
0.0105853
0.0125319
0.0145555
0.0166518
0.018816
0.0210435
0.0233295
0.0256689
0.0280566
0.0304876
0.0329567
0.0354583
0.0379867
0.0405359
0.0431001
0.0456738
0.0482514
0.0508273
0.053395
0.0559477
0.0584785
0.0609814
0.0634506
0.0658804
0.068265
0.0705984
0.0728744
0.075087
0.0772304
0.0792988
0.0812864
0.0831873
0.0849954
0.0867052
0.0883119
0.0898112
0.0911986
0.0924695
0.0936193
0.0946436
0.0955389
0.0963024
0.096932
0.0974255
0.0977807
0.097995
0.0980665
0.097994
0.0977767
0.0974148
0.0969089
0.0962598
0.0954683
0.0945351
0.0934611
0.0922484
0.0908992
0.089416
0.0878006
0.0860539
0.0841774
0.0821876
0.0800994
0.0777222
0.0748922
0.0150045
0.0120315
0.00955013
0.00738824
0.00534278
0.00342755
0.00165763
3.24945e-05
-0.00144844
-0.0027848
-0.00397645
-0.00502353
-0.00592643
-0.00668582
-0.00730239
-0.00777692
-0.00811024
-0.00830347
-0.00835809
-0.00827589
-0.00805885
-0.00770891
-0.00722802
-0.00661846
-0.00588286
-0.00502401
-0.00404464
-0.00294759
-0.00173608
-0.000413737
0.00101565
0.0025484
0.00418089
0.0059094
0.00772988
0.00963807
0.0116295
0.0136996
0.015844
0.018058
0.0203366
0.0226748
0.0250675
0.0275099
0.0299968
0.0325229
0.0350822
0.0376687
0.0402765
0.0428999
0.0455334
0.0481714
0.0508081
0.0534369
0.0560508
0.058643
0.0612074
0.063738
0.0662289
0.0686739
0.0710667
0.0734012
0.0756715
0.0778717
0.0799956
0.0820371
0.0839901
0.0858484
0.0876064
0.0892591
0.090802
0.0922301
0.0935385
0.0947221
0.0957767
0.0966987
0.0974853
0.0981341
0.0986425
0.0990076
0.0992267
0.0992978
0.0992197
0.0989918
0.0986139
0.0980861
0.0974087
0.0965824
0.095608
0.0944869
0.0932212
0.0918132
0.0902653
0.0885797
0.0867573
0.0848001
0.0827253
0.0805489
0.0780729
0.0751275
0.0144538
0.0113656
0.00878735
0.00654031
0.00441359
0.00242169
0.000580594
-0.00111021
-0.00265129
-0.00404212
-0.00528253
-0.00637279
-0.00731343
-0.00810498
-0.00874806
-0.00924344
-0.00959229
-0.00979622
-0.00985696
-0.00977637
-0.00955639
-0.0091991
-0.00870677
-0.00808202
-0.0073276
-0.0064463
-0.00544099
-0.00431482
-0.00307139
-0.00171452
-0.000248045
0.00132436
0.00299894
0.00477165
0.00663819
0.00859418
0.0106352
0.0127569
0.0149546
0.0172233
0.019558
0.0219536
0.0244052
0.0269079
0.0294564
0.0320451
0.0346677
0.0373181
0.0399904
0.0426791
0.0453785
0.0480829
0.0507861
0.0534816
0.0561626
0.0588223
0.0614544
0.0640526
0.0666107
0.0691222
0.0715807
0.0739799
0.0763138
0.0785765
0.0807614
0.0828623
0.0848728
0.0867866
0.0885981
0.090302
0.0918933
0.0933665
0.0947164
0.095938
0.097027
0.0979797
0.0987931
0.0994642
0.09999
0.100367
0.100593
0.100665
0.100583
0.100346
0.0999529
0.0994033
0.0986974
0.0978359
0.0968201
0.0956514