/*--------------------------------*- C++ -*----------------------------------*\
| =========                 |                                                 |
| \\      /  F ield         | OpenFOAM: The Open Source CFD Toolbox           |
|  \\    /   O peration     | Version:  2212                                  |
|   \\  /    A nd           | Website:  www.openfoam.com                      |
|    \\/     M anipulation  |                                                 |
\*---------------------------------------------------------------------------*/
FoamFile
{
    version     2.0;
    format      ascii;
    arch        "LSB;label=32;scalar=64";
    class       surfaceScalarField;
    location    "0.0365";
    object      phi;
}
// * * * * * * * * * * * * * * * * * * * * * * * * * * * * * * * * * * * * * //

dimensions      [0 3 -1 0 0 0 0];

oriented        oriented;

internalField   nonuniform List<scalar> 
19800
(
6.19404e-11
-6.19929e-11
2.08805e-10
-1.46876e-10
3.56651e-10
-1.4784e-10
4.63148e-10
-1.06511e-10
5.01788e-10
-3.86443e-11
4.59154e-10
4.26395e-11
3.29185e-10
1.29965e-10
1.10316e-10
2.18868e-10
-1.96209e-10
3.06531e-10
-5.87378e-10
3.91161e-10
-1.05903e-09
4.71651e-10
-1.6063e-09
5.47273e-10
-2.22384e-09
6.17533e-10
-2.90595e-09
6.82125e-10
-3.64681e-09
7.40865e-10
-4.44051e-09
7.93698e-10
-5.28115e-09
8.40641e-10
-6.16288e-09
8.8173e-10
-7.07991e-09
9.17042e-10
-8.02659e-09
9.46686e-10
-8.99737e-09
9.70785e-10
-9.98685e-09
9.89479e-10
-1.09898e-08
1.00294e-09
-1.20011e-08
1.01133e-09
-1.30159e-08
1.01482e-09
-1.40295e-08
1.01357e-09
-1.50373e-08
1.00778e-09
-1.60349e-08
9.97641e-10
-1.70183e-08
9.83313e-10
-1.79832e-08
9.64989e-10
-1.89261e-08
9.42884e-10
-1.98433e-08
9.17175e-10
-2.07313e-08
8.88022e-10
-2.15869e-08
8.55617e-10
-2.24071e-08
8.20158e-10
-2.31889e-08
7.81811e-10
-2.39296e-08
7.40743e-10
-2.46268e-08
6.97148e-10
-2.5278e-08
6.51216e-10
-2.58811e-08
6.03102e-10
-2.64341e-08
5.52965e-10
-2.69351e-08
5.00987e-10
-2.73824e-08
4.47354e-10
-2.77747e-08
3.92239e-10
-2.81105e-08
3.35799e-10
-2.83887e-08
2.78201e-10
-2.86083e-08
2.19637e-10
-2.87686e-08
1.60288e-10
-2.88689e-08
1.00326e-10
-2.89088e-08
3.99224e-11
-2.88881e-08
-2.07507e-11
-2.88066e-08
-8.15004e-11
-2.86645e-08
-1.4213e-10
-2.8462e-08
-2.02455e-10
-2.81997e-08
-2.62283e-10
-2.78783e-08
-3.2142e-10
-2.74986e-08
-3.79669e-10
-2.70618e-08
-4.36818e-10
-2.65692e-08
-4.92664e-10
-2.60221e-08
-5.47011e-10
-2.54225e-08
-5.99652e-10
-2.47721e-08
-6.50366e-10
-2.40732e-08
-6.98935e-10
-2.33281e-08
-7.45134e-10
-2.25393e-08
-7.88738e-10
-2.17098e-08
-8.29533e-10
-2.08425e-08
-8.67308e-10
-1.99407e-08
-9.01836e-10
-1.90078e-08
-9.32883e-10
-1.80476e-08
-9.60224e-10
-1.70639e-08
-9.83634e-10
-1.6061e-08
-1.00289e-09
-1.50433e-08
-1.01779e-09
-1.40151e-08
-1.02813e-09
-1.29814e-08
-1.03373e-09
-1.1947e-08
-1.03438e-09
-1.09171e-08
-1.02992e-09
-9.89692e-09
-1.02017e-09
-8.89194e-09
-1.00498e-09
-7.90773e-09
-9.8421e-10
-6.94999e-09
-9.57739e-10
-6.02452e-09
-9.25475e-10
-5.13718e-09
-8.87346e-10
-4.29387e-09
-8.43303e-10
-3.50053e-09
-7.93336e-10
-2.76306e-09
-7.37471e-10
-2.08727e-09
-6.75787e-10
-1.47884e-09
-6.08435e-10
-9.43161e-10
-5.35672e-10
-4.85272e-10
-4.57889e-10
-1.0962e-10
-3.75655e-10
1.80202e-10
-2.89822e-10
3.81868e-10
-2.01662e-10
4.9489e-10
-1.13022e-10
5.21888e-10
-2.70042e-11
4.70122e-10
5.17643e-11
3.54359e-10
1.15771e-10
2.01684e-10
1.52681e-10
5.99908e-11
1.41693e-10
5.99936e-11
1.34648e-10
-1.96654e-10
3.68704e-10
-3.80918e-10
5.7869e-10
-3.57814e-10
6.76475e-10
-2.04283e-10
6.06892e-10
3.09381e-11
3.35486e-10
3.14056e-10
-1.56638e-10
6.2209e-10
-8.77384e-10
9.39629e-10
-1.82709e-09
1.25624e-09
-3.00075e-09
1.56484e-09
-4.38966e-09
1.86057e-09
-5.98253e-09
2.14014e-09
-7.7663e-09
2.40131e-09
-9.72671e-09
2.64253e-09
-1.18487e-08
2.86286e-09
-1.41168e-08
3.06174e-09
-1.65151e-08
3.23896e-09
-1.90278e-08
3.39448e-09
-2.16393e-08
3.52848e-09
-2.43338e-08
3.64121e-09
-2.70961e-08
3.73307e-09
-2.99111e-08
3.80453e-09
-3.27643e-08
3.8561e-09
-3.56413e-08
3.88835e-09
-3.85284e-08
3.90191e-09
-4.14123e-08
3.89742e-09
-4.428e-08
3.87551e-09
-4.71192e-08
3.83687e-09
-4.99181e-08
3.78219e-09
-5.26653e-08
3.71218e-09
-5.53499e-08
3.62751e-09
-5.79617e-08
3.52892e-09
-6.04908e-08
3.41709e-09
-6.29279e-08
3.29273e-09
-6.52642e-08
3.15649e-09
-6.74914e-08
3.00907e-09
-6.96018e-08
2.85117e-09
-7.15882e-08
2.68347e-09
-7.34436e-08
2.50666e-09
-7.51619e-08
2.3214e-09
-7.67373e-08
2.12837e-09
-7.81646e-08
1.92823e-09
-7.94389e-08
1.72166e-09
-8.0556e-08
1.50932e-09
-8.1512e-08
1.29188e-09
-8.23038e-08
1.07e-09
-8.29286e-08
8.44394e-10
-8.3384e-08
6.15737e-10
-8.36684e-08
3.8471e-10
-8.37805e-08
1.52007e-10
-8.37196e-08
-8.16709e-11
-8.34855e-08
-3.15611e-10
-8.30786e-08
-5.49077e-10
-8.24997e-08
-7.8133e-10
-8.17503e-08
-1.01163e-09
-8.08325e-08
-1.23922e-09
-7.97489e-08
-1.46332e-09
-7.85026e-08
-1.68315e-09
-7.70973e-08
-1.89793e-09
-7.55375e-08
-2.10685e-09
-7.3828e-08
-2.3091e-09
-7.19745e-08
-2.50387e-09
-6.99832e-08
-2.6903e-09
-6.78607e-08
-2.86755e-09
-6.56147e-08
-3.03479e-09
-6.32531e-08
-3.19117e-09
-6.07845e-08
-3.33583e-09
-5.82184e-08
-3.46794e-09
-5.55647e-08
-3.58664e-09
-5.28338e-08
-3.69108e-09
-5.00371e-08
-3.78043e-09
-4.71861e-08
-3.85389e-09
-4.42932e-08
-3.91067e-09
-4.13713e-08
-3.95002e-09
-3.84338e-08
-3.97122e-09
-3.54946e-08
-3.97358e-09
-3.25681e-08
-3.95645e-09
-2.9669e-08
-3.91925e-09
-2.68125e-08
-3.86142e-09
-2.40142e-08
-3.78252e-09
-2.12898e-08
-3.68213e-09
-1.86554e-08
-3.55997e-09
-1.61268e-08
-3.41585e-09
-1.37204e-08
-3.24972e-09
-1.14521e-08
-3.06166e-09
-9.33761e-09
-2.85197e-09
-7.39221e-09
-2.62118e-09
-5.63051e-09
-2.37014e-09
-4.06608e-09
-2.10011e-09
-2.71105e-09
-1.81292e-09
-1.57554e-09
-1.51117e-09
-6.66833e-10
-1.19853e-09
1.17172e-11
-8.80217e-10
4.62496e-10
-5.6381e-10
6.95484e-10
-2.59993e-10
7.31947e-10
1.53109e-11
6.08724e-10
2.38998e-10
3.83817e-10
3.77581e-10
1.41552e-10
3.83962e-10
2.01546e-10
1.47405e-10
-3.44054e-10
3.53981e-10
-5.87493e-10
4.79797e-10
-4.83626e-10
4.2184e-10
-1.46329e-10
1.09264e-10
3.43512e-10
-5.04384e-10
9.27695e-10
-1.44669e-09
1.56441e-09
-2.73097e-09
2.2239e-09
-4.35979e-09
2.88505e-09
-6.32775e-09
3.53281e-09
-8.62365e-09
4.15648e-09
-1.1232e-08
4.74846e-09
-1.41341e-08
5.30341e-09
-1.73091e-08
5.81761e-09
-2.07349e-08
6.28857e-09
-2.43879e-08
6.71475e-09
-2.82442e-08
7.09528e-09
-3.22795e-08
7.42985e-09
-3.64696e-08
7.71854e-09
-4.07902e-08
7.96178e-09
-4.52173e-08
8.16021e-09
-4.97275e-08
8.31471e-09
-5.42977e-08
8.42629e-09
-5.89054e-08
8.49611e-09
-6.35289e-08
8.52539e-09
-6.81469e-08
8.51545e-09
-7.27391e-08
8.46768e-09
-7.72857e-08
8.38349e-09
-8.17679e-08
8.26433e-09
-8.61674e-08
8.11168e-09
-9.04669e-08
7.92706e-09
-9.46499e-08
7.71195e-09
-9.87007e-08
7.46787e-09
-1.02604e-07
7.19631e-09
-1.06347e-07
6.89878e-09
-1.09914e-07
6.57678e-09
-1.13295e-07
6.2318e-09
-1.16477e-07
5.86532e-09
-1.19449e-07
5.47884e-09
-1.22201e-07
5.07384e-09
-1.24725e-07
4.65179e-09
-1.27011e-07
4.21416e-09
-1.29052e-07
3.76242e-09
-1.3084e-07
3.29805e-09
-1.32371e-07
2.82252e-09
-1.33638e-07
2.3373e-09
-1.34638e-07
1.8439e-09
-1.35366e-07
1.34383e-09
-1.3582e-07
8.386e-10
-1.35997e-07
3.29739e-10
-1.35898e-07
-1.81205e-10
-1.35521e-07
-6.92663e-10
-1.34867e-07
-1.20304e-09
-1.33937e-07
-1.71071e-09
-1.32735e-07
-2.21404e-09
-1.31263e-07
-2.71137e-09
-1.29525e-07
-3.20101e-09
-1.27527e-07
-3.68123e-09
-1.25275e-07
-4.15032e-09
-1.22775e-07
-4.60652e-09
-1.20036e-07
-5.04804e-09
-1.17067e-07
-5.47308e-09
-1.13877e-07
-5.87984e-09
-1.10479e-07
-6.26647e-09
-1.06882e-07
-6.63113e-09
-1.03101e-07
-6.97199e-09
-9.915e-08
-7.28721e-09
-9.5043e-08
-7.57496e-09
-9.07962e-08
-7.83339e-09
-8.64266e-08
-8.06073e-09
-8.19518e-08
-8.25519e-09
-7.73907e-08
-8.41504e-09
-7.27627e-08
-8.53862e-09
-6.80884e-08
-8.62432e-09
-6.3389e-08
-8.67062e-09
-5.86865e-08
-8.67606e-09
-5.40037e-08
-8.63932e-09
-4.93637e-08
-8.55918e-09
-4.47906e-08
-8.43454e-09
-4.03087e-08
-8.26449e-09
-3.59425e-08
-8.04829e-09
-3.1717e-08
-7.78543e-09
-2.76572e-08
-7.47566e-09
-2.37879e-08
-7.11903e-09
-2.01336e-08
-6.71597e-09
-1.67182e-08
-6.26737e-09
-1.35647e-08
-5.77469e-09
-1.06948e-08
-5.24011e-09
-8.12808e-09
-4.66678e-09
-5.88194e-09
-4.05906e-09
-3.97011e-09
-3.42301e-09
-2.40174e-09
-2.7669e-09
-1.17981e-09
-2.10216e-09
-2.99103e-10
-1.44452e-09
2.56664e-10
-8.15756e-10
5.18114e-10
-2.46141e-10
5.34649e-10
2.22452e-10
3.79188e-10
5.33044e-10
1.53024e-10
6.10132e-10
3.54564e-10
1.08406e-10
-4.52467e-10
2.09994e-10
-6.89065e-10
1.56707e-10
-4.30347e-10
-1.58158e-10
1.6855e-10
-8.10734e-10
9.96081e-10
-1.85259e-09
1.96956e-09
-3.31566e-09
3.02747e-09
-5.21615e-09
4.12441e-09
-7.55804e-09
5.22694e-09
-1.03357e-08
6.31046e-09
-1.35361e-08
7.35691e-09
-1.71407e-08
8.35308e-09
-2.11267e-08
9.28941e-09
-2.54682e-08
1.01591e-08
-3.0137e-08
1.09573e-08
-3.51033e-08
1.1681e-08
-4.03363e-08
1.23283e-08
-4.58046e-08
1.28982e-08
-5.14765e-08
1.33905e-08
-5.73203e-08
1.38056e-08
-6.33047e-08
1.41446e-08
-6.93984e-08
1.44085e-08
-7.55712e-08
1.4599e-08
-8.1793e-08
1.47179e-08
-8.80348e-08
1.47672e-08
-9.42684e-08
1.47491e-08
-1.00467e-07
1.46658e-08
-1.06603e-07
1.45197e-08
-1.12652e-07
1.43133e-08
-1.18589e-07
1.4049e-08
-1.24391e-07
1.37294e-08
-1.30036e-07
1.3357e-08
-1.35503e-07
1.29345e-08
-1.40771e-07
1.24643e-08
-1.45821e-07
1.19491e-08
-1.50636e-07
1.13914e-08
-1.55198e-07
1.07939e-08
-1.59492e-07
1.01591e-08
-1.63503e-07
9.48962e-09
-1.67217e-07
8.78794e-09
-1.70622e-07
8.05668e-09
-1.73706e-07
7.29837e-09
-1.76459e-07
6.5156e-09
-1.78872e-07
5.71091e-09
-1.80936e-07
4.88686e-09
-1.82645e-07
4.04605e-09
-1.83992e-07
3.19108e-09
-1.84973e-07
2.32456e-09
-1.85584e-07
1.44914e-09
-1.85821e-07
5.67478e-10
-1.85685e-07
-3.1773e-10
-1.85174e-07
-1.20375e-09
-1.84289e-07
-2.08781e-09
-1.83032e-07
-2.96711e-09
-1.81408e-07
-3.83879e-09
-1.79419e-07
-4.69996e-09
-1.77072e-07
-5.54771e-09
-1.74375e-07
-6.37905e-09
-1.71334e-07
-7.19098e-09
-1.6796e-07
-7.98047e-09
-1.64264e-07
-8.74443e-09
-1.60257e-07
-9.47974e-09
-1.55954e-07
-1.01833e-08
-1.51368e-07
-1.08519e-08
-1.46517e-07
-1.14824e-08
-1.41417e-07
-1.20716e-08
-1.36088e-07
-1.26164e-08
-1.30549e-07
-1.31137e-08
-1.24823e-07
-1.35602e-08
-1.1893e-07
-1.3953e-08
-1.12896e-07
-1.42891e-08
-1.06746e-07
-1.45654e-08
-1.00505e-07
-1.47793e-08
-9.42017e-08
-1.49279e-08
-8.78635e-08
-1.50088e-08
-8.15201e-08
-1.50195e-08
-7.52016e-08
-1.49578e-08
-6.89391e-08
-1.48217e-08
-6.27643e-08
-1.46094e-08
-5.67091e-08
-1.43196e-08
-5.08062e-08
-1.39512e-08
-4.50882e-08
-1.35034e-08
-3.95878e-08
-1.29761e-08
-3.43373e-08
-1.23696e-08
-2.93683e-08
-1.16849e-08
-2.47117e-08
-1.0924e-08
-2.03967e-08
-1.00897e-08
-1.64506e-08
-9.1862e-09
-1.2898e-08
-8.21935e-09
-9.76004e-09
-7.19706e-09
-7.05303e-09
-6.13002e-09
-4.78739e-09
-5.03254e-09
-2.96579e-09
-3.92377e-09
-1.58096e-09
-2.82935e-09
-6.13101e-10
-1.78361e-09
-2.66891e-11
-8.32559e-10
2.33328e-10
-3.75656e-11
2.4562e-10
5.20763e-10
1.1767e-10
7.38077e-10
4.72228e-10
4.42623e-11
-4.96733e-10
-1.55332e-11
-6.29264e-10
-3.17145e-10
-1.28734e-10
-9.63127e-10
8.14531e-10
-2.02828e-09
2.06124e-09
-3.56438e-09
3.50565e-09
-5.60405e-09
5.06714e-09
-8.16416e-09
6.68453e-09
-1.12488e-08
8.31154e-09
-1.48515e-08
9.91317e-09
-1.89576e-08
1.14631e-08
-2.35461e-08
1.29416e-08
-2.85907e-08
1.4334e-08
-3.40612e-08
1.56296e-08
-3.99247e-08
1.68209e-08
-4.61462e-08
1.79025e-08
-5.2689e-08
1.88711e-08
-5.95156e-08
1.97248e-08
-6.6588e-08
2.04629e-08
-7.38681e-08
2.10857e-08
-8.13178e-08
2.15942e-08
-8.88993e-08
2.199e-08
-9.65756e-08
2.22753e-08
-1.0431e-07
2.24525e-08
-1.12068e-07
2.25246e-08
-1.19813e-07
2.24947e-08
-1.27513e-07
2.23659e-08
-1.35136e-07
2.2142e-08
-1.42649e-07
2.18264e-08
-1.50022e-07
2.14228e-08
-1.57228e-07
2.09351e-08
-1.64238e-07
2.03671e-08
-1.71027e-07
1.97227e-08
-1.77568e-07
1.90056e-08
-1.83839e-07
1.82199e-08
-1.89817e-07
1.73695e-08
-1.95481e-07
1.64583e-08
-2.00812e-07
1.54902e-08
-2.05792e-07
1.4469e-08
-2.10403e-07
1.33988e-08
-2.14629e-07
1.22834e-08
-2.18458e-07
1.11268e-08
-2.21875e-07
9.93279e-09
-2.24869e-07
8.70535e-09
-2.27431e-07
7.44841e-09
-2.29551e-07
6.16591e-09
-2.31222e-07
4.86184e-09
-2.32437e-07
3.54021e-09
-2.33193e-07
2.20505e-09
-2.33486e-07
8.60454e-10
-2.33314e-07
-4.89462e-10
-2.32678e-07
-1.84052e-09
-2.31577e-07
-3.18848e-09
-2.30015e-07
-4.52906e-09
-2.27996e-07
-5.85791e-09
-2.25525e-07
-7.17061e-09
-2.2261e-07
-8.4627e-09
-2.1926e-07
-9.72965e-09
-2.15484e-07
-1.09669e-08
-2.11294e-07
-1.21698e-08
-2.06705e-07
-1.33336e-08
-2.01731e-07
-1.44536e-08
-1.96389e-07
-1.55252e-08
-1.90698e-07
-1.65434e-08
-1.84677e-07
-1.75034e-08
-1.78348e-07
-1.84006e-08
-1.71734e-07
-1.92301e-08
-1.64861e-07
-1.99872e-08
-1.57754e-07
-2.06672e-08
-1.50441e-07
-2.12654e-08
-1.42953e-07
-2.17775e-08
-1.35319e-07
-2.21989e-08
-1.27573e-07
-2.25256e-08
-1.19748e-07
-2.27535e-08
-1.11878e-07
-2.28787e-08
-1.03999e-07
-2.28978e-08
-9.61495e-08
-2.28076e-08
-8.83661e-08
-2.26051e-08
-8.06876e-08
-2.22879e-08
-7.31531e-08
-2.18541e-08
-6.5802e-08
-2.13023e-08
-5.86738e-08
-2.06316e-08
-5.18079e-08
-1.9842e-08
-4.5243e-08
-1.89345e-08
-3.9017e-08
-1.79109e-08
-3.31663e-08
-1.67746e-08
-2.77256e-08
-1.55304e-08
-2.27267e-08
-1.4185e-08
-1.81983e-08
-1.27477e-08
-1.41646e-08
-1.12308e-08
-1.06441e-08
-9.65048e-09
-7.6486e-09
-8.02806e-09
-5.18095e-09
-6.39141e-09
-3.2334e-09
-4.7769e-09
-1.78503e-09
-3.23198e-09
-7.99134e-10
-1.81846e-09
-2.20048e-10
-6.16644e-10
3.01975e-11
2.70523e-10
5.63191e-11
7.11946e-10
5.28548e-10
-3.36321e-11
-4.63094e-10
-2.89528e-10
-3.73361e-10
-8.86446e-10
4.68174e-10
-1.91601e-09
1.84411e-09
-3.44669e-09
3.59191e-09
-5.52654e-09
5.5855e-09
-8.18596e-09
7.72656e-09
-1.14403e-08
9.93889e-09
-1.52923e-08
1.21635e-08
-1.97339e-08
1.43548e-08
-2.47487e-08
1.64778e-08
-3.03128e-08
1.85057e-08
-3.63971e-08
2.04183e-08
-4.29679e-08
2.22003e-08
-4.99879e-08
2.38409e-08
-5.74176e-08
2.53322e-08
-6.52153e-08
2.66689e-08
-7.33385e-08
2.78479e-08
-8.17434e-08
2.88679e-08
-9.03863e-08
2.97286e-08
-9.92233e-08
3.04312e-08
-1.08211e-07
3.09775e-08
-1.17306e-07
3.13703e-08
-1.26466e-07
3.16127e-08
-1.3565e-07
3.17085e-08
-1.44817e-07
3.16619e-08
-1.53929e-07
3.14774e-08
-1.62946e-07
3.11596e-08
-1.71833e-07
3.07134e-08
-1.80554e-07
3.01441e-08
-1.89076e-07
2.94567e-08
-1.97365e-07
2.86565e-08
-2.05392e-07
2.77491e-08
-2.13126e-07
2.67397e-08
-2.2054e-07
2.56338e-08
-2.27607e-07
2.44369e-08
-2.34303e-07
2.31544e-08
-2.40605e-07
2.17919e-08
-2.46491e-07
2.03548e-08
-2.51941e-07
1.88487e-08
-2.56936e-07
1.7279e-08
-2.6146e-07
1.56512e-08
-2.65499e-07
1.39709e-08
-2.69037e-07
1.22435e-08
-2.72063e-07
1.04747e-08
-2.74567e-07
8.66995e-09
-2.7654e-07
6.8349e-09
-2.77975e-07
4.97521e-09
-2.78867e-07
3.09657e-09
-2.79211e-07
1.20474e-09
-2.79006e-07
-6.94464e-10
-2.78251e-07
-2.59515e-09
-2.76949e-07
-4.49135e-09
-2.75101e-07
-6.37702e-09
-2.72712e-07
-8.24605e-09
-2.69791e-07
-1.00922e-08
-2.66344e-07
-1.19093e-08
-2.62383e-07
-1.36908e-08
-2.5792e-07
-1.54304e-08
-2.52968e-07
-1.71215e-08
-2.47544e-07
-1.87576e-08
-2.41665e-07
-2.03321e-08
-2.35352e-07
-2.18382e-08
-2.28626e-07
-2.32694e-08
-2.21511e-07
-2.46188e-08
-2.14032e-07
-2.58798e-08
-2.06216e-07
-2.70458e-08
-1.98093e-07
-2.81101e-08
-1.89694e-07
-2.90663e-08
-1.81052e-07
-2.99079e-08
-1.722e-07
-3.06287e-08
-1.63177e-07
-3.12228e-08
-1.54018e-07
-3.16843e-08
-1.44764e-07
-3.20076e-08
-1.35455e-07
-3.21877e-08
-1.26133e-07
-3.22197e-08
-1.16841e-07
-3.20993e-08
-1.07623e-07
-3.18227e-08
-9.85247e-08
-3.13867e-08
-8.959e-08
-3.07888e-08
-8.08649e-08
-3.00273e-08
-7.2395e-08
-2.91015e-08
-6.42254e-08
-2.80116e-08
-5.64005e-08
-2.67594e-08
-4.89636e-08
-2.53479e-08
-4.1956e-08
-2.37822e-08
-3.5417e-08
-2.20695e-08
-2.93823e-08
-2.02196e-08
-2.38842e-08
-1.82458e-08
-1.89497e-08
-1.61654e-08
-1.45996e-08
-1.40006e-08
-1.08472e-08
-1.17804e-08
-7.69672e-09
-9.54188e-09
-5.14134e-09
-7.33227e-09
-3.16131e-09
-5.21201e-09
-1.72172e-09
-3.25805e-09
-7.70181e-10
-1.56818e-09
-2.34344e-10
-2.6532e-10
-1.89123e-11
4.9651e-10
5.09637e-10
-1.1811e-10
-3.44986e-10
-5.901e-10
9.86321e-11
-1.51184e-09
1.38992e-09
-2.95999e-09
3.29226e-09
-4.99304e-09
5.62496e-09
-7.65229e-09
8.24474e-09
-1.09635e-08
1.10377e-08
-1.49385e-08
1.3914e-08
-1.95774e-08
1.68024e-08
-2.48696e-08
1.96471e-08
-3.07961e-08
2.24043e-08
-3.73304e-08
2.50401e-08
-4.44404e-08
2.75282e-08
-5.20889e-08
2.98488e-08
-6.0235e-08
3.1987e-08
-6.8835e-08
3.39322e-08
-7.78431e-08
3.56769e-08
-8.72118e-08
3.72166e-08
-9.68927e-08
3.85488e-08
-1.06837e-07
3.96729e-08
-1.16996e-07
4.05898e-08
-1.2732e-07
4.13016e-08
-1.37761e-07
4.18115e-08
-1.48272e-07
4.21235e-08
-1.58805e-07
4.22423e-08
-1.69317e-07
4.2173e-08
-1.79761e-07
4.19214e-08
-1.90095e-07
4.14935e-08
-2.00277e-07
4.08958e-08
-2.10268e-07
4.01347e-08
-2.20028e-07
3.92172e-08
-2.29522e-07
3.81501e-08
-2.38713e-07
3.69404e-08
-2.47569e-07
3.55954e-08
-2.56057e-07
3.41221e-08
-2.64148e-07
3.25279e-08
-2.71813e-07
3.08199e-08
-2.79027e-07
2.90054e-08
-2.85764e-07
2.70918e-08
-2.92002e-07
2.50863e-08
-2.97719e-07
2.29963e-08
-3.02897e-07
2.0829e-08
-3.07518e-07
1.85918e-08
-3.11566e-07
1.6292e-08
-3.15029e-07
1.39371e-08
-3.17893e-07
1.15345e-08
-3.2015e-07
9.09159e-09
-3.21791e-07
6.616e-09
-3.22809e-07
4.11531e-09
-3.23202e-07
1.59718e-09
-3.22966e-07
-9.30633e-10
-3.221e-07
-3.46027e-09
-3.20608e-07
-5.9838e-09
-3.18492e-07
-8.49317e-09
-3.15758e-07
-1.09802e-08
-3.12413e-07
-1.34367e-08
-3.08468e-07
-1.58543e-08
-3.03934e-07
-1.82245e-08
-2.98826e-07
-2.05388e-08
-2.93159e-07
-2.27885e-08
-2.86952e-07
-2.4965e-08
-2.80224e-07
-2.70593e-08
-2.73e-07
-2.90628e-08
-2.65303e-07
-3.09665e-08
-2.5716e-07
-3.27616e-08
-2.486e-07
-3.44393e-08
-2.39655e-07
-3.59907e-08
-2.30358e-07
-3.74073e-08
-2.20744e-07
-3.86804e-08
-2.1085e-07
-3.98017e-08
-2.00716e-07
-4.0763e-08
-1.90382e-07
-4.15565e-08
-1.79892e-07
-4.21745e-08
-1.6929e-07
-4.261e-08
-1.58621e-07
-4.28562e-08
-1.47934e-07
-4.29071e-08
-1.37276e-07
-4.2757e-08
-1.26698e-07
-4.24011e-08
-1.16249e-07
-4.18356e-08
-1.0598e-07
-4.10575e-08
-9.59429e-08
-4.00647e-08
-8.61877e-08
-3.88567e-08
-7.6765e-08
-3.74343e-08
-6.77242e-08
-3.58001e-08
-5.91133e-08
-3.39589e-08
-5.0978e-08
-3.19175e-08
-4.33615e-08
-2.96859e-08
-3.63036e-08
-2.72776e-08
-2.98395e-08
-2.47099e-08
-2.39992e-08
-2.20057e-08
-1.88059e-08
-1.91938e-08
-1.42754e-08
-1.6311e-08
-1.0414e-08
-1.34033e-08
-7.21733e-09
-1.05289e-08
-4.66877e-09
-7.76058e-09
-2.73767e-09
-5.18915e-09
-1.37786e-09
-2.92799e-09
-5.26142e-10
-1.11704e-09
-1.00879e-10
7.12514e-11
4.08753e-10
-2.04849e-10
-1.40138e-10
-9.02931e-10
7.96732e-10
-2.16637e-09
2.65335e-09
-4.05474e-09
5.18063e-09
-6.6142e-09
8.18443e-09
-9.87711e-09
1.15076e-08
-1.38626e-08
1.50232e-08
-1.85775e-08
1.86289e-08
-2.40177e-08
2.22426e-08
-3.01694e-08
2.57987e-08
-3.70102e-08
2.92452e-08
-4.45108e-08
3.25406e-08
-5.26356e-08
3.5653e-08
-6.13442e-08
3.85574e-08
-7.05922e-08
4.12351e-08
-8.03322e-08
4.36722e-08
-9.05142e-08
4.58589e-08
-1.01087e-07
4.7789e-08
-1.11997e-07
4.94589e-08
-1.23191e-07
5.08673e-08
-1.34616e-07
5.20148e-08
-1.46218e-07
5.29037e-08
-1.57944e-07
5.35377e-08
-1.69742e-07
5.39214e-08
-1.8156e-07
5.40603e-08
-1.93348e-07
5.3961e-08
-2.05057e-07
5.36303e-08
-2.16639e-07
5.30758e-08
-2.28049e-07
5.23053e-08
-2.39241e-07
5.13271e-08
-2.50174e-07
5.01498e-08
-2.60806e-07
4.87819e-08
-2.71098e-07
4.72325e-08
-2.81013e-07
4.55104e-08
-2.90516e-07
4.36248e-08
-2.99573e-07
4.15849e-08
-3.08153e-07
3.93999e-08
-3.16226e-07
3.7079e-08
-3.23766e-07
3.46315e-08
-3.30746e-07
3.20667e-08
-3.37144e-07
2.93939e-08
-3.42938e-07
2.66225e-08
-3.48108e-07
2.37619e-08
-3.52637e-07
2.08214e-08
-3.5651e-07
1.78105e-08
-3.59715e-07
1.47388e-08
-3.62239e-07
1.16157e-08
-3.64074e-07
8.45093e-09
-3.65213e-07
5.25422e-09
-3.65651e-07
2.03537e-09
-3.65386e-07
-1.1957e-09
-3.64417e-07
-4.42896e-09
-3.62747e-07
-7.65425e-09
-3.60378e-07
-1.08613e-08
-3.57319e-07
-1.40397e-08
-3.53577e-07
-1.71789e-08
-3.49163e-07
-2.02683e-08
-3.4409e-07
-2.3297e-08
-3.38375e-07
-2.62542e-08
-3.32035e-07
-2.91288e-08
-3.2509e-07
-3.19098e-08
-3.17563e-07
-3.45859e-08
-3.0948e-07
-3.7146e-08
-3.00868e-07
-3.95788e-08
-2.91756e-07
-4.18731e-08
-2.82178e-07
-4.40177e-08
-2.72167e-07
-4.60014e-08
-2.61761e-07
-4.78132e-08
-2.50999e-07
-4.94425e-08
-2.39922e-07
-5.08786e-08
-2.28574e-07
-5.21112e-08
-2.17e-07
-5.31305e-08
-2.05248e-07
-5.3927e-08
-1.93366e-07
-5.44917e-08
-1.81406e-07
-5.48164e-08
-1.69419e-07
-5.48935e-08
-1.5746e-07
-5.47161e-08
-1.45583e-07
-5.42785e-08
-1.33842e-07
-5.35759e-08
-1.22295e-07
-5.26049e-08
-1.10996e-07
-5.13633e-08
-1.00002e-07
-4.98509e-08
-8.93674e-08
-4.8069e-08
-7.9146e-08
-4.60215e-08
-6.93903e-08
-4.37146e-08
-6.01502e-08
-4.11577e-08
-5.14725e-08
-3.83636e-08
-4.34005e-08
-3.53495e-08
-3.59728e-08
-3.21376e-08
-2.92224e-08
-2.87562e-08
-2.31756e-08
-2.52407e-08
-1.78509e-08
-2.16356e-08
-1.32581e-08
-1.79961e-08
-9.39648e-09
-1.43905e-08
-6.25413e-09
-1.09029e-08
-3.80661e-09
-7.63668e-09
-2.01613e-09
-4.71848e-09
-8.30941e-10
-2.30223e-09
-1.85331e-10
-5.7436e-10
2.23415e-10
-2.91398e-10
1.51261e-10
-1.21905e-09
1.72439e-09
-2.83205e-09
4.26635e-09
-5.17232e-09
7.5209e-09
-8.27235e-09
1.12845e-08
-1.2154e-08
1.53893e-08
-1.68284e-08
1.96976e-08
-2.22961e-08
2.40965e-08
-2.85476e-08
2.84941e-08
-3.55649e-08
3.2816e-08
-4.33217e-08
3.7002e-08
-5.17851e-08
4.1004e-08
-6.09162e-08
4.4784e-08
-7.0671e-08
4.83122e-08
-8.10016e-08
5.15657e-08
-9.1857e-08
5.45276e-08
-1.03184e-07
5.71854e-08
-1.14926e-07
5.95311e-08
-1.27026e-07
6.15598e-08
-1.39429e-07
6.32694e-08
-1.52074e-07
6.46603e-08
-1.64905e-07
6.57349e-08
-1.77865e-07
6.6497e-08
-1.90895e-07
6.69522e-08
-2.03942e-07
6.7107e-08
-2.1695e-07
6.69688e-08
-2.29866e-07
6.65461e-08
-2.42638e-07
6.58477e-08
-2.55216e-07
6.48833e-08
-2.67551e-07
6.36628e-08
-2.79598e-07
6.21965e-08
-2.91311e-07
6.04952e-08
-3.02648e-07
5.85695e-08
-3.13569e-07
5.64306e-08
-3.24033e-07
5.40897e-08
-3.34006e-07
5.15579e-08
-3.43453e-07
4.88466e-08
-3.52341e-07
4.59673e-08
-3.60641e-07
4.29314e-08
-3.68325e-07
3.97503e-08
-3.75367e-07
3.64357e-08
-3.81743e-07
3.2999e-08
-3.87433e-07
2.94519e-08
-3.92418e-07
2.5806e-08
-3.9668e-07
2.20731e-08
-4.00206e-07
1.82649e-08
-4.02984e-07
1.43932e-08
-4.05003e-07
1.047e-08
-4.06256e-07
6.50745e-09
-4.06739e-07
2.51759e-09
-4.06447e-07
-1.48726e-09
-4.05381e-07
-5.49467e-09
-4.03543e-07
-9.49205e-09
-4.00938e-07
-1.34667e-08
-3.97572e-07
-1.74057e-08
-3.93455e-07
-2.12961e-08
-3.88599e-07
-2.51246e-08
-3.83018e-07
-2.88779e-08
-3.76729e-07
-3.25426e-08
-3.69753e-07
-3.61051e-08
-3.62111e-07
-3.95516e-08
-3.53829e-07
-4.28683e-08
-3.44933e-07
-4.60415e-08
-3.35455e-07
-4.90573e-08
-3.25426e-07
-5.19019e-08
-3.14882e-07
-5.45614e-08
-3.03861e-07
-5.70223e-08
-2.92403e-07
-5.92711e-08
-2.80552e-07
-6.12945e-08
-2.6835e-07
-6.30796e-08
-2.55848e-07
-6.46139e-08
-2.43093e-07
-6.58854e-08
-2.30137e-07
-6.68824e-08
-2.17035e-07
-6.75943e-08
-2.0384e-07
-6.80109e-08
-1.90611e-07
-6.81231e-08
-1.77404e-07
-6.79229e-08
-1.64279e-07
-6.74034e-08
-1.51296e-07
-6.6559e-08
-1.38515e-07
-6.53858e-08
-1.25997e-07
-6.38817e-08
-1.13801e-07
-6.20466e-08
-1.01987e-07
-5.98827e-08
-9.06135e-08
-5.73952e-08
-7.97362e-08
-5.4592e-08
-6.94089e-08
-5.14849e-08
-5.96824e-08
-4.80901e-08
-5.06033e-08
-4.44286e-08
-4.22138e-08
-4.05272e-08
-3.45501e-08
-3.64198e-08
-2.76422e-08
-3.21486e-08
-2.15121e-08
-2.77656e-08
-1.61738e-08
-2.33344e-08
-1.16316e-08
-1.89328e-08
-7.87938e-09
-1.46551e-08
-4.9005e-09
-1.06156e-08
-2.66692e-09
-6.95207e-09
-1.13969e-09
-3.82945e-09
-2.69784e-10
-1.44427e-09
-4.63717e-11
-3.7639e-10
5.27642e-10
-1.53292e-09
2.88092e-09
-3.49729e-09
6.23073e-09
-6.29391e-09
1.03175e-08
-9.94119e-09
1.49317e-08
-1.44497e-08
1.98979e-08
-1.98214e-08
2.50693e-08
-2.60494e-08
3.03245e-08
-3.31183e-08
3.5563e-08
-4.10047e-08
4.07025e-08
-4.96781e-08
4.56754e-08
-5.91012e-08
5.04272e-08
-6.92315e-08
5.49143e-08
-8.00213e-08
5.9102e-08
-9.14192e-08
6.29636e-08
-1.0337e-07
6.64788e-08
-1.15818e-07
6.96326e-08
-1.28702e-07
7.24151e-08
-1.41962e-07
7.482e-08
-1.55537e-07
7.68445e-08
-1.69365e-07
7.84885e-08
-1.83385e-07
7.97544e-08
-1.97534e-07
8.06465e-08
-2.11753e-07
8.1171e-08
-2.25981e-07
8.13354e-08
-2.40161e-07
8.11483e-08
-2.54234e-07
8.06195e-08
-2.68146e-07
7.97595e-08
-2.81842e-07
7.85796e-08
-2.95271e-07
7.70916e-08
-3.08382e-07
7.53077e-08
-3.21128e-07
7.32407e-08
-3.33462e-07
7.09035e-08
-3.4534e-07
6.83092e-08
-3.56722e-07
6.54712e-08
-3.67567e-07
6.24031e-08
-3.77839e-07
5.91185e-08
-3.87503e-07
5.56311e-08
-3.96526e-07
5.19546e-08
-4.04879e-07
4.8103e-08
-4.12533e-07
4.40902e-08
-4.19464e-07
3.993e-08
-4.25649e-07
3.56365e-08
-4.31066e-07
3.12238e-08
-4.35699e-07
2.6706e-08
-4.39532e-07
2.20974e-08
-4.42551e-07
1.74123e-08
-4.44746e-07
1.2665e-08
-4.46109e-07
7.87031e-09
-4.46634e-07
3.04277e-09
-4.46319e-07
-1.80273e-09
-4.45162e-07
-6.65117e-09
-4.43167e-07
-1.14874e-08
-4.40338e-07
-1.6296e-08
-4.36682e-07
-2.10614e-08
-4.3221e-07
-2.57679e-08
-4.26935e-07
-3.03996e-08
-4.20872e-07
-3.49405e-08
-4.14041e-07
-3.93742e-08
-4.06461e-07
-4.36844e-08
-3.98158e-07
-4.78546e-08
-3.89159e-07
-5.18682e-08
-3.79491e-07
-5.57086e-08
-3.6919e-07
-5.93591e-08
-3.58288e-07
-6.28031e-08
-3.46826e-07
-6.60241e-08
-3.34842e-07
-6.90057e-08
-3.22382e-07
-7.17317e-08
-3.0949e-07
-7.41865e-08
-2.96215e-07
-7.63544e-08
-2.82608e-07
-7.82205e-08
-2.68723e-07
-7.97705e-08
-2.54615e-07
-8.09907e-08
-2.40341e-07
-8.18684e-08
-2.2596e-07
-8.23915e-08
-2.11534e-07
-8.25494e-08
-1.97124e-07
-8.23327e-08
-1.82794e-07
-8.17333e-08
-1.68608e-07
-8.0745e-08
-1.54631e-07
-7.93634e-08
-1.40926e-07
-7.75863e-08
-1.27559e-07
-7.54139e-08
-1.14592e-07
-7.28494e-08
-1.02088e-07
-6.98991e-08
-9.01071e-08
-6.6573e-08
-7.87064e-08
-6.28856e-08
-6.79405e-08
-5.88561e-08
-5.78597e-08
-5.45094e-08
-4.85097e-08
-4.98771e-08
-3.99308e-08
-4.49988e-08
-3.21566e-08
-3.99228e-08
-2.52139e-08
-3.47083e-08
-1.91213e-08
-2.9427e-08
-1.3889e-08
-2.41651e-08
-9.51807e-09
-1.9026e-08
-6.00032e-09
-1.41333e-08
-3.31843e-09
-9.63395e-09
-1.44677e-09
-5.70111e-09
-3.52834e-10
-2.53821e-09
-3.99204e-10
-4.59091e-10
9.86736e-10
-1.8413e-09
4.26313e-09
-4.15479e-09
8.54421e-09
-7.40731e-09
1.357e-08
-1.16031e-08
1.91276e-08
-1.67412e-08
2.50359e-08
-2.28136e-08
3.11417e-08
-2.98054e-08
3.73163e-08
-3.76945e-08
4.34521e-08
-4.64515e-08
4.94595e-08
-5.60408e-08
5.52646e-08
-6.64206e-08
6.08071e-08
-7.75442e-08
6.60379e-08
-8.93601e-08
7.09179e-08
-1.01813e-07
7.54165e-08
-1.14844e-07
7.95102e-08
-1.28393e-07
8.31816e-08
-1.42397e-07
8.64189e-08
-1.56791e-07
8.92143e-08
-1.71511e-07
9.15643e-08
-1.86491e-07
9.34683e-08
-2.01666e-07
9.49288e-08
-2.16969e-07
9.59505e-08
-2.32339e-07
9.65402e-08
-2.4771e-07
9.67064e-08
-2.6302e-07
9.6459e-08
-2.7821e-07
9.58091e-08
-2.9322e-07
9.47691e-08
-3.07992e-07
9.33518e-08
-3.22471e-07
9.1571e-08
-3.36605e-07
8.94411e-08
-3.50341e-07
8.69768e-08
-3.6363e-07
8.41932e-08
-3.76427e-07
8.1106e-08
-3.88687e-07
7.77307e-08
-4.00367e-07
7.40833e-08
-4.11428e-07
7.01798e-08
-4.21833e-07
6.60365e-08
-4.31548e-07
6.16695e-08
-4.40541e-07
5.70953e-08
-4.48781e-07
5.23303e-08
-4.56242e-07
4.7391e-08
-4.62899e-07
4.22939e-08
-4.68731e-07
3.70558e-08
-4.73719e-07
3.16933e-08
-4.77845e-07
2.62234e-08
-4.81095e-07
2.0663e-08
-4.83459e-07
1.50291e-08
-4.84928e-07
9.33918e-09
-4.85496e-07
3.61048e-09
-4.85159e-07
-2.13936e-09
-4.83918e-07
-7.89256e-09
-4.81774e-07
-1.36311e-08
-4.78733e-07
-1.93369e-08
-4.74803e-07
-2.49915e-08
-4.69995e-07
-3.05762e-08
-4.64322e-07
-3.60724e-08
-4.57802e-07
-4.14608e-08
-4.50453e-07
-4.67225e-08
-4.423e-07
-5.18379e-08
-4.33367e-07
-5.67877e-08
-4.23683e-07
-6.15522e-08
-4.1328e-07
-6.61119e-08
-4.02192e-07
-7.0447e-08
-3.90457e-07
-7.45381e-08
-3.78115e-07
-7.83656e-08
-3.65211e-07
-8.19103e-08
-3.51789e-07
-8.51533e-08
-3.379e-07
-8.80759e-08
-3.23594e-07
-9.066e-08
-3.08927e-07
-9.28881e-08
-2.93954e-07
-9.47435e-08
-2.78734e-07
-9.62101e-08
-2.6333e-07
-9.7273e-08
-2.47803e-07
-9.79185e-08
-2.32218e-07
-9.81341e-08
-2.16642e-07
-9.79089e-08
-2.01141e-07
-9.7234e-08
-1.85784e-07
-9.6102e-08
-1.70639e-07
-9.45082e-08
-1.55775e-07
-9.24504e-08
-1.4126e-07
-8.99292e-08
-1.27161e-07
-8.69486e-08
-1.13544e-07
-8.35162e-08
-1.00472e-07
-7.96442e-08
-8.80085e-08
-7.53495e-08
-7.62102e-08
-7.06544e-08
-6.51316e-08
-6.55879e-08
-5.48225e-08
-6.01863e-08
-4.53272e-08
-5.44942e-08
-3.66839e-08
-4.85661e-08
-2.89242e-08
-4.2468e-08
-2.20726e-08
-3.62786e-08
-1.61458e-08
-3.0092e-08
-1.11525e-08
-2.40193e-08
-7.09371e-09
-1.81921e-08
-3.96329e-09
-1.27644e-08
-1.74886e-09
-7.91555e-09
-4.33737e-10
-3.85333e-09
-8.32944e-10
-5.39183e-10
1.52592e-09
-2.14246e-09
5.8664e-09
-4.80037e-09
1.12021e-08
-8.50501e-09
1.72747e-08
-1.3247e-08
2.38695e-08
-1.90134e-08
3.08023e-08
-2.57864e-08
3.79147e-08
-3.35425e-08
4.50724e-08
-4.2252e-08
5.21615e-08
-5.18792e-08
5.90868e-08
-6.2383e-08
6.57684e-08
-7.37166e-08
7.21407e-08
-8.58286e-08
7.81499e-08
-9.86633e-08
8.37526e-08
-1.12161e-07
8.89147e-08
-1.26261e-07
9.36095e-08
-1.40897e-07
9.78176e-08
-1.56003e-07
1.01525e-07
-1.71511e-07
1.04723e-07
-1.87353e-07
1.07406e-07
-2.03459e-07
1.09575e-07
-2.19762e-07
1.11231e-07
-2.36191e-07
1.1238e-07
-2.5268e-07
1.13029e-07
-2.69161e-07
1.13188e-07
-2.8557e-07
1.12867e-07
-3.01842e-07
1.12081e-07
-3.17914e-07
1.10841e-07
-3.33726e-07
1.09164e-07
-3.49221e-07
1.07065e-07
-3.6434e-07
1.04561e-07
-3.79032e-07
1.01668e-07
-3.93242e-07
9.8404e-08
-4.06923e-07
9.4787e-08
-4.20028e-07
9.08351e-08
-4.32511e-07
8.65666e-08
-4.44331e-07
8.20003e-08
-4.5545e-07
7.71548e-08
-4.65829e-07
7.20491e-08
-4.75436e-07
6.67022e-08
-4.84239e-07
6.11332e-08
-4.92209e-07
5.53613e-08
-4.99321e-07
4.94058e-08
-5.05551e-07
4.3286e-08
-5.1088e-07
3.70216e-08
-5.15288e-07
3.0632e-08
-5.18763e-07
2.41372e-08
-5.2129e-07
1.7557e-08
-5.22863e-07
1.09114e-08
-5.23473e-07
4.22086e-09
-5.23118e-07
-2.49423e-09
-5.21797e-07
-9.21315e-09
-5.19514e-07
-1.5915e-08
-5.16272e-07
-2.25785e-08
-5.12081e-07
-2.91823e-08
-5.06953e-07
-3.57048e-08
-5.00901e-07
-4.2124e-08
-4.93944e-07