/*--------------------------------*- C++ -*----------------------------------*\
| =========                 |                                                 |
| \\      /  F ield         | OpenFOAM: The Open Source CFD Toolbox           |
|  \\    /   O peration     | Version:  2212                                  |
|   \\  /    A nd           | Website:  www.openfoam.com                      |
|    \\/     M anipulation  |                                                 |
\*---------------------------------------------------------------------------*/
FoamFile
{
    version     2.0;
    format      ascii;
    arch        "LSB;label=32;scalar=64";
    class       volVectorField;
    location    "0.0365";
    object      U;
}
// * * * * * * * * * * * * * * * * * * * * * * * * * * * * * * * * * * * * * //

dimensions      [0 1 -1 0 0 0 0];

internalField   nonuniform List<vector> 
10000
(
(2.01672e-06 -3.46336e-06 0)
(1.302e-05 -7.4576e-06 0)
(2.83085e-05 -7.47932e-06 0)
(4.23201e-05 -6.04399e-06 0)
(4.99604e-05 -3.6649e-06 0)
(4.99711e-05 -8.68439e-07 0)
(4.14389e-05 2.07258e-06 0)
(2.40162e-05 5.00499e-06 0)
(-2.29182e-06 7.84358e-06 0)
(-3.72478e-05 1.05437e-05 0)
(-8.04849e-05 1.30819e-05 0)
(-0.000131547 1.54421e-05 0)
(-0.000189912 1.76126e-05 0)
(-0.000255025 1.9587e-05 0)
(-0.000326309 2.13659e-05 0)
(-0.000403174 2.29571e-05 0)
(-0.00048503 2.43664e-05 0)
(-0.000571287 2.55954e-05 0)
(-0.000661361 2.66481e-05 0)
(-0.00075468 2.75273e-05 0)
(-0.000850683 2.82372e-05 0)
(-0.000948823 2.87863e-05 0)
(-0.00104857 2.91805e-05 0)
(-0.0011494 2.94244e-05 0)
(-0.00125082 2.95248e-05 0)
(-0.00135236 2.94853e-05 0)
(-0.00145353 2.93105e-05 0)
(-0.00155391 2.9009e-05 0)
(-0.00165305 2.85872e-05 0)
(-0.00175056 2.80496e-05 0)
(-0.00184605 2.74023e-05 0)
(-0.00193913 2.66505e-05 0)
(-0.00202947 2.57988e-05 0)
(-0.00211673 2.48536e-05 0)
(-0.00220059 2.38209e-05 0)
(-0.00228076 2.27049e-05 0)
(-0.00235695 2.15101e-05 0)
(-0.00242891 2.02427e-05 0)
(-0.00249638 1.89091e-05 0)
(-0.00255915 1.75128e-05 0)
(-0.002617 1.60575e-05 0)
(-0.00266974 1.45492e-05 0)
(-0.00271719 1.29941e-05 0)
(-0.00275921 1.13969e-05 0)
(-0.00279564 9.7609e-06 0)
(-0.00282637 8.09037e-06 0)
(-0.00285128 6.39183e-06 0)
(-0.00287029 4.67147e-06 0)
(-0.00288334 2.93397e-06 0)
(-0.00289036 1.18312e-06 0)
(-0.00289132 -5.76752e-07 0)
(-0.00288621 -2.33962e-06 0)
(-0.00287502 -4.09904e-06 0)
(-0.00285778 -5.84948e-06 0)
(-0.00283453 -7.58589e-06 0)
(-0.00280532 -9.30327e-06 0)
(-0.00277025 -1.09961e-05 0)
(-0.00272939 -1.26577e-05 0)
(-0.00268288 -1.42818e-05 0)
(-0.00263086 -1.58629e-05 0)
(-0.00257348 -1.73955e-05 0)
(-0.00251093 -1.88734e-05 0)
(-0.00244341 -2.02906e-05 0)
(-0.00237115 -2.16402e-05 0)
(-0.00229439 -2.29149e-05 0)
(-0.00221341 -2.41085e-05 0)
(-0.00212849 -2.52148e-05 0)
(-0.00203995 -2.62274e-05 0)
(-0.00194812 -2.71396e-05 0)
(-0.00185338 -2.79446e-05 0)
(-0.00175609 -2.8635e-05 0)
(-0.00165666 -2.92038e-05 0)
(-0.00155552 -2.96444e-05 0)
(-0.00145311 -2.9951e-05 0)
(-0.0013499 -3.01176e-05 0)
(-0.00124637 -3.01384e-05 0)
(-0.00114303 -3.0008e-05 0)
(-0.0010404 -2.97212e-05 0)
(-0.000939012 -2.92723e-05 0)
(-0.000839418 -2.86561e-05 0)
(-0.000742184 -2.78681e-05 0)
(-0.000647884 -2.69046e-05 0)
(-0.000557103 -2.57622e-05 0)
(-0.000470431 -2.44382e-05 0)
(-0.00038846 -2.29303e-05 0)
(-0.000311783 -2.12369e-05 0)
(-0.000240989 -1.93571e-05 0)
(-0.000176652 -1.7292e-05 0)
(-0.00011933 -1.5045e-05 0)
(-6.95479e-05 -1.26225e-05 0)
(-2.77864e-05 -1.00354e-05 0)
(5.54386e-06 -7.3027e-06 0)
(3.01351e-05 -4.45578e-06 0)
(4.58269e-05 -1.54624e-06 0)
(5.26987e-05 1.32701e-06 0)
(5.12028e-05 3.99957e-06 0)
(4.23451e-05 6.17438e-06 0)
(2.80933e-05 7.30856e-06 0)
(1.25687e-05 6.45023e-06 0)
(2.60088e-06 2.60167e-06 0)
(5.53162e-06 -1.25762e-05 0)
(2.43371e-05 -2.65251e-05 0)
(4.88473e-05 -2.6148e-05 0)
(6.61938e-05 -1.80059e-05 0)
(6.86994e-05 -5.06815e-06 0)
(5.2267e-05 1.05048e-05 0)
(1.44079e-05 2.73446e-05 0)
(-4.61371e-05 4.45797e-05 0)
(-0.000129711 6.16476e-05 0)
(-0.000236039 7.81846e-05 0)
(-0.000364406 9.3952e-05 0)
(-0.000513786 0.000108797 0)
(-0.00068295 0.000122613 0)
(-0.000870514 0.000135331 0)
(-0.001075 0.000146912 0)
(-0.00129489 0.000157338 0)
(-0.00152859 0.000166609 0)
(-0.00177453 0.000174731 0)
(-0.00203113 0.000181717 0)
(-0.0022968 0.000187587 0)
(-0.00257002 0.000192362 0)
(-0.00284925 0.000196069 0)
(-0.00313301 0.000198742 0)
(-0.00341987 0.000200412 0)
(-0.0037084 0.000201111 0)
(-0.00399727 0.000200874 0)
(-0.00428517 0.000199737 0)
(-0.00457081 0.000197735 0)
(-0.004853 0.000194905 0)
(-0.00513058 0.000191284 0)
(-0.00540243 0.00018691 0)
(-0.0056675 0.00018182 0)
(-0.00592478 0.000176048 0)
(-0.00617331 0.000169632 0)
(-0.00641219 0.000162606 0)
(-0.00664057 0.000155006 0)
(-0.00685764 0.000146868 0)
(-0.00706265 0.000138227 0)
(-0.0072549 0.00012912 0)
(-0.00743374 0.000119579 0)
(-0.00759856 0.000109638 0)
(-0.00774882 9.93328e-05 0)
(-0.00788401 8.86977e-05 0)
(-0.00800367 7.77666e-05 0)
(-0.00810742 6.65727e-05 0)
(-0.00819488 5.51504e-05 0)
(-0.00826578 4.3536e-05 0)
(-0.00831984 3.17653e-05 0)
(-0.00835687 1.98726e-05 0)
(-0.00837671 7.89248e-06 0)
(-0.00837928 -4.13959e-06 0)
(-0.00836453 -1.61864e-05 0)
(-0.00833246 -2.82095e-05 0)
(-0.00828314 -4.01713e-05 0)
(-0.00821669 -5.20341e-05 0)
(-0.00813327 -6.37594e-05 0)
(-0.00803313 -7.53072e-05 0)
(-0.00791654 -8.6637e-05 0)
(-0.00778386 -9.7708e-05 0)
(-0.00763549 -0.00010848 0)
(-0.0074719 -0.000118911 0)
(-0.00729361 -0.000128959 0)
(-0.0071012 -0.000138581 0)
(-0.00689534 -0.000147732 0)
(-0.00667672 -0.000156369 0)
(-0.00644613 -0.000164447 0)
(-0.0062044 -0.000171924 0)
(-0.00595243 -0.000178756 0)
(-0.00569119 -0.000184897 0)
(-0.00542169 -0.000190304 0)
(-0.00514503 -0.000194931 0)
(-0.00486234 -0.000198737 0)
(-0.00457484 -0.000201679 0)
(-0.00428377 -0.000203719 0)
(-0.00399047 -0.000204818 0)
(-0.00369628 -0.000204939 0)
(-0.00340264 -0.000204049 0)
(-0.00311099 -0.000202114 0)
(-0.00282284 -0.000199104 0)
(-0.00253972 -0.000194993 0)
(-0.0022632 -0.000189757 0)
(-0.00199486 -0.000183379 0)
(-0.00173631 -0.000175845 0)
(-0.00148918 -0.000167149 0)
(-0.00125505 -0.00015729 0)
(-0.00103554 -0.000146275 0)
(-0.000832179 -0.000134125 0)
(-0.000646484 -0.000120874 0)
(-0.000479869 -0.000106578 0)
(-0.000333631 -9.13208e-05 0)
(-0.000208898 -7.5223e-05 0)
(-0.000106564 -5.84632e-05 0)
(-2.71875e-05 -4.13039e-05 0)
(2.91245e-05 -2.41368e-05 0)
(6.29305e-05 -7.55271e-06 0)
(7.57267e-05 7.53939e-06 0)
(7.0241e-05 1.97389e-05 0)
(5.09642e-05 2.68821e-05 0)
(2.57221e-05 2.57262e-05 0)
(6.43904e-06 1.25564e-05 0)
(6.89917e-06 -2.77303e-05 0)
(2.55489e-05 -4.99907e-05 0)
(4.47365e-05 -4.52535e-05 0)
(5.05121e-05 -2.2625e-05 0)
(3.34567e-05 1.14131e-05 0)
(-1.19677e-05 5.23131e-05 0)
(-8.92746e-05 9.69008e-05 0)
(-0.000200413 0.000142992 0)
(-0.000346107 0.000189073 0)
(-0.000526151 0.00023409 0)
(-0.00073967 0.000277318 0)
(-0.0009853 0.000318254 0)
(-0.00126131 0.000356549 0)
(-0.0015657 0.000391967 0)
(-0.0018963 0.000424352 0)
(-0.00225082 0.000453613 0)
(-0.00262688 0.000479705 0)
(-0.00302206 0.000502621 0)
(-0.00343393 0.000522376 0)
(-0.00386006 0.000539006 0)
(-0.00429803 0.000552566 0)
(-0.00474547 0.000563119 0)
(-0.00520005 0.000570739 0)
(-0.0056595 0.000575509 0)
(-0.0061216 0.00057752 0)
(-0.00658419 0.000576861 0)
(-0.00704519 0.000573629 0)
(-0.00750261 0.000567924 0)
(-0.00795451 0.000559845 0)
(-0.00839903 0.000549495 0)
(-0.0088344 0.000536977 0)
(-0.00925893 0.000522395 0)
(-0.009671 0.000505852 0)
(-0.0100691 0.000487449 0)
(-0.0104517 0.000467289 0)
(-0.0108175 0.000445473 0)
(-0.0111653 0.000422102 0)
(-0.0114937 0.000397278 0)
(-0.0118016 0.000371102 0)
(-0.0120881 0.000343675 0)
(-0.0123521 0.000315095 0)
(-0.0125928 0.000285461 0)
(-0.0128093 0.000254873 0)
(-0.0130009 0.000223431 0)
(-0.013167 0.000191233 0)
(-0.013307 0.000158379 0)
(-0.0134205 0.000124971 0)
(-0.0135069 9.11115e-05 0)
(-0.0135661 5.69017e-05 0)
(-0.0135977 2.2444e-05 0)
(-0.0136016 -1.21566e-05 0)
(-0.0135778 -4.67941e-05 0)
(-0.0135262 -8.13604e-05 0)
(-0.013447 -0.000115746 0)
(-0.0133404 -0.000149841 0)
(-0.0132065 -0.000183532 0)
(-0.0130459 -0.000216706 0)
(-0.012859 -0.000249245 0)
(-0.0126463 -0.000281033 0)
(-0.0124085 -0.000311952 0)
(-0.0121464 -0.000341881 0)
(-0.0118607 -0.000370699 0)
(-0.0115526 -0.00039828 0)
(-0.0112228 -0.000424501 0)
(-0.0108728 -0.000449236 0)
(-0.0105036 -0.000472361 0)
(-0.0101166 -0.000493751 0)
(-0.00971331 -0.00051328 0)
(-0.00929522 -0.000530823 0)
(-0.00886397 -0.000546257 0)
(-0.0084213 -0.000559459 0)
(-0.00796903 -0.00057031 0)
(-0.00750908 -0.000578696 0)
(-0.00704345 -0.000584506 0)
(-0.00657423 -0.000587634 0)
(-0.00610358 -0.00058798 0)
(-0.00563374 -0.000585451 0)
(-0.00516702 -0.00057996 0)
(-0.00470577 -0.000571429 0)
(-0.00425241 -0.000559791 0)
(-0.00380939 -0.000544992 0)
(-0.00337919 -0.00052699 0)
(-0.00296431 -0.000505763 0)
(-0.00256725 -0.000481306 0)
(-0.00219047 -0.000453639 0)
(-0.00183641 -0.000422811 0)
(-0.00150742 -0.00038891 0)
(-0.00120574 -0.000352069 0)
(-0.000933449 -0.000312488 0)
(-0.000692428 -0.00027045 0)
(-0.000484248 -0.000226352 0)
(-0.000310089 -0.000180751 0)
(-0.0001706 -0.000134429 0)
(-6.57277e-05 -8.84926e-05 0)
(5.53261e-06 -4.45027e-05 0)
(4.54432e-05 -4.70119e-06 0)
(5.78304e-05 2.77249e-05 0)
(4.85333e-05 4.83104e-05 0)
(2.6979e-05 5.0989e-05 0)
(7.31164e-06 2.80748e-05 0)
(5.81406e-06 -4.08489e-05 0)
(1.82107e-05 -6.70831e-05 0)
(2.33491e-05 -5.10449e-05 0)
(7.37721e-06 -6.26587e-06 0)
(-3.93886e-05 5.75453e-05 0)
(-0.000123094 0.000133308 0)
(-0.000247754 0.000215859 0)
(-0.000415687 0.000301457 0)
(-0.000627833 0.000387401 0)
(-0.000884046 0.000471738 0)
(-0.00118334 0.000553054 0)
(-0.00152411 0.000630339 0)
(-0.00190424 0.000702878 0)
(-0.00232129 0.000770162 0)
(-0.00277252 0.000831846 0)
(-0.00325502 0.000887712 0)
(-0.00376575 0.000937628 0)
(-0.0043016 0.00098154 0)
(-0.0048594 0.00101945 0)
(-0.00543597 0.00105141 0)
(-0.00602816 0.00107749 0)
(-0.00663283 0.0010978 0)
(-0.0072469 0.00111247 0)
(-0.00786735 0.00112165 0)
(-0.00849125 0.00112549 0)
(-0.00911571 0.00112416 0)
(-0.00973797 0.00111785 0)
(-0.0103553 0.00110674 0)
(-0.0109652 0.00109102 0)
(-0.0115651 0.00107088 0)
(-0.0121527 0.00104652 0)
(-0.0127256 0.00101813 0)
(-0.0132817 0.000985922 0)
(-0.0138189 0.00095008 0)
(-0.0143353 0.000910807 0)
(-0.0148289 0.0008683 0)
(-0.0152982 0.000822758 0)
(-0.0157414 0.000774375 0)
(-0.0161569 0.000723349 0)
(-0.0165435 0.000669874 0)
(-0.0168998 0.000614146 0)
(-0.0172245 0.000556359 0)
(-0.0175166 0.000496708 0)
(-0.0177751 0.000435387 0)
(-0.0179992 0.000372592 0)
(-0.018188 0.00030852 0)
(-0.0183409 0.000243367 0)
(-0.0184574 0.000177332 0)
(-0.0185371 0.000110617 0)
(-0.0185795 4.34244e-05 0)
(-0.0185846 -2.40412e-05 0)
(-0.0185522 -9.15716e-05 0)
(-0.0184824 -0.000158957 0)
(-0.0183753 -0.000225984 0)
(-0.0182311 -0.000292434 0)
(-0.0180503 -0.000358088 0)
(-0.0178334 -0.000422723 0)
(-0.017581 -0.000486113 0)
(-0.0172938 -0.000548027 0)
(-0.0169729 -0.000608236 0)
(-0.0166191 -0.000666504 0)
(-0.0162336 -0.000722593 0)
(-0.0158177 -0.000776263 0)
(-0.0153729 -0.000827273 0)
(-0.0149007 -0.00087538 0)
(-0.0144027 -0.000920343 0)
(-0.0138807 -0.000961919 0)
(-0.0133368 -0.000999867 0)
(-0.012773 -0.00103395 0)
(-0.0121915 -0.00106392 0)
(-0.0115945 -0.00108956 0)
(-0.0109847 -0.00111064 0)
(-0.0103645 -0.00112694 0)
(-0.00973657 -0.00113825 0)
(-0.00910376 -0.00114437 0)
(-0.00846894 -0.00114511 0)
(-0.00783509 -0.0011403 0)
(-0.00720527 -0.00112978 0)
(-0.00658261 -0.00111341 0)
(-0.0059703 -0.00109108 0)
(-0.00537159 -0.00106269 0)
(-0.00478973 -0.00102819 0)
(-0.00422801 -0.00098754 0)
(-0.00368967 -0.000940764 0)
(-0.00317792 -0.000887925 0)
(-0.0026959 -0.000829152 0)
(-0.00224662 -0.000764651 0)
(-0.00183292 -0.000694724 0)
(-0.00145742 -0.000619801 0)
(-0.00112243 -0.000540472 0)
(-0.000829842 -0.000457549 0)
(-0.000581045 -0.000372133 0)
(-0.000376734 -0.00028572 0)
(-0.000216739 -0.00020035 0)
(-9.9776e-05 -0.000118801 0)
(-2.31545e-05 -4.48729e-05 0)
(1.75045e-05 1.62753e-05 0)
(2.86512e-05 5.77491e-05 0)
(2.01326e-05 7.05142e-05 0)
(6.23528e-06 4.24174e-05 0)
(3.6989e-06 -4.90157e-05 0)
(5.99365e-06 -7.02678e-05 0)
(-9.36341e-06 -3.47151e-05 0)
(-5.44905e-05 4.02243e-05 0)
(-0.000138466 0.000141888 0)
(-0.000267493 0.00026079 0)
(-0.000445674 0.000389791 0)
(-0.00067541 0.000523553 0)
(-0.00095768 0.000658093 0)
(-0.00129231 0.000790446 0)
(-0.0016782 0.000918406 0)
(-0.00211353 0.00104034 0)
(-0.00259588 0.00115505 0)
(-0.00312242 0.0012617 0)
(-0.00368997 0.00135966 0)
(-0.00429511 0.00144853 0)
(-0.00493424 0.00152807 0)
(-0.00560365 0.00159813 0)
(-0.00629955 0.00165868 0)
(-0.00701813 0.00170976 0)
(-0.00775555 0.00175146 0)
(-0.00850804 0.00178394 0)
(-0.00927185 0.00180737 0)
(-0.0100433 0.00182198 0)
(-0.0108188 0.001828 0)
(-0.0115948 0.0018257 0)
(-0.0123679 0.00181536 0)
(-0.0131348 0.00179725 0)
(-0.0138923 0.00177169 0)
(-0.0146374 0.00173897 0)
(-0.0153671 0.00169941 0)
(-0.0160785 0.00165332 0)
(-0.0167691 0.00160102 0)
(-0.0174362 0.00154283 0)
(-0.0180773 0.00147906 0)
(-0.0186903 0.00141003 0)
(-0.019273 0.00133607 0)
(-0.0198232 0.00125749 0)
(-0.0203392 0.00117461 0)
(-0.0208191 0.00108775 0)
(-0.0212613 0.000997225 0)
(-0.0216644 0.000903348 0)
(-0.022027 0.00080644 0)
(-0.0223479 0.000706819 0)
(-0.0226259 0.000604802 0)
(-0.0228602 0.00050071 0)
(-0.0230499 0.000394865 0)
(-0.0231943 0.000287592 0)
(-0.023293 0.000179218 0)
(-0.0233455 7.00753e-05 0)
(-0.0233516 -3.95034e-05 0)
(-0.0233112 -0.000149179 0)
(-0.0232242 -0.00025861 0)
(-0.023091 -0.000367446 0)
(-0.0229119 -0.000475335 0)
(-0.0226872 -0.000581919 0)
(-0.0224177 -0.000686836 0)
(-0.0221042 -0.000789717 0)
(-0.0217476 -0.000890192 0)
(-0.021349 -0.000987882 0)
(-0.0209098 -0.00108241 0)
(-0.0204312 -0.00117338 0)
(-0.019915 -0.00126042 0)
(-0.0193628 -0.00134313 0)
(-0.0187767 -0.00142113 0)
(-0.0181586 -0.00149401 0)
(-0.0175109 -0.0015614 0)
(-0.0168359 -0.0016229 0)
(-0.0161362 -0.00167813 0)
(-0.0154145 -0.00172672 0)
(-0.0146737 -0.00176829 0)
(-0.0139168 -0.00180248 0)
(-0.013147 -0.00182895 0)
(-0.0123676 -0.00184737 0)
(-0.0115819 -0.00185743 0)
(-0.0107936 -0.00185882 0)
(-0.0100063 -0.00185129 0)
(-0.00922366 -0.00183459 0)
(-0.0084496 -0.00180851 0)
(-0.00768797 -0.00177288 0)
(-0.00694271 -0.00172757 0)
(-0.00621777 -0.00167252 0)
(-0.00551709 -0.00160771 0)
(-0.0048446 -0.00153318 0)
(-0.00420413 -0.00144909 0)
(-0.00359941 -0.00135568 0)
(-0.00303401 -0.00125333 0)
(-0.00251128 -0.00114257 0)
(-0.00203426 -0.00102413 0)
(-0.00160562 -0.000899017 0)
(-0.00122753 -0.00076855 0)
(-0.000901543 -0.000634493 0)
(-0.000628438 -0.00049918 0)
(-0.000408025 -0.000365699 0)
(-0.000238932 -0.000238135 0)
(-0.000118346 -0.000121891 0)
(-4.1757e-05 -2.40756e-05 0)
(-2.62455e-06 4.60811e-05 0)
(8.42959e-06 7.67092e-05 0)
(4.16405e-06 5.15784e-05 0)
(1.10527e-06 -4.98086e-05 0)
(-8.94752e-06 -5.51231e-05 0)
(-4.90334e-05 9.31204e-06 0)
(-0.000128458 0.000122957 0)
(-0.000255025 0.000270588 0)
(-0.000434577 0.000440537 0)
(-0.00067098 0.000623807 0)
(-0.000966453 0.000813497 0)
(-0.00132184 0.00100434 0)
(-0.00173683 0.00119229 0)
(-0.00221016 0.00137431 0)
(-0.00273976 0.00154806 0)
(-0.00332297 0.00171182 0)
(-0.00395661 0.0018643 0)
(-0.0046371 0.00200459 0)
(-0.0053606 0.00213204 0)
(-0.00612302 0.00224622 0)
(-0.00692014 0.0023469 0)
(-0.00774764 0.00243398 0)
(-0.00860112 0.00250746 0)
(-0.0094762 0.00256745 0)
(-0.0103685 0.00261414 0)
(-0.0112737 0.00264776 0)
(-0.0121875 0.0026686 0)
(-0.0131057 0.002677 0)
(-0.0140243 0.00267331 0)
(-0.0149392 0.00265791 0)
(-0.0158465 0.00263122 0)
(-0.0167427 0.00259367 0)
(-0.0176239 0.00254568 0)
(-0.0184869 0.0024877 0)
(-0.0193282 0.00242018 0)
(-0.0201448 0.00234359 0)
(-0.0209335 0.00225837 0)
(-0.0216916 0.002165 0)
(-0.0224163 0.00206394 0)
(-0.0231051 0.00195565 0)
(-0.0237555 0.0018406 0)
(-0.0243654 0.00171925 0)
(-0.0249327 0.00159207 0)
(-0.0254554 0.00145951 0)
(-0.0259318 0.00132206 0)
(-0.0263603 0.00118016 0)
(-0.0267394 0.00103429 0)
(-0.0270679 0.000884912 0)
(-0.0273446 0.0007325 0)
(-0.0275687 0.000577525 0)
(-0.0277393 0.000420466 0)
(-0.0278557 0.000261803 0)
(-0.0279176 0.000102022 0)
(-0.0279245 -5.83874e-05 0)
(-0.0278766 -0.000218928 0)
(-0.0277736 -0.000379096 0)
(-0.027616 -0.000538381 0)
(-0.027404 -0.000696266 0)
(-0.0271384 -0.000852227 0)
(-0.0268197 -0.00100573 0)
(-0.026449 -0.00115625 0)
(-0.0260275 -0.00130322 0)
(-0.0255564 -0.00144611 0)
(-0.0250371 -0.00158435 0)
(-0.0244715 -0.00171739 0)
(-0.0238615 -0.00184466 0)
(-0.0232089 -0.00196559 0)
(-0.0225163 -0.00207962 0)
(-0.0217859 -0.00218617 0)
(-0.0210204 -0.00228469 0)
(-0.0202227 -0.0023746 0)
(-0.0193958 -0.00245537 0)
(-0.0185429 -0.00252643 0)
(-0.0176674 -0.00258728 0)
(-0.0167727 -0.00263737 0)
(-0.0158626 -0.00267623 0)
(-0.014941 -0.00270338 0)
(-0.0140118 -0.00271838 0)
(-0.0130792 -0.00272081 0)
(-0.0121474 -0.00271029 0)
(-0.0112208 -0.0026865 0)
(-0.0103039 -0.00264915 0)
(-0.00940109 -0.00259802 0)
(-0.00851697 -0.00253295 0)
(-0.00765609 -0.00245386 0)
(-0.006823 -0.00236076 0)
(-0.00602218 -0.00225378 0)
(-0.00525804 -0.00213317 0)
(-0.00453481 -0.00199932 0)
(-0.00385654 -0.00185283 0)
(-0.00322701 -0.00169452 0)
(-0.00264964 -0.0015255 0)
(-0.0021274 -0.00134724 0)
(-0.00166274 -0.00116166 0)
(-0.00125739 -0.000971251 0)
(-0.000912275 -0.000779256 0)
(-0.000627303 -0.00058986 0)
(-0.000401202 -0.000408468 0)
(-0.000231298 -0.000242042 0)
(-0.000113286 -9.95302e-05 0)
(-4.09391e-05 7.70255e-06 0)
(-6.00575e-06 6.52811e-05 0)
(1.63326e-06 5.36932e-05 0)
(-1.66408e-06 -4.23503e-05 0)
(-2.526e-05 -1.9094e-05 0)
(-9.2644e-05 8.46873e-05 0)
(-0.000209698 0.00024616 0)
(-0.000382535 0.000448034 0)
(-0.000616302 0.000676758 0)
(-0.000914363 0.000921666 0)
(-0.00127854 0.00117441 0)
(-0.00170937 0.00142846 0)
(-0.0022063 0.00167874 0)
(-0.0027678 0.0019213 0)
(-0.00339158 0.0021531 0)
(-0.00407466 0.00237184 0)
(-0.00481356 0.00257575 0)
(-0.00560434 0.00276357 0)
(-0.00644277 0.00293436 0)
(-0.00732434 0.00308751 0)
(-0.00824437 0.00322264 0)
(-0.00919806 0.00333955 0)
(-0.0101805 0.00343821 0)
(-0.0111869 0.00351873 0)
(-0.0122122 0.0035813 0)
(-0.0132517 0.00362623 0)
(-0.0143005 0.00365387 0)
(-0.0153539 0.00366464 0)
(-0.0164072 0.00365902 0)
(-0.0174561 0.0036375 0)
(-0.018496 0.00360063 0)
(-0.0195229 0.00354896 0)
(-0.0205325 0.00348308 0)
(-0.021521 0.00340358 0)
(-0.0224846 0.00331108 0)
(-0.0234197 0.00320618 0)
(-0.0243229 0.00308951 0)
(-0.0251908 0.00296171 0)
(-0.0260205 0.00282339 0)
(-0.026809 0.00267519 0)
(-0.0275536 0.00251774 0)
(-0.0282517 0.00235168 0)
(-0.028901 0.00217764 0)
(-0.0294993 0.00199625 0)
(-0.0300445 0.00180816 0)
(-0.0305348 0.001614 0)
(-0.0309686 0.0014144 0)
(-0.0313445 0.00121001 0)
(-0.0316611 0.00100148 0)
(-0.0319174 0.000789446 0)
(-0.0321125 0.00057457 0)
(-0.0322456 0.000357508 0)
(-0.0323162 0.000138927 0)
(-0.032324 -8.04999e-05 0)
(-0.032269 -0.000300093 0)
(-0.032151 -0.000519162 0)
(-0.0319705 -0.000737008 0)
(-0.0317278 -0.000952925 0)
(-0.0314236 -0.00116619 0)
(-0.0310589 -0.00137609 0)
(-0.0306346 -0.00158188 0)
(-0.0301522 -0.00178282 0)
(-0.0296129 -0.00197816 0)
(-0.0290187 -0.00216713 0)
(-0.0283715 -0.00234898 0)
(-0.0276733 -0.00252294 0)
(-0.0269266 -0.00268823 0)
(-0.0261339 -0.00284408 0)
(-0.025298 -0.00298973 0)
(-0.024422 -0.00312441 0)
(-0.023509 -0.00324735 0)
(-0.0225626 -0.00335782 0)
(-0.0215862 -0.00345507 0)
(-0.0205838 -0.0035384 0)
(-0.0195594 -0.00360711 0)
(-0.0185171 -0.00366054 0)
(-0.0174613 -0.00369806 0)
(-0.0163966 -0.00371908 0)
(-0.0153276 -0.00372306 0)
(-0.0142591 -0.0037095 0)
(-0.0131961 -0.00367798 0)
(-0.0121435 -0.00362813 0)
(-0.0111063 -0.00355968 0)
(-0.0100898 -0.00347246 0)
(-0.00909888 -0.00336638 0)
(-0.00813874 -0.00324151 0)
(-0.00721436 -0.00309804 0)
(-0.0063306 -0.00293638 0)
(-0.00549218 -0.0027571 0)
(-0.00470356 -0.00256106 0)
(-0.0039689 -0.00234941 0)
(-0.00329199 -0.00212369 0)
(-0.00267609 -0.00188587 0)
(-0.00212392 -0.00163853 0)
(-0.00163745 -0.00138493 0)
(-0.00121782 -0.00112925 0)
(-0.000865173 -0.000876758 0)
(-0.000578492 -0.000634136 0)
(-0.00035547 -0.00040981 0)
(-0.000192269 -0.00021439 0)
(-8.32876e-05 -6.10992e-05 0)
(-2.1841e-05 3.36203e-05 0)
(-1.07228e-06 4.78281e-05 0)
(-4.45425e-06 -2.6252e-05 0)
(-4.21116e-05 3.92315e-05 0)
(-0.000138174 0.000193642 0)
(-0.000294849 0.000412583 0)
(-0.000516295 0.000677198 0)
(-0.000806747 0.000972386 0)
(-0.00116885 0.00128604 0)
(-0.00160384 0.00160852 0)
(-0.00211183 0.00193211 0)
(-0.00269188 0.00225075 0)
(-0.00334216 0.00255962 0)
(-0.00406004 0.00285495 0)
(-0.00484225 0.00313382 0)
(-0.00568498 0.00339401 0)
(-0.00658396 0.00363383 0)
(-0.00753458 0.00385206 0)
(-0.00853195 0.00404785 0)
(-0.00957097 0.00422065 0)
(-0.0106464 0.00437017 0)
(-0.011753 0.00449632 0)
(-0.0128853 0.00459918 0)
(-0.014038 0.00467897 0)
(-0.0152057 0.00473602 0)
(-0.0163832 0.00477078 0)
(-0.0175653 0.00478376 0)
(-0.0187468 0.00477553 0)
(-0.0199228 0.00474673 0)
(-0.0210886 0.00469803 0)
(-0.0222393 0.00463015 0)
(-0.0233705 0.00454382 0)
(-0.0244778 0.0044398 0)
(-0.025557 0.00431889 0)
(-0.0266041 0.00418185 0)
(-0.0276154 0.00402951 0)
(-0.0285871 0.00386267 0)
(-0.0295159 0.00368215 0)
(-0.0303985 0.00348875 0)
(-0.0312319 0.00328332 0)
(-0.0320133 0.00306666 0)
(-0.0327399 0.0028396 0)
(-0.0334093 0.00260298 0)
(-0.0340194 0.00235761 0)
(-0.034568 0.00210434 0)
(-0.0350534 0.00184399 0)
(-0.0354739 0.00157739 0)
(-0.0358281 0.00130541 0)
(-0.0361148 0.00102887 0)
(-0.0363329 0.000748628 0)
(-0.0364817 0.000465554 0)
(-0.0365607 0.000180512 0)
(-0.0365694 -0.00010562 0)
(-0.0365077 -0.000391952 0)
(-0.0363756 -0.000677586 0)
(-0.0361736 -0.00096161 0)
(-0.035902 -0.0012431 0)
(-0.0355617 -0.00152113 0)
(-0.0351536 -0.00179475 0)
(-0.0346789 -0.002063 0)
(-0.0341391 -0.00232491 0)
(-0.0335358 -0.00257951 0)
(-0.032871 -0.00282582 0)
(-0.0321469 -0.00306284 0)
(-0.0313657 -0.00328957 0)
(-0.0305302 -0.00350502 0)
(-0.0296433 -0.00370818 0)
(-0.0287079 -0.00389807 0)
(-0.0277276 -0.00407368 0)
(-0.0267058 -0.00423405 0)
(-0.0256464 -0.0043782 0)
(-0.0245534 -0.0045052 0)
(-0.023431 -0.00461414 0)
(-0.0222838 -0.00470411 0)
(-0.0211162 -0.00477429 0)
(-0.0199333 -0.00482387 0)
(-0.0187399 -0.00485209 0)
(-0.0175412 -0.00485828 0)
(-0.0163426 -0.00484183 0)
(-0.0151494 -0.00480219 0)
(-0.0139672 -0.00473894 0)
(-0.0128014 -0.00465175 0)
(-0.0116577 -0.00454042 0)
(-0.0105416 -0.0044049 0)
(-0.00945884 -0.00424531 0)
(-0.00841472 -0.00406195 0)
(-0.00741459 -0.00385537 0)
(-0.00646359 -0.00362639 0)
(-0.00556657 -0.00337613 0)
(-0.00472806 -0.00310612 0)
(-0.00395218 -0.00281834 0)
(-0.00324253 -0.00251533 0)
(-0.0026021 -0.00220032 0)
(-0.00203317 -0.00187736 0)
(-0.00153718 -0.00155154 0)
(-0.00111461 -0.00122919 0)
(-0.000764855 -0.000918177 0)
(-0.000486156 -0.000628255 0)
(-0.000275343 -0.000371481 0)
(-0.000127661 -0.000162625 0)
(-3.82538e-05 -1.97407e-05 0)
(-3.80082e-06 3.35661e-05 0)
(-7.18658e-06 -1.44351e-06 0)
(-5.90112e-05 0.000120474 0)
(-0.000184325 0.00033734 0)
(-0.000381622 0.000623816 0)
(-0.000653006 0.00095992 0)
(-0.00100164 0.00132934 0)
(-0.0014293 0.00171876 0)
(-0.00193652 0.00211739 0)
(-0.00252283 0.00251651 0)
(-0.00318683 0.00290908 0)
(-0.00392628 0.00328948 0)
(-0.00473819 0.00365323 0)
(-0.00561895 0.00399681 0)
(-0.00656439 0.00431749 0)
(-0.0075699 0.0046132 0)
(-0.00863052 0.00488238 0)
(-0.00974097 0.00512393 0)
(-0.0108958 0.00533714 0)
(-0.0120894 0.00552159 0)
(-0.013316 0.00567711 0)
(-0.0145698 0.00580375 0)
(-0.0158451 0.00590175 0)
(-0.017136 0.00597148 0)
(-0.0184369 0.00601345 0)
(-0.0197422 0.00602827 0)
(-0.0210463 0.00601663 0)
(-0.0223437 0.0059793 0)
(-0.0236294 0.00591709 0)
(-0.0248981 0.00583088 0)
(-0.026145 0.00572158 0)
(-0.0273652 0.00559012 0)
(-0.0285543 0.00543747 0)
(-0.0297079 0.00526461 0)
(-0.0308217 0.00507254 0)
(-0.0318919 0.00486227 0)
(-0.0329147 0.00463482 0)
(-0.0338865 0.00439121 0)
(-0.034804 0.00413247 0)
(-0.0356642 0.00385962 0)
(-0.036464 0.00357372 0)
(-0.0372009 0.00327579 0)
(-0.0378724 0.00296688 0)
(-0.0384762 0.00264803 0)
(-0.0390104 0.00232028 0)
(-0.0394731 0.0019847 0)
(-0.0398629 0.00164234 0)
(-0.0401783 0.00129427 0)
(-0.0404184 0.000941558 0)
(-0.0405822 0.000585293 0)
(-0.040669 0.000226567 0)
(-0.0406786 -0.000133513 0)
(-0.0406107 -0.00049383 0)
(-0.0404655 -0.000853253 0)
(-0.0402432 -0.00121064 0)
(-0.0399444 -0.00156482 0)
(-0.03957 -0.00191463 0)
(-0.0391209 -0.00225888 0)
(-0.0385987 -0.00259638 0)
(-0.0380048 -0.0029259 0)
(-0.037341 -0.00324622 0)
(-0.0366095 -0.0035561 0)
(-0.0358126 -0.00385431 0)
(-0.034953 -0.0041396 0)
(-0.0340336 -0.00441071 0)
(-0.0330573 -0.0046664 0)
(-0.0320278 -0.00490542 0)
(-0.0309486 -0.00512655 0)
(-0.0298236 -0.00532856 0)
(-0.028657 -0.00551025 0)
(-0.0274532 -0.00567046 0)
(-0.0262168 -0.00580806 0)
(-0.0249527 -0.00592193 0)
(-0.0236659 -0.00601105 0)
(-0.0223616 -0.00607443 0)
(-0.0210454 -0.00611114 0)
(-0.0197227 -0.00612037 0)
(-0.0183994 -0.00610135 0)
(-0.0170814 -0.00605347 0)
(-0.0157745 -0.00597621 0)
(-0.0144848 -0.00586919 0)
(-0.0132183 -0.00573221 0)
(-0.0119811 -0.00556524 0)
(-0.0107792 -0.00536847 0)
(-0.00961836 -0.00514233 0)
(-0.00850444 -0.00488754 0)
(-0.0074429 -0.00460515 0)
(-0.00643899 -0.00429661 0)
(-0.00549761 -0.00396382 0)
(-0.00462319 -0.00360924 0)
(-0.0038197 -0.00323597 0)
(-0.00309047 -0.0028479 0)
(-0.00243811 -0.00244987 0)
(-0.00186446 -0.00204782 0)
(-0.00137044 -0.00164908 0)
(-0.000956002 -0.0012626 0)
(-0.00062004 -0.000899302 0)
(-0.000360212 -0.00057247 0)
(-0.000172749 -0.00029811 0)
(-5.47482e-05 -9.54632e-05 0)
(-6.47429e-06 1.08117e-05 0)
(-9.82285e-06 3.19741e-05 0)
(-7.56695e-05 0.000224719 0)
(-0.000230282 0.00051621 0)
(-0.000468515 0.000880609 0)
(-0.000790406 0.00129719 0)
(-0.00119799 0.00174872 0)
(-0.00169206 0.00222092 0)
(-0.00227233 0.00270204 0)
(-0.00293766 0.00318243 0)
(-0.00368611 0.00365421 0)
(-0.00451495 0.00411099 0)
(-0.00542077 0.00454764 0)
(-0.00639957 0.00496004 0)
(-0.00744682 0.00534498 0)
(-0.00855753 0.00569997 0)
(-0.00972639 0.00602314 0)
(-0.0109478 0.00631315 0)
(-0.0122158 0.00656907 0)
(-0.0135246 0.00679035 0)
(-0.0148679 0.00697675 0)
(-0.0162396 0.00712829 0)
(-0.0176335 0.0072452 0)
(-0.0190435 0.0073279 0)
(-0.0204634 0.00737697 0)
(-0.0218872 0.0073931 0)
(-0.023309 0.0073771 0)
(-0.0247231 0.00732989 0)
(-0.0261237 0.00725242 0)
(-0.0275054 0.00714575 0)
(-0.028863 0.00701095 0)
(-0.0301912 0.00684916 0)
(-0.0314852 0.00666154 0)
(-0.0327403 0.00644927 0)
(-0.033952 0.00621356 0)
(-0.035116 0.00595564 0)
(-0.0362283 0.00567674 0)
(-0.0372851 0.0053781 0)
(-0.0382827 0.00506098 0)
(-0.0392178 0.00472664 0)
(-0.0400873 0.00437633 0)
(-0.0408883 0.00401133 0)
(-0.0416182 0.00363291 0)
(-0.0422745 0.00324235 0)
(-0.0428551 0.00284092 0)
(-0.0433581 0.00242991 0)
(-0.0437817 0.00201063 0)
(-0.0441246 0.00158437 0)
(-0.0443855 0.00115245 0)
(-0.0445636 0.000716203 0)
(-0.0446581 0.000276957 0)
(-0.0446686 -0.00016393 0)
(-0.044595 -0.000605091 0)
(-0.0444373 -0.00104514 0)
(-0.0441959 -0.00148269 0)
(-0.0438715 -0.0019163 0)
(-0.0434648 -0.00234456 0)
(-0.0429771 -0.00276601 0)
(-0.0424098 -0.00317918 0)
(-0.0417646 -0.0035826 0)
(-0.0410435 -0.00397477 0)
(-0.0402487 -0.00435418 0)
(-0.0393829 -0.00471932 0)
(-0.0384488 -0.00506867 0)
(-0.0374495 -0.00540072 0)
(-0.0363884 -0.00571394 0)
(-0.0352692 -0.00600682 0)
(-0.0340959 -0.00627787 0)
(-0.0328726 -0.00652562 0)
(-0.0316037 -0.0067486 0)
(-0.0302942 -0.00694542 0)
(-0.0289488 -0.00711469 0)
(-0.0275729 -0.00725509 0)
(-0.0261718 -0.00736539 0)
(-0.0247512 -0.00744438 0)
(-0.023317 -0.00749099 0)
(-0.0218751 -0.00750422 0)
(-0.0204317 -0.0074832 0)
(-0.0189931 -0.00742717 0)
(-0.0175657 -0.00733556 0)
(-0.0161559 -0.00720794 0)
(-0.0147702 -0.00704411 0)
(-0.013415 -0.00684406 0)
(-0.0120968 -0.00660807 0)
(-0.0108217 -0.0063367 0)
(-0.009596 -0.00603086 0)
(-0.00842551 -0.00569185 0)
(-0.00731587 -0.00532144 0)
(-0.00627233 -0.00492193 0)
(-0.00529972 -0.00449625 0)
(-0.00440235 -0.00404807 0)
(-0.00358393 -0.00358192 0)
(-0.00284752 -0.00310337 0)
(-0.00219538 -0.0026192 0)
(-0.00162899 -0.00213764 0)
(-0.00114892 -0.0016686 0)
(-0.000754849 -0.00122402 0)
(-0.000445351 -0.000818178 0)
(-0.000217722 -0.000468043 0)
(-7.10338e-05 -0.000193684 0)
(-9.05527e-06 -2.03453e-05 0)
(-1.23462e-05 7.37912e-05 0)
(-9.1934e-05 0.00035174 0)
(-0.000275544 0.000730184 0)
(-0.00055457 0.00118312 0)
(-0.000927015 0.00168936 0)
(-0.00139376 0.00223103 0)
(-0.00195456 0.00279309 0)
(-0.00260825 0.00336299 0)
(-0.00335294 0.00393029 0)
(-0.00418606 0.00448637 0)
(-0.00510434 0.00502415 0)
(-0.00610391 0.00553787 0)
(-0.00718031 0.00602287 0)
(-0.00832862 0.00647547 0)
(-0.00954348 0.00689278 0)
(-0.0108192 0.00727263 0)
(-0.0121498 0.00761339 0)
(-0.013529 0.00791395 0)
(-0.0149505 0.00817365 0)
(-0.0164078 0.00839213 0)
(-0.0178945 0.00856939 0)
(-0.0194038 0.00870565 0)
(-0.0209293 0.00880138 0)
(-0.0224646 0.00885722 0)
(-0.0240032 0.00887396 0)
(-0.0255388 0.00885253 0)
(-0.0270653 0.00879399 0)
(-0.0285767 0.00869945 0)
(-0.0300672 0.00857015 0)
(-0.0315311 0.00840734 0)
(-0.0329631 0.00821236 0)
(-0.0343578 0.00798658 0)
(-0.0357103 0.00773141 0)
(-0.0370157 0.00744826 0)
(-0.0382696 0.00713859 0)
(-0.0394676 0.00680387 0)
(-0.0406057 0.00644559 0)
(-0.0416799 0.00606522 0)
(-0.0426867 0.00566428 0)
(-0.0436229 0.00524426 0)
(-0.0444852 0.00480669 0)
(-0.0452709 0.00435308 0)
(-0.0459774 0.00388495 0)
(-0.0466024 0.00340384 0)
(-0.0471438 0.00291129 0)
(-0.0475998 0.00240885 0)
(-0.047969 0.00189808 0)
(-0.04825 0.00138056 0)
(-0.0484418 0.000857868 0)
(-0.0485438 0.000331606 0)
(-0.0485554 -0.000196605 0)
(-0.0484764 -0.00072513 0)
(-0.0483071 -0.00125232 0)
(-0.0480477 -0.00177649 0)
(-0.0476989 -0.00229595 0)
(-0.0472617 -0.002809 0)
(-0.0467372 -0.00331389 0)
(-0.0461271 -0.00380889 0)
(-0.0454332 -0.00429221 0)
(-0.0446575 -0.00476209 0)
(-0.0438025 -0.00521672 0)
(-0.0428708 -0.00565429 0)