/*--------------------------------*- C++ -*----------------------------------*\
| =========                 |                                                 |
| \\      /  F ield         | OpenFOAM: The Open Source CFD Toolbox           |
|  \\    /   O peration     | Version:  2212                                  |
|   \\  /    A nd           | Website:  www.openfoam.com                      |
|    \\/     M anipulation  |                                                 |
\*---------------------------------------------------------------------------*/
FoamFile
{
    version     2.0;
    format      ascii;
    arch        "LSB;label=32;scalar=64";
    class       surfaceScalarField;
    location    "0.0025";
    object      phi;
}
// * * * * * * * * * * * * * * * * * * * * * * * * * * * * * * * * * * * * * //

dimensions      [0 3 -1 0 0 0 0];

oriented        oriented;

internalField   nonuniform List<scalar> 
19800
(
9.27322e-11
-9.27371e-11
8.12138e-10
-7.19398e-10
8.46383e-10
-3.42577e-11
7.28947e-10
1.17438e-10
4.21035e-10
3.07911e-10
-2.78842e-11
4.48922e-10
-5.76337e-10
5.48455e-10
-1.19243e-09
6.16099e-10
-1.8504e-09
6.57963e-10
-2.52991e-09
6.79518e-10
-3.21742e-09
6.87503e-10
-3.90444e-09
6.87019e-10
-4.58565e-09
6.81214e-10
-5.2576e-09
6.71951e-10
-5.91842e-09
6.60837e-10
-6.5675e-09
6.49081e-10
-7.20539e-09
6.37895e-10
-7.83338e-09
6.27981e-10
-8.45269e-09
6.19304e-10
-9.06399e-09
6.11304e-10
-9.66747e-09
6.03488e-10
-1.0263e-08
5.95565e-10
-1.08501e-08
5.87057e-10
-1.14275e-08
5.77368e-10
-1.19935e-08
5.66091e-10
-1.25467e-08
5.53185e-10
-1.30856e-08
5.38823e-10
-1.36086e-08
5.23028e-10
-1.41143e-08
5.05761e-10
-1.46016e-08
4.87254e-10
-1.50694e-08
4.6786e-10
-1.55171e-08
4.47706e-10
-1.59439e-08
4.26778e-10
-1.63491e-08
4.05153e-10
-1.6732e-08
3.82953e-10
-1.70923e-08
3.6024e-10
-1.74293e-08
3.37072e-10
-1.77428e-08
3.13521e-10
-1.80324e-08
2.89578e-10
-1.82976e-08
2.65188e-10
-1.85381e-08
2.40431e-10
-1.87536e-08
2.15576e-10
-1.89446e-08
1.9093e-10
-1.91113e-08
1.66705e-10
-1.92543e-08
1.43005e-10
-1.93742e-08
1.19903e-10
-1.94716e-08
9.74004e-11
-1.95469e-08
7.53079e-11
-1.96002e-08
5.32783e-11
-1.96311e-08
3.09773e-11
-1.96394e-08
8.24393e-12
-1.9625e-08
-1.43804e-11
-1.9587e-08
-3.79733e-11
-1.95261e-08
-6.09356e-11
-1.94423e-08
-8.37759e-11
-1.93359e-08
-1.06403e-10
-1.92072e-08
-1.28763e-10
-1.90562e-08
-1.50921e-10
-1.88832e-08
-1.73046e-10
-1.86878e-08
-1.95362e-10
-1.84698e-08
-2.18066e-10
-1.82285e-08
-2.41288e-10
-1.79635e-08
-2.65023e-10
-1.76744e-08
-2.8908e-10
-1.73612e-08
-3.13225e-10
-1.70238e-08
-3.37355e-10
-1.66624e-08
-3.61432e-10
-1.6277e-08
-3.85365e-10
-1.58679e-08
-4.09098e-10
-1.54353e-08
-4.32625e-10
-1.49795e-08
-4.55783e-10
-1.45013e-08
-4.78164e-10
-1.4002e-08
-4.99357e-10
-1.34827e-08
-5.19226e-10
-1.29449e-08
-5.37862e-10
-1.23895e-08
-5.55338e-10
-1.18179e-08
-5.7168e-10
-1.12309e-08
-5.86995e-10
-1.06294e-08
-6.01431e-10
-1.00144e-08
-6.15018e-10
-9.38671e-09
-6.27712e-10
-8.74713e-09
-6.39574e-10
-8.09642e-09
-6.5071e-10
-7.43538e-09
-6.61035e-10
-6.7652e-09
-6.70181e-10
-6.08756e-09
-6.77621e-10
-5.40481e-09
-6.82758e-10
-4.71997e-09
-6.84838e-10
-4.03725e-09
-6.82723e-10
-3.36255e-09
-6.74696e-10
-2.70415e-09
-6.58416e-10
-2.0731e-09
-6.31058e-10
-1.48362e-09
-5.8947e-10
-9.53261e-10
-5.30357e-10
-5.02468e-10
-4.50795e-10
-1.53302e-10
-3.49168e-10
7.28765e-11
-2.26173e-10
1.58882e-10
-8.60031e-11
1.0462e-10
5.42617e-11
1.04625e-10
-6.26949e-10
5.34224e-10
-7.46842e-10
-5.99527e-10
-7.69002e-10
-1.20938e-11
-1.2001e-09
5.48529e-10
-1.95759e-09
1.0654e-09
-3.01272e-09
1.50406e-09
-4.31602e-09
1.85175e-09
-5.81039e-09
2.11047e-09
-7.44202e-09
2.2896e-09
-9.16609e-09
2.40358e-09
-1.0947e-08
2.46841e-09
-1.27579e-08
2.49789e-09
-1.45792e-08
2.50254e-09
-1.63971e-08
2.48983e-09
-1.82017e-08
2.46549e-09
-1.99867e-08
2.43409e-09
-2.17481e-08
2.39924e-09
-2.34832e-08
2.36307e-09
-2.51901e-08
2.32628e-09
-2.68676e-08
2.28878e-09
-2.85143e-08
2.2502e-09
-3.01288e-08
2.21004e-09
-3.17093e-08
2.16751e-09
-3.32537e-08
2.1218e-09
-3.47601e-08
2.07246e-09
-3.62262e-08
2.01931e-09
-3.76497e-08
1.96228e-09
-3.90281e-08
1.90144e-09
-4.03592e-08
1.83693e-09
-4.16409e-08
1.76893e-09
-4.28707e-08
1.6977e-09
-4.40465e-08
1.62351e-09
-4.51663e-08
1.54656e-09
-4.62282e-08
1.46704e-09
-4.72304e-08
1.3852e-09
-4.81716e-08
1.30141e-09
-4.90506e-08
1.21603e-09
-4.98664e-08
1.12932e-09
-5.06182e-08
1.04141e-09
-5.13055e-08
9.52465e-10
-5.19279e-08
8.62802e-10
-5.24852e-08
7.72928e-10
-5.29777e-08
6.83409e-10
-5.34058e-08
5.94774e-10
-5.37702e-08
5.07405e-10
-5.40717e-08
4.21446e-10
-5.43111e-08
3.36773e-10
-5.44887e-08
2.52923e-10
-5.46047e-08
1.69276e-10
-5.4659e-08
8.53061e-11
-5.46516e-08
7.96335e-13
-5.45819e-08
-8.41162e-11
-5.44504e-08
-1.69411e-10
-5.42568e-08
-2.54539e-10
-5.40011e-08
-3.39444e-10
-5.36834e-08
-4.24136e-10
-5.33035e-08
-5.08676e-10
-5.28612e-08
-5.93245e-10
-5.23561e-08
-6.78102e-10
-5.1788e-08
-7.63467e-10
-5.11566e-08
-8.49489e-10
-5.04617e-08
-9.36241e-10
-4.9703e-08
-1.02363e-09
-4.88808e-08
-1.11132e-09
-4.79952e-08
-1.19882e-09
-4.70469e-08
-1.28571e-09
-4.60366e-08
-1.37172e-09
-4.49654e-08
-1.45657e-09
-4.38344e-08
-1.54005e-09
-4.2645e-08
-1.622e-09
-4.13987e-08
-1.70211e-09
-4.00971e-08
-1.77973e-09
-3.87423e-08
-1.85419e-09
-3.73364e-08
-1.92514e-09
-3.58816e-08
-1.99261e-09
-3.43802e-08
-2.05676e-09
-3.28342e-08
-2.11771e-09
-3.12455e-08
-2.17563e-09
-2.96163e-08
-2.23067e-09
-2.79485e-08
-2.28285e-09
-2.62441e-08
-2.33211e-09
-2.45053e-08
-2.3783e-09
-2.27349e-08
-2.42117e-09
-2.09358e-08
-2.4601e-09
-1.9112e-08
-2.49393e-09
-1.72688e-08
-2.5209e-09
-1.54128e-08
-2.53867e-09
-1.35536e-08
-2.54412e-09
-1.17034e-08
-2.53285e-09
-9.87933e-09
-2.49882e-09
-8.10342e-09
-2.43432e-09
-6.40413e-09
-2.33035e-09
-4.81643e-09
-2.17717e-09
-3.38139e-09
-1.96539e-09
-2.14424e-09
-1.68794e-09
-1.15047e-09
-1.34293e-09
-4.39433e-10
-9.37214e-10
-3.59436e-11
-4.89501e-10
6.97396e-11
-5.14306e-11
1.74371e-10
-1.88901e-10
7.23112e-10
-9.41755e-10
1.53336e-10
-1.71095e-09
7.57096e-10
-2.78107e-09
1.61866e-09
-4.2006e-09
2.48493e-09
-5.96429e-09
3.26776e-09
-8.03248e-09
3.91994e-09
-1.03496e-08
4.42754e-09
-1.28574e-08
4.79739e-09
-1.55029e-08
5.04913e-09
-1.82406e-08
5.20607e-09
-2.10335e-08
5.29083e-09
-2.38528e-08
5.3218e-09
-2.66762e-08
5.31327e-09
-2.94871e-08
5.27644e-09
-3.22732e-08
5.22011e-09
-3.50245e-08
5.15061e-09
-3.77337e-08
5.07228e-09
-4.03951e-08
4.98769e-09
-4.30044e-08
4.89809e-09
-4.55582e-08
4.804e-09
-4.80537e-08
4.7055e-09
-5.04886e-08
4.60237e-09
-5.28609e-08
4.49412e-09
-5.51686e-08
4.38021e-09
-5.74097e-08
4.26041e-09
-5.9582e-08
4.1346e-09
-6.16831e-08
4.00254e-09
-6.37101e-08
3.86398e-09
-6.56602e-08
3.71894e-09
-6.75301e-08
3.56763e-09
-6.93168e-08
3.41019e-09
-7.10171e-08
3.24687e-09
-7.26281e-08
3.0781e-09
-7.41474e-08
2.90453e-09
-7.55729e-08
2.72689e-09
-7.69028e-08
2.54593e-09
-7.81358e-08
2.3623e-09
-7.9271e-08
2.17658e-09
-8.03078e-08
1.98931e-09
-8.12461e-08
1.80108e-09
-8.20857e-08
1.61256e-09
-8.28268e-08
1.42447e-09
-8.34695e-08
1.23746e-09
-8.4014e-08
1.05196e-09
-8.44607e-08
8.6812e-10
-8.48097e-08
6.85769e-10
-8.50612e-08
5.04468e-10
-8.52156e-08
3.23638e-10
-8.52731e-08
1.42784e-10
-8.5234e-08
-3.83488e-11
-8.50983e-08
-2.1975e-10
-8.48665e-08
-4.01272e-10
-8.45383e-08
-5.82748e-10
-8.41135e-08
-7.64189e-10
-8.35919e-08
-9.45764e-10
-8.29729e-08
-1.12768e-09
-8.2256e-08
-1.31013e-09
-8.14408e-08
-1.4933e-09
-8.05271e-08
-1.67721e-09
-7.95148e-08
-1.86172e-09
-7.84044e-08
-2.04664e-09
-7.71965e-08
-2.2316e-09
-7.58918e-08
-2.41596e-09
-7.44917e-08
-2.59892e-09
-7.29977e-08
-2.77974e-09
-7.14116e-08
-2.9578e-09
-6.97356e-08
-3.13256e-09
-6.79721e-08
-3.3036e-09
-6.61235e-08
-3.4706e-09
-6.41924e-08
-3.63315e-09
-6.21815e-08
-3.79059e-09
-6.00935e-08
-3.94228e-09
-5.79307e-08
-4.08793e-09
-5.56957e-08
-4.22756e-09
-5.33912e-08
-4.36128e-09
-5.10197e-08
-4.48923e-09
-4.85837e-08
-4.61164e-09
-4.60858e-08
-4.72857e-09
-4.35287e-08
-4.83988e-09
-4.09156e-08
-4.94523e-09
-3.82498e-08
-5.04408e-09
-3.55355e-08
-5.13554e-09
-3.27776e-08
-5.21798e-09
-2.99827e-08
-5.28882e-09
-2.71592e-08
-5.34437e-09
-2.43182e-08
-5.37968e-09
-2.14744e-08
-5.38796e-09
-1.86472e-08
-5.36e-09
-1.58623e-08
-5.28375e-09
-1.31522e-08
-5.1444e-09
-1.05576e-08
-4.92494e-09
-8.12737e-09
-4.60741e-09
-5.91742e-09
-4.17534e-09
-3.98786e-09
-3.6175e-09
-2.39751e-09
-2.93328e-09
-1.19573e-09
-2.13898e-09
-4.13976e-10
-1.27125e-09
-4.79393e-11
-4.17472e-10
1.26434e-10
-3.09292e-10
1.0324e-09
-1.23502e-09
1.07907e-09
-2.4989e-09
2.02098e-09
-4.1506e-09
3.27036e-09
-6.20737e-09
4.54169e-09
-8.64813e-09
5.70852e-09
-1.14265e-08
6.69826e-09
-1.44841e-08
7.48515e-09
-1.77609e-08
8.07416e-09
-2.12e-08
8.48827e-09
-2.47515e-08
8.75757e-09
-2.83728e-08
8.91216e-09
-3.20298e-08
8.97872e-09
-3.56952e-08
8.97872e-09
-3.93477e-08
8.92898e-09
-4.29705e-08
8.84286e-09
-4.65501e-08
8.73026e-09
-5.0076e-08
8.59811e-09
-5.35394e-08
8.45112e-09
-5.69338e-08
8.29253e-09
-6.02543e-08
8.1245e-09
-6.3497e-08
7.94818e-09
-6.66585e-08
7.76392e-09
-6.97363e-08
7.57186e-09
-7.2728e-08
7.37196e-09
-7.56315e-08
7.16385e-09
-7.84438e-08
6.94695e-09
-8.1162e-08
6.72075e-09
-8.37829e-08
6.48487e-09
-8.6303e-08
6.23905e-09
-8.87186e-08
5.98317e-09
-9.10258e-08
5.71738e-09
-9.3221e-08
5.44213e-09
-9.5301e-08
5.15811e-09
-9.72628e-08
4.8663e-09
-9.91038e-08
4.56785e-09
-1.00822e-07
4.26399e-09
-1.02415e-07
3.95586e-09
-1.03883e-07
3.6445e-09
-1.05225e-07
3.33087e-09
-1.0644e-07
3.01589e-09
-1.07528e-07
2.70038e-09
-1.08488e-07
2.38509e-09
-1.09321e-07
2.07057e-09
-1.10026e-07
1.75722e-09
-1.10604e-07
1.4452e-09
-1.11052e-07
1.13441e-09
-1.11372e-07
8.24557e-10
-1.11564e-07
5.15267e-10
-1.11627e-07
2.06212e-10
-1.11563e-07
-1.02785e-10
-1.11371e-07
-4.11748e-10
-1.11052e-07
-7.20663e-10
-1.10605e-07
-1.02953e-09
-1.1003e-07
-1.3385e-09
-1.09328e-07
-1.64787e-09
-1.08498e-07
-1.95788e-09
-1.0754e-07
-2.26868e-09
-1.06453e-07
-2.5803e-09
-1.05237e-07
-2.89255e-09
-1.03894e-07
-3.20498e-09
-1.02424e-07
-3.51699e-09
-1.00827e-07
-3.82784e-09
-9.91069e-08
-4.13649e-09
-9.7264e-08
-4.44178e-09
-9.53011e-08
-4.74262e-09
-9.32209e-08
-5.03805e-09
-9.10262e-08
-5.32726e-09
-8.87202e-08
-5.60953e-09
-8.63065e-08
-5.88438e-09
-8.37883e-08
-6.15131e-09
-8.11691e-08
-6.40975e-09
-7.84522e-08
-6.65918e-09
-7.56408e-08
-6.89939e-09
-7.27379e-08
-7.13045e-09
-6.97466e-08
-7.35251e-09
-6.66702e-08
-7.56572e-09
-6.35116e-08
-7.77017e-09
-6.02744e-08
-7.96582e-09
-5.69619e-08
-8.15235e-09
-5.35781e-08
-8.32903e-09
-5.01275e-08
-8.49466e-09
-4.66157e-08
-8.64737e-09
-4.30495e-08
-8.78424e-09
-3.94374e-08
-8.90089e-09
-3.57906e-08
-8.99114e-09
-3.21237e-08
-9.04661e-09
-2.84556e-08
-9.05604e-09
-2.48111e-08
-9.00453e-09
-2.12218e-08
-8.87307e-09
-1.77274e-08
-8.63871e-09
-1.43769e-08
-8.27543e-09
-1.12281e-08
-7.75626e-09
-8.34627e-09
-7.05716e-09
-5.80111e-09
-6.16265e-09
-3.66084e-09
-5.07355e-09
-1.98552e-09
-3.81429e-09
-8.1876e-10
-2.43802e-09
-1.74986e-10
-1.06124e-09
-4.85541e-11
-3.67736e-10
1.40014e-09
-1.52772e-09
2.23905e-09
-3.20487e-09
3.69813e-09
-5.36381e-09
5.42931e-09
-7.98521e-09
7.16309e-09
-1.10281e-08
8.75136e-09
-1.44349e-08
1.01051e-08
-1.81406e-08
1.11908e-08
-2.20807e-08
1.20143e-08
-2.6195e-08
1.26026e-08
-3.04309e-08
1.29934e-08
-3.47433e-08
1.32246e-08
-3.90951e-08
1.33305e-08
-4.34562e-08
1.33397e-08
-4.78025e-08
1.32754e-08
-5.2115e-08
1.31553e-08
-5.63778e-08
1.29931e-08
-6.05782e-08
1.27985e-08
-6.47062e-08
1.25791e-08
-6.87538e-08
1.23401e-08
-7.27143e-08
1.20851e-08
-7.65826e-08
1.18164e-08
-8.03543e-08
1.15356e-08
-8.4026e-08
1.12436e-08
-8.75943e-08
1.09403e-08
-9.10558e-08
1.06254e-08
-9.44073e-08
1.02984e-08
-9.76452e-08
9.95864e-09
-1.00766e-07
9.60537e-09
-1.03765e-07
9.23824e-09
-1.06639e-07
8.85712e-09
-1.09384e-07
8.46219e-09
-1.11996e-07
8.05403e-09
-1.14471e-07
7.63362e-09
-1.16807e-07
7.2023e-09
-1.19001e-07
6.76162e-09
-1.2105e-07
6.31319e-09
-1.22953e-07
5.85856e-09
-1.24707e-07
5.39921e-09
-1.26313e-07
4.93651e-09
-1.27769e-07
4.47162e-09
-1.29074e-07
4.00547e-09
-1.30228e-07
3.53879e-09
-1.31229e-07
3.07209e-09
-1.32078e-07
2.60573e-09
-1.32772e-07
2.13989e-09
-1.33313e-07
1.6746e-09
-1.33698e-07
1.20977e-09
-1.33928e-07
7.45268e-10
-1.34003e-07
2.81009e-10
-1.33922e-07
-1.83042e-10
-1.33687e-07
-6.46884e-10
-1.33297e-07
-1.11053e-09
-1.32753e-07
-1.57402e-09
-1.32054e-07
-2.03757e-09
-1.312e-07
-2.50142e-09
-1.30192e-07
-2.96575e-09
-1.2903e-07
-3.43061e-09
-1.27715e-07
-3.89584e-09
-1.26246e-07
-4.36104e-09
-1.24626e-07
-4.82547e-09
-1.22855e-07
-5.28814e-09
-1.20935e-07
-5.74792e-09
-1.18868e-07
-6.20345e-09
-1.16656e-07
-6.65319e-09
-1.14303e-07
-7.09569e-09
-1.11812e-07
-7.5297e-09
-1.09185e-07
-7.95414e-09
-1.06426e-07
-8.36805e-09
-1.0354e-07
-8.77067e-09
-1.0053e-07
-9.16142e-09
-9.73997e-08
-9.53978e-09
-9.41536e-08
-9.90532e-09
-9.07951e-08
-1.02579e-08
-8.7328e-08
-1.05975e-08
-8.37562e-08
-1.09244e-08
-8.00833e-08
-1.12385e-08
-7.63134e-08
-1.15401e-08
-7.24505e-08
-1.18287e-08
-6.84992e-08
-1.21037e-08
-6.44643e-08
-1.23639e-08
-6.03515e-08
-1.26074e-08
-5.61676e-08
-1.28312e-08
-5.19211e-08
-1.30308e-08
-4.76224e-08
-1.31996e-08
-4.32849e-08
-1.33286e-08
-3.89257e-08
-1.34058e-08
-3.45668e-08
-1.34149e-08
-3.02366e-08
-1.33347e-08
-2.5971e-08
-1.31387e-08
-2.18145e-08
-1.27952e-08
-1.78212e-08
-1.22688e-08
-1.40544e-08
-1.1523e-08
-1.0586e-08
-1.05256e-08
-7.49274e-09
-9.25592e-09
-4.85162e-09
-7.71466e-09
-2.73443e-09
-5.93149e-09
-1.20127e-09
-3.97116e-09
-2.92385e-10
-1.97013e-09
-3.4094e-10
-4.3761e-10
1.83775e-09
-1.79331e-09
3.59475e-09
-3.80583e-09
5.71064e-09
-6.3917e-09
8.01518e-09
-9.49655e-09
1.02679e-08
-1.30577e-08
1.23126e-08
-1.7005e-08
1.40523e-08
-2.12652e-08
1.54511e-08
-2.57684e-08
1.65174e-08
-3.04515e-08
1.72857e-08
-3.5259e-08
1.78009e-08
-4.01443e-08
1.81099e-08
-4.50689e-08
1.82551e-08
-5.00014e-08
1.82723e-08
-5.49164e-08
1.81904e-08
-5.97932e-08
1.80321e-08
-6.46151e-08
1.7815e-08
-6.93687e-08
1.7552e-08
-7.40425e-08
1.72529e-08
-7.86273e-08
1.69249e-08
-8.31156e-08
1.65733e-08
-8.7501e-08
1.62018e-08
-9.1778e-08
1.58126e-08
-9.59417e-08
1.54073e-08
-9.99878e-08
1.49864e-08
-1.03912e-07
1.45497e-08
-1.0771e-07
1.40968e-08
-1.11379e-07
1.36268e-08
-1.14913e-07
1.31394e-08
-1.18308e-07
1.2634e-08
-1.21562e-07
1.21105e-08
-1.24669e-07
1.15694e-08
-1.27626e-07
1.10113e-08
-1.3043e-07
1.04376e-08
-1.33078e-07
9.84981e-09
-1.35566e-07
9.24983e-09
-1.37892e-07
8.63954e-09
-1.40055e-07
8.02085e-09
-1.42051e-07
7.39558e-09
-1.4388e-07
6.76535e-09
-1.4554e-07
6.13152e-09
-1.47029e-07
5.49513e-09
-1.48347e-07
4.85693e-09
-1.49493e-07
4.21746e-09
-1.50464e-07
3.5771e-09
-1.5126e-07
2.93611e-09
-1.5188e-07
2.29467e-09
-1.52324e-07
1.65291e-09
-1.52589e-07
1.01096e-09
-1.52677e-07
3.68968e-10
-1.52587e-07
-2.72902e-10
-1.5232e-07
-9.14533e-10
-1.51874e-07
-1.55585e-09
-1.51252e-07
-2.19682e-09
-1.50452e-07
-2.8375e-09
-1.49475e-07
-3.47804e-09
-1.48322e-07
-4.11845e-09
-1.46994e-07
-4.75857e-09
-1.45492e-07
-5.39803e-09
-1.43817e-07
-6.03621e-09
-1.4197e-07
-6.67212e-09
-1.39954e-07
-7.30446e-09
-1.3777e-07
-7.93176e-09
-1.35421e-07
-8.55239e-09
-1.3291e-07
-9.16454e-09
-1.30239e-07
-9.76645e-09
-1.27412e-07
-1.03566e-08
-1.24433e-07
-1.09336e-08
-1.21305e-07
-1.14963e-08
-1.18031e-07
-1.20438e-08
-1.14618e-07
-1.25752e-08
-1.11067e-07
-1.30901e-08
-1.07385e-07
-1.35879e-08
-1.03574e-07
-1.40685e-08
-9.96396e-08
-1.45319e-08
-9.55858e-08
-1.49781e-08
-9.14172e-08
-1.54072e-08
-8.71385e-08
-1.58188e-08
-8.27546e-08
-1.62125e-08
-7.8271e-08
-1.65873e-08
-7.36936e-08
-1.69414e-08
-6.90292e-08
-1.72718e-08
-6.4286e-08
-1.75745e-08
-5.94736e-08
-1.78431e-08
-5.46042e-08
-1.8069e-08
-4.96926e-08
-1.82402e-08
-4.47581e-08
-1.83404e-08
-3.98248e-08
-1.83482e-08
-3.49235e-08
-1.8236e-08
-3.00927e-08
-1.79695e-08
-2.53798e-08
-1.75081e-08
-2.08423e-08
-1.68062e-08
-1.65477e-08
-1.58176e-08
-1.25724e-08
-1.45009e-08
-8.99907e-09
-1.28292e-08
-5.91351e-09
-1.08002e-08
-3.40003e-09
-8.44497e-09
-1.53758e-09
-5.8336e-09
-3.92779e-10
-3.11493e-09
-7.33713e-10
-5.07506e-10
2.34526e-09
-2.0211e-09
5.10835e-09
-4.29837e-09
7.98791e-09
-7.23008e-09
1.09469e-08
-1.07351e-08
1.3773e-08
-1.47301e-08
1.63075e-08
-1.91305e-08
1.84528e-08
-2.38553e-08
2.01759e-08
-2.88287e-08
2.14908e-08
-3.3984e-08
2.2441e-08
-3.92638e-08
2.30807e-08
-4.46203e-08
2.34664e-08
-5.00139e-08
2.36486e-08
-5.54123e-08
2.36707e-08
-6.07898e-08
2.35679e-08
-6.61253e-08
2.33677e-08
-7.14015e-08
2.30911e-08
-7.66039e-08
2.27545e-08
-8.17211e-08
2.23701e-08
-8.6743e-08
2.19468e-08
-9.1661e-08
2.14913e-08
-9.64677e-08
2.10085e-08
-1.01157e-07
2.05015e-08
-1.05722e-07
1.99726e-08
-1.10158e-07
1.94226e-08
-1.1446e-07
1.88517e-08
-1.18623e-07
1.82598e-08
-1.22643e-07
1.76464e-08
-1.26514e-07
1.7011e-08
-1.30234e-07
1.63535e-08
-1.33797e-07
1.56739e-08
-1.37201e-07
1.49728e-08
-1.40441e-07
1.42511e-08
-1.43513e-07
1.35105e-08
-1.46416e-07
1.27526e-08
-1.49146e-07
1.19796e-08
-1.517e-07
1.11936e-08
-1.54076e-07
1.03966e-08
-1.56271e-07
9.59083e-09
-1.58284e-07
8.77799e-09
-1.60112e-07
7.95962e-09
-1.61754e-07
7.13688e-09
-1.63207e-07
6.31059e-09
-1.64471e-07
5.4814e-09
-1.65544e-07
4.64981e-09
-1.66424e-07
3.81621e-09
-1.6711e-07
2.98096e-09
-1.67602e-07
2.14442e-09
-1.67898e-07
1.30697e-09
-1.67998e-07
4.68983e-10
-1.67902e-07
-3.69144e-10
-1.67609e-07
-1.20709e-09
-1.6712e-07
-2.0446e-09
-1.66436e-07
-2.88146e-09
-1.65556e-07
-3.7175e-09
-1.64481e-07
-4.55262e-09
-1.63213e-07
-5.38662e-09
-1.61752e-07
-6.21908e-09
-1.60101e-07
-7.04938e-09
-1.58261e-07
-7.87666e-09
-1.56233e-07
-8.69971e-09
-1.54021e-07
-9.51698e-09
-1.51626e-07
-1.03268e-08
-1.49051e-07
-1.11272e-08
-1.46299e-07
-1.19163e-08
-1.43373e-07
-1.2692e-08
-1.40277e-07
-1.34526e-08
-1.37015e-07
-1.41965e-08
-1.33589e-07
-1.49223e-08
-1.30004e-07
-1.56288e-08
-1.26264e-07
-1.63151e-08
-1.22373e-07
-1.69805e-08
-1.18337e-07
-1.76244e-08
-1.14159e-07
-1.82465e-08
-1.09844e-07
-1.88467e-08
-1.05398e-07
-1.94248e-08
-1.00824e-07
-1.99805e-08
-9.61294e-08
-2.05135e-08
-9.13192e-08
-2.10228e-08
-8.63997e-08
-2.15068e-08
-8.13779e-08
-2.19632e-08
-7.62616e-08
-2.23881e-08
-7.10599e-08
-2.27761e-08
-6.57838e-08
-2.31192e-08
-6.04465e-08
-2.34063e-08
-5.50643e-08
-2.36224e-08
-4.96577e-08
-2.37471e-08
-4.42522e-08
-2.37536e-08
-3.88802e-08
-2.3608e-08
-3.35819e-08
-2.32678e-08
-2.84067e-08
-2.26833e-08
-2.34143e-08
-2.17987e-08
-1.86748e-08
-2.0557e-08
-1.42688e-08
-1.8907e-08
-1.02846e-08
-1.68134e-08
-6.81671e-09
-1.42681e-08
-3.96189e-09
-1.12998e-08
-1.81726e-09
-7.97823e-09
-4.73858e-10
-4.45832e-09
-1.20756e-09
-5.66463e-10
2.91172e-09
-2.20401e-09
6.74589e-09
-4.68755e-09
1.04715e-08
-7.89354e-09
1.41529e-08
-1.17212e-08
1.76007e-08
-1.60704e-08
2.06566e-08
-2.08439e-08
2.32263e-08
-2.59512e-08
2.52832e-08
-3.13116e-08
2.68513e-08
-3.68548e-08
2.79842e-08
-4.25216e-08
2.87475e-08
-4.82624e-08
2.92072e-08
-5.40372e-08
2.94235e-08
-5.98138e-08
2.94473e-08
-6.55658e-08
2.93198e-08
-7.12717e-08
2.90735e-08
-7.69141e-08
2.87336e-08
-8.24788e-08
2.83192e-08
-8.79533e-08
2.78446e-08
-9.33272e-08
2.73207e-08
-9.85913e-08
2.67554e-08
-1.03737e-07
2.61546e-08
-1.08758e-07
2.55224e-08
-1.13647e-07
2.48614e-08
-1.18398e-07
2.41732e-08
-1.23005e-07
2.34585e-08
-1.27462e-07
2.27173e-08
-1.31765e-07
2.19497e-08
-1.3591e-07
2.11556e-08
-1.39891e-07
2.03349e-08
-1.43705e-07
1.94881e-08
-1.47349e-07
1.86159e-08
-1.50817e-07
1.77197e-08
-1.54108e-07
1.68011e-08
-1.57217e-07
1.58621e-08
-1.60143e-07
1.49049e-08
-1.62881e-07
1.39317e-08
-1.65429e-07
1.29449e-08
-1.67785e-07
1.19466e-08
-1.69946e-07
1.09388e-08
-1.71909e-07
9.92317e-09
-1.73673e-07
8.90092e-09
-1.75236e-07
7.87307e-09
-1.76595e-07
6.84042e-09
-1.77749e-07
5.80366e-09
-1.78696e-07
4.76337e-09
-1.79435e-07
3.72013e-09
-1.79965e-07
2.67453e-09
-1.80285e-07
1.62718e-09
-1.80395e-07
5.78708e-10
-1.80294e-07
-4.70255e-10
-1.79982e-07
-1.51911e-09
-1.79459e-07
-2.5674e-09
-1.78726e-07
-3.61463e-09
-1.77783e-07
-4.66034e-09
-1.76631e-07
-5.70415e-09
-1.75272e-07
-6.74557e-09
-1.73708e-07
-7.7839e-09
-1.71939e-07
-8.81822e-09
-1.69968e-07
-9.84746e-09
-1.67798e-07
-1.08702e-08
-1.6543e-07
-1.18846e-08
-1.62868e-07
-1.28889e-08
-1.60114e-07
-1.3881e-08
-1.57172e-07
-1.48587e-08
-1.54044e-07
-1.58199e-08
-1.50734e-07
-1.67625e-08
-1.47245e-07
-1.7685e-08
-1.43582e-07
-1.85855e-08
-1.39748e-07
-1.94627e-08
-1.35748e-07
-2.03155e-08
-1.31585e-07
-2.1143e-08
-1.27265e-07
-2.19443e-08
-1.22793e-07
-2.27191e-08
-1.18172e-07
-2.34669e-08
-1.1341e-07
-2.41873e-08
-1.08511e-07
-2.48798e-08
-1.03481e-07
-2.55434e-08
-9.83266e-08
-2.61769e-08
-9.30553e-08
-2.67781e-08
-8.76745e-08
-2.7344e-08
-8.21928e-08
-2.78697e-08
-7.66205e-08
-2.83485e-08
-7.09692e-08
-2.87705e-08
-6.5253e-08
-2.91225e-08
-5.94893e-08
-2.93862e-08
-5.36992e-08
-2.95371e-08
-4.79096e-08
-2.95433e-08
-4.21536e-08
-2.9364e-08
-3.64724e-08
-2.8949e-08
-3.09168e-08
-2.82389e-08
-2.5548e-08
-2.71674e-08
-2.04388e-08
-2.56662e-08
-1.56732e-08
-2.36726e-08
-1.13452e-08
-2.11415e-08
-7.55715e-09
-1.80561e-08
-4.41789e-09
-1.4439e-08
-2.04051e-09
-1.03556e-08
-5.36776e-10
-5.96204e-09
-1.74434e-09
-6.08862e-10
3.52058e-09
-2.34099e-09
8.47802e-09
-4.98416e-09
1.31146e-08
-8.406e-09
1.75747e-08
-1.24909e-08
2.16856e-08
-1.7125e-08
2.52907e-08
-2.22009e-08
2.83021e-08
-2.76202e-08
3.07024e-08
-3.32967e-08
3.25278e-08
-3.91565e-08
3.3844e-08
-4.51384e-08
3.47294e-08
-5.11921e-08
3.52609e-08
-5.72768e-08
3.55082e-08
-6.33595e-08
3.553e-08
-6.9414e-08
3.53743e-08
-7.54188e-08
3.50784e-08
-8.13565e-08
3.46713e-08
-8.72123e-08
3.4175e-08
-9.29737e-08
3.36061e-08
-9.863e-08
3.2977e-08
-1.04172e-07
3.22969e-08
-1.0959e-07
3.15727e-08
-1.14876e-07
3.08091e-08
-1.20024e-07
3.00095e-08
-1.25027e-07
2.91759e-08
-1.29878e-07
2.83095e-08
-1.34572e-07
2.74111e-08
-1.39103e-07
2.64809e-08
-1.43467e-07
2.55193e-08
-1.47659e-07
2.45268e-08
-1.51675e-07
2.35039e-08
-1.55511e-07
2.24519e-08
-1.59163e-07
2.13723e-08
-1.62629e-07
2.02668e-08
-1.65904e-07
1.91376e-08
-1.68986e-07
1.79869e-08
-1.71872e-07
1.68173e-08
-1.74558e-07
1.5631e-08
-1.77042e-07
1.44304e-08
-1.79321e-07
1.32176e-08
-1.81392e-07
1.19942e-08
-1.83253e-07
1.07618e-08
-1.84901e-07
9.52151e-09
-1.86335e-07
8.27437e-09
-1.87553e-07
7.02129e-09
-1.88552e-07
5.76309e-09
-1.89333e-07
4.50059e-09
-1.89893e-07
3.23462e-09
-1.90232e-07
1.96604e-09
-1.90349e-07
6.95722e-10
-1.90244e-07
-5.75442e-10
-1.89916e-07
-1.84658e-09
-1.89367e-07
-3.11694e-09
-1.88595e-07
-4.38578e-09
-1.87603e-07
-5.6523e-09
-1.86392e-07
-6.91576e-09
-1.84962e-07
-8.1754e-09
-1.83316e-07
-9.43022e-09
-1.81455e-07
-1.0679e-08
-1.79382e-07
-1.19204e-08
-1.77099e-07
-1.31528e-08
-1.7461e-07
-1.43743e-08
-1.71916e-07
-1.55828e-08
-1.69021e-07
-1.67761e-08
-1.65928e-07
-1.79519e-08
-1.62639e-07
-1.9108e-08
-1.5916e-07
-2.02422e-08
-1.55492e-07
-2.13525e-08
-1.51641e-07
-2.24371e-08
-1.47609e-07
-2.34945e-08
-1.43401e-07
-2.45232e-08
-1.39022e-07
-2.55221e-08
-1.34476e-07
-2.64902e-08
-1.29769e-07
-2.74267e-08
-1.24905e-07
-2.83309e-08
-1.1989e-07
-2.92021e-08
-1.1473e-07
-3.00393e-08
-1.09432e-07
-3.08413e-08
-1.04003e-07
-3.16061e-08
-9.84502e-08
-3.23311e-08
-9.27818e-08
-3.30124e-08
-8.70072e-08
-3.36443e-08
-8.11373e-08
-3.42184e-08
-7.51845e-08
-3.47234e-08
-6.91634e-08
-3.51435e-08
-6.30921e-08
-3.54575e-08
-5.69925e-08
-3.56367e-08
-5.08918e-08
-3.5644e-08
-4.48237e-08
-3.5432e-08
-3.88304e-08
-3.49423e-08
-3.29635e-08
-3.41058e-08
-2.72857e-08
-3.28452e-08
-2.18722e-08
-3.10798e-08
-1.68101e-08
-2.87347e-08
-1.21989e-08
-2.57526e-08
-8.14853e-09
-2.21065e-08
-4.77815e-09
-1.78094e-08
-2.21411e-09
-1.29197e-08
-5.8454e-10
-7.59161e-09
-2.32888e-09
-6.35469e-10
4.15606e-09
-2.4374e-09
1.028e-08
-5.20448e-09
1.58817e-08
-8.79627e-09
2.11665e-08
-1.30855e-08
2.59748e-08
-1.79485e-08
3.01537e-08
-2.32686e-08
3.36222e-08
-2.89412e-08
3.6375e-08
-3.48752e-08
3.84618e-08
-4.09939e-08
3.99627e-08
-4.72335e-08
4.0969e-08
-5.35426e-08
4.157e-08
-5.98798e-08
4.18454e-08
-6.6212e-08
4.18622e-08
-7.25124e-08
4.16747e-08
-7.87597e-08
4.13257e-08
-8.49363e-08
4.08478e-08
-9.10273e-08
4.0266e-08
-9.70202e-08
3.95989e-08
-1.02904e-07
3.88606e-08
-1.08668e-07
3.80615e-08
-1.14305e-07
3.72092e-08
-1.19805e-07
3.63092e-08
-1.25161e-07
3.53655e-08
-1.30366e-07
3.43808e-08
-1.35413e-07
3.33568e-08
-1.40297e-07
3.22947e-08
-1.45011e-07
3.11954e-08
-1.49552e-07
3.00596e-08
-1.53913e-07
2.88882e-08
-1.58091e-07
2.76823e-08
-1.62083e-07
2.64433e-08
-1.65883e-07
2.51729e-08
-1.6949e-07
2.38732e-08
-1.72898e-07
2.25462e-08
-1.76106e-07
2.11946e-08
-1.79109e-07
1.98207e-08
-1.81905e-07
1.8427e-08
-1.84491e-07
1.7016e-08
-1.86863e-07
1.55897e-08
-1.89019e-07
1.41502e-08
-1.90956e-07
1.2699e-08
-1.92672e-07
1.12375e-08
-1.94165e-07
9.76704e-09
-1.95432e-07
8.28876e-09
-1.96473e-07
6.80376e-09
-1.97286e-07
5.31308e-09
-1.97869e-07
3.81782e-09
-1.98222e-07
2.3191e-09
-1.98344e-07
8.18043e-10
-1.98235e-07
-6.84182e-10
-1.97896e-07
-2.18642e-09
-1.97325e-07
-3.68763e-09
-1.96524e-07
-5.18676e-09
-1.95494e-07
-6.68271e-09
-1.94235e-07
-8.17438e-09
-1.9275e-07
-9.66069e-09
-1.91039e-07
-1.11403e-08
-1.89107e-07
-1.26118e-08
-1.86953e-07
-1.40736e-08
-1.84583e-07
-1.55237e-08
-1.81997e-07
-1.69602e-08
-1.79199e-07
-1.83808e-08
-1.76192e-07
-1.97831e-08
-1.72979e-07
-2.11648e-08
-1.69563e-07
-2.25235e-08
-1.65949e-07
-2.38569e-08
-1.62138e-07
-2.51628e-08
-1.58136e-07
-2.64392e-08
-1.53946e-07
-2.76842e-08
-1.49573e-07
-2.88964e-08
-1.45021e-07
-3.00742e-08
-1.40295e-07
-3.12165e-08
-1.35399e-07
-3.2322e-08
-1.30341e-07
-3.33897e-08
-1.25124e-07
-3.44186e-08
-1.19756e-07
-3.54071e-08
-1.14244e-07
-3.63536e-08
-1.08595e-07
-3.72556e-08
-1.02816e-07
-3.81098e-08
-9.69168e-08
-3.89115e-08
-9.09071e-08
-3.96539e-08
-8.47981e-08
-4.03274e-08
-7.86025e-08
-4.09189e-08
-7.23357e-08
-4.14104e-08
-6.60158e-08
-4.17773e-08
-5.96654e-08
-4.19872e-08
-5.33119e-08
-4.19975e-08
-4.69896e-08
-4.17543e-08
-4.07412e-08
-4.11908e-08
-3.46191e-08
-4.02279e-08
-2.86877e-08
-3.87766e-08
-2.30241e-08
-3.67434e-08
-1.7719e-08
-3.40398e-08
-1.28767e-08
-3.05949e-08
-8.61409e-09
-2.63691e-08
-5.05884e-09
-2.13647e-08
-2.34774e-09
-1.56308e-08
-6.20767e-10
-9.31858e-09
-2.94964e-09
-6.50945e-10
4.807e-09
-2.50378e-09
1.21328e-08
-5.36767e-09
1.87456e-08
-9.09445e-09
2.48933e-08
-1.35473e-08
3.04277e-08
-1.85946e-08
3.5201e-08
-2.41131e-08
3.91408e-08
-2.9993e-08
4.22549e-08
-3.61387e-08
4.46075e-08
-4.24705e-08
4.62945e-08
-4.89229e-08
4.74215e-08
-5.54432e-08
4.80903e-08
-6.19891e-08
4.83913e-08
-6.85271e-08
4.84001e-08
-7.50303e-08
4.81779e-08
-8.14771e-08
4.77725e-08
-8.78498e-08
4.72205e-08
-9.41335e-08
4.65498e-08
-1.00316e-07
4.5781e-08
-1.06385e-07
4.49298e-08
-1.12331e-07
4.40077e-08
-1.18145e-07
4.30233e-08
-1.23819e-07
4.19827e-08
-1.29344e-07
4.08905e-08
-1.34713e-07
3.97499e-08
-1.39919e-07
3.85634e-08
-1.44957e-07
3.73326e-08
-1.49821e-07
3.60588e-08
-1.54505e-07
3.47434e-08
-1.59004e-07
3.33876e-08
-1.63314e-07
3.19929e-08
-1.67432e-07
3.0561e-08
-1.71353e-07
2.90939e-08
-1.75074e-07
2.75936e-08
-1.7859e-07
2.60627e-08
-1.81899e-07
2.45036e-08
-1.84997e-07
2.29189e-08
-1.87882e-07
2.13112e-08
-1.90548e-07
1.9683e-08
-1.92995e-07
1.80365e-08
-1.95219e-07
1.63738e-08
-1.97216e-07
1.46967e-08
-1.98986e-07
1.3007e-08
-2.00525e-07
1.13061e-08
-2.01832e-07
9.59549e-09
-2.02905e-07
7.87655e-09
-2.03742e-07
6.15058e-09
-2.04343e-07
4.41894e-09
-2.04707e-07
2.68304e-09
-2.04833e-07
9.44246e-10
-2.04721e-07
-7.96002e-10
-2.04372e-07
-2.53626e-09
-2.03784e-07
-4.27518e-09
-2.02959e-07
-6.01143e-09
-2.01899e-07
-7.74358e-09
-2.00603e-07
-9.4702e-09
-1.99074e-07
-1.11899e-08
-1.97313e-07
-1.2901e-08
-1.95323e-07
-1.46018e-08
-1.93106e-07
-1.62905e-08
-1.90665e-07
-1.7965e-08
-1.88002e-07
-1.9623e-08
-1.8512e-07
-2.12622e-08
-1.82023e-07
-2.288e-08
-1.78714e-07
-2.44741e-08
-1.75196e-07
-2.60417e-08
-1.71472e-07
-2.75806e-08
-1.67547e-07
-2.90884e-08
-1.63423e-07
-3.05628e-08
-1.59105e-07
-3.20018e-08
-1.54598e-07
-3.34036e-08
-1.49906e-07
-3.47665e-08
-1.45033e-07
-3.60889e-08
-1.39986e-07
-3.73693e-08
-1.3477e-07
-3.86062e-08
-1.2939e-07
-3.97982e-08
-1.23854e-07
-4.09434e-08
-1.18168e-07
-4.20394e-08
-1.1234e-07
-4.30834e-08
-1.06379e-07
-4.40714e-08
-1.00292e-07
-4.49977e-08
-9.40919e-08
-4.58545e-08
-8.77883e-08
-4.6631e-08
-8.1395e-08
-4.73122e-08
-7.49274e-08
-4.78779e-08
-6.84041e-08
-4.83006e-08
-6.18478e-08
-4.85435e-08
-5.52863e-08
-4.8559e-08
-4.87543e-08
-4.82863e-08
-4.2295e-08
-4.76501e-08
-3.59618e-08
-4.65611e-08
-2.98203e-08
-4.49181e-08
-2.395e-08
-4.26137e-08
-1.84449e-08
-3.95449e-08
-1.34139e-08
-3.56258e-08
-8.97985e-09
-3.08032e-08
-5.27748e-09
-2.5067e-08
-2.45131e-09
-1.84569e-08
-6.48848e-10
-1.1121e-08
-3.59849e-09
-6.60784e-10
5.46778e-09
-2.552e-09
1.4024e-08
-5.49266e-09
2.16863e-08
-9.32796e-09
2.87286e-08
-1.3914e-08
3.50137e-08
-1.91123e-08
4.03993e-08
-2.47949e-08
4.48233e-08
-3.08468e-08
4.83068e-08
-3.71695e-08
5.09302e-08
-4.36803e-08
5.28053e-08
-5.0312e-08
5.40531e-08
-5.70104e-08
5.47887e-08
-6.37325e-08
5.51134e-08
-7.04442e-08
5.51119e-08
-7.71183e-08
5.48521e-08
-8.37332e-08
5.43873e-08
-9.02708e-08
5.37581e-08
-9.67162e-08
5.29952e-08
-1.03057e-07
5.21214e-08
-1.09281e-07
5.1154e-08
-1.15379e-07
5.01055e-08
-1.2134e-07
4.89853e-08
-1.27158e-07
4.78003e-08
-1.32823e-07
4.65558e-08
-1.38329e-07
4.52555e-08
-1.43668e-07
4.39023e-08
-1.48834e-07
4.24985e-08
-1.53821e-07
4.10459e-08
-1.58624e-07
3.95464e-08
-1.63238e-07
3.80015e-08
-1.67658e-07
3.64132e-08
-1.7188e-07
3.47834e-08
-1.75901e-07
3.31144e-08
-1.79716e-07
3.14084e-08
-1.83321e-07
2.96681e-08
-1.86714e-07
2.7896e-08
-1.8989e-07
2.60949e-08
-1.92846e-07
2.42676e-08
-1.95579e-07
2.24164e-08
-1.98087e-07
2.05438e-08
-2.00365e-07
1.86522e-08
-2.02412e-07
1.67435e-08
-2.04225e-07
1.48197e-08
-2.05801e-07
1.28825e-08
-2.07139e-07
1.09338e-08
-2.08238e-07
8.97514e-09
-2.09095e-07
7.00811e-09
-2.09711e-07
5.03435e-09
-2.10083e-07
3.05558e-09
-2.10213e-07
1.07342e-09
-2.10098e-07
-9.10455e-10
-2.0974e-07
-2.89429e-09
-2.09139e-07
-4.87644e-09
-2.08295e-07
-6.85529e-09
-2.07209e-07
-8.82911e-09
-2.05883e-07
-1.07961e-08