/*--------------------------------*- C++ -*----------------------------------*\
| =========                 |                                                 |
| \\      /  F ield         | OpenFOAM: The Open Source CFD Toolbox           |
|  \\    /   O peration     | Version:  2212                                  |
|   \\  /    A nd           | Website:  www.openfoam.com                      |
|    \\/     M anipulation  |                                                 |
\*---------------------------------------------------------------------------*/
FoamFile
{
    version     2.0;
    format      ascii;
    arch        "LSB;label=32;scalar=64";
    class       surfaceScalarField;
    location    "0.0025";
    object      phi_0;
}
// * * * * * * * * * * * * * * * * * * * * * * * * * * * * * * * * * * * * * //

dimensions      [0 3 -1 0 0 0 0];

oriented        oriented;

internalField   nonuniform List<scalar> 
19800
(
4.98954e-11
-4.99294e-11
7.38568e-11
-2.39545e-11
1.19943e-10
-4.60975e-11
-1.83933e-11
1.38338e-10
-3.45218e-10
3.26822e-10
-8.15943e-10
4.70727e-10
-1.39168e-09
5.75732e-10
-2.04329e-09
6.51621e-10
-2.74537e-09
7.02075e-10
-3.47328e-09
7.27909e-10
-4.21013e-09
7.36852e-10
-4.94633e-09
7.36198e-10
-5.67827e-09
7.3195e-10
-6.40274e-09
7.24462e-10
-7.11625e-09
7.13514e-10
-7.81597e-09
6.99728e-10
-8.50023e-09
6.84263e-10
-9.16795e-09
6.67722e-10
-9.81801e-09
6.50062e-10
-1.04494e-08
6.3135e-10
-1.10614e-08
6.11992e-10
-1.16536e-08
5.92219e-10
-1.22257e-08
5.72135e-10
-1.27777e-08
5.52007e-10
-1.33099e-08
5.32159e-10
-1.38227e-08
5.12879e-10
-1.43169e-08
4.94131e-10
-1.47924e-08
4.75539e-10
-1.52492e-08
4.56772e-10
-1.56868e-08
4.37646e-10
-1.61048e-08
4.17956e-10
-1.65023e-08
3.97502e-10
-1.68785e-08
3.76247e-10
-1.72328e-08
3.54319e-10
-1.75648e-08
3.31985e-10
-1.78744e-08
3.09576e-10
-1.81617e-08
2.87305e-10
-1.84269e-08
2.65171e-10
-1.867e-08
2.43115e-10
-1.88912e-08
2.21215e-10
-1.90909e-08
1.99688e-10
-1.92696e-08
1.7877e-10
-1.94281e-08
1.58496e-10
-1.9567e-08
1.38864e-10
-1.96869e-08
1.19871e-10
-1.97884e-08
1.01528e-10
-1.98723e-08
8.38548e-11
-1.9939e-08
6.67172e-11
-1.99889e-08
4.99063e-11
-2.00221e-08
3.32065e-11
-2.00386e-08
1.65293e-11
-2.00385e-08
-6.9352e-14
-2.0022e-08
-1.65227e-11
-1.99891e-08
-3.29438e-11
-1.99392e-08
-4.98856e-11
-1.98715e-08
-6.76405e-11
-1.9785e-08
-8.658e-11
-1.96781e-08
-1.06837e-10
-1.955e-08
-1.28119e-10
-1.94002e-08
-1.49802e-10
-1.92287e-08
-1.71521e-10
-1.90352e-08
-1.93481e-10
-1.88193e-08
-2.15906e-10
-1.85807e-08
-2.38589e-10
-1.83193e-08
-2.61394e-10
-1.80347e-08
-2.84614e-10
-1.77264e-08
-3.08313e-10
-1.73944e-08
-3.32038e-10
-1.70387e-08
-3.5566e-10
-1.6659e-08
-3.79712e-10
-1.62546e-08
-4.04406e-10
-1.58254e-08
-4.29197e-10
-1.53716e-08
-4.53821e-10
-1.48927e-08
-4.78846e-10
-1.43882e-08
-5.04556e-10
-1.38581e-08
-5.30044e-10
-1.3304e-08
-5.54142e-10
-1.27273e-08
-5.76696e-10
-1.2129e-08
-5.98265e-10
-1.15101e-08
-6.18974e-10
-1.08717e-08
-6.38407e-10
-1.02152e-08
-6.5644e-10
-9.54172e-09
-6.73512e-10
-8.85175e-09
-6.89973e-10
-8.14611e-09
-7.0564e-10
-7.42601e-09
-7.20106e-10
-6.69295e-09
-7.33058e-10
-5.94902e-09
-7.43934e-10
-5.1976e-09
-7.51428e-10
-4.44409e-09
-7.53505e-10
-3.69637e-09
-7.47724e-10
-2.96522e-09
-7.31147e-10
-2.26543e-09
-6.99796e-10
-1.61693e-09
-6.48503e-10
-1.04475e-09
-5.72183e-10
-5.76569e-10
-4.68176e-10
-2.37772e-10
-3.38797e-10
-4.19123e-11
-1.95876e-10
2.16252e-11
-6.3581e-11
2.15825e-11
7.28924e-13
-5.06534e-11
-1.63978e-10
1.4074e-10
-5.21736e-10
3.11657e-10
-1.16673e-09
7.83323e-10
-2.14719e-09
1.30728e-09
-3.42014e-09
1.74368e-09
-4.91879e-09
2.07438e-09
-6.57875e-09
2.31158e-09
-8.34838e-09
2.4717e-09
-1.01884e-08
2.56796e-09
-1.20678e-08
2.61625e-09
-1.39639e-08
2.63224e-09
-1.586e-08
2.62807e-09
-1.77445e-08
2.60895e-09
-1.9608e-08
2.57708e-09
-2.1443e-08
2.53465e-09
-2.32428e-08
2.4841e-09
-2.50024e-08
2.42729e-09
-2.67179e-08
2.36554e-09
-2.83869e-08
2.30043e-09
-3.00086e-08
2.23368e-09
-3.15831e-08
2.16665e-09
-3.31112e-08
2.10032e-09
-3.45947e-08
2.03548e-09
-3.6035e-08
1.97248e-09
-3.74331e-08
1.91099e-09
-3.87891e-08
1.85004e-09
-4.01018e-08
1.78825e-09
-4.13693e-08
1.72431e-09
-4.25888e-08
1.65717e-09
-4.3757e-08
1.58612e-09
-4.48703e-08
1.51076e-09
-4.59252e-08
1.43114e-09
-4.69186e-08
1.34776e-09
-4.78481e-08
1.26145e-09
-4.87117e-08
1.17319e-09
-4.95083e-08
1.08394e-09
-5.02377e-08
9.94562e-10
-5.09004e-08
9.05839e-10
-5.14977e-08
8.18528e-10
-5.20313e-08
7.33315e-10
-5.25032e-08
6.50606e-10
-5.29151e-08
5.70382e-10
-5.32685e-08
4.92347e-10
-5.35648e-08
4.16146e-10
-5.38047e-08
3.41434e-10
-5.39892e-08
2.68333e-10
-5.41192e-08
1.9671e-10
-5.41958e-08
1.26472e-10
-5.422e-08
5.74542e-11
-5.4193e-08
-1.05082e-11
-5.41155e-08
-7.75617e-11
-5.3988e-08
-1.44031e-10
-5.38103e-08
-2.10662e-10
-5.35816e-08
-2.78597e-10
-5.33003e-08
-3.48895e-10
-5.29645e-08
-4.22357e-10
-5.2572e-08
-4.99362e-10
-5.21204e-08
-5.79696e-10
-5.16077e-08
-6.62541e-10
-5.10321e-08
-7.47136e-10
-5.03924e-08
-8.33209e-10
-4.96879e-08
-9.20394e-10
-4.89187e-08
-1.00772e-09
-4.80859e-08
-1.09424e-09
-4.71908e-08
-1.17968e-09
-4.62352e-08
-1.26393e-09
-4.52208e-08
-1.34648e-09
-4.41494e-08
-1.42705e-09
-4.3023e-08
-1.50606e-09
-4.18436e-08
-1.58389e-09
-4.06125e-08
-1.66025e-09
-3.93314e-08
-1.73492e-09
-3.80018e-08
-1.80847e-09
-3.66249e-08
-1.8814e-09
-3.52019e-08
-1.95313e-09
-3.37335e-08
-2.02249e-09
-3.22211e-08
-2.0891e-09
-3.06658e-08
-2.15355e-09
-2.90685e-08
-2.21633e-09
-2.74297e-08
-2.27716e-09
-2.57507e-08
-2.33546e-09
-2.40332e-08
-2.39108e-09
-2.22791e-08
-2.44408e-09
-2.04908e-08
-2.49391e-09
-1.86717e-08
-2.5392e-09
-1.68268e-08
-2.57797e-09
-1.49631e-08
-2.60765e-09
-1.30902e-08
-2.62429e-09
-1.12218e-08
-2.62197e-09
-9.37671e-09
-2.59277e-09
-7.58121e-09
-2.52664e-09
-5.87013e-09
-2.41088e-09
-4.28801e-09
-2.23063e-09
-2.88782e-09
-1.97239e-09
-1.72649e-09
-1.6295e-09
-8.54012e-10
-1.21125e-09
-2.97284e-10
-7.52532e-10
-3.64915e-11
-3.24275e-10
-1.49393e-11
-2.5873e-10
2.08066e-10
-7.84927e-10
6.6694e-10
-1.64837e-09
1.1751e-09
-2.89526e-09
2.03021e-09
-4.53532e-09
2.94734e-09
-6.52776e-09
3.73612e-09
-8.80122e-09
4.34784e-09
-1.12837e-08
4.79403e-09
-1.39108e-08
5.09884e-09
-1.66353e-08
5.29249e-09
-1.9419e-08
5.39989e-09
-2.22333e-08
5.44655e-09
-2.50546e-08
5.44937e-09
-2.78646e-08
5.41899e-09
-3.06495e-08
5.36197e-09
-3.33978e-08
5.28299e-09
-3.60998e-08
5.18609e-09
-3.87476e-08
5.07502e-09
-4.13353e-08
4.95332e-09
-4.38596e-08
4.82468e-09
-4.63185e-08
4.69264e-09
-4.8712e-08
4.5601e-09
-5.1041e-08
4.42931e-09
-5.3307e-08
4.30148e-09
-5.55111e-08
4.17658e-09
-5.76534e-08
4.05331e-09
-5.97328e-08
3.92945e-09
-6.17469e-08
3.80238e-09
-6.36923e-08
3.66963e-09
-6.55644e-08
3.52932e-09
-6.73586e-08
3.38028e-09
-6.90699e-08
3.22205e-09
-7.06937e-08
3.05493e-09
-7.22257e-08
2.87983e-09
-7.36625e-08
2.69821e-09
-7.50011e-08
2.51186e-09
-7.624e-08
2.32277e-09
-7.73783e-08
2.1329e-09
-7.84166e-08
1.94413e-09
-7.93562e-08
1.75813e-09
-8.0199e-08
1.57611e-09
-8.09469e-08
1.39856e-09
-8.16017e-08
1.22512e-09
-8.21643e-08
1.05494e-09
-8.26352e-08
8.87087e-10
-8.30147e-08
7.20928e-10
-8.33027e-08
5.56355e-10
-8.34996e-08
3.93565e-10
-8.3606e-08
2.329e-10
-8.36231e-08
7.45822e-11
-8.35522e-08
-8.14623e-11
-8.33941e-08
-2.35654e-10
-8.31493e-08
-3.88821e-10
-8.28176e-08
-5.42304e-10
-8.23985e-08
-6.97744e-10
-8.18908e-08
-8.56585e-10
-8.12933e-08
-1.01985e-09
-8.06045e-08
-1.1882e-09
-7.98224e-08
-1.36177e-09
-7.89451e-08
-1.53991e-09
-7.79706e-08
-1.72156e-09
-7.68981e-08
-1.90578e-09
-7.57273e-08
-2.09118e-09
-7.44593e-08
-2.27566e-09
-7.30962e-08
-2.45734e-09
-7.16407e-08
-2.63523e-09
-7.00959e-08
-2.80871e-09
-6.84654e-08
-2.97699e-09
-6.67528e-08
-3.13963e-09
-6.4962e-08
-3.29687e-09
-6.3097e-08
-3.44889e-09
-6.11617e-08
-3.59558e-09
-5.91594e-08
-3.73724e-09
-5.7093e-08
-3.87487e-09
-5.49651e-08
-4.00922e-09
-5.27782e-08
-4.1401e-09
-5.05335e-08
-4.26713e-09
-4.8232e-08
-4.39064e-09
-4.58742e-08
-4.51137e-09
-4.3461e-08
-4.62957e-09
-4.09934e-08
-4.74476e-09
-3.84725e-08
-4.85633e-09
-3.58999e-08
-4.96363e-09
-3.32785e-08
-5.06553e-09
-3.06124e-08
-5.16e-09
-2.79074e-08
-5.24418e-09
-2.51711e-08
-5.31432e-09
-2.24137e-08
-5.36502e-09
-1.96499e-08
-5.38811e-09
-1.68997e-08
-5.37211e-09
-1.41903e-08
-5.30221e-09
-1.15574e-08
-5.15949e-09
-9.04817e-09
-4.92015e-09
-6.72127e-09
-4.55752e-09
-4.64585e-09
-4.04781e-09
-2.89556e-09
-3.37982e-09
-1.5361e-09
-2.57076e-09
-6.09607e-10
-1.67906e-09
-1.17848e-10
-8.1599e-10
-1.32789e-10
-3.81044e-10
5.89109e-10
-1.25555e-09
1.54144e-09
-2.61025e-09
2.52981e-09
-4.4439e-09
3.86385e-09
-6.72508e-09
5.22853e-09
-9.39205e-09
6.40309e-09
-1.23651e-08
7.32091e-09
-1.55657e-08
7.99458e-09
-1.89282e-08
8.46141e-09
-2.23998e-08
8.76403e-09
-2.5939e-08
8.93909e-09
-2.95114e-08
9.01896e-09
-3.30902e-08
9.02815e-09
-3.66548e-08
8.98366e-09
-4.01895e-08
8.89668e-09
-4.36815e-08
8.77501e-09
-4.71203e-08
8.62487e-09
-5.04974e-08
8.45207e-09
-5.38063e-08
8.2622e-09
-5.70423e-08
8.06073e-09
-6.02025e-08
7.85278e-09
-6.32849e-08
7.64253e-09
-6.62885e-08
7.43293e-09
-6.92125e-08
7.22548e-09
-7.20558e-08
7.01988e-09
-7.48167e-08
6.81419e-09
-7.74926e-08
6.6054e-09
-8.00803e-08
6.39011e-09
-8.25759e-08
6.16523e-09
-8.49751e-08
5.92846e-09
-8.72732e-08
5.67844e-09
-8.9466e-08
5.41479e-09
-9.15491e-08
5.13808e-09
-9.3519e-08
4.84969e-09
-9.53724e-08
4.55164e-09
-9.71069e-08
4.24634e-09
-9.87206e-08
3.93648e-09
-1.00213e-07
3.62484e-09
-1.01583e-07
3.31408e-09
-1.02831e-07
3.00646e-09
-1.03958e-07
2.70347e-09
-1.04965e-07
2.40554e-09
-1.05852e-07
2.11214e-09
-1.06619e-07
1.82205e-09
-1.07266e-07
1.53397e-09
-1.07792e-07
1.24708e-09
-1.08197e-07
9.61178e-10
-1.0848e-07
6.76626e-10
-1.08641e-07
3.94076e-10
-1.08681e-07
1.14076e-10
-1.08599e-07
-1.63308e-10
-1.08396e-07
-4.386e-10
-1.08072e-07
-7.12744e-10
-1.07627e-07
-9.87233e-10
-1.07061e-07
-1.26374e-09
-1.06374e-07
-1.54377e-09
-1.05566e-07
-1.82834e-09
-1.04636e-07
-2.11819e-09
-1.03584e-07
-2.4137e-09
-1.02409e-07
-2.71438e-09
-1.01112e-07
-3.01898e-09
-9.96916e-08
-3.32597e-09
-9.81494e-08
-3.63337e-09
-9.64866e-08
-3.93842e-09
-9.47055e-08
-4.23846e-09
-9.28089e-08
-4.53185e-09
-9.08e-08
-4.81757e-09
-8.86825e-08
-5.09447e-09
-8.64605e-08
-5.36165e-09
-8.41384e-08
-5.61896e-09
-8.17207e-08
-5.86663e-09
-7.92115e-08
-6.10474e-09
-7.66151e-08
-6.33369e-09
-7.39353e-08
-6.55461e-09
-7.11759e-08
-6.76865e-09
-6.83397e-08
-6.97628e-09
-6.54292e-08
-7.17767e-09
-6.24464e-08
-7.37342e-09
-5.93933e-08
-7.56448e-09
-5.62716e-08
-7.75127e-09
-5.30831e-08
-7.93327e-09
-4.98301e-08
-8.10931e-09
-4.65158e-08
-8.27794e-09
-4.31442e-08
-8.43712e-09
-3.97206e-08
-8.5836e-09
-3.62521e-08
-8.71267e-09
-3.27486e-08
-8.81787e-09
-2.92234e-08
-8.89018e-09
-2.56948e-08
-8.91679e-09
-2.21867e-08
-8.88018e-09
-1.87315e-08
-8.75743e-09
-1.5372e-08
-8.51904e-09
-1.21632e-08
-8.12887e-09
-9.17294e-09
-7.5478e-09
-6.47975e-09
-6.74097e-09
-4.16692e-09
-5.69262e-09
-2.31537e-09
-4.42231e-09
-9.88733e-10
-3.00573e-09
-2.25733e-10
-1.57898e-09
-3.58522e-10
-4.48952e-10
1.03806e-09
-1.58507e-09
2.67756e-09
-3.35288e-09
4.29762e-09
-5.69533e-09
6.2063e-09
-8.53383e-09
8.06704e-09
-1.17838e-08
9.65303e-09
-1.53579e-08
1.0895e-08
-1.91706e-08
1.18073e-08
-2.31516e-08
1.24424e-08
-2.72429e-08
1.28553e-08
-3.14013e-08
1.30976e-08
-3.55915e-08
1.32091e-08
-3.97853e-08
1.3222e-08
-4.39609e-08
1.31593e-08
-4.81016e-08
1.30374e-08
-5.21946e-08
1.2868e-08
-5.62295e-08
1.26598e-08
-6.01979e-08
1.24205e-08
-6.4093e-08
1.21574e-08
-6.79095e-08
1.18772e-08
-7.16427e-08
1.1586e-08
-7.52886e-08
1.12884e-08
-7.88438e-08
1.09881e-08
-8.23051e-08
1.06867e-08
-8.5669e-08
1.03838e-08
-8.89321e-08
1.00773e-08
-9.20907e-08
9.76395e-09
-9.5141e-08
9.44039e-09
-9.80792e-08
9.10348e-09
-1.00902e-07
8.75086e-09
-1.03604e-07
8.38123e-09
-1.06184e-07
7.9944e-09
-1.08637e-07
7.59123e-09
-1.10961e-07
7.17345e-09
-1.13153e-07
6.74345e-09
-1.1521e-07
6.30402e-09
-1.17132e-07
5.85824e-09
-1.18917e-07
5.40925e-09
-1.20563e-07
4.96006e-09
-1.22069e-07
4.5131e-09
-1.23436e-07
4.06995e-09
-1.24661e-07
3.63105e-09
-1.25745e-07
3.1958e-09
-1.26686e-07
2.76298e-09
-1.27483e-07
2.33128e-09
-1.28136e-07
1.89984e-09
-1.28643e-07
1.46848e-09
-1.29004e-07
1.03763e-09
-1.29218e-07
6.08044e-10
-1.29284e-07
1.80418e-10
-1.29203e-07
-2.45034e-10
-1.28973e-07
-6.68703e-10
-1.28594e-07
-1.09137e-09
-1.28067e-07
-1.51422e-09
-1.27392e-07
-1.93874e-09
-1.2657e-07
-2.36622e-09
-1.256e-07
-2.79747e-09
-1.24486e-07
-3.23307e-09
-1.23226e-07
-3.67342e-09
-1.21822e-07
-4.1181e-09
-1.20275e-07
-4.56565e-09
-1.18587e-07
-5.01422e-09
-1.16759e-07
-5.46161e-09
-1.14792e-07
-5.90493e-09
-1.1269e-07
-6.34112e-09
-1.10454e-07
-6.768e-09
-1.08087e-07
-7.18418e-09
-1.05593e-07
-7.58827e-09
-1.02976e-07
-7.97899e-09
-1.00239e-07
-8.35574e-09
-9.73872e-08
-8.71856e-09
-9.44242e-08
-9.06769e-09
-9.13543e-08
-9.40361e-09
-8.81816e-08
-9.7273e-09
-8.49104e-08
-1.00398e-08
-8.15446e-08
-1.03421e-08
-7.80875e-08
-1.06348e-08
-7.45422e-08
-1.09187e-08
-7.0912e-08
-1.11947e-08
-6.72004e-08
-1.14629e-08
-6.34108e-08
-1.17228e-08
-5.9547e-08
-1.19731e-08
-5.56131e-08
-1.22118e-08
-5.16147e-08
-1.24356e-08
-4.75588e-08
-1.26395e-08
-4.34543e-08
-1.28172e-08
-3.93123e-08
-1.29599e-08
-3.5148e-08
-1.30545e-08
-3.09819e-08
-1.30829e-08
-2.68414e-08
-1.30207e-08
-2.27623e-08
-1.28365e-08
-1.87916e-08
-1.24898e-08
-1.49884e-08
-1.19321e-08
-1.14256e-08
-1.11106e-08
-8.18838e-09
-9.97818e-09
-5.36966e-09
-8.51134e-09
-3.06349e-09
-6.72845e-09
-1.35739e-09
-4.71186e-09
-3.30509e-10
-2.60585e-09
-6.8904e-10
-4.84815e-10
1.52288e-09
-1.81448e-09
4.00722e-09
-3.9046e-09
6.38774e-09
-6.65534e-09
8.95703e-09
-9.95009e-09
1.13618e-08
-1.36791e-08
1.3382e-08
-1.77429e-08
1.49589e-08
-2.20535e-08
1.61179e-08
-2.65348e-08
1.69236e-08
-3.11264e-08
1.7447e-08
-3.57816e-08
1.77527e-08
-4.04646e-08
1.78921e-08
-4.51473e-08
1.79047e-08
-4.98081e-08
1.782e-08
-5.443e-08
1.76593e-08
-5.9e-08
1.74379e-08
-6.35079e-08
1.71677e-08
-6.79457e-08
1.68582e-08
-7.23062e-08
1.65178e-08
-7.65829e-08
1.6154e-08
-8.07702e-08
1.57732e-08
-8.48624e-08
1.53807e-08
-8.88543e-08
1.49801e-08
-9.27407e-08
1.45731e-08
-9.65163e-08
1.41594e-08
-1.00176e-07
1.37374e-08
-1.03717e-07
1.33042e-08
-1.07133e-07
1.28568e-08
-1.10422e-07
1.23923e-08
-1.1358e-07
1.19088e-08
-1.16604e-07
1.14051e-08
-1.19491e-07
1.08814e-08
-1.22238e-07
1.03387e-08
-1.24844e-07
9.77893e-09
-1.27305e-07
9.20473e-09
-1.2962e-07
8.619e-09
-1.31786e-07
8.02492e-09
-1.33803e-07
7.42574e-09
-1.35667e-07
6.82446e-09
-1.37378e-07
6.22352e-09
-1.38932e-07
5.62445e-09
-1.40329e-07
5.02776e-09
-1.41566e-07
4.433e-09
-1.42642e-07
3.83916e-09
-1.43556e-07
3.24514e-09
-1.44307e-07
2.65027e-09
-1.44893e-07
2.05447e-09
-1.45313e-07
1.45814e-09
-1.45567e-07
8.6201e-10
-1.45654e-07
2.66871e-10
-1.45572e-07
-3.26839e-10
-1.45321e-07
-9.19306e-10
-1.44902e-07
-1.51103e-09
-1.44313e-07
-2.10269e-09
-1.43556e-07
-2.69529e-09
-1.42633e-07
-3.2899e-09
-1.41543e-07
-3.88704e-09
-1.40289e-07
-4.4869e-09
-1.38873e-07
-5.08966e-09
-1.37296e-07
-5.6949e-09
-1.35561e-07
-6.30109e-09
-1.33669e-07
-6.90615e-09
-1.31623e-07
-7.50782e-09
-1.29424e-07
-8.10334e-09
-1.27076e-07
-8.68961e-09
-1.2458e-07
-9.26415e-09
-1.21939e-07
-9.82519e-09
-1.19156e-07
-1.03711e-08
-1.16234e-07
-1.09004e-08
-1.13178e-07
-1.14122e-08
-1.0999e-07
-1.19063e-08
-1.06675e-07
-1.23828e-08
-1.03237e-07
-1.2842e-08
-9.96792e-08
-1.32848e-08
-9.60069e-08
-1.37121e-08
-9.22243e-08
-1.41247e-08
-8.83356e-08
-1.45235e-08
-8.43451e-08
-1.49092e-08
-8.0257e-08
-1.52827e-08
-7.6076e-08
-1.56439e-08
-7.18069e-08
-1.59919e-08
-6.7455e-08
-1.6325e-08
-6.30262e-08
-1.66407e-08
-5.85271e-08
-1.69346e-08
-5.39658e-08
-1.72008e-08
-4.93522e-08
-1.74308e-08
-4.46992e-08
-1.76128e-08
-4.0024e-08
-1.77298e-08
-3.53484e-08
-1.77585e-08
-3.0701e-08
-1.76681e-08
-2.61196e-08
-1.74178e-08
-2.16535e-08
-1.69559e-08
-1.73649e-08
-1.62206e-08
-1.33305e-08
-1.5145e-08
-9.63949e-09
-1.36692e-08
-6.39316e-09
-1.17577e-08
-3.69857e-09
-9.42304e-09
-1.66848e-09
-6.74195e-09
-4.17107e-10
-3.85724e-09
-1.10615e-09
-5.13109e-10
2.03598e-09
-1.97988e-09
5.47399e-09
-4.30952e-09
8.71739e-09
-7.36855e-09
1.20161e-08
-1.10175e-08
1.50107e-08
-1.51252e-08
1.74898e-08
-1.95777e-08
1.94113e-08
-2.42812e-08
2.08214e-08
-2.91565e-08
2.1799e-08
-3.4142e-08
2.24326e-08
-3.91882e-08
2.27989e-08
-4.42583e-08
2.29621e-08
-4.93242e-08
2.29707e-08
-5.43644e-08
2.28602e-08
-5.93622e-08
2.26571e-08
-6.43048e-08
2.23805e-08
-6.91819e-08
2.20448e-08
-7.39851e-08
2.16615e-08
-7.87071e-08
2.12398e-08
-8.33408e-08
2.07877e-08
-8.78796e-08
2.0312e-08
-9.23168e-08
1.98179e-08
-9.66458e-08
1.93091e-08
-1.0086e-07
1.87875e-08
-1.04954e-07
1.82532e-08
-1.08922e-07
1.77049e-08
-1.12758e-07
1.71406e-08
-1.16459e-07
1.65578e-08
-1.20021e-07
1.59543e-08
-1.23441e-07
1.53286e-08
-1.26716e-07
1.46799e-08
-1.29843e-07
1.40087e-08
-1.32821e-07
1.33162e-08
-1.35646e-07
1.26044e-08
-1.38317e-07
1.1876e-08
-1.40832e-07
1.11338e-08
-1.43188e-07
1.0381e-08
-1.45383e-07
9.62078e-09
-1.47415e-07
8.85597e-09
-1.4928e-07
8.08891e-09
-1.50977e-07
7.32112e-09
-1.52502e-07
6.55321e-09
-1.53854e-07
5.78501e-09
-1.55031e-07
5.01586e-09
-1.56031e-07
4.24505e-09
-1.56853e-07
3.47215e-09
-1.57495e-07
2.69721e-09
-1.57958e-07
1.92071e-09
-1.58239e-07
1.14335e-09
-1.58338e-07
3.65955e-10
-1.58254e-07
-4.10811e-10
-1.57987e-07
-1.18688e-09
-1.57536e-07
-1.96238e-09
-1.56901e-07
-2.73753e-09
-1.56083e-07
-3.51277e-09
-1.55084e-07
-4.2888e-09
-1.53906e-07
-5.06584e-09
-1.52549e-07
-5.84366e-09
-1.51016e-07
-6.62207e-09
-1.49311e-07
-7.40057e-09
-1.47434e-07
-8.17758e-09
-1.45389e-07
-8.95088e-09
-1.43179e-07
-9.71826e-09
-1.40805e-07
-1.04772e-08
-1.3827e-07
-1.12246e-08
-1.35577e-07
-1.19578e-08
-1.32727e-07
-1.2675e-08
-1.29724e-07
-1.33742e-08
-1.2657e-07
-1.40539e-08
-1.2327e-07
-1.47128e-08
-1.19825e-07
-1.53505e-08
-1.16241e-07
-1.5967e-08
-1.12521e-07
-1.65624e-08
-1.08669e-07
-1.7137e-08
-1.04689e-07
-1.76916e-08
-1.00587e-07
-1.8227e-08
-9.63664e-08
-1.87438e-08
-9.20329e-08
-1.92427e-08
-8.75917e-08
-1.97239e-08
-8.30484e-08
-2.01872e-08
-7.84089e-08
-2.06314e-08
-7.36793e-08
-2.10546e-08
-6.88666e-08
-2.14534e-08
-6.39788e-08
-2.18225e-08
-5.9025e-08
-2.21546e-08
-5.40164e-08
-2.24394e-08
-4.89667e-08
-2.26625e-08
-4.38937e-08
-2.28028e-08
-3.88202e-08
-2.2832e-08
-3.37761e-08
-2.27122e-08
-2.88004e-08
-2.23935e-08
-2.39437e-08
-2.18127e-08
-1.92696e-08
-2.08947e-08
-1.4857e-08
-1.95576e-08
-1.08001e-08
-1.77261e-08
-7.20843e-09
-1.53494e-08
-4.20144e-09
-1.243e-08
-1.91214e-09
-9.03124e-09
-4.83663e-10
-5.28572e-09
-1.5898e-09
-5.42313e-10
2.5783e-09
-2.10747e-09
7.03914e-09
-4.6075e-09
1.12174e-08
-7.89197e-09
1.53005e-08
-1.18063e-08
1.8925e-08
-1.62036e-08
2.18871e-08
-2.09583e-08
2.41661e-08
-2.59676e-08
2.58307e-08
-3.11503e-08
2.69816e-08
-3.64415e-08
2.77238e-08
-4.17917e-08
2.81492e-08
-4.7163e-08
2.83335e-08
-5.25269e-08
2.83345e-08
-5.78617e-08
2.8195e-08
-6.3151e-08
2.79464e-08
-6.83818e-08
2.76114e-08
-7.3544e-08
2.7207e-08
-7.86289e-08
2.67463e-08
-8.36285e-08
2.62394e-08
-8.85355e-08
2.56947e-08
-9.33427e-08
2.51192e-08
-9.80428e-08
2.4518e-08
-1.02629e-07
2.38949e-08
-1.07093e-07
2.3252e-08
-1.1143e-07
2.25897e-08
-1.15632e-07
2.19075e-08
-1.19696e-07
2.1204e-08
-1.23615e-07
2.04777e-08
-1.27388e-07
1.97269e-08
-1.3101e-07
1.89507e-08
-1.34479e-07
1.81488e-08
-1.37792e-07
1.73218e-08
-1.40947e-07
1.64713e-08
-1.43942e-07
1.55993e-08
-1.46774e-07
1.47083e-08
-1.49442e-07
1.38012e-08
-1.51942e-07
1.28809e-08
-1.54272e-07
1.19505e-08
-1.56428e-07
1.10127e-08
-1.58409e-07
1.00697e-08
-1.60211e-07
9.12304e-09
-1.61831e-07
8.17342e-09
-1.63267e-07
7.22105e-09
-1.64517e-07
6.26571e-09
-1.65579e-07
5.30708e-09
-1.66452e-07
4.34503e-09
-1.67135e-07
3.37987e-09
-1.67626e-07
2.41216e-09
-1.67925e-07
1.44262e-09
-1.68032e-07
4.72127e-10
-1.67944e-07
-4.98383e-10
-1.67662e-07
-1.46865e-09
-1.67186e-07
-2.43839e-09
-1.66516e-07
-3.40743e-09
-1.65653e-07
-4.37566e-09
-1.64599e-07
-5.34332e-09
-1.63354e-07
-6.31039e-09
-1.61922e-07
-7.27621e-09
-1.60304e-07
-8.24015e-09
-1.58503e-07
-9.20153e-09
-1.56522e-07
-1.01588e-08
-1.54363e-07
-1.11096e-08
-1.52029e-07
-1.20518e-08
-1.49523e-07
-1.2983e-08
-1.46848e-07
-1.39003e-08
-1.44004e-07
-1.4801e-08
-1.40996e-07
-1.5683e-08
-1.37826e-07
-1.65445e-08
-1.34496e-07
-1.73836e-08
-1.3101e-07
-1.81988e-08
-1.27371e-07
-1.89896e-08
-1.23583e-07
-1.97556e-08
-1.19649e-07
-2.04966e-08
-1.15573e-07
-2.12127e-08
-1.1136e-07
-2.19043e-08
-1.07015e-07
-2.25717e-08
-1.02544e-07
-2.32155e-08
-9.79506e-08
-2.38359e-08
-9.32417e-08
-2.44328e-08
-8.84233e-08
-2.50056e-08
-8.35021e-08
-2.55526e-08
-7.84852e-08
-2.60715e-08
-7.33804e-08
-2.65581e-08
-6.81964e-08
-2.70065e-08
-6.2943e-08
-2.7408e-08
-5.76319e-08
-2.77505e-08
-5.22779e-08
-2.80164e-08
-4.68996e-08
-2.81811e-08
-4.15201e-08
-2.82115e-08
-3.61696e-08
-2.80627e-08
-3.08878e-08
-2.76753e-08
-2.5726e-08
-2.69745e-08
-2.07497e-08
-2.58711e-08
-1.604e-08
-2.42673e-08
-1.16958e-08
-2.20703e-08
-7.83298e-09
-1.92122e-08
-4.58318e-09
-1.56798e-08
-2.09534e-09
-1.15191e-08
-5.33558e-10
-6.84751e-09
-2.12337e-09
-5.683e-10
3.1466e-09
-2.20631e-09
8.67715e-09
-4.82825e-09
1.38394e-08
-8.27737e-09
1.87497e-08
-1.23878e-08
2.30354e-08
-1.70034e-08
2.65027e-08
-2.199e-08
2.91526e-08
-2.72364e-08
3.10771e-08
-3.26579e-08
3.24031e-08
-3.81872e-08
3.32531e-08
-4.37742e-08
3.37361e-08
-4.93801e-08
3.39394e-08
-5.49759e-08
3.39303e-08
-6.054e-08
3.37591e-08
-6.60557e-08
3.34621e-08
-7.15101e-08
3.30658e-08
-7.68927e-08
3.25896e-08
-8.21945e-08
3.2048e-08
-8.74073e-08
3.14522e-08
-9.25235e-08
3.0811e-08
-9.75356e-08
3.01312e-08
-1.02436e-07
2.94184e-08
-1.07217e-07
2.8676e-08
-1.11872e-07
2.79066e-08
-1.16393e-07
2.7111e-08
-1.20775e-07
2.62894e-08
-1.25012e-07
2.54413e-08
-1.291e-07
2.45655e-08
-1.33035e-07
2.36614e-08
-1.36813e-07
2.27286e-08
-1.40431e-07
2.17672e-08
-1.43887e-07
2.07782e-08
-1.47179e-07
1.97631e-08
-1.50304e-07
1.87242e-08
-1.53259e-07
1.76637e-08
-1.56043e-07
1.65845e-08
-1.58651e-07
1.54894e-08
-1.61082e-07
1.43814e-08
-1.63332e-07
1.32629e-08
-1.65398e-07
1.2136e-08
-1.67278e-07
1.10024e-08
-1.68967e-07
9.86298e-09
-1.70465e-07
8.71827e-09
-1.71767e-07
7.5685e-09
-1.72874e-07
6.41378e-09
-1.73783e-07
5.25431e-09
-1.74494e-07
4.09061e-09
-1.75005e-07
2.92345e-09
-1.75316e-07
1.75364e-09
-1.75426e-07
5.82121e-10
-1.75335e-07
-5.90024e-10
-1.75041e-07
-1.76204e-09
-1.74546e-07
-2.93351e-09
-1.7385e-07
-4.10389e-09
-1.72953e-07
-5.27252e-09
-1.71857e-07
-6.4392e-09
-1.70564e-07
-7.60362e-09
-1.69075e-07
-8.7648e-09
-1.67394e-07
-9.92167e-09
-1.65522e-07
-1.10733e-08
-1.63463e-07
-1.22181e-08
-1.61218e-07
-1.33538e-08
-1.58792e-07
-1.4478e-08
-1.56187e-07
-1.55886e-08
-1.53404e-07
-1.66828e-08
-1.50447e-07
-1.7758e-08
-1.47318e-07
-1.88118e-08
-1.4402e-07
-1.98424e-08
-1.40556e-07
-2.08477e-08
-1.36929e-07
-2.18263e-08
-1.33141e-07
-2.27773e-08
-1.29197e-07
-2.36999e-08
-1.251e-07
-2.45936e-08
-1.20854e-07
-2.54582e-08
-1.16465e-07
-2.62937e-08
-1.11937e-07
-2.71001e-08
-1.07275e-07
-2.78775e-08
-1.02485e-07
-2.86257e-08
-9.75734e-08
-2.93442e-08
-9.2547e-08
-3.0032e-08
-8.74127e-08
-3.06869e-08
-8.21781e-08
-3.13061e-08
-7.68515e-08
-3.18848e-08
-7.14421e-08
-3.24159e-08
-6.59602e-08
-3.28899e-08
-6.04184e-08
-3.32924e-08
-5.48316e-08
-3.36032e-08
-4.92185e-08
-3.37942e-08
-4.36027e-08
-3.38274e-08
-3.8015e-08
-3.36504e-08
-3.24956e-08
-3.31947e-08
-2.70964e-08
-3.23737e-08
-2.1884e-08
-3.10835e-08
-1.69419e-08
-2.92094e-08
-1.23735e-08
-2.66387e-08
-8.30094e-09
-2.32848e-08
-4.86621e-09
-1.91146e-08
-2.2301e-09
-1.41552e-08
-5.70394e-10
-8.50721e-09
-2.69377e-09
-5.87984e-10
3.73458e-09
-2.2815e-09
1.03707e-08
-4.9931e-09
1.6551e-08
-8.56538e-09
2.23219e-08
-1.28234e-08
2.72934e-08
-1.76051e-08
3.12844e-08
-2.27691e-08
3.43166e-08
-2.82008e-08
3.65088e-08
-3.38096e-08
3.80119e-08
-3.95269e-08
3.89704e-08
-4.53007e-08
3.95099e-08
-5.10918e-08
3.97305e-08
-5.6871e-08
3.97095e-08
-6.26162e-08
3.95042e-08
-6.83104e-08
3.91564e-08
-7.39405e-08
3.8696e-08
-7.94958e-08
3.81449e-08
-8.49671e-08
3.75193e-08
-9.03459e-08
3.68311e-08
-9.56245e-08
3.60895e-08
-1.00795e-07
3.53018e-08
-1.0585e-07
3.44732e-08
-1.10782e-07
3.36077e-08
-1.15583e-07
3.27078e-08
-1.20247e-07
3.1775e-08
-1.24767e-07
3.08101e-08
-1.29139e-07
2.9813e-08
-1.33357e-07
2.87837e-08
-1.37418e-07
2.77218e-08
-1.41317e-07
2.66277e-08
-1.45052e-07
2.5502e-08
-1.48619e-07
2.43458e-08
-1.52017e-07
2.31609e-08
-1.55242e-07
2.19494e-08
-1.58293e-07
2.07138e-08
-1.61165e-07
1.94566e-08
-1.63856e-07
1.81807e-08
-1.66363e-07
1.68887e-08
-1.68684e-07
1.55832e-08
-1.70814e-07
1.42662e-08
-1.72751e-07
1.29394e-08
-1.74492e-07
1.16039e-08
-1.76034e-07
1.02606e-08
-1.77376e-07
8.91015e-09
-1.78515e-07
7.55313e-09
-1.79451e-07
6.19e-09
-1.80182e-07
4.82153e-09
-1.80707e-07
3.44874e-09
-1.81026e-07
2.07262e-09
-1.81138e-07
6.94159e-10
-1.81043e-07
-6.85359e-10
-1.8074e-07
-2.06478e-09
-1.8023e-07
-3.44347e-09
-1.79513e-07
-4.82061e-09
-1.78591e-07
-6.19511e-09
-1.77464e-07
-7.56626e-09
-1.76134e-07
-8.93348e-09
-1.74603e-07
-1.02956e-08
-1.72874e-07
-1.1651e-08
-1.70948e-07
-1.29986e-08
-1.6883e-07
-1.43367e-08
-1.66521e-07
-1.5663e-08
-1.64023e-07
-1.69751e-08
-1.61341e-07
-1.82709e-08
-1.58476e-07
-1.95477e-08
-1.55431e-07
-2.08029e-08
-1.52209e-07
-2.20341e-08
-1.48812e-07
-2.32392e-08
-1.45244e-07
-2.44163e-08
-1.41506e-07
-2.55637e-08
-1.37604e-07
-2.66801e-08
-1.33539e-07
-2.77646e-08
-1.29316e-07
-2.88164e-08
-1.2494e-07
-2.98347e-08
-1.20414e-07
-3.08191e-08
-1.15745e-07
-3.17695e-08
-1.10937e-07
-3.26854e-08
-1.05996e-07
-3.35662e-08
-1.0093e-07
-3.44108e-08
-9.57439e-08
-3.52178e-08
-9.04461e-08
-3.59847e-08
-8.50443e-08
-3.67079e-08
-7.95472e-08
-3.73819e-08
-7.39642e-08
-3.79989e-08
-6.83059e-08
-3.85482e-08
-6.25851e-08
-3.90132e-08
-5.68172e-08
-3.93711e-08
-5.10211e-08
-3.95904e-08
-4.52206e-08
-3.96279e-08
-3.94467e-08
-3.94243e-08
-3.37401e-08
-3.89014e-08
-2.81532e-08
-3.79605e-08
-2.27541e-08
-3.64826e-08
-1.76286e-08
-3.43348e-08
-1.28843e-08
-3.1383e-08
-8.64933e-09
-2.75198e-08
-5.07373e-09
-2.26902e-08
-2.32775e-09
-1.69012e-08
-5.96797e-10
-1.02382e-08
-3.29057e-09
-6.03386e-10
4.33797e-09
-2.34095e-09
1.21082e-08
-5.12226e-09
1.93323e-08
-8.789e-09
2.59887e-08
-1.31614e-08
3.16658e-08
-1.80725e-08
3.61955e-08
-2.33765e-08
3.96206e-08
-2.89553e-08
4.20877e-08
-3.47145e-08
4.37711e-08
-4.05836e-08
4.48395e-08
-4.65088e-08
4.54351e-08
-5.24504e-08
4.56721e-08
-5.83784e-08
4.56376e-08
-6.42705e-08
4.53963e-08
-7.01094e-08
4.49952e-08
-7.58816e-08
4.44682e-08
-8.15762e-08
4.38395e-08
-8.71837e-08
4.31268e-08
-9.26955e-08
4.23429e-08
-9.81037e-08
4.14977e-08
-1.034e-07
4.05985e-08
-1.08578e-07
3.96509e-08
-1.13629e-07
3.86588e-08
-1.18547e-07
3.76253e-08
-1.23324e-07
3.65522e-08
-1.27955e-07
3.54408e-08
-1.32433e-07
3.42917e-08
-1.36755e-07
3.31055e-08
-1.40916e-07
3.18825e-08
-1.44911e-07
3.06234e-08
-1.48739e-07
2.93294e-08
-1.52395e-07
2.80019e-08
-1.55877e-07
2.66428e-08
-1.59182e-07
2.52541e-08
-1.62306e-07
2.38385e-08
-1.65248e-07
2.23983e-08
-1.68004e-07
2.09365e-08
-1.7057e-07
1.94555e-08
-1.72945e-07
1.79578e-08
-1.75124e-07
1.64455e-08
-1.77105e-07
1.49204e-08
-1.78885e-07
1.33839e-08
-1.80462e-07
1.18372e-08
-1.81833e-07
1.02813e-08
-1.82997e-07
8.71717e-09
-1.83953e-07
7.14562e-09
-1.84699e-07
5.56762e-09
-1.85235e-07
3.98446e-09
-1.85559e-07
2.39738e-09
-1.85673e-07
8.07484e-10
-1.85574e-07
-7.83807e-10
-1.85264e-07
-2.37498e-09
-1.84742e-07
-3.96508e-09
-1.8401e-07
-5.55313e-09
-1.83067e-07
-7.13767e-09
-1.81916e-07
-8.71753e-09
-1.80558e-07
-1.02918e-08
-1.78994e-07
-1.1859e-08
-1.77228e-07
-1.34175e-08
-1.75261e-07
-1.49656e-08
-1.73096e-07
-1.65017e-08
-1.70735e-07
-1.80233e-08
-1.68182e-07
-1.95281e-08
-1.65439e-07
-2.10138e-08
-1.62509e-07
-2.2478e-08
-1.59394e-07
-2.39178e-08
-1.56097e-07
-2.53309e-08
-1.52622e-07
-2.67151e-08
-1.4897e-07
-2.80683e-08
-1.45144e-07
-2.93888e-08
-1.4115e-07
-3.06749e-08
-1.36989e-07
-3.19254e-08
-1.32666e-07
-3.31391e-08
-1.28186e-07
-3.43151e-08
-1.23552e-07
-3.54525e-08
-1.18771e-07
-3.65507e-08
-1.13848e-07
-3.76087e-08
-1.08788e-07
-3.86256e-08
-1.03599e-07
-3.95998e-08
-9.82877e-08
-4.05295e-08
-9.28608e-08
-4.14116e-08
-8.73269e-08
-4.22419e-08
-8.16946e-08
-4.30141e-08
-7.59737e-08
-4.37199e-08
-7.0175e-08
-4.43469e-08
-6.43115e-08
-4.48766e-08
-5.83988e-08
-4.52838e-08
-5.24557e-08
-4.55335e-08
-4.65062e-08
-4.55773e-08
-4.05819e-08
-4.53487e-08
-3.47234e-08
-4.47598e-08
-2.89842e-08
-4.36997e-08
-2.34334e-08
-4.20334e-08
-1.81598e-08
-3.96084e-08
-1.32743e-08
-3.62686e-08
-8.91094e-09
-3.18831e-08
-5.22613e-09
-2.6375e-08
-2.39785e-09
-1.97295e-08
-6.14942e-10
-1.20211e-08
-3.90551e-09
-6.1902e-10
4.95699e-09
-2.39362e-09
1.38828e-08
-5.23116e-09
2.21698e-08
-8.97305e-09
2.97306e-08
-1.34384e-08
3.61312e-08
-1.84548e-08
4.12119e-08
-2.38739e-08
4.50397e-08
-2.95735e-08
4.77873e-08
-3.54582e-08
4.96558e-08
-4.14543e-08
5.08356e-08
-4.75069e-08
5.14878e-08
-5.35753e-08
5.17405e-08
-5.9629e-08
5.16912e-08
-6.5645e-08
5.14123e-08
-7.16058e-08
5.09561e-08
-7.74976e-08
5.03601e-08
-8.33092e-08
4.96511e-08
-8.90308e-08
4.88483e-08
-9.46537e-08
4.79659e-08
-1.0017e-07
4.70139e-08
-1.05572e-07
4.60002e-08
-1.10851e-07
4.49304e-08
-1.16001e-07
4.38089e-08
-1.21015e-07
4.2639e-08
-1.25886e-07
4.1423e-08
-1.30607e-07
4.01625e-08
-1.35175e-07
3.88589e-08
-1.39582e-07
3.7513e-08
-1.43826e-07
3.61259e-08
-1.47901e-07
3.46989e-08
-1.51805e-07
3.32334e-08
-1.55534e-07
3.1731e-08
-1.59085e-07
3.01938e-08
-1.62455e-07
2.8624e-08
-1.6564e-07
2.70241e-08
-1.68639e-07
2.53968e-08
-1.71447e-07
2.37446e-08
-1.74062e-07
2.20702e-08
-1.7648e-07
2.03761e-08
-1.78699e-07
1.86642e-08
-1.80715e-07
1.69367e-08
-1.82526e-07
1.51952e-08
-1.8413e-07
1.34412e-08
-1.85525e-07
1.1676e-08
-1.86709e-07
9.90095e-09
-1.8768e-07
8.11717e-09
-1.88439e-07
6.32585e-09
-1.88983e-07
4.52854e-09
-1.89312e-07
2.72679e-09
-1.89426e-07
9.21858e-10
-1.89326e-07
-8.84723e-10
-1.89009e-07
-2.69115e-09
-1.88478e-07
-4.4961e-09
-1.87733e-07
-6.29839e-09
-1.86774e-07
-8.09636e-09
-1.85604e-07
-9.88838e-09
-1.84222e-07