/*--------------------------------*- C++ -*----------------------------------*\
| =========                 |                                                 |
| \\      /  F ield         | OpenFOAM: The Open Source CFD Toolbox           |
|  \\    /   O peration     | Version:  2212                                  |
|   \\  /    A nd           | Website:  www.openfoam.com                      |
|    \\/     M anipulation  |                                                 |
\*---------------------------------------------------------------------------*/
FoamFile
{
    version     2.0;
    format      ascii;
    arch        "LSB;label=32;scalar=64";
    class       surfaceScalarField;
    location    "0.0785";
    object      phi;
}
// * * * * * * * * * * * * * * * * * * * * * * * * * * * * * * * * * * * * * //

dimensions      [0 3 -1 0 0 0 0];

oriented        oriented;

internalField   nonuniform List<scalar> 
19800
(
6.97923e-11
-6.98027e-11
2.39524e-10
-1.69729e-10
4.26263e-10
-1.86742e-10
5.72612e-10
-1.46351e-10
6.45702e-10
-7.30899e-11
6.27398e-10
1.82997e-11
5.08659e-10
1.18745e-10
2.86144e-10
2.22514e-10
-3.98244e-11
3.25979e-10
-4.66611e-10
4.26789e-10
-9.90021e-10
5.23413e-10
-1.60483e-09
6.14814e-10
-2.30516e-09
7.00318e-10
-3.08464e-09
7.79483e-10
-3.93667e-09
8.52034e-10
-4.85448e-09
9.17809e-10
-5.83123e-09
9.76744e-10
-6.86006e-09
1.02883e-09
-7.93417e-09
1.07411e-09
-9.04684e-09
1.11268e-09
-1.01915e-08
1.14462e-09
-1.13616e-08
1.1701e-09
-1.25508e-08
1.18926e-09
-1.37531e-08
1.20226e-09
-1.49624e-08
1.20929e-09
-1.61729e-08
1.21054e-09
-1.73791e-08
1.20619e-09
-1.85755e-08
1.19645e-09
-1.97571e-08
1.18151e-09
-2.09187e-08
1.1616e-09
-2.20556e-08
1.13692e-09
-2.31633e-08
1.10767e-09
-2.42373e-08
1.07407e-09
-2.52737e-08
1.03634e-09
-2.62683e-08
9.94677e-10
-2.72176e-08
9.49299e-10
-2.81181e-08
9.00419e-10
-2.89663e-08
8.48258e-10
-2.97594e-08
7.93027e-10
-3.04943e-08
7.34941e-10
-3.11685e-08
6.74217e-10
-3.17796e-08
6.11072e-10
-3.23253e-08
5.45732e-10
-3.28037e-08
4.78418e-10
-3.32131e-08
4.09354e-10
-3.35519e-08
3.3878e-10
-3.38188e-08
2.66919e-10
-3.40128e-08
1.94e-10
-3.41331e-08
1.20269e-10
-3.4179e-08
4.59634e-11
-3.41503e-08
-2.86814e-11
-3.40469e-08
-1.03411e-10
-3.3869e-08
-1.77969e-10
-3.36169e-08
-2.52105e-10
-3.32913e-08
-3.25558e-10
-3.28932e-08
-3.98059e-10
-3.24239e-08
-4.69347e-10
-3.18847e-08
-5.39159e-10
-3.12775e-08
-6.07221e-10
-3.06042e-08
-6.73261e-10
-2.98672e-08
-7.36999e-10
-2.90691e-08
-7.98152e-10
-2.82126e-08
-8.56443e-10
-2.7301e-08
-9.11603e-10
-2.63377e-08
-9.63355e-10
-2.53263e-08
-1.01142e-09
-2.42707e-08
-1.05552e-09
-2.31753e-08
-1.09541e-09
-2.20445e-08
-1.1308e-09
-2.08831e-08
-1.16143e-09
-1.9696e-08
-1.18707e-09
-1.84885e-08
-1.20747e-09
-1.72662e-08
-1.22239e-09
-1.60345e-08
-1.23162e-09
-1.47996e-08
-1.23493e-09
-1.35674e-08
-1.23215e-09
-1.23444e-08
-1.22309e-09
-1.11368e-08
-1.20758e-09
-9.9513e-09
-1.18547e-09
-8.79465e-09
-1.15666e-09
-7.67361e-09
-1.12104e-09
-6.59506e-09
-1.07855e-09
-5.56589e-09
-1.02917e-09
-4.59298e-09
-9.72902e-10
-3.68317e-09
-9.0981e-10
-2.84318e-09
-8.4e-10
-2.07952e-09
-7.63657e-10
-1.39845e-09
-6.81066e-10
-8.05808e-10
-5.92637e-10
-3.06868e-10
-4.98944e-10
9.39172e-11
-4.00789e-10
3.93247e-10
-2.99328e-10
5.89482e-10
-1.96232e-10
6.83451e-10
-9.39693e-11
6.79727e-10
3.72393e-12
5.88671e-10
9.10568e-11
4.29634e-10
1.59039e-10
2.36424e-10
1.93211e-10
6.65003e-11
1.69922e-10
6.65009e-11
1.69745e-10
-2.39551e-10
4.6629e-10
-4.66272e-10
7.50318e-10
-4.70766e-10
9.21013e-10
-3.17047e-10
9.08393e-10
-6.04663e-11
6.67608e-10
2.59073e-10
1.72561e-10
6.13793e-10
-5.89455e-10
9.84525e-10
-1.6216e-09
1.35812e-09
-2.9203e-09
1.72549e-09
-4.47719e-09
2.0803e-09
-6.2805e-09
2.41813e-09
-8.31608e-09
2.73589e-09
-1.05681e-08
3.03146e-09
-1.30194e-08
3.30341e-09
-1.56525e-08
3.55082e-09
-1.84489e-08
3.77316e-09
-2.13902e-08
3.97019e-09
-2.4458e-08
4.14189e-09
-2.76337e-08
4.28841e-09
-3.08992e-08
4.41006e-09
-3.42363e-08
4.50724e-09
-3.76275e-08
4.58045e-09
-4.10555e-08
4.63025e-09
-4.45034e-08
4.65725e-09
-4.7955e-08
4.66213e-09
-5.13944e-08
4.64558e-09
-5.48063e-08
4.60833e-09
-5.8176e-08
4.55114e-09
-6.14891e-08
4.47476e-09
-6.47322e-08
4.37997e-09
-6.78921e-08
4.26757e-09
-7.09563e-08
4.13836e-09
-7.39132e-08
3.99314e-09
-7.67512e-08
3.83274e-09
-7.94599e-08
3.65796e-09
-8.20291e-08
3.46964e-09
-8.44495e-08
3.2686e-09
-8.67121e-08
3.05567e-09
-8.88089e-08
2.8317e-09
-9.07322e-08
2.59753e-09
-9.24751e-08
2.354e-09
-9.40313e-08
2.10198e-09
-9.53953e-08
1.84234e-09
-9.65619e-08
1.57596e-09
-9.75268e-08
1.30373e-09
-9.82865e-08
1.02656e-09
-9.88378e-08
7.45344e-10
-9.91785e-08
4.61002e-10
-9.9307e-08
1.74476e-10
-9.92224e-08
-1.13289e-10
-9.89245e-08
-4.01333e-10
-9.84138e-08
-6.8867e-10
-9.76916e-08
-9.74305e-10
-9.67599e-08
-1.25724e-09
-9.56215e-08
-1.53647e-09
-9.42799e-08
-1.81094e-09
-9.27394e-08
-2.07964e-09
-9.10051e-08
-2.34152e-09
-8.90829e-08
-2.59553e-09
-8.69792e-08
-2.84059e-09
-8.47017e-08
-3.07566e-09
-8.22585e-08
-3.29965e-09
-7.96586e-08
-3.51151e-09
-7.69118e-08
-3.71017e-09
-7.40286e-08
-3.89461e-09
-7.10204e-08
-4.06379e-09
-6.78991e-08
-4.21668e-09
-6.46776e-08
-4.35228e-09
-6.13694e-08
-4.46963e-09
-5.79887e-08
-4.56777e-09
-5.45504e-08
-4.64579e-09
-5.10699e-08
-4.70283e-09
-4.75635e-08
-4.73808e-09
-4.40476e-08
-4.75076e-09
-4.05396e-08
-4.74017e-09
-3.7057e-08
-4.70565e-09
-3.3618e-08
-4.64665e-09
-3.02408e-08
-4.56267e-09
-2.69441e-08
-4.45332e-09
-2.37468e-08
-4.31834e-09
-2.06678e-08
-4.15758e-09
-1.77259e-08
-3.97106e-09
-1.49398e-08
-3.75894e-09
-1.2328e-08
-3.52161e-09
-9.90833e-09
-3.2597e-09
-7.6978e-09
-2.97418e-09
-5.71249e-09
-2.6664e-09
-3.96691e-09
-2.33823e-09
-2.47359e-09
-1.99227e-09
-1.24234e-09
-1.63203e-09
-2.79273e-10
-1.26239e-09
4.14557e-10
-8.90067e-10
8.45064e-10
-5.2448e-10
1.02781e-09
-1.79015e-10
9.91711e-10
1.27166e-10
7.84067e-10
3.66689e-10
4.76507e-10
5.00772e-10
1.69845e-10
4.76581e-10
2.36344e-10
1.87432e-10
-4.2698e-10
4.7294e-10
-7.51782e-10
6.85305e-10
-6.83124e-10
7.03104e-10
-3.34847e-10
4.38433e-10
2.04217e-10
-1.6868e-10
8.66193e-10
-1.15572e-09
1.60084e-09
-2.54284e-09
2.37165e-09
-4.33699e-09
3.15227e-09
-6.53515e-09
3.92365e-09
-9.12688e-09
4.67204e-09
-1.20962e-08
5.38747e-09
-1.54231e-08
6.06279e-09
-1.90845e-08
6.69289e-09
-2.30553e-08
7.27419e-09
-2.73088e-08
7.80428e-09
-3.18172e-08
8.28162e-09
-3.65524e-08
8.70536e-09
-4.14857e-08
9.07518e-09
-4.65885e-08
9.39119e-09
-5.18323e-08
9.65384e-09
-5.71889e-08
9.86381e-09
-6.26305e-08
1.0022e-08
-6.81298e-08
1.01296e-08
-7.36604e-08
1.01878e-08
-7.91962e-08
1.01979e-08
-8.47121e-08
1.01615e-08
-9.01836e-08
1.00799e-08
-9.55873e-08
9.95478e-09
-1.009e-07
9.78781e-09
-1.06101e-07
9.58061e-09
-1.11168e-07
9.3349e-09
-1.16082e-07
9.05238e-09
-1.20824e-07
8.73482e-09
-1.25375e-07
8.38398e-09
-1.29719e-07
8.00164e-09
-1.33839e-07
7.58961e-09
-1.3772e-07
7.14968e-09
-1.41348e-07
6.6837e-09
-1.4471e-07
6.19351e-09
-1.47793e-07
5.68094e-09
-1.50587e-07
5.1479e-09
-1.53081e-07
4.59626e-09
-1.55267e-07
4.02793e-09
-1.57136e-07
3.44485e-09
-1.58681e-07
2.84899e-09
-1.59897e-07
2.24231e-09
-1.60778e-07
1.62683e-09
-1.61322e-07
1.00456e-09
-1.61525e-07
3.77565e-10
-1.61386e-07
-2.52063e-10
-1.60905e-07
-8.82207e-10
-1.60083e-07
-1.51073e-09
-1.58922e-07
-2.13545e-09
-1.57425e-07
-2.75416e-09
-1.55597e-07
-3.36465e-09
-1.53443e-07
-3.96468e-09
-1.50971e-07
-4.55195e-09
-1.48188e-07
-5.1242e-09
-1.45105e-07
-5.67912e-09
-1.41731e-07
-6.2144e-09
-1.38079e-07
-6.72772e-09
-1.34162e-07
-7.21677e-09
-1.29994e-07
-7.67922e-09
-1.25591e-07
-8.1128e-09
-1.20971e-07
-8.51523e-09
-1.1615e-07
-8.88427e-09
-1.11149e-07
-9.21773e-09
-1.05988e-07
-9.51346e-09
-1.00688e-07
-9.76935e-09
-9.52727e-08
-9.98338e-09
-8.97649e-08
-1.01536e-08
-8.41896e-08
-1.02782e-08
-7.85723e-08
-1.03554e-08
-7.29394e-08
-1.03836e-08
-6.73182e-08
-1.03613e-08
-6.17366e-08
-1.02873e-08
-5.6223e-08
-1.01603e-08
-5.08063e-08
-9.97939e-09
-4.55157e-08
-9.74389e-09
-4.03807e-08
-9.45333e-09
-3.54307e-08
-9.10755e-09
-3.0695e-08
-8.70675e-09
-2.62025e-08
-8.25151e-09
-2.19811e-08
-7.74293e-09
-1.80582e-08
-7.18267e-09
-1.44592e-08
-6.57316e-09
-1.12079e-08
-5.91769e-09
-8.32536e-09
-5.22078e-09
-5.82918e-09
-4.48844e-09
-3.73247e-09
-3.72875e-09
-2.04238e-09
-2.95248e-09
-7.58298e-10
-2.17415e-09
1.30582e-10
-1.41336e-09
6.48354e-10
-6.96788e-10
8.36312e-10
-6.07963e-11
7.57716e-10
4.45283e-10
5.02821e-10
7.55673e-10
1.93738e-10
7.85666e-10
4.30077e-10
1.48711e-10
-5.75689e-10
3.24196e-10
-9.27276e-10
3.45845e-10
-7.04771e-10
8.42519e-11
-7.32597e-11
-5.55571e-10
8.44035e-10
-1.64037e-09
1.951e-09
-3.21351e-09
3.17398e-09
-5.29944e-09
4.45759e-09
-7.90753e-09
5.76036e-09
-1.10353e-08
7.05138e-09
-1.46708e-08
8.30759e-09
-1.87952e-08
9.51189e-09
-2.33841e-08
1.06516e-08
-2.84087e-08
1.17175e-08
-3.38374e-08
1.27029e-08
-3.96362e-08
1.36031e-08
-4.57696e-08
1.4415e-08
-5.2201e-08
1.51367e-08
-5.88931e-08
1.57673e-08
-6.58085e-08
1.63066e-08
-7.29097e-08
1.6755e-08
-8.01594e-08
1.71136e-08
-8.7521e-08
1.73836e-08
-9.49582e-08
1.75668e-08
-1.02436e-07
1.76652e-08
-1.09919e-07
1.76809e-08
-1.17373e-07
1.76163e-08
-1.24767e-07
1.74739e-08
-1.32069e-07
1.72564e-08
-1.39248e-07
1.69665e-08
-1.46274e-07
1.6607e-08
-1.5312e-07
1.61809e-08
-1.59759e-07
1.5691e-08
-1.66164e-07
1.51404e-08
-1.72313e-07
1.4532e-08
-1.7818e-07
1.38691e-08
-1.83745e-07
1.31546e-08
-1.88987e-07
1.23917e-08
-1.93887e-07
1.15837e-08
-1.98427e-07
1.07336e-08
-2.02591e-07
9.84466e-09
-2.06363e-07
8.92023e-09
-2.0973e-07
7.96356e-09
-2.1268e-07
6.97796e-09
-2.15202e-07
5.96682e-09
-2.17287e-07
4.93353e-09
-2.18926e-07
3.88154e-09
-2.20114e-07
2.81434e-09
-2.20845e-07
1.73546e-09
-2.21115e-07
6.48488e-10
-2.20925e-07
-4.42956e-10
-2.20272e-07
-1.53518e-09
-2.19158e-07
-2.62447e-09
-2.17586e-07
-3.70704e-09
-2.15561e-07
-4.77908e-09
-2.13089e-07
-5.83672e-09
-2.10178e-07
-6.87608e-09
-2.06837e-07
-7.89323e-09
-2.03077e-07
-8.88421e-09
-1.98911e-07
-9.84503e-09
-1.94353e-07
-1.07717e-08
-1.89421e-07
-1.16602e-08
-1.84131e-07
-1.25067e-08
-1.78503e-07
-1.33069e-08
-1.72559e-07
-1.40572e-08
-1.66321e-07
-1.47535e-08
-1.59813e-07
-1.53919e-08
-1.53062e-07
-1.59689e-08
-1.46095e-07
-1.64806e-08
-1.38941e-07
-1.69234e-08
-1.3163e-07
-1.72941e-08
-1.24194e-07
-1.75891e-08
-1.16667e-07
-1.78055e-08
-1.09082e-07
-1.79404e-08
-1.01475e-07
-1.79909e-08
-9.38813e-08
-1.79548e-08
-8.63389e-08
-1.78297e-08
-7.88852e-08
-1.7614e-08
-7.15586e-08
-1.7306e-08
-6.43977e-08
-1.69048e-08
-5.74413e-08
-1.64097e-08
-5.0728e-08
-1.58208e-08
-4.42961e-08
-1.51386e-08
-3.81832e-08
-1.43645e-08
-3.24255e-08
-1.35006e-08
-2.70579e-08
-1.25502e-08
-2.21132e-08
-1.15179e-08
-1.7621e-08
-1.04099e-08
-1.36076e-08
-9.2342e-09
-1.00944e-08
-8.00169e-09
-7.09671e-09
-6.7264e-09
-4.62242e-09
-5.42678e-09
-2.66957e-09
-4.12699e-09
-1.22412e-09
-2.85881e-09
-2.56856e-10
-1.66406e-09
2.80174e-10
-5.97832e-10
4.57832e-10
2.67626e-10
3.74384e-10
8.39129e-10
1.61294e-10
9.98755e-10
5.91368e-10
7.79423e-11
-6.53623e-10
7.481e-11
-9.24142e-10
-1.80706e-10
-4.49251e-10
-8.15286e-10
5.61324e-10
-1.92334e-09
1.95209e-09
-3.57235e-09
3.6e-09
-5.80705e-09
5.40869e-09
-8.65317e-09
7.30371e-09
-1.21207e-08
9.2279e-09
-1.62068e-08
1.11375e-08
-2.08981e-08
1.2999e-08
-2.61733e-08
1.4787e-08
-3.20041e-08
1.64824e-08
-3.83574e-08
1.80708e-08
-4.51961e-08
1.95416e-08
-5.24802e-08
2.08872e-08
-6.01675e-08
2.21023e-08
-6.82142e-08
2.31835e-08
-7.65758e-08
2.41289e-08
-8.5207e-08
2.49378e-08
-9.40624e-08
2.56105e-08
-1.03097e-07
2.61481e-08
-1.12266e-07
2.65525e-08
-1.21525e-07
2.68258e-08
-1.30831e-07
2.6971e-08
-1.40141e-07
2.6991e-08
-1.49414e-07
2.68893e-08
-1.58609e-07
2.66696e-08
-1.67689e-07
2.63357e-08
-1.76614e-07
2.58919e-08
-1.85349e-07
2.53421e-08
-1.93859e-07
2.46909e-08
-2.02111e-07
2.39426e-08
-2.10072e-07
2.31017e-08
-2.17713e-07
2.21728e-08
-2.25004e-07
2.11606e-08
-2.31919e-07
2.00698e-08
-2.38433e-07
1.89052e-08
-2.44521e-07
1.76716e-08
-2.50161e-07
1.63739e-08
-2.55333e-07
1.50169e-08
-2.60019e-07
1.36058e-08
-2.64201e-07
1.21455e-08
-2.67864e-07
1.06411e-08
-2.70995e-07
9.09773e-09
-2.73582e-07
7.52065e-09
-2.75616e-07
5.91512e-09
-2.77088e-07
4.28648e-09
-2.77992e-07
2.64012e-09
-2.78325e-07
9.81545e-10
-2.78085e-07
-6.83704e-10
-2.7727e-07
-2.35001e-09
-2.75883e-07
-4.01167e-09
-2.73927e-07
-5.66292e-09
-2.71408e-07
-7.29794e-09
-2.68334e-07
-8.91085e-09
-2.64714e-07
-1.04957e-08
-2.60561e-07
-1.20465e-08
-2.55888e-07
-1.35573e-08
-2.50711e-07
-1.50219e-08
-2.45048e-07
-1.64343e-08
-2.3892e-07
-1.77885e-08
-2.32348e-07
-1.90784e-08
-2.25357e-07
-2.02979e-08
-2.17973e-07
-2.14412e-08
-2.10225e-07
-2.25022e-08
-2.02141e-07
-2.34753e-08
-1.93755e-07
-2.43547e-08
-1.85101e-07
-2.51348e-08
-1.76214e-07
-2.58104e-08
-1.67132e-07
-2.63763e-08
-1.57894e-07
-2.68275e-08
-1.4854e-07
-2.71594e-08
-1.39112e-07
-2.73678e-08
-1.29655e-07
-2.74485e-08
-1.20211e-07
-2.73981e-08
-1.10827e-07
-2.72135e-08
-1.01549e-07
-2.6892e-08
-9.24237e-08
-2.64317e-08
-8.34975e-08
-2.58311e-08
-7.48176e-08
-2.50896e-08
-6.64308e-08
-2.42076e-08
-5.83832e-08
-2.31862e-08
-5.07199e-08
-2.20278e-08
-4.34843e-08
-2.07362e-08
-3.67177e-08
-1.93168e-08
-3.04587e-08
-1.77769e-08
-2.47422e-08
-1.61264e-08
-1.95986e-08
-1.43779e-08
-1.50523e-08
-1.25479e-08
-1.1121e-08
-1.06578e-08
-7.81315e-09
-8.73462e-09
-5.12665e-09
-6.81349e-09
-3.04617e-09
-4.93929e-09
-1.54053e-09
-3.1697e-09
-5.59651e-10
-1.57871e-09
-3.10428e-11
-2.60978e-10
1.44122e-10
6.63965e-10
9.62449e-11
1.04662e-09
6.8761e-10
-1.05091e-11
-6.4311e-10
-2.36625e-10
-6.98026e-10
-8.29271e-10
1.43399e-10
-1.90429e-09
1.63636e-09
-3.54954e-09
3.59734e-09
-5.8286e-09
5.87906e-09
-8.78394e-09
8.36402e-09
-1.24398e-08
1.09596e-08
-1.68049e-08
1.3593e-08
-2.18749e-08
1.62075e-08
-2.76346e-08
1.87587e-08
-3.40598e-08
2.12122e-08
-4.11192e-08
2.35418e-08
-4.87754e-08
2.57271e-08
-5.69868e-08
2.7753e-08
-6.57081e-08
2.96085e-08
-7.48914e-08
3.12855e-08
-8.44868e-08
3.27789e-08
-9.44431e-08
3.40852e-08
-1.04709e-07
3.52032e-08
-1.15231e-07
3.61327e-08
-1.25957e-07
3.68749e-08
-1.36837e-07
3.74318e-08
-1.47817e-07
3.78064e-08
-1.58849e-07
3.80022e-08
-1.69881e-07
3.80234e-08
-1.80866e-07
3.78745e-08
-1.91757e-07
3.75605e-08
-2.02508e-07
3.70867e-08
-2.13075e-07
3.64587e-08
-2.23415e-07
3.56822e-08
-2.33488e-07
3.47632e-08
-2.43253e-07
3.37078e-08
-2.52674e-07
3.25225e-08
-2.61714e-07
3.12134e-08
-2.70341e-07
2.97873e-08
-2.78522e-07
2.82506e-08
-2.86226e-07
2.661e-08
-2.93427e-07
2.48724e-08
-3.00098e-07
2.30447e-08
-3.06215e-07
2.11336e-08
-3.11755e-07
1.91463e-08
-3.167e-07
1.70898e-08
-3.2103e-07
1.49714e-08
-3.2473e-07
1.27982e-08
-3.27787e-07
1.05777e-08
-3.30189e-07
8.31722e-09
-3.31927e-07
6.02436e-09
-3.32994e-07
3.70673e-09
-3.33384e-07
1.37205e-09
-3.33096e-07
-9.71836e-10
-3.32129e-07
-3.31702e-09
-3.30486e-07
-5.65548e-09
-3.28169e-07
-7.97911e-09
-3.25188e-07
-1.02797e-08
-3.21549e-07
-1.2549e-08
-3.17266e-07
-1.47786e-08
-3.12353e-07
-1.69602e-08
-3.06825e-07
-1.90853e-08
-3.00701e-07
-2.11454e-08
-2.94004e-07
-2.31319e-08
-2.86756e-07
-2.50365e-08
-2.78983e-07
-2.68506e-08
-2.70716e-07
-2.85658e-08
-2.61983e-07
-3.01738e-08
-2.52819e-07
-3.16663e-08
-2.43259e-07
-3.30353e-08
-2.33341e-07
-3.42729e-08
-2.23104e-07
-3.53713e-08
-2.12591e-07
-3.63232e-08
-2.01846e-07
-3.71215e-08
-1.90915e-07
-3.77593e-08
-1.79844e-07
-3.82302e-08
-1.68683e-07
-3.85285e-08
-1.57483e-07
-3.86486e-08
-1.46295e-07
-3.85858e-08
-1.35173e-07
-3.83359e-08
-1.24169e-07
-3.78956e-08
-1.13339e-07
-3.72622e-08
-1.02736e-07
-3.64341e-08
-9.24144e-08
-3.54109e-08
-8.24287e-08
-3.41933e-08
-7.28316e-08
-3.27833e-08
-6.36747e-08
-3.11847e-08
-5.50076e-08
-2.94034e-08
-4.68772e-08
-2.74472e-08
-3.93273e-08
-2.53269e-08
-3.23971e-08
-2.30565e-08
-2.61208e-08
-2.06542e-08
-2.05259e-08
-1.81428e-08
-1.56322e-08
-1.55515e-08
-1.14497e-08
-1.29171e-08
-7.97731e-09
-1.02859e-08
-5.20036e-09
-7.71624e-09
-3.08851e-09
-5.28155e-09
-1.59318e-09
-3.07404e-09
-6.44815e-10
-1.20933e-09
-1.49907e-10
1.69056e-10
1.28543e-11
8.8386e-10
7.00461e-10
-1.08057e-10
-5.35048e-10
-5.84032e-10
-2.22048e-10
-1.55317e-09
1.11254e-09
-3.1152e-09
3.19839e-09
-5.34704e-09
5.82919e-09
-8.30475e-09
8.83677e-09
-1.20255e-08
1.20848e-08
-1.65298e-08
1.54638e-08
-2.18232e-08
1.88864e-08
-2.78987e-08
2.22829e-08
-3.47382e-08
2.55982e-08
-4.23146e-08
2.87887e-08
-5.05932e-08
3.18203e-08
-5.95329e-08
3.46668e-08
-6.90878e-08
3.73079e-08
-7.92078e-08
3.97285e-08
-8.984e-08
4.19177e-08
-1.00929e-07
4.38679e-08
-1.12418e-07
4.55743e-08
-1.24249e-07
4.70344e-08
-1.36364e-07
4.82475e-08
-1.48704e-07
4.92148e-08
-1.61211e-07
4.99386e-08
-1.73827e-07
5.04222e-08
-1.86495e-07
5.06701e-08
-1.99159e-07
5.06874e-08
-2.11764e-07
5.048e-08
-2.24258e-07
5.00541e-08
-2.36587e-07
4.94165e-08
-2.48703e-07
4.85746e-08
-2.60557e-07
4.75358e-08
-2.72102e-07
4.63079e-08
-2.83293e-07
4.48991e-08
-2.94088e-07
4.33175e-08
-3.04446e-07
4.15716e-08
-3.14329e-07
3.967e-08
-3.237e-07
3.76215e-08
-3.32525e-07
3.5435e-08
-3.40772e-07
3.31193e-08
-3.48411e-07
3.06838e-08
-3.55415e-07
2.81375e-08
-3.61758e-07
2.54897e-08
-3.67419e-07
2.27501e-08
-3.72375e-07
1.99281e-08
-3.7661e-07
1.70333e-08
-3.80108e-07
1.40757e-08
-3.82856e-07
1.10651e-08
-3.84843e-07
8.01148e-09
-3.86062e-07
4.92512e-09
-3.86506e-07
1.81627e-09
-3.86173e-07
-1.30465e-09
-3.85063e-07
-4.42707e-09
-3.83178e-07
-7.54033e-09
-3.80524e-07
-1.06336e-08
-3.77107e-07
-1.36961e-08
-3.7294e-07
-1.67167e-08
-3.68034e-07
-1.96844e-08
-3.62406e-07
-2.25879e-08
-3.56075e-07
-2.54161e-08
-3.49063e-07
-2.81577e-08
-3.41393e-07
-3.08015e-08
-3.33094e-07
-3.33362e-08
-3.24194e-07
-3.57505e-08
-3.14726e-07
-3.80334e-08
-3.04726e-07
-4.01739e-08
-2.94231e-07
-4.21611e-08
-2.83282e-07
-4.39843e-08
-2.71922e-07
-4.56331e-08
-2.60196e-07
-4.70976e-08
-2.48151e-07
-4.83678e-08
-2.35838e-07
-4.94345e-08
-2.23309e-07
-5.02889e-08
-2.10616e-07
-5.09226e-08
-1.97817e-07
-5.1328e-08
-1.84967e-07
-5.14982e-08
-1.72126e-07
-5.1427e-08
-1.59353e-07
-5.11092e-08
-1.46708e-07
-5.05405e-08
-1.34252e-07
-4.97179e-08
-1.22047e-07
-4.86396e-08
-1.10152e-07
-4.73052e-08
-9.86292e-08
-4.57162e-08
-8.75367e-08
-4.38758e-08
-7.69319e-08
-4.17895e-08
-6.687e-08
-3.94652e-08
-5.74031e-08
-3.69141e-08
-4.85794e-08
-3.41506e-08
-4.04423e-08
-3.11936e-08
-3.30297e-08
-2.80668e-08
-2.63721e-08
-2.48004e-08
-2.04919e-08
-2.14317e-08
-1.54017e-08
-1.80073e-08
-1.11025e-08
-1.4585e-08
-7.58227e-09
-1.12365e-08
-4.81385e-09
-8.04998e-09
-2.75309e-09
-5.13479e-09
-1.33699e-09
-2.62544e-09
-4.8164e-10
-6.8629e-10
-8.02457e-11
4.82467e-10
6.20211e-10
-2.09513e-10
-3.25532e-10
-9.50176e-10
5.18625e-10
-2.31991e-09
2.48228e-09
-4.39935e-09
5.27782e-09
-7.25151e-09
8.68135e-09
-1.09222e-08
1.25075e-08
-1.54411e-08
1.66037e-08
-2.08227e-08
2.08454e-08
-2.7068e-08
2.51317e-08
-3.4166e-08
2.93809e-08
-4.20949e-08
3.35271e-08
-5.08241e-08
3.75179e-08
-6.03153e-08
4.13115e-08
-7.05235e-08
4.4875e-08
-8.13987e-08
4.81831e-08
-9.28866e-08
5.12164e-08
-1.04929e-07
5.39605e-08
-1.17467e-07
5.64055e-08
-1.30437e-07
5.85445e-08
-1.43777e-07
6.0374e-08
-1.57422e-07
6.18926e-08
-1.71308e-07
6.31012e-08
-1.85372e-07
6.40021e-08
-1.99549e-07
6.45993e-08
-2.13777e-07
6.4898e-08
-2.27994e-07
6.49044e-08
-2.42139e-07
6.46256e-08
-2.56154e-07
6.40693e-08
-2.69982e-07
6.3244e-08
-2.83566e-07
6.21587e-08
-2.96853e-07
6.08229e-08
-3.09791e-07
5.92462e-08
-3.22331e-07
5.74389e-08
-3.34425e-07
5.54115e-08
-3.46028e-07
5.31746e-08
-3.57097e-07
5.0739e-08
-3.67592e-07
4.81161e-08
-3.77474e-07
4.53169e-08
-3.86707e-07
4.2353e-08
-3.9526e-07
3.92361e-08
-4.031e-07
3.59778e-08
-4.102e-07
3.25902e-08
-4.16536e-07
2.90852e-08
-4.22083e-07
2.54751e-08
-4.26821e-07
2.17723e-08
-4.30735e-07
1.79893e-08
-4.33809e-07
1.41387e-08
-4.36031e-07
1.02335e-08
-4.37392e-07
6.28667e-09
-4.37887e-07
2.31131e-09
-4.37513e-07
-1.67923e-09
-4.36268e-07
-5.67148e-09
-4.34157e-07
-9.65179e-09
-4.31184e-07
-1.36064e-08
-4.27359e-07
-1.75213e-08
-4.22693e-07
-2.13826e-08
-4.17201e-07
-2.51761e-08
-4.10901e-07
-2.88876e-08
-4.03815e-07
-3.25027e-08
-3.95965e-07
-3.60072e-08
-3.8738e-07
-3.93867e-08
-3.7809e-07
-4.26268e-08
-3.68127e-07
-4.57135e-08
-3.57528e-07
-4.86325e-08
-3.46332e-07
-5.13698e-08
-3.34581e-07
-5.39118e-08
-3.2232e-07
-5.6245e-08
-3.09597e-07
-5.83561e-08
-2.96462e-07
-6.02325e-08
-2.82968e-07
-6.18619e-08
-2.6917e-07
-6.32326e-08
-2.55126e-07
-6.43334e-08
-2.40894e-07
-6.5154e-08
-2.26537e-07
-6.56849e-08
-2.12118e-07
-6.59175e-08
-1.97701e-07
-6.58441e-08
-1.83352e-07
-6.54585e-08
-1.69136e-07
-6.47556e-08
-1.55123e-07
-6.37318e-08
-1.41377e-07
-6.23852e-08
-1.27966e-07
-6.07159e-08
-1.14957e-07
-5.87259e-08
-1.02412e-07
-5.64199e-08
-9.03966e-08
-5.38053e-08
-7.89691e-08
-5.08927e-08
-6.81867e-08
-4.76965e-08
-5.8102e-08
-4.42353e-08
-4.87625e-08
-4.05331e-08
-4.02096e-08
-3.66198e-08
-3.24773e-08
-3.25326e-08
-2.55915e-08
-2.83176e-08
-1.95678e-08
-2.4031e-08
-1.44109e-08
-1.97419e-08
-1.01129e-08
-1.55344e-08
-6.65189e-09
-1.1511e-08
-3.99046e-09
-7.79623e-09
-2.0748e-09
-4.5411e-09
-8.33634e-10
-1.92745e-09
-1.77754e-10
-1.73411e-10
4.42451e-10
-3.11797e-10
-1.37366e-11
-1.3239e-09
1.53073e-09
-3.1073e-09
4.26569e-09
-5.72227e-09
7.8928e-09
-9.21619e-09
1.21753e-08
-1.36228e-08
1.69141e-08
-1.89623e-08
2.19431e-08
-2.52417e-08
2.71249e-08
-3.24561e-08
3.2346e-08
-4.05891e-08
3.75139e-08
-4.96146e-08
4.25527e-08
-5.94979e-08
4.74011e-08
-7.01963e-08
5.20099e-08
-8.16612e-08
5.63399e-08
-9.38382e-08
6.03601e-08
-1.06669e-07
6.4047e-08
-1.20091e-07
6.73826e-08
-1.3404e-07
7.03542e-08
-1.48448e-07
7.29531e-08
-1.63248e-07
7.51742e-08
-1.78371e-07
7.70155e-08
-1.93747e-07
7.84772e-08
-2.09307e-07
7.95621e-08
-2.24982e-07
8.02745e-08
-2.40705e-07
8.06202e-08
-2.56407e-07
8.06067e-08
-2.72024e-07
8.02422e-08
-2.8749e-07
7.95362e-08
-3.02745e-07
7.84987e-08
-3.17727e-07
7.71405e-08
-3.32377e-07
7.54733e-08
-3.4664e-07
7.35089e-08
-3.60461e-07
7.12596e-08
-3.73788e-07
6.87384e-08
-3.86571e-07
6.59583e-08
-3.98765e-07
6.29327e-08
-4.10324e-07
5.96754e-08
-4.21207e-07
5.62002e-08
-4.31376e-07
5.25212e-08
-4.40793e-07
4.8653e-08
-4.49425e-07
4.461e-08
-4.57241e-07
4.04069e-08
-4.64215e-07
3.60588e-08
-4.70321e-07
3.15807e-08
-4.75536e-07
2.69879e-08
-4.79843e-07
2.22961e-08
-4.83225e-07
1.75209e-08
-4.8567e-07
1.26783e-08
-4.87168e-07
7.78423e-09
-4.87712e-07
2.85515e-09
-4.87298e-07
-2.09248e-09
-4.85928e-07
-7.04198e-09
-4.83603e-07
-1.19765e-08
-4.80331e-07
-1.68789e-08
-4.7612e-07
-2.1732e-08
-4.70984e-07
-2.65185e-08
-4.64939e-07
-3.12209e-08
-4.58005e-07
-3.58216e-08
-4.50205e-07
-4.0303e-08
-4.41565e-07
-4.46474e-08
-4.32114e-07
-4.88371e-08
-4.21887e-07
-5.28545e-08
-4.10918e-07
-5.6682e-08
-3.99248e-07
-6.03023e-08
-3.8692e-07
-6.36982e-08
-3.73979e-07
-6.68527e-08
-3.60475e-07
-6.97494e-08
-3.46458e-07
-7.23722e-08
-3.31986e-07
-7.47054e-08
-3.17114e-07
-7.6734e-08
-3.01902e-07
-7.84437e-08
-2.86415e-07
-7.9821e-08
-2.70715e-07
-8.08533e-08
-2.54871e-07
-8.15292e-08
-2.3895e-07
-8.18382e-08
-2.23023e-07
-8.17712e-08
-2.07161e-07
-8.13208e-08
-1.91436e-07
-8.0481e-08
-1.7592e-07
-7.92479e-08
-1.60685e-07
-7.76194e-08
-1.45805e-07
-7.55961e-08
-1.3135e-07
-7.31809e-08
-1.1739e-07
-7.038e-08
-1.03993e-07
-6.72028e-08
-9.12226e-08
-6.36629e-08
-7.9141e-08
-5.9778e-08
-6.7805e-08
-5.55714e-08
-5.72659e-08
-5.10721e-08
-4.75693e-08
-4.63164e-08
-3.8753e-08
-4.13489e-08
-3.08467e-08
-3.62239e-08
-2.38704e-08
-3.10073e-08
-1.78335e-08
-2.57788e-08
-1.27335e-08
-2.06344e-08
-8.55539e-09
-1.56891e-08
-5.27037e-09
-1.10813e-08
-2.83567e-09
-6.97579e-09
-1.19446e-09
-3.56867e-09
-2.7648e-10
-1.09139e-09
1.65969e-10
-4.13108e-10
3.99378e-10
-1.69807e-09
2.81569e-09
-3.90046e-09
6.46806e-09
-7.06002e-09
1.10524e-08
-1.12077e-08
1.63229e-08
-1.63639e-08
2.20704e-08
-2.25382e-08
2.81174e-08
-2.97289e-08
3.43155e-08
-3.79237e-08
4.05408e-08
-4.71003e-08
4.66905e-08
-5.72272e-08
5.26796e-08
-6.82646e-08
5.84386e-08
-8.01658e-08
6.39111e-08
-9.28775e-08
6.90515e-08
-1.06341e-07
7.38238e-08
-1.20494e-07
7.81999e-08
-1.3527e-07
8.21583e-08
-1.50599e-07
8.56834e-08
-1.6641e-07
8.87645e-08
-1.82631e-07
9.13951e-08
-1.99188e-07
9.3572e-08
-2.16006e-07
9.52954e-08
-2.33012e-07
9.65678e-08
-2.50131e-07
9.7394e-08
-2.67291e-07
9.77807e-08
-2.84421e-07
9.77363e-08
-3.01449e-07
9.72705e-08
-3.18307e-07
9.63942e-08
-3.34928e-07
9.51194e-08
-3.51246e-07
9.34589e-08
-3.67199e-07
9.14262e-08
-3.82726e-07
8.90356e-08
-3.97768e-07
8.63019e-08
-4.1227e-07
8.32403e-08
-4.26179e-07
7.98667e-08
-4.39443e-07
7.61971e-08
-4.52015e-07
7.22478e-08
-4.63851e-07
6.80358e-08
-4.74908e-07
6.3578e-08
-4.85147e-07
5.88918e-08
-4.94531e-07
5.39947e-08
-5.03029e-07
4.89044e-08
-5.10609e-07
4.36392e-08
-5.17246e-07
3.82171e-08
-5.22915e-07
3.26568e-08
-5.27596e-07
2.69771e-08
-5.31272e-07
2.11968e-08
-5.33929e-07
1.53353e-08
-5.35556e-07
9.41196e-09
-5.36148e-07
3.44653e-09
-5.35699e-07
-2.54105e-09
-5.3421e-07
-8.53065e-09
-5.31685e-07
-1.45019e-08
-5.2813e-07
-2.04342e-08
-5.23555e-07
-2.63067e-08
-5.17975e-07
-3.20987e-08
-5.11407e-07
-3.77889e-08
-5.03872e-07
-4.33562e-08
-4.95396e-07
-4.87793e-08
-4.86006e-07
-5.40371e-08
-4.75735e-07
-5.91081e-08
-4.64619e-07
-6.39711e-08
-4.52696e-07
-6.86052e-08
-4.40009e-07
-7.29894e-08
-4.26604e-07
-7.7103e-08
-4.1253e-07
-8.09259e-08
-3.97842e-07
-8.44383e-08
-3.82593e-07
-8.76207e-08
-3.66844e-07
-9.04545e-08
-3.50656e-07
-9.29219e-08
-3.34094e-07
-9.50057e-08
-3.17225e-07
-9.669e-08
-3.00119e-07
-9.79597e-08
-2.82847e-07
-9.88012e-08
-2.65482e-07
-9.92024e-08
-2.48101e-07
-9.91525e-08
-2.30779e-07
-9.86429e-08
-2.13593e-07
-9.76668e-08
-1.96622e-07
-9.62197e-08
-1.79941e-07
-9.42996e-08
-1.6363e-07
-9.19076e-08
-1.47763e-07
-8.90475e-08
-1.32416e-07
-8.57273e-08
-1.1766e-07
-8.19585e-08
-1.03566e-07
-7.77575e-08
-9.01976e-08
-7.3146e-08
-7.76175e-08
-6.81515e-08
-6.58812e-08
-6.28085e-08
-5.50382e-08
-5.71595e-08
-4.51308e-08
-5.12563e-08
-3.61934e-08
-4.51613e-08
-2.82511e-08
-3.89497e-08
-2.13188e-08
-3.27111e-08
-1.5401e-08
-2.65522e-08
-1.04905e-08
-2.05997e-08
-6.56843e-09
-1.50033e-08
-3.60438e-09
-9.93984e-09
-1.55678e-09
-5.61627e-09
-3.74531e-10
-2.27364e-09
-2.08559e-10
-5.12461e-10
9.11842e-10
-2.06831e-09
4.37155e-09
-4.68964e-09
9.08938e-09
-8.39632e-09
1.47591e-08
-1.32026e-08
2.11292e-08
-1.91152e-08
2.79829e-08
-2.61318e-08
3.51341e-08
-3.42413e-08
4.2425e-08
-4.34232e-08
4.97227e-08
-5.36482e-08
5.69155e-08
-6.48787e-08
6.39101e-08
-7.70696e-08
7.06296e-08
-9.01691e-08
7.70105e-08
-1.04119e-07
8.30016e-08
-1.18857e-07
8.85617e-08
-1.34315e-07
9.36582e-08
-1.50423e-07
9.82664e-08
-1.67108e-07
1.02368e-07
-1.84293e-07
1.05949e-07
-2.01901e-07
1.09003e-07
-2.19854e-07
1.11526e-07
-2.38075e-07
1.13516e-07
-2.56483e-07
1.14976e-07
-2.75001e-07
1.15912e-07
-2.93552e-07
1.16332e-07
-3.1206e-07
1.16244e-07
-3.30448e-07
1.15659e-07
-3.48646e-07
1.14591e-07
-3.6658e-07
1.13054e-07
-3.84182e-07
1.11061e-07
-4.01384e-07
1.08629e-07
-4.18123e-07
1.05774e-07
-4.34335e-07
1.02514e-07
-4.49962e-07
9.8867e-08
-4.64946e-07
9.4851e-08
-4.79234e-07
9.0485e-08
-4.92775e-07
8.57885e-08
-5.0552e-07
8.07813e-08
-5.17426e-07
7.54833e-08
-5.28449e-07
6.99152e-08
-5.38552e-07
6.40977e-08
-5.47699e-07
5.80517e-08
-5.55859e-07
5.17987e-08
-5.63002e-07
4.53604e-08
-5.69104e-07
3.87586e-08
-5.74143e-07
3.20156e-08
-5.78099e-07
2.51538e-08
-5.8096e-07
1.8196e-08
-5.82713e-07
1.11653e-08
-5.83352e-07
4.08495e-09
-5.82872e-07
-3.02139e-09
-5.81272e-07
-1.01299e-08
-5.78558e-07
-1.72164e-08
-5.74735e-07
-2.42566e-08
-5.69816e-07
-3.1226e-08
-5.63815e-07
-3.80998e-08
-5.56751e-07
-4.48531e-08
-5.48646e-07
-5.14608e-08
-5.39527e-07
-5.78979e-08
-5.29425e-07
-6.41392e-08
-5.18374e-07
-7.01597e-08
-5.06411e-07
-7.59343e-08
-4.93578e-07
-8.14381e-08
-4.7992e-07
-8.66466e-08
-4.65488e-07
-9.15355e-08
-4.50333e-07
-9.60809e-08
-4.34512e-07
-1.0026e-07
-4.18084e-07
-1.04049e-07
-4.01112e-07
-1.07427e-07
-3.83661e-07
-1.10372e-07
-3.65802e-07
-1.12865e-07
-3.47604e-07
-1.14887e-07
-3.29143e-07
-1.16421e-07
-3.10494e-07
-1.1745e-07
-2.91735e-07
-1.17961e-07
-2.72946e-07
-1.17941e-07
-2.54209e-07
-1.1738e-07
-2.35604e-07
-1.16271e-07
-2.17215e-07
-1.14609e-07
-1.99124e-07
-1.12391e-07
-1.81412e-07
-1.09619e-07
-1.64161e-07
-1.06299e-07
-1.47449e-07
-1.02439e-07
-1.31354e-07
-9.80538e-08
-1.15949e-07
-9.31626e-08
-1.01304e-07
-8.77905e-08
-8.74857e-08
-8.19699e-08
-7.45538e-08
-7.57403e-08
-6.25626e-08
-6.91506e-08
-5.15595e-08
-6.22594e-08
-4.15839e-08
-5.51369e-08
-3.26667e-08
-4.78669e-08
-2.48296e-08
-4.05482e-08
-1.80845e-08
-3.32973e-08
-1.24333e-08
-2.62508e-08
-7.86802e-09
-1.95686e-08
-4.3709e-09
-1.3437e-08
-1.91598e-09
-8.07119e-09
-4.70823e-10
-3.7188e-09
-6.79379e-10
-6.09298e-10
1.52114e-09
-2.43199e-09
6.19424e-09
-5.46872e-09
1.21261e-08
-9.7205e-09
1.90108e-08
-1.51852e-08
2.65939e-08
-2.18553e-08
3.4653e-08
-2.97168e-08
4.29955e-08
-3.8748e-08
5.14563e-08
-4.89197e-08
5.98944e-08
-6.01949e-08
6.81906e-08
-7.25292e-08
7.62445e-08
-8.58717e-08
8.3972e-08
-1.00165e-07
9.13038e-08
-1.15346e-07
9.81828e-08
-1.31347e-07
1.04563e-07
-1.48097e-07
1.10408e-07
-1.6552e-07
1.15689e-07
-1.83539e-07
1.20386e-07
-2.02073e-07
1.24483e-07
-2.21041e-07
1.27971e-07
-2.4036e-07
1.30845e-07
-2.59949e-07
1.33104e-07
-2.79724e-07
1.34751e-07
-2.99603e-07
1.35791e-07
-3.19504e-07
1.36233e-07
-3.39347e-07
1.36087e-07
-3.59053e-07
1.35366e-07
-3.78545e-07
1.34084e-07
-3.97748e-07
1.32256e-07
-4.16588e-07
1.29901e-07
-4.34995e-07
1.27036e-07
-4.529e-07
1.23679e-07
-4.70238e-07
1.19852e-07
-4.86946e-07
1.15575e-07
-5.02964e-07
1.10869e-07
-5.18234e-07
1.05756e-07
-5.32704e-07
1.00258e-07
-5.46322e-07
9.43993e-08
-5.59041e-07
8.82023e-08
-5.70817e-07
8.16909e-08
-5.81608e-07
7.48892e-08
-5.91379e-07
6.78219e-08
-6.00094e-07
6.05137e-08
-6.07723e-07
5.29898e-08
-6.1424e-07
4.52759e-08
-6.19622e-07
3.73976e-08
-6.2385e-07
2.93813e-08
-6.26907e-07
2.12534e-08
-6.28783e-07
1.30407e-08
-6.29468e-07
4.77057e-09
-6.2896e-07
-3.5297e-09
-6.27257e-07
-1.18323e-08
-6.24365e-07
-2.01091e-08
-6.20289e-07
-2.83319e-08
-6.15043e-07
-3.64721e-08
-6.08642e-07
-4.45008e-08
-6.01106e-07
-5.23892e-08