/*--------------------------------*- C++ -*----------------------------------*\
| =========                 |                                                 |
| \\      /  F ield         | OpenFOAM: The Open Source CFD Toolbox           |
|  \\    /   O peration     | Version:  2212                                  |
|   \\  /    A nd           | Website:  www.openfoam.com                      |
|    \\/     M anipulation  |                                                 |
\*---------------------------------------------------------------------------*/
FoamFile
{
    version     2.0;
    format      ascii;
    arch        "LSB;label=32;scalar=64";
    class       volScalarField;
    location    "0.0875";
    object      p;
}
// * * * * * * * * * * * * * * * * * * * * * * * * * * * * * * * * * * * * * //

dimensions      [0 2 -2 0 0 0 0];

internalField   nonuniform List<scalar> 
10000
(
1.57555e-08
9.30937e-05
-0.000127149
-0.000704832
-0.00159132
-0.00273137
-0.00406885
-0.00554999
-0.00712611
-0.00875421
-0.0103964
-0.0120198
-0.0135957
-0.0150991
-0.0165086
-0.0178057
-0.0189746
-0.0200018
-0.0208759
-0.0215875
-0.022129
-0.0224942
-0.0226787
-0.022679
-0.0224933
-0.0221206
-0.0215611
-0.0208156
-0.019886
-0.0187752
-0.0174865
-0.016024
-0.0143928
-0.0125982
-0.0106463
-0.00854363
-0.00629715
-0.00391436
-0.00140312
0.0012283
0.00397124
0.00681669
0.00975532
0.0127775
0.0158732
0.0190325
0.0222447
0.0254994
0.0287856
0.0320926
0.0354093
0.0387246
0.0420273
0.0453062
0.0485501
0.0517476
0.0548876
0.0579591
0.060951
0.0638528
0.0666539
0.0693441
0.0719135
0.0743527
0.0766525
0.0788042
0.0807998
0.0826315
0.0842926
0.0857766
0.087078
0.088192
0.089115
0.089844
0.0903773
0.0907141
0.0908547
0.0908008
0.0905553
0.0901225
0.0895085
0.0887207
0.0877683
0.0866623
0.0854159
0.0840441
0.0825648
0.0809982
0.0793674
0.0776989
0.0760224
0.0743719
0.0727856
0.0713064
0.0699822
0.0688651
0.0680081
0.0674618
0.0672684
0.0673762
-9.26285e-05
8.00391e-07
-0.000212929
-0.000728801
-0.00149686
-0.00247834
-0.00363214
-0.00491571
-0.00628864
-0.00771392
-0.00915812
-0.0105914
-0.0119872
-0.0133222
-0.0145761
-0.0157311
-0.0167718
-0.0176851
-0.0184596
-0.0190861
-0.0195566
-0.019865
-0.0200065
-0.0199775
-0.0197756
-0.0193996
-0.0188493
-0.0181251
-0.0172285
-0.0161619
-0.0149282
-0.0135311
-0.0119751
-0.0102651
-0.00840681
-0.00640615
-0.00426968
-0.00200437
0.00038236
0.00288277
0.0054887
0.00819164
0.0109828
0.013853
0.0167928
0.0197927
0.0228427
0.0259327
0.0290525
0.0321918
0.0353402
0.038487
0.0416217
0.0447336
0.0478122
0.0508466
0.0538263
0.0567409
0.05958
0.0623336
0.0649919
0.0675452
0.0699842
0.0723001
0.0744844
0.076529
0.0784265
0.0801697
0.0817522
0.0831684
0.0844132
0.0854824
0.0863727
0.0870819
0.0876084
0.0879519
0.088113
0.0880938
0.0878974
0.0875284
0.0869928
0.0862981
0.0854534
0.0844696
0.0833594
0.0821376
0.0808212
0.0794294
0.0779841
0.0765098
0.075034
0.0735871
0.072203
0.0709184
0.0697729
0.0688074
0.0680607
0.0675682
0.0673757
0.0674841
0.000127263
0.000215368
1.89006e-06
-0.000482325
-0.00118316
-0.00206835
-0.00310461
-0.0042565
-0.00548963
-0.00677175
-0.0080732
-0.00936702
-0.0106289
-0.0118373
-0.0129729
-0.014019
-0.0149607
-0.0157855
-0.0164822
-0.0170417
-0.0174563
-0.0177198
-0.0178271
-0.0177747
-0.01756
-0.0171814
-0.0166385
-0.0159316
-0.0150617
-0.0140309
-0.0128418
-0.0114978
-0.010003
-0.00836193
-0.00657985
-0.0046624
-0.00261569
-0.000446308
0.00183874
0.0042321
0.00672604
0.00931246
0.011983
0.0147289
0.0175413
0.0204109
0.0233282
0.0262836
0.0292674
0.0322697
0.0352805
0.0382898
0.0412874
0.0442632
0.0472069
0.0501083
0.0529575
0.0557445
0.0584594
0.0610926
0.0636349
0.066077
0.0684104
0.0706264
0.0727172
0.0746753
0.0764935
0.0781652
0.0796845
0.081046
0.0822452
0.0832784
0.0841425
0.0848355
0.0853564
0.085705
0.0858823
0.0858903
0.0857324
0.0854132
0.0849388
0.0843166
0.0835554
0.0826658
0.0816601
0.0805526
0.0793594
0.0780986
0.0767907
0.0754584
0.0741269
0.0728238
0.0715789
0.0704242
0.0693935
0.0685209
0.0678379
0.0673743
0.0671826
0.0672917
0.000703864
0.000732155
0.000487048
2.01404e-06
-0.000672958
-0.00150861
-0.00247596
-0.00354444
-0.0046842
-0.00586695
-0.00706627
-0.0082579
-0.00941974
-0.0105319
-0.0115765
-0.0125378
-0.0134018
-0.0141564
-0.014791
-0.0152968
-0.0156663
-0.0158934
-0.0159731
-0.0159017
-0.0156767
-0.0152964
-0.0147601
-0.0140679
-0.0132207
-0.0122202
-0.011069
-0.00977003
-0.00832711
-0.00674458
-0.00502729
-0.00318059
-0.00121026
0.000877452
0.00307591
0.0053781
0.00777661
0.0102637
0.0128315
0.0154715
0.0181752
0.0209337
0.0237379
0.0265787
0.0294466
0.0323323
0.0352261
0.0381184
0.0409994
0.0438594
0.0466886
0.0494773
0.0522158
0.0548946
0.0575043
0.0600357
0.0624799
0.0648282
0.0670724
0.0692043
0.0712164
0.0731015
0.0748531
0.0764648
0.0779309
0.0792466
0.0804076
0.0814104
0.0822524
0.0829317
0.0834476
0.0837999
0.0839898
0.0840195
0.0838924
0.0836131
0.0831874
0.0826226
0.0819273
0.0811117
0.0801876
0.0791683
0.0780692
0.0769074
0.0757017
0.0744733
0.0732449
0.0720414
0.0708895
0.0698174
0.0688544
0.0680303
0.0673727
0.0669091
0.0666897
0.066748
0.00159031
0.00150277
0.00119006
0.000676243
-1.19534e-06
-0.000816125
-0.00174301
-0.00275563
-0.00382818
-0.00493596
-0.00605565
-0.00716557
-0.00824578
-0.00927816
-0.0102463
-0.0111356
-0.011933
-0.0126271
-0.0132078
-0.0136669
-0.0139969
-0.014192
-0.0142475
-0.0141597
-0.013926
-0.0135447
-0.013015
-0.0123367
-0.0115108
-0.0105387
-0.00942266
-0.00816559
-0.00677098
-0.00524287
-0.00358584
-0.00180496
9.42955e-05
0.002106
0.00422383
0.00644111
0.00875077
0.0111454
0.0136175
0.0161588
0.0187612
0.0214163
0.0241153
0.0268494
0.0296095
0.0323867
0.0351717
0.0379552
0.040728
0.0434805
0.0462035
0.0488875
0.0515234
0.054102
0.0566143
0.0590515
0.0614051
0.0636668
0.0658285
0.0678828
0.0698224
0.0716404
0.0733306
0.0748869
0.0763041
0.0775776
0.0787033
0.079678
0.0804995
0.0811659
0.0816765
0.0820315
0.0822321
0.0822805
0.0821801
0.0819353
0.0815519
0.0810367
0.0803982
0.0796459
0.078791
0.0778462
0.0768257
0.0757454
0.0746228
0.073477
0.0723288
0.0712005
0.0701156
0.069099
0.0681762
0.0673729
0.0667137
0.0662235
0.0659416
0.0658938
0.00273461
0.00249103
0.00208078
0.00151307
0.000808082
-1.14319e-05
-0.000922983
-0.00190421
-0.00293306
-0.0039881
-0.00504888
-0.0060962
-0.00711224
-0.00808063
-0.00898646
-0.00981627
-0.010558
-0.0112011
-0.0117363
-0.0121554
-0.0124517
-0.0126196
-0.0126546
-0.012553
-0.0123123
-0.0119308
-0.0114077
-0.0107428
-0.00993674
-0.008991
-0.00790762
-0.00668929
-0.0053393
-0.00386146
-0.00226007
-0.000539939
0.00129372
0.00323525
0.00527864
0.00741753
0.00964515
0.0119544
0.014338
0.0167883
0.0192973
0.0218569
0.0244588
0.0270944
0.0297552
0.0324323
0.0351171
0.0378004
0.0404734
0.0431271
0.0457524
0.0483403
0.0508819
0.0533685
0.0557915
0.0581423
0.0604129
0.0625952
0.0646817
0.066665
0.0685383
0.070295
0.0719291
0.0734349
0.0748074
0.0760422
0.0771357
0.0780847
0.078887
0.0795411
0.0800464
0.080403
0.0806122
0.0806762
0.0805983
0.0803827
0.080035
0.0795617
0.0789708
0.0782713
0.0774737
0.0765898
0.075633
0.0746177
0.07356
0.0724773
0.0713882
0.0703126
0.0692712
0.0682859
0.0673786
0.0665716
0.0658865
0.0653453
0.0649716
0.0647772
0.00408491
0.00365923
0.0031288
0.00248602
0.00173166
0.000885317
-3.325e-05
-0.00100522
-0.00201183
-0.00303465
-0.00405589
-0.00505868
-0.00602721
-0.00694683
-0.0078041
-0.00858676
-0.00928383
-0.00988551
-0.0103832
-0.0107695
-0.011038
-0.0111835
-0.0112016
-0.0110889
-0.0108431
-0.0104624
-0.00994597
-0.00929374
-0.00850629
-0.00758488
-0.00653149
-0.00534864
-0.00403943
-0.00260749
-0.0010569
0.000607771
0.00238156
0.00425909
0.00623458
0.00830193
0.0104547
0.0126861
0.0149891
0.0173562
0.01978
0.0222526
0.0247659
0.0273119
0.0298821
0.0324683
0.0350617
0.037654
0.0402364
0.0428002
0.0453368
0.0478374
0.0502936
0.0526969
0.055039
0.0573118
0.0595073
0.061618
0.0636365
0.0655557
0.0673693
0.0690707
0.0706543
0.0721146
0.0734468
0.0746468
0.075711
0.0766366
0.0774213
0.0780638
0.0785635
0.0789207
0.0791364
0.0792129
0.0791531
0.0789614
0.0786429
0.0782037
0.0776513
0.0769942
0.0762421
0.0754061
0.0744982
0.073532
0.072522
0.0714837
0.0704339
0.0693902
0.0683709
0.0673948
0.066481
0.0656483
0.0649159
0.0643031
0.0638148
0.0634472
0.0055923
0.00496877
0.004302
0.00356746
0.00274595
0.00185427
0.000909893
-7.16163e-05
-0.00107449
-0.00208296
-0.00308168
-0.00405595
-0.00499187
-0.00587644
-0.00669762
-0.00744441
-0.00810685
-0.008676
-0.00914403
-0.0095041
-0.00975034
-0.00987786
-0.00988265
-0.00976157
-0.00951234
-0.00913342
-0.00862396
-0.00798385
-0.00721371
-0.00631477
-0.00528888
-0.00413844
-0.0028664
-0.00147625
2.81385e-05
0.00164241
0.0033618
0.00518115
0.00709494
0.00909733
0.0111821
0.0133428
0.0155725
0.0178643
0.0202107
0.0226044
0.0250375
0.0275021
0.0299903
0.032494
0.0350049
0.0375148
0.0400152
0.0424978
0.0449543
0.0473762
0.0497554
0.0520837
0.054353
0.0565555
0.0586836
0.0607299
0.0626875
0.0645494
0.0663094
0.0679613
0.0694996
0.0709191
0.0722152
0.073384
0.0744219
0.0753262
0.0760948
0.0767264
0.0772203
0.0775769
0.0777972
0.0778831
0.0778377
0.0776648
0.0773693
0.0769571
0.0764348
0.0758104
0.0750931
0.0742928
0.0734208
0.0724893
0.0715113
0.070501
0.069473
0.0684431
0.0674272
0.0664416
0.0655025
0.0646257
0.0638284
0.0631271
0.062508
0.0619507
0.00721329
0.00638349
0.00556956
0.00473067
0.00382794
0.00287588
0.0018901
0.000883232
-0.000131641
-0.00114118
-0.00213222
-0.00309205
-0.00400856
-0.00487033
-0.00566668
-0.0063878
-0.00702477
-0.00756953
-0.00801499
-0.00835496
-0.00858411
-0.00869793
-0.00869277
-0.0085658
-0.00831487
-0.0079386
-0.00743627
-0.00680783
-0.00605387
-0.00517562
-0.00417486
-0.00305395
-0.00181569
-0.000463395
0.000999175
0.00256783
0.00423802
0.00600479
0.00786283
0.00980651
0.0118299
0.0139266
0.0160903
0.018314
0.0205907
0.0229131
0.0252738
0.0276652
0.0300796
0.032509
0.0349456
0.0373814
0.0398082
0.0422179
0.0446025
0.0469539
0.0492641
0.0515253
0.0537295
0.0558693
0.0579372
0.0599262
0.0618295
0.0636404
0.0653527
0.0669607
0.0684587
0.069842
0.0711061
0.0722469
0.0732613
0.0741464
0.0749003
0.0755216
0.0760097
0.0763648
0.0765878
0.0766805
0.0766458
0.0764871
0.0762091
0.075817
0.0753172
0.0747168
0.0740244
0.0732491
0.0724011
0.0714913
0.0705317
0.0695346
0.0685133
0.0674814
0.066453
0.0654419
0.0644618
0.0635258
0.0626493
0.0618469
0.0610857
0.0603297
0.00891022
0.00787061
0.00690281
0.00595043
0.00495564
0.00393113
0.00289111
0.00184566
0.000805417
-0.000218408
-0.00121465
-0.00217241
-0.00308122
-0.0039311
-0.00471272
-0.0054174
-0.0060372
-0.00656501
-0.00699444
-0.00731994
-0.00753675
-0.00764082
-0.00762885
-0.00749826
-0.00724721
-0.00687447
-0.00637945
-0.00576217
-0.00502328
-0.00416403
-0.00318618
-0.00209198
-0.000884199
0.000433979
0.00185893
0.0033866
0.00501261
0.00673219
0.00854019
0.0104312
0.0123995
0.014439
0.0165434
0.0187061
0.0209204
0.0231791
0.0254751
0.027801
0.0301493
0.0325125
0.0348828
0.0372525
0.0396137
0.0419586
0.0442793
0.046568
0.048817
0.0510186
0.0531653
0.0552496
0.0572644
0.0592029
0.0610583
0.0628243
0.0644947
0.066064
0.0675268
0.0688783
0.0701141
0.0712303
0.0722239
0.0730919
0.0738326
0.0744443
0.0749265
0.0752793
0.0755034
0.0756005
0.0755731
0.0754245
0.0751588
0.0747808
0.0742963
0.0737121
0.0730357
0.0722755
0.0714408
0.0705414
0.0695878
0.0685912
0.0675633
0.0665159
0.0654612
0.0644111
0.0633769
0.0623694
0.0614027
0.0604898
0.0595794
0.0586205
0.0106506
0.00940094
0.00827554
0.0072033
0.00610828
0.00500185
0.00389716
0.00280213
0.00172526
0.00067586
-0.000336687
-0.00130312
-0.00221449
-0.00306217
-0.00383804
-0.00453455
-0.00514473
-0.00566227
-0.0060816
-0.00639781
-0.00660664
-0.00670453
-0.00668857
-0.00655653
-0.00630678
-0.0059383
-0.00545067
-0.00484405
-0.00411917
-0.00327726
-0.0023201
-0.00124993
-6.94327e-05
0.00121827
0.00260968
0.00410085
0.00568753
0.00736512
0.00912866
0.0109729
0.0128922
0.0148809
0.0169327
0.0190413
0.0212002
0.0234024
0.0256411
0.027909
0.030199
0.0325036
0.0348154
0.0371267
0.0394301
0.0417179
0.0439825
0.0462162
0.0484115
0.050561
0.0526573
0.0546932
0.0566618
0.0585563
0.0603701
0.062097
0.0637311
0.0652669
0.0666992
0.0680232
0.0692345
0.0703295
0.0713049
0.072158
0.0728868
0.0734898
0.0739662
0.074316
0.0745399
0.0746392
0.0746162
0.0744738
0.0742158
0.0738464
0.073371
0.0727957
0.0721273
0.0713736
0.0705427
0.0696434
0.0686851
0.0676778
0.0666317
0.0655571
0.0644645
0.063364
0.062265
0.0611762
0.0601109
0.0590807
0.058017
0.0568545
0.0124065
0.0109487
0.00966402
0.00846766
0.0072664
0.0060707
0.004893
0.00373937
0.00261649
0.00153197
0.000493611
-0.000490785
-0.00141362
-0.0022676
-0.0030457
-0.00374137
-0.00434861
-0.00486196
-0.00527653
-0.00558805
-0.00579284
-0.00588779
-0.00587041
-0.00573879
-0.00549158
-0.005128
-0.0046478
-0.00405128
-0.00333925
-0.00251303
-0.00157442
-0.000525625
0.000630696
0.00189147
0.00325328
0.0047123
0.0062644
0.00790507
0.0096295
0.0114326
0.013309
0.015253
0.0172587
0.0193199
0.0214302
0.023583
0.0257716
0.0279888
0.0302278
0.0324813
0.0347421
0.0370027
0.0392559
0.0414942
0.0437101
0.0458962
0.0480451
0.0501497
0.0522027
0.054197
0.0561259
0.0579827
0.059761
0.0614547
0.0630581
0.0645655
0.0659719
0.0672725
0.0684632
0.0695401
0.0705001
0.0713404
0.0720589
0.072654
0.073125
0.0734714
0.0736939
0.0737936
0.0737724
0.0736329
0.0733783
0.0730126
0.0725407
0.0719679
0.0713006
0.0705454
0.0697099
0.0688018
0.0678294
0.0668016
0.0657273
0.0646155
0.0634751
0.0623149
0.0611423
0.0599645
0.0587942
0.0576421
0.0564231
0.0550584
0.0141537
0.0124908
0.0110469
0.00972375
0.00841197
0.00712141
0.00586409
0.00464453
0.00346782
0.00234017
0.00126796
0.000257613
-0.000684457
-0.00155208
-0.00233934
-0.00304069
-0.00365093
-0.00416542
-0.00457997
-0.00489094
-0.00509519
-0.0051901
-0.00517353
-0.00504395
-0.00480034
-0.00444212
-0.00396925
-0.00338219
-0.00268188
-0.00186968
-0.00094745
8.25838e-05
0.00121777
0.00245509
0.0037912
0.00522233
0.00674443
0.0083531
0.0100437
0.0118112
0.0136505
0.0155559
0.0175218
0.0195421
0.0216105
0.0237207
0.0258661
0.0280398
0.0302349
0.0324446
0.0346617
0.036879
0.0390893
0.0412854
0.0434599
0.0456056
0.0477154
0.0497821
0.0517986
0.053758
0.0556537
0.0574791
0.0592279
0.0608941
0.0624719
0.063956
0.0653411
0.0666226
0.0677962
0.0688584
0.0698057
0.0706355
0.0713453
0.0719336
0.0723995
0.0727425
0.0729628
0.0730613
0.0730396
0.0729
0.0726453
0.0722791
0.0718056
0.0712298
0.0705571
0.0697937
0.0689462
0.0680214
0.0670268
0.06597
0.064859
0.0637014
0.0625051
0.0612772
0.0600241
0.0587512
0.0574712
0.0561943
0.0548196
0.0532553
0.0158712
0.0140072
0.0124049
0.0109536
0.0095283
0.00813869
0.00679658
0.00550521
0.00426832
0.00309081
0.00197791
0.00093488
-3.30587e-05
-0.000920746
-0.00172324
-0.00243589
-0.00305434
-0.00357467
-0.00399339
-0.00430744
-0.0045142
-0.00461155
-0.00459776
-0.00447163
-0.00423242
-0.00387986
-0.00341412
-0.00283579
-0.00214593
-0.00134604
-0.000438047
0.000575813
0.00169291
0.00291023
0.00422444
0.00563183
0.00712843
0.00870995
0.0103718
0.0121092
0.013917
0.0157898
0.017722
0.0197076
0.0217408
0.023815
0.025924
0.028061
0.0302194
0.0323923
0.0345729
0.036754
0.0389287
0.0410897
0.04323
0.0453425
0.04742
0.0494557
0.0514424
0.0533735
0.0552423
0.0570424
0.0587675
0.0604118
0.0619694
0.0634349
0.0648034
0.0660699
0.0672304
0.0682811
0.0692186
0.07004
0.070743
0.0713257
0.0717872
0.0721267
0.0723443
0.0724404
0.0724164
0.0722742
0.0720164
0.0716459
0.0711666
0.0705827
0.0698993
0.0691217
0.0682557
0.0673074
0.0662834
0.0651904
0.0640353
0.0628248
0.0615656
0.0602637
0.0589243
0.0575519
0.0561587
0.0547551
0.0532251
0.0514649
0.0175407
0.0154797
0.0137206
0.0121406
0.0105999
0.00910824
0.0076774
0.00630949
0.00500721
0.00377436
0.00261508
0.0015336
0.000534138
-0.000379102
-0.00120205
-0.00193088
-0.00256207
-0.00309233
-0.00351883
-0.0038391
-0.00405105
-0.00415296
-0.00414355
-0.00402198
-0.00378782
-0.00344104
-0.00298202
-0.00241155
-0.00173086
-0.000941537
-4.55577e-05
0.000954777
0.0020568
0.00325751
0.00455357
0.00594134
0.0074169
0.00897603
0.0106142
0.0123268
0.0141086
0.0159546
0.017859
0.0198163
0.0218205
0.0238653
0.0259446
0.0280517
0.0301802
0.0323233
0.0344744
0.0366264
0.0387724
0.0409054
0.0430185
0.0451046
0.0471568
0.0491681
0.0511316
0.0530407
0.0548889
0.0566698
0.0583771
0.0600049
0.0615475
0.0629995
0.0643558
0.0656116
0.0667627
0.0678053
0.0687358
0.0695513
0.0702493
0.070828
0.0712859
0.0716223
0.0718368
0.0719297
0.071902
0.0717552
0.0714916
0.0711137
0.0706248
0.0700288
0.0693299
0.0685328
0.0676427
0.0666651
0.0656056
0.0644702
0.0632648
0.0619953
0.0606674
0.0592864
0.0578563
0.0563806
0.054872
0.0533407
0.0516565
0.0497039
0.0191462
0.0168925
0.0149784
0.0132698
0.0116126
0.0100166
0.00849403
0.00704595
0.00567408
0.00438136
0.00317097
0.00204623
0.00101048
6.70521e-05
-0.000780832
-0.00153007
-0.00217782
-0.00272151
-0.00315892
-0.00348809
-0.00370741
-0.00381566
-0.00381196
-0.00369581
-0.00346706
-0.00312595
-0.00267312
-0.00210954
-0.0014366
-0.000655991
0.000230234
0.00121969
0.00230967
0.00349715
0.00477881
0.00615104
0.00760993
0.00915134
0.0107708
0.0124637
0.0142252
0.0160499
0.0179326
0.0198676
0.021849
0.0238709
0.0259269
0.0280107
0.0301161
0.0322363
0.0343647
0.0364944
0.0386187
0.0407307
0.0428234
0.0448899
0.0469234
0.048917
0.0508639
0.0527574
0.0545911
0.0563587
0.0580539
0.0596707
0.0612035
0.0626468
0.0639956
0.0652449
0.0663905
0.0674283
0.0683548
0.069167
0.0698622
0.0704384
0.0708939
0.0712277
0.0714392
0.0715284
0.0714959
0.0713431
0.0710717
0.0706838
0.0701822
0.0695703
0.0688519
0.0680309
0.0671121
0.0661
0.0649999
0.0638167
0.0625558
0.0612223
0.059821
0.0583565
0.0568321
0.0552505
0.0536247
0.0519653
0.0501283
0.047987
0.0206734
0.018231
0.0161642
0.0143274
0.0125531
0.0108514
0.00923474
0.00770362
0.00625883
0.00490253
0.00363716
0.00246518
0.00138912
0.000411565
-0.000464972
-0.00123814
-0.00190576
-0.00246583
-0.0029167
-0.00325698
-0.00348553
-0.00360155
-0.00360454
-0.00349435
-0.00327114
-0.00293545
-0.00248811
-0.00193029
-0.00126355
-0.000489704
0.000389072
0.00137033
0.00245132
0.00362899
0.00489999
0.00626072
0.0077073
0.00923562
0.0108413
0.0125197
0.0142661
0.0160753
0.0179421
0.0198607
0.0218255
0.0238306
0.0258698
0.027937
0.0300258
0.0321298
0.0342422
0.0363565
0.0384659
0.0405636
0.0426427
0.0446964
0.0467178
0.0487002
0.0506368
0.052521
0.0543464
0.0561066
0.0577954
0.0594067
0.0609349
0.0623746
0.0637204
0.0649675
0.0661114
0.067148
0.0680738
0.0688854
0.06958
0.0701555
0.0706099
0.070942
0.0711509
0.0712363
0.0711985
0.0710385
0.0707576
0.0703577
0.0698409
0.0692102
0.0684687
0.0676202
0.0666685
0.0656178
0.0644725
0.0632372
0.0619164
0.0605146
0.059036
0.0574845
0.0558629
0.0541733
0.0524292
0.0506415
0.0486532
0.0463268
0.0221097
0.0194824
0.0172649
0.0153007
0.0134091
0.0116007
0.00988838
0.00827196
0.00675164
0.00532885
0.00400528
0.00278276
0.00166311
0.000648201
-0.000260149
-0.0010602
-0.00175037
-0.00232925
-0.00279571
-0.00314888
-0.0033881
-0.00351294
-0.00352329
-0.00341935
-0.0032016
-0.00287082
-0.00242807
-0.00187474
-0.00121253
-0.00044342
0.000430312
0.00140613
0.00248122
0.00365249
0.00491658
0.00626985
0.00770846
0.00922829
0.010825
0.0124941
0.0142307
0.0160299
0.0178864
0.0197946
0.0217489
0.0237435
0.0257723
0.0278292
0.029908
0.0320023
0.0341055
0.036211
0.0383122
0.0404023
0.0424745
0.0445219
0.0465378
0.0485156
0.0504483
0.0523295
0.0541526
0.0559113
0.0575993
0.0592106
0.0607395
0.0621804
0.063528
0.0647772
0.0659235
0.0669627
0.0678909
0.0687049
0.0694015
0.0699783
0.0704333
0.0707648
0.0709718
0.0710537
0.0710104
0.0708425
0.0705511
0.0701374
0.0696034
0.0689514
0.0681841
0.0673049
0.066317
0.0652241
0.06403
0.0627389
0.0613545
0.0598808
0.0583217
0.0566805
0.0549594
0.0531601
0.0512967
0.0493809
0.0472428
0.0447343
0.0234435
0.0206348
0.0182686
0.016178
0.0141692
0.0122535
0.0104443
0.00874096
0.00714298
0.00565131
0.00426704
0.00299133
0.00182539
0.000770452
-0.000172242
-0.00100155
-0.00171645
-0.00231609
-0.00279984
-0.00316727
-0.00341818
-0.00355257
-0.00357067
-0.00347301
-0.00326036
-0.00293377
-0.00249454
-0.00194426
-0.00128479
-0.000518264
0.000352918
0.00132612
0.00239845
0.00356678
0.00482771
0.00617758
0.00761253
0.00912845
0.0107211
0.0123859
0.0141181
0.0159127
0.0177646
0.0196682
0.0216179
0.0236081
0.0256328
0.0276858
0.029761
0.0318522
0.0339527
0.0360561
0.0381557
0.0402449
0.0423167
0.0443645
0.0463815
0.048361
0.0502962
0.0521805
0.0540075
0.0557706
0.0574636
0.0590805
0.0606153
0.0620625
0.0634166
0.0646724
0.0658253
0.0668708
0.0678051
0.0686245
0.0693258
0.0699063
0.0703637
0.0706962
0.0709023
0.0709812
0.0709326
0.0707566
0.0704539
0.0700253
0.0694725
0.0687973
0.0680021
0.0670896
0.0660628
0.0649247
0.0636789
0.0623287
0.0608777
0.0593294
0.057687
0.0559536
0.0541311
0.0522209
0.0502377
0.0481939
0.0459072
0.0432195
0.0246644
0.0216774
0.0191644
0.0169481
0.0148225
0.0127992
0.0108923
0.00910077
0.0074236
0.00586121
0.00441422
0.0030832
0.00186881
0.000771742
-0.000207319
-0.00106777
-0.00180912
-0.00243102
-0.00293329
-0.00331598
-0.00357928
-0.0037236
-0.00374953
-0.00365789
-0.00344975
-0.00312642
-0.00268944
-0.0021406
-0.00148194
-0.000715739
0.000155473
0.00112896
0.00220176
0.00337065
0.00463221
0.00598274
0.00741835
0.00893496
0.0105283
0.0121938
0.0139269
0.0157224
0.0175752
0.01948
0.0214312
0.0234231
0.0254497
0.0275052
0.0295832
0.0316777
0.0337821
0.03589
0.0379946
0.0400894
0.0421675
0.0442222
0.0462467
0.0482344
0.0501785
0.0520722
0.053909
0.0556825
0.0573863
0.0590143
0.0605605
0.0620191
0.0633846
0.0646516
0.0658153
0.0668713
0.0678152
0.0686434
0.0693523
0.0699391
0.0704012
0.0707364
0.070943
0.07102
0.0709665
0.0707825
0.0704682
0.0700241
0.0694515
0.0687517
0.0679268
0.0669791
0.0659112
0.0647256
0.0634255
0.0620138
0.0604936
0.0588681
0.0571402
0.0553128
0.0533874
0.0513651
0.0492615
0.0470899
0.0446558
0.0417909
0.0257626
0.0226
0.0199419
0.0176009
0.0153588
0.0132277
0.0112226
0.009342
0.00758444
0.00594993
0.00443864
0.00305067
0.00178619
0.000645357
-0.000371635
-0.00126467
-0.00203374
-0.00267896
-0.00320063
-0.0035992
-0.00387526
-0.00402958
-0.0040631
-0.00397697
-0.00377252
-0.00345131
-0.00301512
-0.00246592
-0.00180598
-0.00103772
-0.000163784
0.000812994
0.00188954
0.00306257
0.00432858
0.00568386
0.0071245
0.00864639
0.0102452
0.0119166
0.0136556
0.0154574
0.0173168
0.0192286
0.0211871
0.0231867
0.0252215
0.0272856
0.0293729
0.0314771
0.0335919
0.0357107
0.0378269
0.0399339
0.0420248
0.044093
0.0461316
0.0481339
0.0500931
0.0520024
0.0538553
0.0556452
0.0573657
0.0590104
0.0605734
0.0620486
0.0634305
0.0647135
0.0658926
0.0669631
0.0679207
0.0687612
0.069481
0.0700769
0.070546
0.070886
0.0710949
0.0711712
0.0711138
0.0709223
0.0705966
0.0701368
0.0695437
0.0688185
0.0679627
0.0669784
0.0658675
0.0646326
0.0632761
0.0618008
0.0602094
0.0585047
0.0566895
0.0547665
0.0527368
0.0506015
0.0483772
0.0460777
0.043497
0.0404567
0.0267292
0.0233932
0.0205914
0.0181265
0.0157682
0.0135295
0.0114259
0.00945548
0.00761664
0.00590898
0.00433223
0.00288609
0.00157025
0.00038445
-0.000671608
-0.00159826
-0.00239592
-0.00306518
-0.00360674
-0.00402146
-0.00431031
-0.00447441
-0.00451502
-0.0044336
-0.00423176
-0.00391132
-0.00347426
-0.00292278
-0.00225931
-0.00148645
-0.000606961
0.000376195
0.00145985
0.00264064
0.00391501
0.00527918
0.00672924
0.00826102
0.0098702
0.0115523
0.0133025
0.015116
0.0169877
0.0189121
0.0208838
0.0228971
0.0249462
0.0270252
0.0291281
0.0312485
0.0333801
0.0355164
0.0376507
0.0397764
0.0418867
0.0439749
0.0460341
0.0480575
0.0500382
0.0519695
0.0538446
0.0556569
0.0573999
0.0590672
0.0606525
0.0621498
0.0635532
0.0648572
0.0660563
0.0671458
0.068121
0.0689776
0.0697117
0.0703199
0.0707989
0.0711461
0.0713593
0.0714365
0.0713765
0.0711784
0.0708418
0.0703665
0.0697528
0.0690017
0.0681144
0.0670923
0.0659374
0.0646516
0.0632372
0.0616966
0.0600322
0.0582468
0.0563428
0.0543227
0.0521876
0.0499385
0.0475929
0.0451655
0.0424387
0.0392241
0.0275555
0.0240479
0.0211036
0.0185155
0.0160415
0.0136952
0.0114928
0.00943224
0.00751153
0.00572997
0.00408693
0.00258174
0.00121368
-1.79282e-05
-0.00111381
-0.00207472
-0.00290151
-0.00359516
-0.00415678
-0.0045876
-0.00488896
-0.00506233
-0.00510926
-0.00503152
-0.00483098
-0.00450971
-0.00406993
-0.00351405
-0.00284466
-0.0020645
-0.00117652
-0.000183792
0.000910427
0.00210269
0.00338938
0.00476667
0.00623055
0.00777684
0.00940118
0.0110991
0.0128658
0.0146964
0.0165858
0.0185286
0.0205193
0.0225523
0.0246219
0.0267221
0.0288468
0.0309898
0.0331446
0.0353049
0.0374639
0.0396149
0.0417512
0.0438659
0.0459522
0.0480032
0.0500119
0.0519715
0.0538751
0.055716
0.0574876
0.0591832
0.0607966
0.0623215
0.0637518
0.0650817
0.0663058
0.0674188
0.068416
0.0692928
0.070045
0.0706687
0.0711607
0.0715179
0.0717376
0.0718179
0.0717569
0.0715536
0.071207
0.0707168
0.0700829
0.0693059
0.0683866
0.0673263
0.0661264
0.0647887
0.0633152
0.0617079
0.0599693
0.0581017
0.0561076
0.0539893
0.0517477
0.049384
0.0469165
0.044361
0.0414881
0.0380999
0.0282332
0.0245555
0.0214697
0.018759
0.0161696
0.0137157
0.0114145
0.00926351
0.00726054
0.00540458
0.00369472
0.00212991
0.000709072
-0.000568848
-0.00170498
-0.00270047
-0.00355658
-0.00427465
-0.00485618
-0.00530275
-0.00561606
-0.00579789
-0.00585011
-0.00577476
-0.00557399
-0.0052501
-0.00480556
-0.00424296
-0.00356507
-0.00277481
-0.00187527
-0.000869641
0.00023871
0.00144627
0.00274932
0.00414395
0.00562612
0.00719159
0.00883597
0.0105548
0.0123432
0.0141963
0.016109
0.0180759
0.0200915
0.0221503
0.0242464
0.026374
0.0285268
0.0306988
0.0328834
0.0350741
0.0372643
0.0394473
0.0416161
0.043764
0.0458839
0.0479691
0.0500123
0.0520066
0.0539451
0.0558208
0.0576271
0.0593572
0.0610044
0.0625626
0.0640252
0.0653865
0.0666405
0.067782
0.0688058
0.0697071
0.0704813
0.0711244
0.0716327
0.0720028
0.0722319
0.0723175
0.0722577
0.0720508
0.0716957
0.0711915
0.0705381
0.0697356
0.0687844
0.0676856
0.0664403
0.0650501
0.0635165
0.0618417
0.0600278
0.0580769
0.0559915
0.0537739
0.0514249
0.0489457
0.0463557
0.0436715
0.0406523
0.0370904
0.0287545
0.0249076
0.021681
0.0188481
0.0161435
0.0135823
0.0111822
0.00894065
0.00685518
0.00492454
0.00314755
0.00152282
4.89402e-05
-0.00127551
-0.00245202
-0.00348211
-0.00436742
-0.00510964
-0.00571063
-0.00617232
-0.00649672
-0.00668594
-0.00674216
-0.00666768
-0.00646492
-0.00613642
-0.00568486
-0.00511304
-0.00442392
-0.0036206
-0.00270629
-0.00168432
-0.000558148
0.00066859
0.0019921
0.0034084
0.00491338
0.00650276
0.00817212
0.0099169
0.0117323
0.0136134
0.015555
0.0175517
0.0195982
0.0216887
0.0238175
0.0259787
0.028166
0.0303733
0.0325941
0.0348218
0.0370498
0.0392713
0.0414794
0.043667
0.0458273
0.0479532
0.0500375
0.052073
0.0540528
0.0559699
0.0578171
0.0595877
0.061275
0.0628722
0.064373
0.065771
0.0670604
0.0682354
0.0692906
0.0702209
0.0710215
0.0716879
0.0722162
0.0726028
0.0728443
0.0729381
0.0728817
0.0726733
0.0723114
0.0717948
0.071123
0.0702956
0.0693131
0.068176
0.0668852
0.065442
0.063848
0.0621049
0.0602148
0.0581798
0.0560022
0.0536842
0.0512268
0.0486312
0.0459177
0.0431042
0.039938
0.0362018
0.0291117
0.0250961
0.0217291
0.0187743
0.0159547
0.0132862
0.0107872
0.00845505
0.00628699
0.00428157
0.00243732
0.000752605
-0.000774336
-0.00214527
-0.003362
-0.00442643
-0.00534053
-0.00610634
-0.00672607
-0.00720196
-0.00753634
-0.00773163
-0.0077903
-0.00771494
-0.0075082
-0.00717287
-0.00671184
-0.00612813
-0.0054249
-0.00460538
-0.00367296
-0.00263106
-0.00148329
-0.000233372
0.0011148
0.00255717
0.00408956
0.00570764
0.00740694
0.00918285
0.0110305
0.012945
0.0149212
0.0169536
0.0190368
0.0211651
0.0233327
0.0255337
0.0277618
0.0300109
0.0322744
0.0345457
0.0368182
0.0390848
0.0413388
0.0435729
0.0457803
0.0479536
0.0500856
0.0521691
0.0541968
0.0561616
0.0580563
0.0598738
0.0616072
0.0632496
0.0647944
0.066235
0.0675652
0.068779
0.0698708
0.070835
0.0716666
0.0723607
0.0729131
0.0733198
0.0735773
0.0736823
0.0736322
0.0734248
0.0730582
0.0725309
0.0718421
0.0709911
0.069978
0.0688031
0.0674671
0.0659711
0.0643163
0.0625046
0.0605377
0.0584177
0.0561469
0.0537276
0.0511608
0.0484477
0.0456099
0.042666
0.0393519
0.0354402
0.0292969
0.0251129
0.0216057
0.0185291
0.0155946
0.0128188
0.0102209
0.00779814
0.0055475
0.00346732
0.0015559
-0.000188692
-0.0017685
-0.00318561
-0.00444218
-0.00554042
-0.00648263
-0.00727121
-0.00790866
-0.00839757
-0.00874057
-0.00894036
-0.0089997
-0.00892145
-0.00870853
-0.00836395
-0.00789082
-0.00729237
-0.00657194
-0.00573295
-0.0047789
-0.00371338
-0.00254011
-0.00126291
0.000114228
0.00158716
0.00315165
0.00480329
0.00653756
0.0083498
0.0102351
0.0121886
0.0142049
0.0162788
0.0184047
0.0205769
0.0227895
0.0250365
0.0273119
0.0296092
0.0319219
0.0342434
0.0365669
0.0388855
0.0411921
0.0434795
0.0457407
0.0479683
0.0501548
0.052293
0.0543753
0.0563946
0.0583433
0.0602141
0.0620001
0.063694
0.0652889
0.0667781
0.0681549
0.0694133
0.070547
0.0715503
0.0724178
0.0731443
0.0737252
0.0741562
0.0744334
0.0745531
0.0745125
0.0743089
0.0739401
0.0734043
0.0727003
0.0718272
0.0707848
0.069573
0.0681924
0.0666438
0.0649284
0.0630478
0.0610037
0.0587981
0.0564333
0.0539118
0.0512345
0.0484029
0.0454394
0.0423639
0.0389004
0.0348116
0.0293025
0.02495
0.0213024
0.0181039
0.0150545
0.0121713
0.00947459
0.0069613
0.00462817
0.00247339
0.000495012
-0.00130915
-0.00294142
-0.0044042
-0.00569996
-0.00683124
-0.00780065
-0.00861091
-0.00926483
-0.00976532
-0.0101153
-0.0103178
-0.0103758
-0.0102924
-0.0100709
-0.00971442
-0.00922636
-0.00861013
-0.00786926
-0.00700734
-0.00602802
-0.00493503
-0.00373222
-0.00242353
-0.00101302
0.000495078
0.00209643
0.00378656
0.00556089
0.00741473
0.00934316
0.0113411
0.0134034
0.0155246
0.0176991
0.0199212
0.022185
0.0244845
0.0268134
0.0291655
0.031534
0.0339124
0.0362937
0.0386709
0.041037
0.0433846
0.0457065
0.0479952
0.0502432
0.0524429
0.0545868
0.0566673
0.0586768
0.0606078
0.0624529
0.0642048
0.0658563
0.0674002
0.0688298
0.0701385
0.0713199
0.0723679
0.0732765
0.0740405
0.0746547
0.0751144
0.0754154