/*--------------------------------*- C++ -*----------------------------------*\
| =========                 |                                                 |
| \\      /  F ield         | OpenFOAM: The Open Source CFD Toolbox           |
|  \\    /   O peration     | Version:  2212                                  |
|   \\  /    A nd           | Website:  www.openfoam.com                      |
|    \\/     M anipulation  |                                                 |
\*---------------------------------------------------------------------------*/
FoamFile
{
    version     2.0;
    format      ascii;
    arch        "LSB;label=32;scalar=64";
    class       surfaceScalarField;
    location    "0.0875";
    object      phi;
}
// * * * * * * * * * * * * * * * * * * * * * * * * * * * * * * * * * * * * * //

dimensions      [0 3 -1 0 0 0 0];

oriented        oriented;

internalField   nonuniform List<scalar> 
19800
(
7.0465e-11
-7.04716e-11
2.42132e-10
-1.71669e-10
4.31239e-10
-1.89106e-10
5.79713e-10
-1.48475e-10
6.54282e-10
-7.45703e-11
6.36586e-10
1.76981e-11
5.17429e-10
1.1915e-10
2.93427e-10
2.24e-10
-3.51357e-11
3.28558e-10
-4.6559e-10
4.30451e-10
-9.93714e-10
5.28122e-10
-1.61424e-09
6.2053e-10
-2.32121e-09
7.06979e-10
-3.10824e-09
7.87026e-10
-3.96864e-09
8.60393e-10
-4.89557e-09
9.26923e-10
-5.88211e-09
9.86541e-10
-6.92136e-09
1.03924e-09
-8.00641e-09
1.08506e-09
-9.1305e-09
1.12409e-09
-1.02869e-08
1.15643e-09
-1.14691e-08
1.18222e-09
-1.26708e-08
1.20162e-09
-1.38856e-08
1.21481e-09
-1.51075e-08
1.22196e-09
-1.63308e-08
1.22326e-09
-1.75497e-08
1.21891e-09
-1.87588e-08
1.20911e-09
-1.99529e-08
1.19406e-09
-2.11268e-08
1.17396e-09
-2.22759e-08
1.14903e-09
-2.33953e-08
1.11948e-09
-2.44809e-08
1.08552e-09
-2.55283e-08
1.04738e-09
-2.65335e-08
1.00526e-09
-2.74929e-08
9.59384e-10
-2.84029e-08
9.0997e-10
-2.92601e-08
8.57231e-10
-3.00615e-08
8.01387e-10
-3.08042e-08
7.42654e-10
-3.14854e-08
6.8125e-10
-3.21028e-08
6.17399e-10
-3.26541e-08
5.51322e-10
-3.31374e-08
4.83246e-10
-3.35508e-08
4.13407e-10
-3.38928e-08
3.4203e-10
-3.41622e-08
2.69351e-10
-3.43578e-08
1.95615e-10
-3.44788e-08
1.21056e-10
-3.45248e-08
4.59115e-11
-3.44952e-08
-2.95642e-11
-3.43901e-08
-1.05121e-10
-3.42096e-08
-1.8051e-10
-3.39541e-08
-2.55464e-10
-3.36244e-08
-3.29718e-10
-3.32214e-08
-4.0301e-10
-3.27463e-08
-4.75067e-10
-3.22007e-08
-5.45615e-10
-3.15863e-08
-6.14388e-10
-3.09052e-08
-6.8111e-10
-3.01597e-08
-7.45497e-10
-2.93524e-08
-8.07267e-10
-2.84863e-08
-8.66142e-10
-2.75645e-08
-9.21837e-10
-2.65904e-08
-9.74073e-10
-2.55678e-08
-1.02258e-09
-2.45007e-08
-1.06709e-09
-2.33934e-08
-1.10732e-09
-2.22504e-08
-1.14299e-09
-2.10765e-08
-1.17387e-09
-1.98768e-08
-1.19968e-09
-1.86567e-08
-1.22018e-09
-1.74215e-08
-1.23515e-09
-1.61771e-08
-1.24435e-09
-1.49296e-08
-1.24759e-09
-1.36849e-08
-1.24466e-09
-1.24495e-08
-1.23537e-09
-1.123e-08
-1.21957e-09
-1.00328e-08
-1.19712e-09
-8.86496e-09
-1.16789e-09
-7.73317e-09
-1.13179e-09
-6.64441e-09
-1.08875e-09
-5.60565e-09
-1.03876e-09
-4.62383e-09
-9.8182e-10
-3.70585e-09
-9.17981e-10
-2.85849e-09
-8.47365e-10
-2.08832e-09
-7.70169e-10
-1.40164e-09
-6.86679e-10
-8.04347e-10
-5.97301e-10
-3.01726e-10
-5.02619e-10
1.01738e-10
-4.03459e-10
4.02732e-10
-3.00995e-10
5.99635e-10
-1.96911e-10
6.93331e-10
-9.37021e-11
6.88484e-10
4.84896e-12
5.95607e-10
9.28823e-11
4.34298e-10
1.61311e-10
2.38754e-10
1.95538e-10
6.70413e-11
1.71705e-10
6.70436e-11
1.71653e-10
-2.42122e-10
4.71901e-10
-4.71912e-10
7.59985e-10
-4.7719e-10
9.3394e-10
-3.22429e-10
9.22931e-10
-6.35609e-11
6.81558e-10
2.59075e-10
1.83341e-10
6.17371e-10
-5.84614e-10
9.91955e-10
-1.62556e-09
1.36951e-09
-2.93594e-09
1.74083e-09
-4.50732e-09
2.0995e-09
-6.32785e-09
2.44106e-09
-8.38323e-09
2.76236e-09
-1.06575e-08
3.06126e-09
-1.31334e-08
3.3363e-09
-1.5793e-08
3.58656e-09
-1.86179e-08
3.81148e-09
-2.15895e-08
4.01083e-09
-2.4689e-08
4.18457e-09
-2.78978e-08
4.33286e-09
-3.11974e-08
4.45602e-09
-3.45696e-08
4.55443e-09
-3.79966e-08
4.6286e-09
-4.14609e-08
4.67911e-09
-4.49455e-08
4.70657e-09
-4.84339e-08
4.71167e-09
-5.19101e-08
4.69509e-09
-5.53585e-08
4.65757e-09
-5.87643e-08
4.59987e-09
-6.21131e-08
4.52275e-09
-6.53911e-08
4.42701e-09
-6.85851e-08
4.31344e-09
-7.16824e-08
4.18285e-09
-7.46711e-08
4.03607e-09
-7.75397e-08
3.87391e-09
-8.02776e-08
3.69721e-09
-8.28744e-08
3.5068e-09
-8.53207e-08
3.30351e-09
-8.76075e-08
3.0882e-09
-8.97266e-08
2.8617e-09
-9.16702e-08
2.62488e-09
-9.34314e-08
2.37859e-09
-9.50038e-08
2.12371e-09
-9.63816e-08
1.86112e-09
-9.75599e-08
1.5917e-09
-9.85343e-08
1.31637e-09
-9.9301e-08
1.03603e-09
-9.9857e-08
7.51606e-10
-1.002e-07
4.64043e-10
-1.00328e-07
1.74277e-10
-1.00241e-07
-1.16735e-10
-9.99383e-08
-4.08008e-10
-9.94202e-08
-6.98552e-10
-9.86883e-08
-9.87366e-10
-9.77446e-08
-1.27343e-09
-9.65919e-08
-1.5557e-09
-9.52338e-08
-1.83316e-09
-9.36747e-08
-2.10475e-09
-9.19197e-08
-2.36941e-09
-8.99747e-08
-2.62608e-09
-8.78465e-08
-2.87368e-09
-8.55427e-08
-3.11114e-09
-8.30714e-08
-3.33737e-09
-8.0442e-08
-3.55131e-09
-7.76641e-08
-3.75189e-09
-7.47487e-08
-3.93806e-09
-7.1707e-08
-4.10876e-09
-6.85513e-08
-4.26299e-09
-6.52946e-08
-4.39971e-09
-6.19505e-08
-4.51795e-09
-5.85334e-08
-4.61674e-09
-5.50584e-08
-4.69519e-09
-5.15412e-08
-4.75242e-09
-4.79979e-08
-4.78759e-09
-4.44456e-08
-4.79995e-09
-4.09015e-08
-4.78877e-09
-3.73834e-08
-4.75342e-09
-3.39097e-08
-4.69332e-09
-3.04988e-08
-4.60799e-09
-2.71696e-08
-4.49705e-09
-2.39411e-08
-4.36023e-09
-2.08325e-08
-4.19739e-09
-1.78627e-08
-4.00853e-09
-1.50507e-08
-3.79383e-09
-1.2415e-08
-3.5537e-09
-9.9736e-09
-3.28878e-09
-7.74373e-09
-3.00005e-09
-5.74154e-09
-2.68888e-09
-3.98165e-09
-2.35719e-09
-2.47668e-09
-2.0076e-09
-1.23645e-09
-1.64369e-09
-2.67069e-10
-1.27037e-09
4.30483e-10
-8.94461e-10
8.62272e-10
-5.25489e-10
1.04412e-09
-1.76991e-10
1.00533e-09
1.31672e-10
7.93785e-10
3.7285e-10
4.81926e-10
5.07393e-10
1.71611e-10
4.82019e-10
2.38656e-10
1.89752e-10
-4.31875e-10
4.79294e-10
-7.61449e-10
6.95525e-10
-6.93419e-10
7.1565e-10
-3.42553e-10
4.50694e-10
2.01397e-10
-1.60061e-10
8.69825e-10
-1.15462e-09
1.61193e-09
-2.55344e-09
2.39077e-09
-4.36361e-09
3.17969e-09
-6.58217e-09
3.95939e-09
-9.19862e-09
4.71595e-09
-1.21969e-08
5.4393e-09
-1.55567e-08
6.12217e-09
-1.92548e-08
6.75939e-09
-2.32659e-08
7.34734e-09
-2.75629e-08
7.88354e-09
-3.21178e-08
8.36645e-09
-3.69022e-08
8.79519e-09
-4.18871e-08
9.16944e-09
-4.70435e-08
9.48929e-09
-5.23427e-08
9.75518e-09
-5.7756e-08
9.96783e-09
-6.32556e-08
1.01282e-08
-6.88138e-08
1.02373e-08
-7.44036e-08
1.02964e-08
-7.9999e-08
1.0307e-08
-8.55743e-08
1.02704e-08
-9.1105e-08
1.01882e-08
-9.65671e-08
1.0062e-08
-1.01938e-07
9.89342e-09
-1.07195e-07
9.68411e-09
-1.12317e-07
9.43581e-09
-1.17285e-07
9.15028e-09
-1.22078e-07
8.82927e-09
-1.26679e-07
8.47458e-09
-1.31069e-07
8.08801e-09
-1.35234e-07
7.67138e-09
-1.39157e-07
7.22652e-09
-1.42824e-07
6.75528e-09
-1.46222e-07
6.25953e-09
-1.49338e-07
5.74113e-09
-1.52162e-07
5.202e-09
-1.54682e-07
4.64405e-09
-1.5689e-07
4.06922e-09
-1.58778e-07
3.47946e-09
-1.60338e-07
2.87675e-09
-1.61565e-07
2.26312e-09
-1.62454e-07
1.64059e-09
-1.63001e-07
1.01122e-09
-1.63204e-07
3.77099e-10
-1.63061e-07
-2.59667e-10
-1.62572e-07
-8.96935e-10
-1.61738e-07
-1.53252e-09
-1.60562e-07
-2.16422e-09
-1.59045e-07
-2.7898e-09
-1.57194e-07
-3.40702e-09
-1.55013e-07
-4.01359e-09
-1.52511e-07
-4.60721e-09
-1.49695e-07
-5.18559e-09
-1.46574e-07
-5.74638e-09
-1.43161e-07
-6.28724e-09
-1.39466e-07
-6.80583e-09
-1.35504e-07
-7.29982e-09
-1.31288e-07
-7.76685e-09
-1.26836e-07
-8.20462e-09
-1.22163e-07
-8.61085e-09
-1.17288e-07
-8.98326e-09
-1.12232e-07
-9.31963e-09
-1.07014e-07
-9.61779e-09
-1.01656e-07
-9.87563e-09
-9.61814e-08
-1.00911e-08
-9.06144e-08
-1.02623e-08
-8.49795e-08
-1.03873e-08
-7.93028e-08
-1.04643e-08
-7.36109e-08
-1.04918e-08
-6.79313e-08
-1.04683e-08
-6.22923e-08
-1.03925e-08
-5.67225e-08
-1.02631e-08
-5.12512e-08
-1.00793e-08
-4.59079e-08
-9.84035e-09
-4.07224e-08
-9.54579e-09
-3.57243e-08
-9.19548e-09
-3.09432e-08
-8.78962e-09
-2.64082e-08
-8.32883e-09
-2.21476e-08
-7.81423e-09
-1.81889e-08
-7.24751e-09
-1.45578e-08
-6.63112e-09
-1.12783e-08
-5.96845e-09
-8.37141e-09
-5.26405e-09
-5.85498e-09
-4.52404e-09
-3.7421e-09
-3.75657e-09
-2.03991e-09
-2.97257e-09
-7.47647e-10
-2.18672e-09
1.45713e-10
-1.41885e-09
6.64651e-10
-6.95929e-10
8.51015e-10
-5.46917e-11
7.68826e-10
4.55037e-10
5.09359e-10
7.66861e-10
1.9602e-10
7.95358e-10
4.34676e-10
1.50791e-10
-5.82669e-10
3.29508e-10
-9.40157e-10
3.53465e-10
-7.17369e-10
9.17459e-11
-8.08392e-11
-5.51791e-10
8.44935e-10
-1.64473e-09
1.96277e-09
-3.23104e-09
3.19822e-09
-5.33552e-09
4.49525e-09
-7.96775e-09
5.81192e-09
-1.11253e-08
7.1169e-09
-1.47962e-08
8.38689e-09
-1.89614e-08
9.60453e-09
-2.35963e-08
1.0757e-08
-2.86719e-08
1.1835e-08
-3.41562e-08
1.28317e-08
-4.00149e-08
1.37423e-08
-4.62121e-08
1.45637e-08
-5.27108e-08
1.52939e-08
-5.94734e-08
1.5932e-08
-6.6462e-08
1.64779e-08
-7.36387e-08
1.69319e-08
-8.09659e-08
1.7295e-08
-8.84064e-08
1.75686e-08
-9.59235e-08
1.77545e-08
-1.03482e-07
1.78545e-08
-1.11046e-07
1.78709e-08
-1.18581e-07
1.78061e-08
-1.26056e-07
1.76626e-08
-1.33437e-07
1.74431e-08
-1.40694e-07
1.71504e-08
-1.47797e-07
1.67872e-08
-1.54718e-07
1.63566e-08
-1.61429e-07
1.58614e-08
-1.67904e-07
1.53048e-08
-1.74119e-07
1.46897e-08
-1.80051e-07
1.40194e-08
-1.85676e-07
1.32969e-08
-1.90975e-07
1.25255e-08
-1.95928e-07
1.17082e-08
-2.00517e-07
1.08484e-08
-2.04725e-07
9.94938e-09
-2.08538e-07
9.01435e-09
-2.1194e-07
8.04668e-09
-2.14921e-07
7.04975e-09
-2.17468e-07
6.02696e-09
-2.19573e-07
4.98177e-09
-2.21228e-07
3.91768e-09
-2.22425e-07
2.83822e-09
-2.23161e-07
1.74698e-09
-2.23432e-07
6.47586e-10
-2.23235e-07
-4.56279e-10
-2.22571e-07
-1.56089e-09
-2.21441e-07
-2.66247e-09
-2.19848e-07
-3.75719e-09
-2.17797e-07
-4.84117e-09
-2.15293e-07
-5.91052e-09
-2.12346e-07
-6.96129e-09
-2.08963e-07
-7.98948e-09
-2.05158e-07
-8.99111e-09
-2.00942e-07
-9.96214e-09
-1.96331e-07
-1.08985e-08
-1.9134e-07
-1.17962e-08
-1.85989e-07
-1.26512e-08
-1.80296e-07
-1.34595e-08
-1.74284e-07
-1.4217e-08
-1.67975e-07
-1.49199e-08
-1.61394e-07
-1.55642e-08
-1.54567e-07
-1.61462e-08
-1.47523e-07
-1.66621e-08
-1.4029e-07
-1.71084e-08
-1.329e-07
-1.74816e-08
-1.25384e-07
-1.77783e-08
-1.17776e-07
-1.79954e-08
-1.1011e-07
-1.813e-08
-1.02422e-07
-1.81794e-08
-9.47497e-08
-1.81411e-08
-8.71291e-08
-1.8013e-08
-7.9599e-08
-1.77932e-08
-7.21981e-08
-1.74803e-08
-6.49653e-08
-1.70731e-08
-5.79398e-08
-1.65712e-08
-5.11607e-08
-1.59746e-08
-4.46666e-08
-1.52838e-08
-3.84953e-08
-1.45001e-08
-3.26835e-08
-1.3626e-08
-2.72664e-08
-1.26646e-08
-2.22768e-08
-1.16207e-08
-1.77448e-08
-1.05004e-08
-1.36967e-08
-9.31211e-09
-1.01541e-08
-8.06665e-09
-7.13239e-09
-6.7783e-09
-4.63926e-09
-5.4657e-09
-2.67266e-09
-4.15332e-09
-1.21824e-09
-2.87327e-09
-2.46332e-10
-1.66783e-09
2.91651e-10
-5.92671e-10
4.67431e-10
2.79253e-10
3.8041e-10
8.5388e-10
1.63499e-10
1.01227e-09
5.98173e-10
7.93952e-11
-6.62062e-10
7.78392e-11
-9.38603e-10
-1.77995e-10
-4.61519e-10
-8.16327e-10
5.57498e-10
-1.9327e-09
1.96132e-09
-3.59549e-09
3.62556e-09
-5.85003e-09
5.45277e-09
-8.72245e-09
7.36766e-09
-1.22229e-08
9.3124e-09
-1.63487e-08
1.12427e-08
-2.10864e-08
1.31246e-08
-2.64144e-08
1.49325e-08
-3.23044e-08
1.6647e-08
-3.87227e-08
1.82534e-08
-4.56321e-08
1.9741e-08
-5.2992e-08
2.11021e-08
-6.07597e-08
2.23314e-08
-6.88912e-08
2.34254e-08
-7.73413e-08
2.43821e-08
-8.60643e-08
2.52009e-08
-9.50144e-08
2.5882e-08
-1.04146e-07
2.64265e-08
-1.13414e-07
2.68362e-08
-1.22773e-07
2.71135e-08
-1.32179e-07
2.72611e-08
-1.4159e-07
2.72821e-08
-1.50964e-07
2.718e-08
-1.6026e-07
2.69585e-08
-1.69439e-07
2.66216e-08
-1.78461e-07
2.61733e-08
-1.87292e-07
2.56179e-08
-1.95895e-07
2.49598e-08
-2.04237e-07
2.42034e-08
-2.12286e-07
2.33533e-08
-2.2001e-07
2.24141e-08
-2.27381e-07
2.13906e-08
-2.34372e-07
2.02876e-08
-2.40956e-07
1.91098e-08
-2.4711e-07
1.78621e-08
-2.52811e-07
1.65496e-08
-2.58039e-07
1.51771e-08
-2.62774e-07
1.37497e-08
-2.67e-07
1.22726e-08
-2.70701e-07
1.07508e-08
-2.73864e-07
9.18961e-09
-2.76477e-07
7.59433e-09
-2.78529e-07
5.97028e-09
-2.80014e-07
4.32287e-09
-2.80924e-07
2.6576e-09
-2.81257e-07
9.80021e-10
-2.81009e-07
-7.04247e-10
-2.8018e-07
-2.3895e-09
-2.78773e-07
-4.06995e-09
-2.7679e-07
-5.73978e-09
-2.74238e-07
-7.39308e-09
-2.71125e-07
-9.02388e-09
-2.6746e-07
-1.06262e-08
-2.63256e-07
-1.21939e-08
-2.58526e-07
-1.37209e-08
-2.53287e-07
-1.52012e-08
-2.47557e-07
-1.66285e-08
-2.41356e-07
-1.79967e-08
-2.34708e-07
-1.92997e-08
-2.27636e-07
-2.05314e-08
-2.20167e-07
-2.16858e-08
-2.1233e-07
-2.27569e-08
-2.04156e-07
-2.37389e-08
-1.95676e-07
-2.4626e-08
-1.86925e-07
-2.54127e-08
-1.7794e-07
-2.60935e-08
-1.68758e-07
-2.66632e-08
-1.5942e-07
-2.7117e-08
-1.49965e-07
-2.74501e-08
-1.40437e-07
-2.76581e-08
-1.30879e-07
-2.77372e-08
-1.21337e-07
-2.76836e-08
-1.11855e-07
-2.74944e-08
-1.02482e-07
-2.71669e-08
-9.3263e-08
-2.6699e-08
-8.42466e-08
-2.60895e-08
-7.548e-08
-2.53378e-08
-6.70105e-08
-2.44441e-08
-5.88845e-08
-2.34098e-08
-5.11474e-08
-2.22372e-08
-4.38432e-08
-2.09302e-08
-3.70134e-08
-1.94944e-08
-3.06969e-08
-1.79371e-08
-2.4929e-08
-1.62684e-08
-1.97401e-08
-1.4501e-08
-1.51549e-08
-1.26518e-08
-1.11909e-08
-1.07423e-08
-7.85674e-09
-8.79987e-09
-5.15e-09
-6.86006e-09
-3.05504e-09
-4.96823e-09
-1.54018e-09
-3.18268e-09
-5.54673e-10
-1.57817e-09
-2.51302e-11
-2.50296e-10
1.48462e-10
6.80283e-10
9.79873e-11
1.06275e-09
6.9616e-10
-9.92398e-12
-6.52132e-10
-2.36699e-10
-7.11827e-10
-8.33068e-10
1.34857e-10
-1.91633e-09
1.64076e-09
-3.57543e-09
3.62041e-09
-5.87478e-09
5.92491e-09
-8.85743e-09
8.43542e-09
-1.2548e-08
1.10583e-08
-1.69555e-08
1.37199e-08
-2.20756e-08
1.63627e-08
-2.78929e-08
1.8942e-08
-3.43832e-08
2.14228e-08
-4.15147e-08
2.37785e-08
-4.92499e-08
2.59886e-08
-5.75466e-08
2.80377e-08
-6.63591e-08
2.99147e-08
-7.5639e-08
3.16113e-08
-8.53359e-08
3.31223e-08
-9.53981e-08
3.44443e-08
-1.05773e-07
3.55759e-08
-1.16408e-07
3.6517e-08
-1.2725e-07
3.72686e-08
-1.38247e-07
3.7833e-08
-1.49346e-07
3.8213e-08
-1.60498e-07
3.84121e-08
-1.7165e-07
3.84346e-08
-1.82755e-07
3.82851e-08
-1.93765e-07
3.79685e-08
-2.04634e-07
3.74903e-08
-2.15316e-07
3.68559e-08
-2.2577e-07
3.60713e-08
-2.35953e-07
3.51426e-08
-2.45825e-07
3.40758e-08
-2.55349e-07
3.28774e-08
-2.64489e-07
3.15538e-08
-2.7321e-07
3.01117e-08
-2.8148e-07
2.85576e-08
-2.89269e-07
2.68985e-08
-2.96548e-07
2.5141e-08
-3.0329e-07
2.32923e-08
-3.09473e-07
2.13593e-08
-3.15072e-07
1.93491e-08
-3.20068e-07
1.72688e-08
-3.24443e-07
1.51259e-08
-3.28181e-07
1.29276e-08
-3.31268e-07
1.06814e-08
-3.33693e-07
8.39478e-09
-3.35445e-07
6.07546e-09
-3.36519e-07
3.73115e-09
-3.36909e-07
1.36967e-09
-3.36612e-07
-1.00103e-09
-3.35628e-07
-3.37293e-09
-3.3396e-07
-5.7379e-09
-3.31612e-07
-8.08772e-09
-3.28591e-07
-1.04141e-08
-3.24907e-07
-1.27086e-08
-3.2057e-07
-1.49628e-08
-3.15596e-07
-1.71682e-08
-3.1e-07
-1.93163e-08
-3.03803e-07
-2.13983e-08
-2.97026e-07
-2.34058e-08
-2.89692e-07
-2.53301e-08
-2.81829e-07
-2.71627e-08
-2.73466e-07
-2.88951e-08
-2.64633e-07
-3.05188e-08
-2.55364e-07
-3.20255e-08
-2.45696e-07
-3.34071e-08
-2.35666e-07
-3.46556e-08
-2.25316e-07
-3.57632e-08
-2.14687e-07
-3.67225e-08
-2.03824e-07
-3.75263e-08
-1.92773e-07
-3.81677e-08
-1.81583e-07
-3.86404e-08
-1.70302e-07
-3.89383e-08
-1.58984e-07
-3.90561e-08
-1.47678e-07
-3.8989e-08
-1.3644e-07
-3.87328e-08
-1.25322e-07
-3.82841e-08
-1.14381e-07
-3.76404e-08
-1.03671e-07
-3.68e-08
-9.32457e-08
-3.57626e-08
-8.3161e-08
-3.45288e-08
-7.34699e-08
-3.31009e-08
-6.42243e-08
-3.14828e-08
-5.54743e-08
-2.96802e-08
-4.72674e-08
-2.77013e-08
-3.96474e-08
-2.55571e-08
-3.26541e-08
-2.32617e-08
-2.63217e-08
-2.08334e-08
-2.0678e-08
-1.82956e-08
-1.57426e-08
-1.56776e-08
-1.15257e-08
-1.30168e-08
-8.02584e-09
-1.03599e-08
-5.22809e-09
-7.76598e-09
-3.10159e-09
-5.30918e-09
-1.59708e-09
-3.08268e-09
-6.44128e-10
-1.20325e-09
-1.48052e-10
1.84205e-10
1.38904e-11
9.00803e-10
7.10052e-10
-1.08485e-10
-5.4364e-10
-5.87738e-10
-2.32578e-10
-1.56455e-09
1.11168e-09
-3.13993e-09
3.21614e-09
-5.39178e-09
5.87226e-09
-8.37692e-09
8.91005e-09
-1.21331e-08
1.21916e-08
-1.66811e-08
1.56062e-08
-2.20267e-08
1.90655e-08
-2.81628e-08
2.24989e-08
-3.50715e-08
2.58506e-08
-4.27252e-08
2.90765e-08
-5.1089e-08
3.21422e-08
-6.01214e-08
3.5021e-08
-6.9776e-08
3.76923e-08
-8.00022e-08
4.01409e-08
-9.07467e-08
4.23557e-08
-1.01953e-07
4.4329e-08
-1.13565e-07
4.60558e-08
-1.25523e-07
4.75337e-08
-1.37768e-07
4.87619e-08
-1.50241e-07
4.97416e-08
-1.62883e-07
5.0475e-08
-1.75635e-07
5.09655e-08
-1.88441e-07
5.12177e-08
-2.01243e-07
5.12366e-08
-2.13986e-07
5.10281e-08
-2.26616e-07
5.05986e-08
-2.3908e-07
4.9955e-08
-2.51329e-07
4.91046e-08
-2.63313e-07
4.8055e-08
-2.74984e-07
4.6814e-08
-2.86298e-07
4.53898e-08
-2.97212e-07
4.37908e-08
-3.07683e-07
4.20254e-08
-3.17674e-07
4.01025e-08
-3.27147e-07
3.80308e-08
-3.36068e-07
3.58194e-08
-3.44405e-07
3.34773e-08
-3.52126e-07
3.10137e-08
-3.59205e-07
2.84381e-08
-3.65616e-07
2.57598e-08
-3.71335e-07
2.29885e-08
-3.76343e-07
2.01338e-08
-3.80621e-07
1.72055e-08
-3.84153e-07
1.42136e-08
-3.86927e-07
1.11681e-08
-3.8893e-07
8.07929e-09
-3.90157e-07
4.95735e-09
-3.906e-07
1.81277e-09
-3.90257e-07
-1.34388e-09
-3.89128e-07
-4.50191e-09
-3.87215e-07
-7.6505e-09
-3.84524e-07
-1.07787e-08
-3.81063e-07
-1.38755e-08
-3.76842e-07
-1.69297e-08
-3.71875e-07
-1.99301e-08
-3.66177e-07
-2.28654e-08
-3.59769e-07
-2.57242e-08
-3.52673e-07
-2.84951e-08
-3.44912e-07
-3.11667e-08
-3.36514e-07
-3.37277e-08
-3.2751e-07
-3.61667e-08
-3.17933e-07
-3.84725e-08
-3.07818e-07
-4.06339e-08
-2.97203e-07
-4.264e-08
-2.8613e-07
-4.44801e-08
-2.74642e-07
-4.61435e-08
-2.62785e-07
-4.76202e-08
-2.50607e-07
-4.89003e-08
-2.38159e-07
-4.99745e-08
-2.25493e-07
-5.08337e-08
-2.12664e-07
-5.14698e-08
-1.99727e-07
-5.1875e-08
-1.86741e-07
-5.20423e-08
-1.73765e-07
-5.19655e-08
-1.60858e-07
-5.16394e-08
-1.48082e-07
-5.10599e-08
-1.35499e-07
-5.02238e-08
-1.23169e-07
-4.91294e-08
-1.11155e-07
-4.77765e-08
-9.95179e-08
-4.61664e-08
-8.83161e-08
-4.43026e-08
-7.76082e-08
-4.21907e-08
-6.74497e-08
-3.98387e-08
-5.78931e-08
-3.7258e-08
-4.89869e-08
-3.44633e-08
-4.0775e-08
-3.14736e-08
-3.32953e-08
-2.83131e-08
-2.65786e-08
-2.50123e-08
-2.06474e-08
-2.16088e-08
-1.55142e-08
-1.815e-08
-1.11798e-08
-1.46943e-08
-7.63183e-09
-1.13139e-08
-4.84268e-09
-8.09833e-09
-2.76755e-09
-5.1578e-09
-1.34258e-09
-2.62822e-09
-4.82796e-10
-6.75581e-10
-8.00626e-11
4.98072e-10
6.29992e-10
-2.11038e-10
-3.32593e-10
-9.57823e-10
5.142e-10
-2.33952e-09
2.49338e-09
-4.43782e-09
5.31445e-09
-7.31662e-09
8.75106e-09
-1.10224e-08
1.26158e-08
-1.55852e-08
1.67544e-08
-2.10198e-08
2.10409e-08
-2.73274e-08
2.53731e-08
-3.44969e-08
2.96684e-08
-4.25066e-08
3.38602e-08
-5.13254e-08
3.78953e-08
-6.09146e-08
4.17315e-08
-7.1229e-08
4.53354e-08
-8.2218e-08
4.86813e-08
-9.38267e-08
5.17496e-08
-1.05997e-07
5.45258e-08
-1.18667e-07
5.69996e-08
-1.31776e-07
5.91643e-08
-1.45258e-07
6.10161e-08
-1.5905e-07
6.25536e-08
-1.73086e-07
6.37775e-08
-1.87301e-07
6.46904e-08
-2.01632e-07
6.52962e-08
-2.16015e-07
6.56001e-08
-2.30386e-07
6.56083e-08
-2.44686e-07
6.5328e-08
-2.58855e-07
6.47669e-08
-2.72833e-07
6.39337e-08
-2.86566e-07
6.28374e-08
-2.99999e-07
6.14876e-08
-3.13079e-07
5.9894e-08
-3.25756e-07
5.8067e-08
-3.37982e-07
5.60172e-08
-3.49712e-07
5.37553e-08
-3.60902e-07
5.12923e-08
-3.71511e-07
4.86396e-08
-3.815e-07
4.58086e-08
-3.90833e-07
4.28108e-08
-3.99478e-07
3.9658e-08
-4.07402e-07
3.63622e-08
-4.14577e-07
3.29353e-08
-4.20979e-07
2.93898e-08
-4.26583e-07
2.57379e-08
-4.31369e-07
2.19921e-08
-4.35321e-07
1.81653e-08
-4.38423e-07
1.42702e-08
-4.40664e-07
1.03199e-08
-4.42034e-07
6.32749e-09
-4.42527e-07
2.30642e-09
-4.42141e-07
-1.72984e-09
-4.40876e-07
-5.76762e-09
-4.38733e-07
-9.7931e-09
-4.35719e-07
-1.37923e-08
-4.31844e-07
-1.77512e-08
-4.27118e-07
-2.16554e-08
-4.21557e-07
-2.54908e-08
-4.1518e-07
-2.92428e-08
-4.08007e-07
-3.2897e-08
-4.00063e-07
-3.6439e-08
-3.91376e-07
-3.98541e-08
-3.81976e-07
-4.31279e-08
-3.71896e-07
-4.62461e-08
-3.61174e-07
-4.91943e-08
-3.4985e-07
-5.19585e-08
-3.37965e-07
-5.45247e-08
-3.25566e-07
-5.68794e-08
-3.127e-07
-5.90092e-08
-2.99419e-07
-6.09014e-08
-2.85776e-07
-6.25435e-08
-2.71826e-07
-6.39238e-08
-2.57629e-07
-6.5031e-08
-2.43244e-07
-6.58548e-08
-2.28734e-07
-6.63855e-08
-2.14161e-07
-6.66146e-08
-1.99592e-07
-6.65344e-08
-1.85093e-07
-6.61386e-08
-1.70731e-07
-6.54221e-08
-1.56573e-07
-6.43814e-08
-1.42688e-07
-6.30147e-08
-1.29143e-07
-6.1322e-08
-1.16003e-07
-5.93057e-08
-1.03336e-07
-5.69704e-08
-9.12026e-08
-5.43237e-08
-7.9665e-08
-5.13764e-08
-6.87799e-08
-4.81431e-08
-5.86004e-08
-4.46428e-08
-4.91744e-08
-4.08997e-08
-4.05434e-08
-3.69441e-08
-3.27418e-08
-3.28139e-08
-2.57952e-08
-2.85554e-08
-1.97196e-08
-2.42257e-08
-1.45194e-08
-1.98945e-08
-1.01863e-08
-1.5647e-08
-6.69803e-09
-1.15866e-08
-4.01657e-09
-7.83926e-09
-2.08735e-09
-4.55744e-09
-8.38122e-10
-1.92481e-09
-1.78503e-10
-1.61543e-10
4.51491e-10
-3.14456e-10
-1.81273e-11
-1.33563e-09
1.53538e-09
-3.13549e-09
4.29323e-09
-5.77511e-09
7.95407e-09
-9.30255e-09
1.22785e-08
-1.37521e-08
1.70654e-08
-1.91442e-08
2.21465e-08
-2.54863e-08
2.73829e-08
-3.27732e-08
3.266e-08
-4.09888e-08
3.7884e-08
-5.01066e-08
4.29781e-08
-6.00916e-08
4.78803e-08
-7.09009e-08
5.25408e-08
-8.24852e-08
5.69197e-08
-9.47898e-08
6.09858e-08
-1.07755e-07
6.47152e-08
-1.21319e-07
6.80898e-08
-1.35416e-07
7.10964e-08
-1.49978e-07
7.37264e-08
-1.64937e-07
7.59745e-08
-1.80222e-07
7.78386e-08
-1.95763e-07
7.9319e-08
-2.11491e-07
8.04183e-08
-2.27336e-07
8.11409e-08
-2.43228e-07
8.14927e-08
-2.59101e-07
8.14811e-08
-2.74888e-07
8.11145e-08
-2.90523e-07
8.04023e-08
-3.05944e-07
7.93548e-08
-3.2109e-07
7.79828e-08
-3.359e-07
7.6298e-08
-3.50319e-07
7.43124e-08
-3.6429e-07
7.20386e-08
-3.77763e-07
6.94895e-08
-3.90686e-07
6.66783e-08
-4.03012e-07
6.36187e-08
-4.14697e-07
6.03244e-08
-4.25698e-07
5.68095e-08
-4.35975e-07
5.30885e-08
-4.45493e-07
4.91758e-08
-4.54217e-07
4.50861e-08
-4.62116e-07
4.08344e-08
-4.69162e-07
3.6436e-08
-4.7533e-07
3.1906e-08
-4.80598e-07
2.726e-08
-4.84947e-07
2.25138e-08
-4.8836e-07
1.76834e-08
-4.90825e-07
1.27848e-08
-4.92332e-07
7.83431e-09
-4.92874e-07
2.84858e-09
-4.92448e-07
-2.15571e-09
-4.91054e-07
-7.16164e-09
-4.88695e-07
-1.21521e-08
-4.85378e-07
-1.71098e-08
-4.81111e-07
-2.20173e-08
-4.7591e-07
-2.6857e-08
-4.69789e-07
-3.16113e-08
-4.6277e-07
-3.62623e-08
-4.54875e-07
-4.07921e-08
-4.46131e-07
-4.51829e-08
-4.36568e-07
-4.94168e-08
-4.2622e-07
-5.34759e-08
-4.15124e-07
-5.73425e-08
-4.03319e-07
-6.0999e-08
-3.90849e-07
-6.44281e-08
-3.77761e-07
-6.76128e-08
-3.64105e-07
-7.05362e-08
-3.49932e-07
-7.31822e-08
-3.35298e-07
-7.5535e-08
-3.20262e-07
-7.75795e-08
-3.04885e-07
-7.93013e-08
-2.89229e-07
-8.06867e-08
-2.73361e-07
-8.17232e-08
-2.57347e-07
-8.2399e-08
-2.41258e-07
-8.2704e-08
-2.25163e-07
-8.26288e-08
-2.09136e-07
-8.21661e-08
-1.93248e-07
-8.131e-08
-1.77573e-07
-8.00564e-08
-1.62184e-07
-7.84035e-08
-1.47154e-07
-7.63518e-08
-1.32555e-07
-7.39046e-08
-1.18458e-07
-7.1068e-08
-1.0493e-07
-6.78519e-08
-9.20362e-08
-6.42698e-08
-7.98393e-08
-6.03399e-08
-6.83964e-08
-5.60857e-08
-5.77593e-08
-5.15368e-08
-4.79735e-08
-4.67298e-08
-3.90775e-08
-4.17099e-08
-3.11007e-08
-3.65321e-08
-2.40634e-08
-3.1263e-08
-1.79747e-08
-2.59832e-08
-1.2832e-08
-2.07897e-08
-8.61979e-09
-1.57989e-08
-5.30879e-09
-1.11503e-08
-2.85557e-09
-7.01066e-09
-1.20245e-09
-3.57793e-09
-2.78195e-10
-1.08579e-09
1.73296e-10
-4.16914e-10
3.98787e-10
-1.71396e-09
2.83242e-09
-3.93734e-09
6.51661e-09
-7.12745e-09
1.11442e-08
-1.13157e-08
1.64667e-08
-1.65228e-08
2.22725e-08
-2.27587e-08
2.83823e-08
-3.00216e-08
3.46459e-08
-3.82993e-08
4.09378e-08
-4.75694e-08
4.71541e-08
-5.78002e-08
5.32088e-08
-6.89515e-08
5.90316e-08
-8.0976e-08
6.45653e-08
-9.38201e-08
6.97638e-08
-1.07425e-07
7.45905e-08
-1.21726e-07
7.90169e-08
-1.36658e-07
8.30213e-08
-1.5215e-07
8.6588e-08
-1.68129e-07
8.97059e-08
-1.84523e-07
9.23684e-08
-2.01256e-07
9.45723e-08
-2.18255e-07
9.63176e-08
-2.35444e-07
9.76069e-08
-2.52748e-07
9.84449e-08
-2.70093e-07
9.88386e-08
-2.87408e-07
9.87961e-08
-3.04621e-07
9.83274e-08
-3.21662e-07
9.74434e-08
-3.38464e-07
9.61561e-08
-3.54959e-07
9.44786e-08
-3.71086e-07
9.24244e-08
-3.86781e-07
9.00081e-08
-4.01987e-07
8.72445e-08
-4.16647e-07
8.4149e-08
-4.30706e-07
8.07377e-08
-4.44114e-07
7.70267e-08
-4.56822e-07
7.30327e-08
-4.68786e-07
6.87726e-08
-4.79961e-07
6.42638e-08
-4.90309e-07
5.95236e-08
-4.99793e-07
5.457e-08
-5.08379e-07
4.9421e-08
-5.16038e-07
4.40948e-08
-5.22742e-07
3.86099e-08
-5.28467e-07
3.29853e-08
-5.33193e-07
2.72397e-08
-5.36902e-07
2.13926e-08
-5.39581e-07
1.54634e-08
-5.41219e-07
9.47189e-09
-5.41808e-07
3.43798e-09
-5.41346e-07
-2.61811e-09
-5.39831e-07
-8.67592e-09
-5.37269e-07
-1.47148e-08
-5.33665e-07
-2.07139e-08
-5.2903e-07
-2.66522e-08
-5.23378e-07
-3.25085e-08
-5.16728e-07
-3.82614e-08
-5.09101e-07
-4.38894e-08
-5.00522e-07
-4.93711e-08
-4.9102e-07
-5.46849e-08
-4.80627e-07
-5.98093e-08
-4.69381e-07
-6.47228e-08
-4.57319e-07
-6.94041e-08
-4.44486e-07
-7.38322e-08
-4.30928e-07
-7.79861e-08
-4.16695e-07
-8.18454e-08
-4.01841e-07
-8.53901e-08
-3.86423e-07
-8.86007e-08
-3.70499e-07
-9.14584e-08
-3.54134e-07
-9.39451e-08
-3.37391e-07
-9.60437e-08
-3.2034e-07
-9.7738e-08
-3.0305e-07
-9.9013e-08
-2.85594e-07
-9.98549e-08
-2.68047e-07
-1.00251e-07
-2.50484e-07
-1.00192e-07
-2.32982e-07
-9.96681e-08
-2.15619e-07
-9.86726e-08
-1.98474e-07
-9.72014e-08
-1.81625e-07
-9.52524e-08
-1.6515e-07
-9.28269e-08
-1.49126e-07
-8.99289e-08
-1.33627e-07
-8.65664e-08
-1.18728e-07
-8.27513e-08
-1.04497e-07
-7.85004e-08
-9.10015e-08
-7.38355e-08
-7.83027e-08
-6.87846e-08
-6.64568e-08
-6.33827e-08
-5.55138e-08
-5.76728e-08
-4.55164e-08
-5.17074e-08
-3.64987e-08
-4.55497e-08
-2.84862e-08
-3.92756e-08
-2.14936e-08
-3.29758e-08
-1.55252e-08
-2.67581e-08
-1.05736e-08
-2.07505e-08
-6.61947e-09
-1.51044e-08
-3.63179e-09
-9.99835e-09
-1.56833e-09
-5.64138e-09
-3.77221e-10
-2.2769e-09
-2.03925e-10
-5.17379e-10
9.16163e-10
-2.08831e-09
4.40335e-09
-4.7352e-09
9.1635e-09
-8.47833e-09
1.48873e-08
-1.33322e-08
2.13206e-08
-1.93037e-08
2.8244e-08
-2.63908e-08
3.54694e-08
-3.45821e-08
4.28372e-08
-4.38573e-08
5.02129e-08
-5.41867e-08
5.74834e-08
-6.55324e-08
6.45546e-08
-7.7849e-08
7.13482e-08
-9.10841e-08
7.78004e-08
-1.05179e-07
8.3859e-08
-1.20071e-07
8.94822e-08
-1.35691e-07
9.46372e-08
-1.51969e-07
9.92989e-08
-1.68829e-07
1.03448e-07
-1.86196e-07
1.07073e-07
-2.03991e-07
1.10164e-07
-2.22136e-07
1.12717e-07
-2.40551e-07
1.14732e-07
-2.59156e-07
1.16212e-07
-2.77873e-07
1.17162e-07
-2.96623e-07
1.17589e-07
-3.1533e-07
1.17503e-07
-3.33917e-07
1.16915e-07
-3.52311e-07
1.15837e-07
-3.70439e-07
1.14284e-07
-3.88231e-07
1.12271e-07
-4.0562e-07
1.09813e-07
-4.2254e-07
1.06928e-07
-4.38927e-07
1.03632e-07
-4.54723e-07
9.99446e-08
-4.69869e-07
9.58836e-08
-4.84311e-07
9.14684e-08
-4.97997e-07
8.67187e-08
-5.10878e-07
8.16544e-08
-5.22911e-07
7.62958e-08
-5.34051e-07
7.06637e-08
-5.4426e-07
6.47791e-08
-5.53502e-07
5.86634e-08
-5.61745e-07
5.23382e-08
-5.68961e-07
4.58254e-08
-5.75123e-07
3.91472e-08
-5.80209e-07
3.23262e-08
-5.84202e-07
2.53851e-08
-5.87085e-07
1.83471e-08
-5.88849e-07
1.12356e-08
-5.89485e-07
4.07409e-09
-5.8899e-07
-3.11341e-09
-5.87363e-07
-1.03027e-08
-5.84609e-07
-1.74694e-08
-5.80734e-07
-2.45888e-08
-5.7575e-07
-3.1636e-08
-5.69672e-07
-3.8586e-08
-5.6252e-07
-4.54135e-08
-5.54316e-07
-5.20932e-08
-5.45088e-07
-5.85997e-08
-5.34865e-07
-6.49074e-08
-5.23683e-07
-7.09912e-08
-5.11581e-07
-7.68255e-08
-4.98599e-07
-8.23853e-08
-4.84786e-07
-8.76458e-08
-4.70189e-07
-9.25824e-08
-4.54864e-07
-9.71711e-08
-4.38866e-07
-1.01388e-07
-4.22255e-07
-1.05211e-07
-4.05097e-07
-1.08617e-07
-3.87456e-07
-1.11586e-07
-3.69403e-07
-1.14097e-07
-3.5101e-07
-1.16131e-07
-3.32351e-07
-1.17671e-07
-3.13505e-07
-1.18701e-07
-2.94549e-07
-1.19207e-07
-2.75564e-07
-1.19176e-07
-2.56633e-07
-1.18599e-07
-2.37838e-07
-1.17468e-07
-2.19262e-07
-1.15777e-07
-2.00988e-07
-1.13526e-07
-1.831e-07
-1.10715e-07
-1.65678e-07
-1.07351e-07
-1.48802e-07
-1.03442e-07
-1.3255e-07
-9.90031e-08
-1.16997e-07
-9.40537e-08
-1.02213e-07
-8.86196e-08
-8.82642e-08
-8.27333e-08
-7.52116e-08
-7.64353e-08
-6.31098e-08
-6.97747e-08
-5.20062e-08
-6.2811e-08
-4.19406e-08
-5.56153e-08
-3.2944e-08
-4.82722e-08
-2.50381e-08
-4.08817e-08
-1.82346e-08
-3.35615e-08
-1.25353e-08
-2.64498e-08
-7.93172e-09
-1.9708e-08
-4.40582e-09
-1.35242e-08
-1.93109e-09
-8.11612e-09
-4.74478e-10
-3.73351e-09
-6.78402e-10
-6.15304e-10
1.53147e-09
-2.456e-09
6.24404e-09
-5.52278e-09
1.22303e-08
-9.81682e-09
1.91813e-08
-1.53361e-08
2.68398e-08
-2.20731e-08
3.4981e-08
-3.00138e-08
4.341e-08
-3.91364e-08
5.19598e-08
-4.94114e-08
6.0488e-08
-6.08016e-08
6.88737e-08
-7.32624e-08
7.70153e-08
-8.67421e-08
8.4828e-08
-1.01183e-07
9.22412e-08
-1.16521e-07
9.91974e-08
-1.32689e-07
1.0565e-07
-1.49614e-07
1.11562e-07
-1.67219e-07
1.16904e-07
-1.85427e-07
1.21656e-07
-2.04156e-07
1.25802e-07
-2.23324e-07
1.29332e-07
-2.42848e-07
1.32241e-07
-2.62645e-07
1.34529e-07
-2.8263e-07
1.36197e-07
-3.02721e-07
1.37253e-07
-3.22834e-07
1.37703e-07
-3.4289e-07
1.37558e-07
-3.62807e-07
1.36832e-07
-3.82508e-07
1.35538e-07
-4.01917e-07
1.33693e-07
-4.2096e-07
1.31313e-07
-4.39564e-07
1.28418e-07
-4.57662e-07
1.25025e-07
-4.75186e-07
1.21156e-07
-4.92073e-07
1.16832e-07
-5.08262e-07
1.12073e-07
-5.23696e-07
1.06902e-07
-5.3832e-07
1.01343e-07
-5.52083e-07
9.5417e-08
-5.64936e-07
8.91491e-08
-5.76835e-07
8.2563e-08
-5.87739e-07
7.56831e-08
-5.9761e-07
6.85343e-08
-6.06414e-07
6.11418e-08
-6.1412e-07
5.35311e-08
-6.207e-07
4.5728e-08
-6.26133e-07
3.77589e-08
-6.30398e-07
2.96501e-08
-6.3348e-07
2.14287e-08
-6.35366e-07
1.31219e-08
-6.36049e-07
4.7571e-09
-6.35525e-07
-3.63775e-09
-6.33793e-07
-1.20345e-08
-6.30857e-07
-2.04048e-08
-6.26726e-07
-2.87198e-08
-6.21412e-07
-3.69507e-08
-6.1493e-07
-4.50682e-08
-6.073e-07
-5.30431e-08
-5.98547e-07
-6.08459e-08
-5.887e-07
-6.8447e-08