/*--------------------------------*- C++ -*----------------------------------*\
| =========                 |                                                 |
| \\      /  F ield         | OpenFOAM: The Open Source CFD Toolbox           |
|  \\    /   O peration     | Version:  2212                                  |
|   \\  /    A nd           | Website:  www.openfoam.com                      |
|    \\/     M anipulation  |                                                 |
\*---------------------------------------------------------------------------*/
FoamFile
{
    version     2.0;
    format      ascii;
    arch        "LSB;label=32;scalar=64";
    class       volVectorField;
    location    "0.0315";
    object      U;
}
// * * * * * * * * * * * * * * * * * * * * * * * * * * * * * * * * * * * * * //

dimensions      [0 1 -1 0 0 0 0];

internalField   nonuniform List<vector> 
10000
(
(1.55291e-06 -3.91946e-06 0)
(1.28068e-05 -7.81949e-06 0)
(2.72358e-05 -7.23962e-06 0)
(4.03882e-05 -5.64362e-06 0)
(4.67256e-05 -3.21679e-06 0)
(4.55228e-05 -4.41871e-07 0)
(3.59518e-05 2.43972e-06 0)
(1.77404e-05 5.28937e-06 0)
(-9.05642e-06 8.02936e-06 0)
(-4.41644e-05 1.06235e-05 0)
(-8.71965e-05 1.30512e-05 0)
(-0.000137687 1.52985e-05 0)
(-0.000195106 1.73522e-05 0)
(-0.000258902 1.92096e-05 0)
(-0.000328507 2.08782e-05 0)
(-0.000403347 2.23675e-05 0)
(-0.000482848 2.36814e-05 0)
(-0.000566436 2.48189e-05 0)
(-0.000653546 2.5784e-05 0)
(-0.000743628 2.65829e-05 0)
(-0.000836139 2.72216e-05 0)
(-0.000930558 2.77078e-05 0)
(-0.00102638 2.80444e-05 0)
(-0.0011231 2.82358e-05 0)
(-0.00122025 2.82915e-05 0)
(-0.00131739 2.82174e-05 0)
(-0.00141407 2.80178e-05 0)
(-0.00150988 2.77003e-05 0)
(-0.00160441 2.72695e-05 0)
(-0.00169728 2.67282e-05 0)
(-0.00178814 2.60832e-05 0)
(-0.00187663 2.53418e-05 0)
(-0.00196244 2.45095e-05 0)
(-0.00204524 2.35923e-05 0)
(-0.00212476 2.25958e-05 0)
(-0.00220072 2.15222e-05 0)
(-0.00227287 2.03748e-05 0)
(-0.00234095 1.91607e-05 0)
(-0.00240476 1.78871e-05 0)
(-0.00246408 1.65576e-05 0)
(-0.00251873 1.51744e-05 0)
(-0.00256853 1.37427e-05 0)
(-0.00261333 1.22694e-05 0)
(-0.00265297 1.07587e-05 0)
(-0.00268734 9.21319e-06 0)
(-0.00271633 7.63643e-06 0)
(-0.00273984 6.03444e-06 0)
(-0.00275778 4.41361e-06 0)
(-0.00277011 2.77772e-06 0)
(-0.00277676 1.1292e-06 0)
(-0.00277771 -5.27939e-07 0)
(-0.00277294 -2.18779e-06 0)
(-0.00276246 -3.844e-06 0)
(-0.00274628 -5.49171e-06 0)
(-0.00272444 -7.12798e-06 0)
(-0.00269698 -8.74937e-06 0)
(-0.00266398 -1.03504e-05 0)
(-0.00262553 -1.19243e-05 0)
(-0.00258172 -1.34642e-05 0)
(-0.0025327 -1.49646e-05 0)
(-0.00247859 -1.64214e-05 0)
(-0.00241956 -1.783e-05 0)
(-0.0023558 -1.91838e-05 0)
(-0.00228752 -2.04753e-05 0)
(-0.00221494 -2.16975e-05 0)
(-0.0021383 -2.28442e-05 0)
(-0.00205788 -2.39101e-05 0)
(-0.00197396 -2.48899e-05 0)
(-0.00188686 -2.57771e-05 0)
(-0.00179691 -2.65648e-05 0)
(-0.00170445 -2.72465e-05 0)
(-0.00160986 -2.78157e-05 0)
(-0.00151355 -2.82661e-05 0)
(-0.00141591 -2.85919e-05 0)
(-0.00131738 -2.87881e-05 0)
(-0.00121843 -2.88492e-05 0)
(-0.00111951 -2.87691e-05 0)
(-0.00102111 -2.85417e-05 0)
(-0.000923753 -2.81611e-05 0)
(-0.000827948 -2.76216e-05 0)
(-0.000734235 -2.69183e-05 0)
(-0.000643165 -2.60469e-05 0)
(-0.0005553 -2.50035e-05 0)
(-0.000471209 -2.37837e-05 0)
(-0.000391471 -2.23837e-05 0)
(-0.000316662 -2.08014e-05 0)
(-0.00024736 -1.90363e-05 0)
(-0.000184135 -1.70889e-05 0)
(-0.000127541 -1.49611e-05 0)
(-7.81047e-05 -1.26567e-05 0)
(-3.63162e-05 -1.01845e-05 0)
(-2.60421e-06 -7.56043e-06 0)
(2.26931e-05 -4.81265e-06 0)
(3.93778e-05 -1.98966e-06 0)
(4.74705e-05 8.22227e-07 0)
(4.73366e-05 3.46754e-06 0)
(3.98686e-05 5.6654e-06 0)
(2.68796e-05 6.89598e-06 0)
(1.22702e-05 6.23026e-06 0)
(2.62054e-06 2.62e-06 0)
(4.71321e-06 -1.21018e-05 0)
(2.23584e-05 -2.5907e-05 0)
(4.51657e-05 -2.43861e-05 0)
(6.01637e-05 -1.58124e-05 0)
(6.00935e-05 -2.81584e-06 0)
(4.12808e-05 1.25464e-05 0)
(1.48584e-06 2.89896e-05 0)
(-6.03594e-05 4.57e-05 0)
(-0.000144458 6.21548e-05 0)
(-0.00025044 7.80221e-05 0)
(-0.000377526 9.30854e-05 0)
(-0.000524654 0.000107211 0)
(-0.000690575 0.000120304 0)
(-0.000873906 0.000132305 0)
(-0.00107319 0.000143189 0)
(-0.00128692 0.000152948 0)
(-0.00151357 0.000161587 0)
(-0.00175158 0.000169112 0)
(-0.00199943 0.000175535 0)
(-0.00225561 0.000180882 0)
(-0.00251862 0.000185179 0)
(-0.002787 0.000188456 0)
(-0.00305935 0.000190748 0)
(-0.00333429 0.000192088 0)
(-0.00361049 0.000192505 0)
(-0.00388666 0.00019204 0)
(-0.00416158 0.000190731 0)
(-0.00443405 0.000188613 0)
(-0.00470294 0.00018572 0)
(-0.00496717 0.000182088 0)
(-0.00522571 0.000177753 0)
(-0.00547756 0.000172753 0)
(-0.00572179 0.000167122 0)
(-0.00595753 0.000160899 0)
(-0.00618395 0.000154119 0)
(-0.00640024 0.000146813 0)
(-0.00660569 0.000139012 0)
(-0.00679961 0.000130752 0)
(-0.00698135 0.000122066 0)
(-0.00715032 0.000112987 0)
(-0.00730597 0.000103545 0)
(-0.00744781 9.37743e-05 0)
(-0.00757539 8.37075e-05 0)
(-0.00768828 7.33745e-05 0)
(-0.00778613 6.28044e-05 0)
(-0.00786862 5.20285e-05 0)
(-0.00793548 4.10796e-05 0)
(-0.00798649 2.99909e-05 0)
(-0.00802146 1.8793e-05 0)
(-0.00804025 7.51591e-06 0)
(-0.00804278 -3.80836e-06 0)
(-0.00802901 -1.51462e-05 0)
(-0.00799895 -2.64639e-05 0)
(-0.00795264 -3.77279e-05 0)
(-0.0078902 -4.89058e-05 0)
(-0.00781177 -5.99643e-05 0)
(-0.00771757 -7.08675e-05 0)
(-0.00760784 -8.15775e-05 0)
(-0.0074829 -9.20563e-05 0)
(-0.00734311 -0.000102266 0)
(-0.00718889 -0.000112167 0)
(-0.00702072 -0.000121723 0)
(-0.00683913 -0.000130893 0)
(-0.00664471 -0.000139634 0)
(-0.0064381 -0.000147905 0)
(-0.00622001 -0.000155664 0)
(-0.00599121 -0.00016287 0)
(-0.00575252 -0.000169482 0)
(-0.00550484 -0.000175457 0)
(-0.0052491 -0.000180754 0)
(-0.0049863 -0.000185331 0)
(-0.00471751 -0.000189147 0)
(-0.00444384 -0.000192163 0)
(-0.00416647 -0.000194338 0)
(-0.00388661 -0.000195637 0)
(-0.00360555 -0.000196021 0)
(-0.00332462 -0.000195456 0)
(-0.00304519 -0.000193907 0)
(-0.00276868 -0.000191341 0)
(-0.00249654 -0.000187727 0)
(-0.00223027 -0.000183041 0)
(-0.00197138 -0.000177258 0)
(-0.00172143 -0.000170363 0)
(-0.00148197 -0.00016234 0)
(-0.00125456 -0.000153184 0)
(-0.00104076 -0.000142895 0)
(-0.000842087 -0.000131488 0)
(-0.00066004 -0.000118989 0)
(-0.000496028 -0.000105445 0)
(-0.000351364 -9.09261e-05 0)
(-0.00022721 -7.55386e-05 0)
(-0.000124516 -5.9442e-05 0)
(-4.39277e-05 -4.28757e-05 0)
(1.43384e-05 -2.62015e-05 0)
(5.0683e-05 -9.97324e-06 0)
(6.63859e-05 4.95039e-06 0)
(6.39194e-05 1.72314e-05 0)
(4.74599e-05 2.47791e-05 0)
(2.44166e-05 2.44054e-05 0)
(6.22983e-06 1.22608e-05 0)
(6.35053e-06 -2.636e-05 0)
(2.33967e-05 -4.69998e-05 0)
(3.98327e-05 -4.07765e-05 0)
(4.24389e-05 -1.74501e-05 0)
(2.21918e-05 1.65388e-05 0)
(-2.60285e-05 5.67938e-05 0)
(-0.000105404 0.000100285 0)
(-0.000217618 0.000144951 0)
(-0.000363196 0.000189371 0)
(-0.000541789 0.000232565 0)
(-0.000752428 0.000273872 0)
(-0.000993692 0.000312834 0)
(-0.00126381 0.000349142 0)
(-0.0015608 0.000382589 0)
(-0.00188249 0.000413046 0)
(-0.00222663 0.000440446 0)
(-0.0025909 0.00046476 0)
(-0.00297294 0.000485994 0)
(-0.00337039 0.00050417 0)
(-0.0037809 0.000519333 0)
(-0.00420217 0.000531549 0)
(-0.00463191 0.000540892 0)
(-0.0050679 0.000547438 0)
(-0.00550797 0.000551279 0)
(-0.00595002 0.000552506 0)
(-0.00639202 0.000551213 0)
(-0.00683201 0.0005475 0)
(-0.0072681 0.000541469 0)
(-0.00769848 0.000533218 0)
(-0.00812142 0.000522846 0)
(-0.00853527 0.000510458 0)
(-0.00893846 0.000496154 0)
(-0.00932947 0.000480034 0)
(-0.00970692 0.0004622 0)
(-0.0100694 0.000442752 0)
(-0.0104158 0.000421787 0)
(-0.0107448 0.000399398 0)
(-0.0110553 0.000375682 0)
(-0.0113463 0.000350734 0)
(-0.0116169 0.000324647 0)
(-0.0118662 0.000297514 0)
(-0.0120933 0.000269428 0)
(-0.0122976 0.000240481 0)
(-0.0124783 0.000210765 0)
(-0.0126349 0.000180367 0)
(-0.0127669 0.000149378 0)
(-0.0128739 0.000117891 0)
(-0.0129555 8.5996e-05 0)
(-0.0130113 5.37865e-05 0)
(-0.0130412 2.13538e-05 0)
(-0.0130451 -1.12088e-05 0)
(-0.0130229 -4.3806e-05 0)
(-0.0129745 -7.63423e-05 0)
(-0.0129001 -0.000108721 0)
(-0.0127999 -0.000140842 0)
(-0.0126741 -0.000172607 0)
(-0.0125231 -0.000203912 0)
(-0.0123472 -0.000234651 0)
(-0.0121469 -0.000264717 0)
(-0.011923 -0.000294002 0)
(-0.0116759 -0.000322393 0)
(-0.0114066 -0.000349777 0)
(-0.0111158 -0.000376042 0)
(-0.0108046 -0.000401069 0)
(-0.0104739 -0.000424742 0)
(-0.0101248 -0.000446941 0)
(-0.00975873 -0.00046755 0)
(-0.00937686 -0.000486449 0)
(-0.00898065 -0.000503519 0)
(-0.00857159 -0.000518643 0)
(-0.00815129 -0.000531704 0)
(-0.00772145 -0.000542588 0)
(-0.00728383 -0.000551182 0)
(-0.0068403 -0.000557377 0)
(-0.00639281 -0.000561067 0)
(-0.0059434 -0.00056215 0)
(-0.00549415 -0.00056053 0)
(-0.00504725 -0.000556117 0)
(-0.00460493 -0.000548825 0)
(-0.00416948 -0.000538579 0)
(-0.00374323 -0.000525314 0)
(-0.00332856 -0.000508976 0)
(-0.00292787 -0.00048953 0)
(-0.00254358 -0.000466956 0)
(-0.00217808 -0.000441255 0)
(-0.00183374 -0.000412458 0)
(-0.00151287 -0.000380629 0)
(-0.00121771 -0.000345879 0)
(-0.000950323 -0.000308379 0)
(-0.000712619 -0.000268375 0)
(-0.000506227 -0.000226223 0)
(-0.000332419 -0.000182429 0)
(-0.000191976 -0.000137714 0)
(-8.50163e-05 -9.3107e-05 0)
(-1.0766e-05 -5.00865e-05 0)
(3.2744e-05 -1.07822e-05 0)
(4.89938e-05 2.17452e-05 0)
(4.3419e-05 4.31595e-05 0)
(2.49108e-05 4.74817e-05 0)
(6.91667e-06 2.68848e-05 0)
(5.27532e-06 -3.80139e-05 0)
(1.58991e-05 -6.14059e-05 0)
(1.80194e-05 -4.33024e-05 0)
(-1.30407e-06 2.32172e-06 0)
(-5.12384e-05 6.5784e-05 0)
(-0.000137485 0.000140204 0)
(-0.000263675 0.000220634 0)
(-0.000431816 0.000303525 0)
(-0.000642607 0.000386336 0)
(-0.000895725 0.000467242 0)
(-0.00119006 0.000544935 0)
(-0.00152393 0.000618492 0)
(-0.00189519 0.00068727 0)
(-0.00230137 0.000750818 0)
(-0.00273977 0.000808839 0)
(-0.00320753 0.000861155 0)
(-0.00370165 0.000907671 0)
(-0.00421911 0.000948359 0)
(-0.00475685 0.000983247 0)
(-0.0053118 0.0010124 0)
(-0.00588091 0.00103591 0)
(-0.0064612 0.0010539 0)
(-0.00704972 0.00106652 0)
(-0.0076436 0.00107391 0)
(-0.00824005 0.00107626 0)
(-0.00883635 0.00107373 0)
(-0.00942989 0.00106651 0)
(-0.0100181 0.00105479 0)
(-0.0105987 0.00103875 0)
(-0.0111692 0.00101859 0)
(-0.0117274 0.000994504 0)
(-0.0122712 0.000966682 0)
(-0.0127987 0.000935321 0)
(-0.0133078 0.000900613 0)
(-0.0137969 0.000862748 0)
(-0.0142641 0.000821916 0)
(-0.0147079 0.000778305 0)
(-0.0151268 0.000732101 0)
(-0.0155194 0.000683486 0)
(-0.0158844 0.000632645 0)
(-0.0162206 0.000579758 0)
(-0.0165269 0.000525007 0)
(-0.0168024 0.000468571 0)
(-0.0170462 0.000410628 0)
(-0.0172574 0.000351355 0)
(-0.0174354 0.000290931 0)
(-0.0175795 0.000229533 0)
(-0.0176894 0.000167341 0)
(-0.0177645 0.000104535 0)
(-0.0178047 4.12982e-05 0)
(-0.0178097 -2.21858e-05 0)
(-0.0177795 -8.57319e-05 0)
(-0.017714 -0.000149152 0)
(-0.0176135 -0.000212257 0)
(-0.0174781 -0.000274851 0)
(-0.0173082 -0.000336736 0)
(-0.0171042 -0.00039771 0)
(-0.0168667 -0.000457569 0)
(-0.0165965 -0.000516105 0)
(-0.0162943 -0.000573105 0)
(-0.015961 -0.000628354 0)
(-0.0155976 -0.00068163 0)
(-0.0152054 -0.000732712 0)
(-0.0147856 -0.000781376 0)
(-0.0143397 -0.000827395 0)
(-0.0138691 -0.000870541 0)
(-0.0133755 -0.000910585 0)
(-0.0128607 -0.000947298 0)
(-0.0123266 -0.000980452 0)
(-0.0117753 -0.00100982 0)
(-0.0112088 -0.00103518 0)
(-0.0106294 -0.00105631 0)
(-0.0100396 -0.001073 0)
(-0.00944182 -0.00108504 0)
(-0.00883865 -0.00109223 0)
(-0.00823283 -0.00109437 0)
(-0.00762714 -0.0010913 0)
(-0.00702447 -0.00108283 0)
(-0.00642779 -0.00106882 0)
(-0.00584013 -0.00104915 0)
(-0.00526458 -0.00102368 0)
(-0.00470426 -0.000992351 0)
(-0.00416232 -0.000955099 0)
(-0.00364189 -0.000911912 0)
(-0.00314611 -0.000862823 0)
(-0.00267801 -0.000807922 0)
(-0.00224057 -0.000747369 0)
(-0.0018366 -0.000681419 0)
(-0.00146873 -0.000610443 0)
(-0.00113929 -0.000534965 0)
(-0.000850259 -0.000455718 0)
(-0.000603142 -0.00037371 0)
(-0.000398798 -0.000290328 0)
(-0.000237275 -0.000207484 0)
(-0.000117565 -0.000127807 0)
(-3.7321e-05 -5.4921e-05 0)
(7.43215e-06 6.20635e-06 0)
(2.26821e-05 4.88758e-05 0)
(1.76474e-05 6.42037e-05 0)
(5.74043e-06 3.99872e-05 0)
(3.19397e-06 -4.50137e-05 0)
(3.74661e-06 -6.19688e-05 0)
(-1.45102e-05 -2.37825e-05 0)
(-6.26994e-05 5.19903e-05 0)
(-0.000149307 0.000152784 0)
(-0.000280068 0.000269383 0)
(-0.000458678 0.000394936 0)
(-0.000687194 0.000524374 0)
(-0.000966339 0.000653944 0)
(-0.00129574 0.000780869 0)
(-0.00167415 0.000903098 0)
(-0.00209964 0.00101913 0)
(-0.00256978 0.00112788 0)
(-0.00308172 0.00122859 0)
(-0.00363229 0.00132073 0)
(-0.00421813 0.00140396 0)
(-0.00483572 0.00147808 0)
(-0.00548144 0.00154299 0)
(-0.00615163 0.00159871 0)
(-0.00684259 0.00164531 0)
(-0.00755067 0.00168292 0)
(-0.00827222 0.0017117 0)
(-0.00900368 0.00173186 0)
(-0.00974154 0.00174364 0)
(-0.0104824 0.00174729 0)
(-0.0112229 0.00174308 0)
(-0.0119599 0.0017313 0)
(-0.0126902 0.00171224 0)
(-0.0134109 0.0016862 0)
(-0.014119 0.00165349 0)
(-0.0148119 0.00161441 0)
(-0.0154869 0.00156927 0)
(-0.0161416 0.00151839 0)
(-0.0167735 0.00146207 0)
(-0.0173805 0.00140062 0)
(-0.0179604 0.00133435 0)
(-0.0185112 0.00126356 0)
(-0.0190311 0.00118854 0)
(-0.0195183 0.00110961 0)
(-0.0199712 0.00102706 0)
(-0.0203885 0.000941176 0)
(-0.0207686 0.000852258 0)
(-0.0211105 0.000760598 0)
(-0.0214129 0.000666486 0)
(-0.0216749 0.000570213 0)
(-0.0218956 0.000472069 0)
(-0.0220744 0.000372344 0)
(-0.0222105 0.000271331 0)
(-0.0223036 0.000169326 0)
(-0.0223533 6.6626e-05 0)
(-0.0223593 -3.64698e-05 0)
(-0.0223216 -0.000139659 0)
(-0.0222401 -0.000242634 0)
(-0.0221151 -0.000345083 0)
(-0.0219468 -0.00044669 0)
(-0.0217358 -0.000547132 0)
(-0.0214824 -0.000646081 0)
(-0.0211876 -0.000743204 0)
(-0.0208521 -0.000838164 0)
(-0.0204769 -0.000930616 0)
(-0.0200632 -0.00102021 0)
(-0.0196123 -0.00110659 0)
(-0.0191257 -0.0011894 0)
(-0.0186048 -0.00126828 0)
(-0.0180515 -0.00134285 0)
(-0.0174677 -0.00141277 0)
(-0.0168553 -0.00147764 0)
(-0.0162168 -0.00153712 0)
(-0.0155542 -0.00159082 0)
(-0.0148703 -0.0016384 0)
(-0.0141676 -0.00167949 0)
(-0.013449 -0.00171374 0)
(-0.0127173 -0.00174082 0)
(-0.0119757 -0.00176038 0)
(-0.0112273 -0.00177213 0)
(-0.0104754 -0.00177574 0)
(-0.00972358 -0.00177096 0)
(-0.00897525 -0.00175752 0)
(-0.00823406 -0.00173519 0)
(-0.0075037 -0.00170378 0)
(-0.00678792 -0.00166313 0)
(-0.00609049 -0.00161313 0)
(-0.00541522 -0.00155371 0)
(-0.00476588 -0.0014849 0)
(-0.0041462 -0.00140678 0)
(-0.00355982 -0.00131953 0)
(-0.00301025 -0.00122345 0)
(-0.0025008 -0.00111901 0)
(-0.00203453 -0.00100684 0)
(-0.00161413 -0.000887827 0)
(-0.00124187 -0.000763187 0)
(-0.000919441 -0.000634535 0)
(-0.0006478 -0.000504044 0)
(-0.000427006 -0.000374616 0)
(-0.000255993 -0.000250121 0)
(-0.000132325 -0.000135718 0)
(-5.19302e-05 -3.82536e-05 0)
(-8.77546e-06 3.33161e-05 0)
(5.82307e-06 6.73661e-05 0)
(3.63551e-06 4.77663e-05 0)
(6.55411e-07 -4.46848e-05 0)
(-1.0946e-05 -4.4426e-05 0)
(-5.3503e-05 2.30269e-05 0)
(-0.000135319 0.000137251 0)
(-0.000263559 0.00028322 0)
(-0.000443583 0.000449615 0)
(-0.000678839 0.000627804 0)
(-0.000971194 0.000811226 0)
(-0.00132122 0.000994909 0)
(-0.00172839 0.00117508 0)
(-0.0021913 0.00134888 0)
(-0.00270779 0.00151418 0)
(-0.00327512 0.0016694 0)
(-0.00389012 0.00181337 0)
(-0.00454925 0.0019453 0)
(-0.00524871 0.00206464 0)
(-0.00598451 0.00217103 0)
(-0.00675255 0.00226431 0)
(-0.00754862 0.00234444 0)
(-0.00836851 0.00241148 0)
(-0.00920799 0.00246558 0)
(-0.0100629 0.00250696 0)
(-0.010929 0.00253588 0)
(-0.0118024 0.00255266 0)
(-0.012679 0.00255766 0)
(-0.0135549 0.00255125 0)
(-0.0144265 0.00253383 0)
(-0.01529 0.00250581 0)
(-0.016142 0.00246762 0)
(-0.0169792 0.00241969 0)
(-0.0177982 0.00236247 0)
(-0.018596 0.00229641 0)
(-0.0193697 0.00222194 0)
(-0.0201165 0.00213953 0)
(-0.0208338 0.0020496 0)
(-0.021519 0.00195262 0)
(-0.0221698 0.00184901 0)
(-0.0227841 0.00173923 0)
(-0.0233598 0.0016237 0)
(-0.023895 0.00150287 0)
(-0.0243879 0.00137715 0)
(-0.024837 0.001247 0)
(-0.0252408 0.00111282 0)
(-0.025598 0.000975053 0)
(-0.0259075 0.00083412 0)
(-0.0261681 0.000690448 0)
(-0.0263792 0.000544466 0)
(-0.0265399 0.000396603 0)
(-0.0266497 0.000247294 0)
(-0.0267082 9.69737e-05 0)
(-0.0267151 -5.39182e-05 0)
(-0.0266703 -0.000204936 0)
(-0.0265739 -0.000355628 0)
(-0.026426 -0.000505535 0)
(-0.026227 -0.000654194 0)
(-0.0259774 -0.000801133 0)
(-0.025678 -0.000945872 0)
(-0.0253295 -0.00108792 0)
(-0.0249331 -0.00122679 0)
(-0.0244897 -0.00136198 0)
(-0.024001 -0.00149297 0)
(-0.0234682 -0.00161924 0)
(-0.0228933 -0.00174028 0)
(-0.0222779 -0.00185556 0)
(-0.0216243 -0.00196455 0)
(-0.0209347 -0.00206671 0)
(-0.0202114 -0.00216152 0)
(-0.0194571 -0.00224843 0)
(-0.0186745 -0.00232692 0)
(-0.0178666 -0.00239646 0)
(-0.0170365 -0.00245655 0)
(-0.0161875 -0.00250668 0)
(-0.015323 -0.00254636 0)
(-0.0144466 -0.00257512 0)
(-0.013562 -0.00259251 0)
(-0.0126732 -0.00259811 0)
(-0.011784 -0.00259152 0)
(-0.0108987 -0.0025724 0)
(-0.0100214 -0.00254042 0)
(-0.00915642 -0.00249534 0)
(-0.00830806 -0.00243694 0)
(-0.0074807 -0.0023651 0)
(-0.00667871 -0.00227976 0)
(-0.0059064 -0.00218098 0)
(-0.00516805 -0.00206893 0)
(-0.0044678 -0.00194392 0)
(-0.00380962 -0.00180644 0)
(-0.00319725 -0.00165719 0)
(-0.00263411 -0.00149716 0)
(-0.00212322 -0.00132766 0)
(-0.00166712 -0.00115044 0)
(-0.00126768 -0.00096781 0)
(-0.000926027 -0.000782783 0)
(-0.000642329 -0.000599299 0)
(-0.000415638 -0.00042248 0)
(-0.000243674 -0.000258978 0)
(-0.000122595 -0.000117399 0)
(-4.67111e-05 -8.74348e-06 0)
(-8.50121e-06 5.29691e-05 0)
(1.1172e-06 4.8499e-05 0)
(-2.0392e-06 -3.62628e-05 0)
(-2.68635e-05 -6.43802e-06 0)
(-9.60412e-05 0.000100478 0)
(-0.000214497 0.000261979 0)
(-0.000387691 0.000461087 0)
(-0.000620281 0.000684685 0)
(-0.000915216 0.000922556 0)
(-0.00127396 0.00116676 0)
(-0.00169679 0.00141113 0)
(-0.00218293 0.00165092 0)
(-0.0027307 0.00188244 0)
(-0.00333771 0.0021029 0)
(-0.00400095 0.00231016 0)
(-0.00471691 0.00250266 0)
(-0.0054817 0.00267925 0)
(-0.00629116 0.00283914 0)
(-0.00714088 0.00298182 0)
(-0.00802631 0.003107 0)
(-0.00894281 0.00321457 0)
(-0.00988567 0.00330458 0)
(-0.0108502 0.00337717 0)
(-0.0118317 0.00343262 0)
(-0.0128255 0.00347125 0)
(-0.013827 0.00349346 0)
(-0.0148319 0.0034997 0)
(-0.0158357 0.00349046 0)
(-0.0168342 0.00346626 0)
(-0.0178232 0.00342766 0)
(-0.0187989 0.00337521 0)
(-0.0197574 0.00330951 0)
(-0.020695 0.00323114 0)
(-0.0216083 0.0031407 0)
(-0.0224938 0.00303879 0)
(-0.0233485 0.00292602 0)
(-0.0241694 0.002803 0)
(-0.0249535 0.00267032 0)
(-0.0256982 0.0025286 0)
(-0.0264011 0.00237842 0)
(-0.0270597 0.00222039 0)
(-0.027672 0.0020551 0)
(-0.0282359 0.00188313 0)
(-0.0287497 0.00170508 0)
(-0.0292116 0.00152154 0)
(-0.0296201 0.00133308 0)
(-0.029974 0.00114029 0)
(-0.0302721 0.000943763 0)
(-0.0305134 0.000744078 0)
(-0.0306971 0.000541828 0)
(-0.0308226 0.000337606 0)
(-0.0308893 0.000132011 0)
(-0.0308971 -7.43555e-05 0)
(-0.0308457 -0.000280881 0)
(-0.0307352 -0.000486947 0)
(-0.0305659 -0.000691925 0)
(-0.0303381 -0.00089518 0)
(-0.0300525 -0.00109607 0)
(-0.0297099 -0.00129393 0)
(-0.0293111 -0.0014881 0)
(-0.0288575 -0.0016779 0)
(-0.0283503 -0.00186265 0)
(-0.0277912 -0.00204165 0)
(-0.0271817 -0.0022142 0)
(-0.026524 -0.00237959 0)
(-0.0258202 -0.00253709 0)
(-0.0250725 -0.002686 0)
(-0.0242836 -0.00282558 0)
(-0.0234562 -0.00295512 0)
(-0.0225933 -0.00307389 0)
(-0.021698 -0.00318117 0)
(-0.0207737 -0.00327627 0)
(-0.0198238 -0.0033585 0)
(-0.0188522 -0.00342716 0)
(-0.0178627 -0.00348162 0)
(-0.0168594 -0.00352124 0)
(-0.0158464 -0.00354542 0)
(-0.0148283 -0.00355361 0)
(-0.0138095 -0.00354529 0)
(-0.0127946 -0.00352001 0)
(-0.0117883 -0.00347736 0)
(-0.0107955 -0.00341701 0)
(-0.00982098 -0.00333873 0)
(-0.00886967 -0.00324238 0)
(-0.00794641 -0.00312791 0)
(-0.00705602 -0.00299546 0)
(-0.00620325 -0.00284529 0)
(-0.00539267 -0.00267788 0)
(-0.00462867 -0.00249394 0)
(-0.00391536 -0.00229446 0)
(-0.00325651 -0.00208081 0)
(-0.00265546 -0.00185477 0)
(-0.00211498 -0.0016187 0)
(-0.00163721 -0.0013756 0)
(-0.00122348 -0.00112938 0)
(-0.000874202 -0.000884992 0)
(-0.000588698 -0.000648772 0)
(-0.000365057 -0.00042876 0)
(-0.000199917 -0.000235142 0)
(-8.82278e-05 -8.06826e-05 0)
(-2.40473e-05 1.86491e-05 0)
(-1.54377e-06 4.13588e-05 0)
(-4.74014e-06 -1.94312e-05 0)
(-4.3209e-05 5.32282e-05 0)
(-0.000140186 0.000210548 0)
(-0.000297006 0.000428619 0)
(-0.000517189 0.000689019 0)
(-0.000804482 0.000977167 0)
(-0.00116112 0.00128149 0)
(-0.00158802 0.00159282 0)
(-0.00208501 0.0019039 0)
(-0.00265094 0.00220902 0)
(-0.00328384 0.00250369 0)
(-0.003981 0.00278445 0)
(-0.0047391 0.00304861 0)
(-0.00555433 0.00329415 0)
(-0.00642247 0.00351958 0)
(-0.00733899 0.00372383 0)
(-0.00829911 0.0039062 0)
(-0.00929789 0.00406626 0)
(-0.0103303 0.00420382 0)
(-0.0113911 0.00431888 0)
(-0.0124753 0.0044116 0)
(-0.0135777 0.00448226 0)
(-0.0146932 0.00453128 0)
(-0.0158168 0.00455911 0)
(-0.0169435 0.00456633 0)
(-0.0180686 0.00455353 0)
(-0.0191874 0.00452138 0)
(-0.0202954 0.00447055 0)
(-0.021388 0.00440178 0)
(-0.0224612 0.00431579 0)
(-0.0235109 0.00421336 0)
(-0.0245331 0.00409524 0)
(-0.0255243 0.00396221 0)
(-0.0264807 0.00381506 0)
(-0.0273992 0.00365455 0)
(-0.0282765 0.00348148 0)
(-0.0291097 0.00329662 0)
(-0.029896 0.00310075 0)
(-0.0306328 0.00289465 0)
(-0.0313177 0.00267908 0)
(-0.0319485 0.00245482 0)
(-0.0325231 0.00222263 0)
(-0.0330396 0.00198327 0)
(-0.0334965 0.00173752 0)
(-0.0338923 0.00148613 0)
(-0.0342256 0.00122986 0)
(-0.0344954 0.000969487 0)
(-0.0347007 0.000705778 0)
(-0.0348409 0.000439508 0)
(-0.0349155 0.000171458 0)
(-0.034924 -9.75836e-05 0)
(-0.0348665 -0.000366818 0)
(-0.0347428 -0.000635438 0)
(-0.0345533 -0.000902626 0)
(-0.0342986 -0.00116755 0)
(-0.0339791 -0.00142937 0)
(-0.0335958 -0.00168723 0)
(-0.0331499 -0.00194027 0)
(-0.0326426 -0.0021876 0)
(-0.0320753 -0.00242834 0)
(-0.03145 -0.00266157 0)
(-0.0307684 -0.00288639 0)
(-0.0300328 -0.00310187 0)
(-0.0292456 -0.00330709 0)
(-0.0284094 -0.00350111 0)
(-0.0275271 -0.003683 0)
(-0.0266016 -0.00385183 0)
(-0.0256363 -0.00400666 0)
(-0.0246347 -0.00414657 0)
(-0.0236004 -0.00427066 0)
(-0.0225375 -0.00437803 0)
(-0.02145 -0.00446783 0)
(-0.0203423 -0.00453921 0)
(-0.0192188 -0.00459138 0)
(-0.0180843 -0.00462357 0)
(-0.0169435 -0.00463509 0)
(-0.0158014 -0.00462529 0)
(-0.0146632 -0.00459359 0)
(-0.013534 -0.00453952 0)
(-0.012419 -0.00446267 0)
(-0.0113237 -0.00436278 0)
(-0.0102534 -0.00423969 0)
(-0.00921339 -0.00409342 0)
(-0.00820891 -0.00392416 0)
(-0.00724514 -0.00373231 0)
(-0.00632708 -0.00351853 0)
(-0.00545947 -0.00328377 0)
(-0.00464679 -0.00302937 0)
(-0.00389315 -0.00275709 0)
(-0.00320217 -0.00246922 0)
(-0.00257694 -0.00216871 0)
(-0.00201988 -0.00185932 0)
(-0.00153262 -0.00154579 0)
(-0.00111591 -0.00123408 0)
(-0.000769481 -0.000931634 0)
(-0.000491968 -0.000647747 0)
(-0.000280677 -0.00039397 0)
(-0.000131409 -0.000184519 0)
(-4.0035e-05 -3.68596e-05 0)
(-4.20493e-06 2.60101e-05 0)
(-7.37434e-06 5.82729e-06 0)
(-5.95173e-05 0.000135054 0)
(-0.000184703 0.000354187 0)
(-0.000380665 0.0006385 0)
(-0.000648906 0.000968559 0)
(-0.000992121 0.00132866 0)
(-0.00141169 0.0017061 0)
(-0.00190783 0.00209064 0)
(-0.00247982 0.00247407 0)
(-0.00312606 0.00284978 0)
(-0.00384418 0.00321253 0)
(-0.00463112 0.00355818 0)
(-0.00548323 0.00388352 0)
(-0.00639636 0.00418605 0)
(-0.00736596 0.00446393 0)
(-0.00838715 0.00471581 0)
(-0.00945481 0.00494075 0)
(-0.0105636 0.0051382 0)
(-0.0117081 0.00530785 0)
(-0.0128829 0.00544965 0)
(-0.0140823 0.00556377 0)
(-0.0153008 0.00565052 0)
(-0.0165329 0.00571035 0)
(-0.0177733 0.00574381 0)
(-0.0190165 0.00575158 0)
(-0.0202573 0.00573438 0)
(-0.0214907 0.005693 0)
(-0.0227118 0.00562828 0)
(-0.0239157 0.00554111 0)
(-0.0250979 0.0054324 0)
(-0.026254 0.00530307 0)
(-0.0273796 0.00515409 0)
(-0.0284708 0.0049864 0)
(-0.0295237 0.00480099 0)
(-0.0305347 0.00459882 0)
(-0.0315003 0.00438087 0)
(-0.0324172 0.00414812 0)
(-0.0332825 0.00390153 0)
(-0.0340932 0.00364209 0)
(-0.0348467 0.00337075 0)
(-0.0355406 0.00308848 0)
(-0.0361728 0.00279625 0)
(-0.036741 0.00249501 0)
(-0.0372436 0.00218573 0)
(-0.0376789 0.00186936 0)
(-0.0380455 0.00154688 0)
(-0.0383422 0.00121923 0)
(-0.0385681 0.000887407 0)
(-0.0387223 0.000552369 0)
(-0.0388043 0.000215105 0)
(-0.0388136 -0.000123392 0)
(-0.0387503 -0.000462116 0)
(-0.0386143 -0.000800053 0)
(-0.0384059 -0.00113617 0)
(-0.0381257 -0.00146943 0)
(-0.0377743 -0.00179877 0)
(-0.0373528 -0.00212312 0)
(-0.0368623 -0.00244139 0)
(-0.0363043 -0.00275247 0)
(-0.0356805 -0.00305524 0)
(-0.0349926 -0.00334859 0)
(-0.034243 -0.00363135 0)
(-0.0334338 -0.00390238 0)
(-0.0325679 -0.00416052 0)
(-0.0316479 -0.0044046 0)
(-0.0306772 -0.00463345 0)
(-0.0296588 -0.00484591 0)
(-0.0285966 -0.00504082 0)
(-0.0274942 -0.00521704 0)
(-0.0263558 -0.00537344 0)
(-0.0251856 -0.00550891 0)
(-0.023988 -0.0056224 0)
(-0.0227679 -0.00571285 0)
(-0.02153 -0.00577929 0)
(-0.0202795 -0.0058208 0)
(-0.0190217 -0.00583651 0)
(-0.0177618 -0.00582564 0)
(-0.0165055 -0.0057875 0)
(-0.0152583 -0.00572153 0)
(-0.0140261 -0.00562726 0)
(-0.0128144 -0.00550438 0)
(-0.0116291 -0.00535276 0)
(-0.010476 -0.00517245 0)
(-0.00936066 -0.00496373 0)
(-0.00828867 -0.00472716 0)
(-0.00726538 -0.00446359 0)
(-0.00629594 -0.00417425 0)
(-0.00538514 -0.00386081 0)
(-0.00453744 -0.00352546 0)
(-0.00375678 -0.003171 0)
(-0.00304658 -0.002801 0)
(-0.00240961 -0.00241994 0)
(-0.00184788 -0.00203335 0)
(-0.00136256 -0.00164813 0)
(-0.00095392 -0.00127273 0)
(-0.000621262 -0.000917543 0)
(-0.000362703 -0.000595264 0)
(-0.000175019 -0.000321254 0)
(-5.59993e-05 -0.000114058 0)
(-6.79444e-06 2.41704e-06 0)
(-9.90607e-06 3.93787e-05 0)
(-7.55212e-05 0.000239015 0)
(-0.000228834 0.000531652 0)
(-0.000464063 0.000892152 0)
(-0.000780709 0.00130044 0)
(-0.00118036 0.00173999 0)
(-0.00166344 0.0021972 0)
(-0.00222937 0.00266094 0)
(-0.00287678 0.00312213 0)
(-0.00360355 0.00357339 0)
(-0.00440684 0.00400877 0)
(-0.00528318 0.00442352 0)
(-0.00622855 0.00481387 0)
(-0.00723844 0.0051769 0)
(-0.00830796 0.00551039 0)
(-0.00943189 0.0058127 0)
(-0.0106047 0.00608269 0)
(-0.0118209 0.00631962 0)
(-0.0130745 0.0065231 0)
(-0.0143597 0.00669302 0)
(-0.0156706 0.00682951 0)
(-0.0170012 0.00693293 0)
(-0.0183458 0.00700376 0)
(-0.0196985 0.00704267 0)
(-0.0210536 0.00705041 0)
(-0.0224054 0.00702783 0)
(-0.0237487 0.00697589 0)
(-0.025078 0.00689557 0)
(-0.0263883 0.00678792 0)
(-0.0276746 0.00665404 0)
(-0.0289321 0.00649506 0)
(-0.0301564 0.0063121 0)
(-0.0313429 0.00610634 0)
(-0.0324877 0.00587895 0)
(-0.0335867 0.00563111 0)
(-0.0346362 0.00536399 0)
(-0.0356327 0.0050788 0)
(-0.036573 0.00477671 0)
(-0.0374539 0.0044589 0)
(-0.0382727 0.00412656 0)
(-0.0390267 0.00378087 0)
(-0.0397134 0.003423 0)
(-0.0403308 0.00305412 0)
(-0.0408767 0.00267541 0)
(-0.0413496 0.00228805 0)
(-0.0417479 0.00189321 0)
(-0.0420702 0.00149208 0)
(-0.0423156 0.00108583 0)
(-0.0424832 0.000675674 0)
(-0.0425722 0.000262806 0)
(-0.0425825 -0.000151556 0)
(-0.0425138 -0.000566183 0)
(-0.0423662 -0.000979831 0)
(-0.04214 -0.00139124 0)
(-0.0418357 -0.00179914 0)
(-0.0414542 -0.00220223 0)
(-0.0409966 -0.00259921 0)
(-0.040464 -0.00298873 0)
(-0.039858 -0.00336947 0)
(-0.0391805 -0.00374004 0)
(-0.0384335 -0.00409908 0)
(-0.0376193 -0.00444519 0)
(-0.0367404 -0.00477696 0)
(-0.0357997 -0.00509298 0)
(-0.0348002 -0.00539184 0)
(-0.0337454 -0.00567212 0)
(-0.0326388 -0.0059324 0)
(-0.0314843 -0.00617128 0)
(-0.030286 -0.00638738 0)
(-0.0290482 -0.00657934 0)
(-0.0277756 -0.00674581 0)
(-0.026473 -0.00688552 0)
(-0.0251454 -0.00699722 0)
(-0.023798 -0.00707972 0)
(-0.0224364 -0.00713194 0)
(-0.0210662 -0.00715283 0)
(-0.0196931 -0.00714148 0)
(-0.0183231 -0.00709709 0)
(-0.0169621 -0.00701898 0)
(-0.0156164 -0.00690663 0)
(-0.014292 -0.00675972 0)
(-0.012995 -0.00657811 0)
(-0.0117318 -0.00636191 0)
(-0.0105081 -0.00611151 0)
(-0.00933013 -0.00582761 0)
(-0.00820343 -0.00551128 0)
(-0.00713354 -0.00516403 0)
(-0.00612563 -0.00478789 0)
(-0.00518447 -0.00438547 0)
(-0.00431439 -0.00396008 0)
(-0.00351916 -0.00351588 0)
(-0.00280196 -0.00305803 0)
(-0.00216523 -0.00259284 0)
(-0.00161068 -0.00212803 0)
(-0.00113919 -0.00167295 0)
(-0.00075081 -0.00123894 0)
(-0.000444568 -0.000839603 0)
(-0.000218286 -0.000491183 0)
(-7.16733e-05 -0.000212954 0)
(-9.27943e-06 -2.92852e-05 0)
(-1.23192e-05 8.09851e-05 0)
(-9.10837e-05 0.000364799 0)
(-0.000272118 0.000742734 0)
(-0.000546319 0.00118955 0)
(-0.000911229 0.00168481 0)
(-0.00136732 0.00221143 0)
(-0.001914 0.0027551 0)
(-0.00254985 0.00330398 0)
(-0.00327277 0.00384825 0)
(-0.00408004 0.00437984 0)
(-0.00496831 0.00489217 0)
(-0.00593364 0.00537991 0)
(-0.00697161 0.00583879 0)
(-0.00807731 0.00626548 0)
(-0.00924549 0.00665739 0)
(-0.0104706 0.00701261 0)
(-0.0117468 0.00732976 0)
(-0.013068 0.00760795 0)
(-0.0144282 0.00784667 0)
(-0.0158211 0.00804576 0)
(-0.0172404 0.00820534 0)
(-0.01868 0.00832577 0)
(-0.0201335 0.00840761 0)
(-0.0215948 0.00845158 0)
(-0.023058 0.00845856 0)
(-0.0245169 0.00842954 0)
(-0.025966 0.0083656 0)
(-0.0273995 0.00826791 0)
(-0.0288119 0.00813769 0)
(-0.0301981 0.00797623 0)
(-0.031553 0.00778484 0)
(-0.0328717 0.00756488 0)
(-0.0341496 0.00731771 0)
(-0.0353822 0.00704473 0)
(-0.0365654 0.00674734 0)
(-0.0376951 0.00642694 0)
(-0.0387677 0.00608494 0)
(-0.0397797 0.00572276 0)
(-0.0407277 0.0053418 0)
(-0.0416087 0.00494347 0)
(-0.04242 0.00452919 0)
(-0.0431589 0.00410034 0)
(-0.0438231 0.00365835 0)
(-0.0444105 0.00320461 0)
(-0.0449193 0.00274052 0)
(-0.0453478 0.0022675 0)
(-0.0456946 0.00178696 0)
(-0.0459587 0.00130032 0)
(-0.0461391 0.000809011 0)
(-0.0462351 0.000314472 0)
(-0.0462463 -0.000181839 0)
(-0.0461727 -0.000678455 0)
(-0.0460141 -0.00117389 0)
(-0.0457711 -0.00166663 0)
(-0.0454441 -0.00215516 0)
(-0.0450341 -0.00263793 0)
(-0.0445421 -0.00311338 0)
(-0.0439696 -0.00357991 0)
(-0.0433181 -0.00403592 0)
(-0.0425896 -0.00447979 0)