/*--------------------------------*- C++ -*----------------------------------*\
| =========                 |                                                 |
| \\      /  F ield         | OpenFOAM: The Open Source CFD Toolbox           |
|  \\    /   O peration     | Version:  2212                                  |
|   \\  /    A nd           | Website:  www.openfoam.com                      |
|    \\/     M anipulation  |                                                 |
\*---------------------------------------------------------------------------*/
FoamFile
{
    version     2.0;
    format      ascii;
    arch        "LSB;label=32;scalar=64";
    class       volScalarField;
    location    "0.076";
    object      p;
}
// * * * * * * * * * * * * * * * * * * * * * * * * * * * * * * * * * * * * * //

dimensions      [0 2 -2 0 0 0 0];

internalField   nonuniform List<scalar> 
10000
(
-9.20129e-08
8.92503e-05
-0.000133474
-0.000712786
-0.00159727
-0.00273022
-0.00405586
-0.00552126
-0.00707847
-0.00868528
-0.0103046
-0.0119041
-0.0134556
-0.0149347
-0.0163202
-0.0175939
-0.0187402
-0.0197459
-0.0205998
-0.0212927
-0.0218171
-0.0221672
-0.0223384
-0.0223275
-0.0221325
-0.0217524
-0.0211874
-0.0204386
-0.019508
-0.0183982
-0.0171127
-0.0156555
-0.0140315
-0.0122461
-0.0103051
-0.0082152
-0.00598315
-0.00361639
-0.00112273
0.00148964
0.00421212
0.00703581
0.00995146
0.0129495
0.0160203
0.0191538
0.0223397
0.0255674
0.0288265
0.0321059
0.0353951
0.0386828
0.0419582
0.04521
0.0484272
0.0515988
0.0547136
0.057761
0.06073
0.06361
0.0663908
0.0690621
0.0716143
0.0740379
0.0763238
0.0784635
0.080449
0.0822727
0.0839278
0.085408
0.086708
0.087823
0.0887491
0.0894837
0.0900246
0.0903712
0.0905237
0.0904838
0.0902544
0.0898398
0.0892455
0.088479
0.0875493
0.0864672
0.0852457
0.0839
0.0824473
0.0809078
0.0793041
0.0776624
0.076012
0.0743864
0.0728233
0.071365
0.070059
0.0689565
0.0681099
0.0675697
0.0673775
0.0674833
-9.26017e-05
-8.14033e-06
-0.00022623
-0.000743638
-0.00150952
-0.00248412
-0.00362703
-0.00489635
-0.00625237
-0.0076587
-0.00908255
-0.0104945
-0.0118685
-0.0131817
-0.0144139
-0.0155476
-0.0165677
-0.0174613
-0.0182173
-0.0188264
-0.0192811
-0.0195753
-0.0197042
-0.0196645
-0.0194537
-0.0190706
-0.0185148
-0.0177871
-0.016889
-0.0158228
-0.0145915
-0.0131988
-0.011649
-0.00994699
-0.00809827
-0.00610882
-0.00398511
-0.00173407
0.000636946
0.0031203
0.00570791
0.00839131
0.0111618
0.0140102
0.0169275
0.0199041
0.0229302
0.0259959
0.0290911
0.0322055
0.0353289
0.0384508
0.0415606
0.044648
0.0477024
0.0507132
0.0536702
0.056563
0.0593814
0.0621154
0.0647554
0.0672917
0.0697153
0.0720172
0.0741892
0.0762231
0.0781117
0.0798478
0.0814253
0.0828384
0.0840823
0.0851528
0.0860465
0.086761
0.0872949
0.0876477
0.0878202
0.0878141
0.0876328
0.0872805
0.0867632
0.0860882
0.0852643
0.0843024
0.0832151
0.0820169
0.0807247
0.0793574
0.0779365
0.0764863
0.0750337
0.073609
0.0722455
0.0709794
0.0698499
0.0688974
0.0681602
0.0676735
0.0674827
0.0675889
0.000119926
0.000196813
-2.16914e-05
-0.000507045
-0.00120525
-0.00208352
-0.0031094
-0.00424802
-0.00546548
-0.00673025
-0.00801307
-0.0092874
-0.0105294
-0.0117176
-0.0128333
-0.0138597
-0.0147823
-0.0155887
-0.0162682
-0.0168115
-0.0172113
-0.0174612
-0.0175566
-0.0174939
-0.0172705
-0.0168848
-0.0163365
-0.0156259
-0.0147542
-0.0137234
-0.0125361
-0.0111957
-0.00970612
-0.008072
-0.00629837
-0.00439083
-0.0023555
-0.000198914
0.00207199
0.00444996
0.00692733
0.00949605
0.0121478
0.014874
0.0176658
0.0205141
0.0234096
0.0263428
0.0293042
0.0322838
0.0352718
0.0382583
0.0412331
0.0441864
0.047108
0.049988
0.0528164
0.0555834
0.0582794
0.0608948
0.0634204
0.0658473
0.0681666
0.0703701
0.0724497
0.0743982
0.0762085
0.077874
0.0793889
0.080748
0.0819467
0.0829814
0.0838489
0.0845473
0.0850754
0.085433
0.085621
0.0856415
0.0854979
0.0851945
0.0847372
0.0841333
0.0833915
0.0825222
0.0815378
0.0804521
0.0792812
0.0780428
0.0767573
0.0754471
0.0741369
0.072854
0.0716278
0.07049
0.0694739
0.0686132
0.067939
0.0674811
0.067291
0.0673975
0.000679349
0.00069757
0.000448419
-3.63877e-05
-0.000707581
-0.00153596
-0.0024929
-0.00354855
-0.00467346
-0.00583981
-0.0070217
-0.00819515
-0.00933835
-0.0104317
-0.0114576
-0.0124004
-0.0132464
-0.0139837
-0.014602
-0.0150925
-0.0154479
-0.0156621
-0.0157303
-0.015649
-0.0154155
-0.0150281
-0.0144864
-0.0137903
-0.012941
-0.0119401
-0.0107901
-0.00949407
-0.00805566
-0.00647915
-0.0047693
-0.00293139
-0.000971222
0.001105
0.0032907
0.00557896
0.00796244
0.0104334
0.012984
0.015606
0.0182909
0.0210299
0.0238142
0.0266346
0.029482
0.0323468
0.0352197
0.038091
0.0409511
0.0437904
0.0465994
0.0493683
0.0520878
0.0547482
0.0573405
0.0598557
0.0622847
0.0646191
0.0668504
0.0689709
0.070973
0.0728495
0.074594
0.0762001
0.0776625
0.0789762
0.0801371
0.0811417
0.0819872
0.0826719
0.0831947
0.0835557
0.0837559
0.0837977
0.0836841
0.0834198
0.0830103
0.0824628
0.0817857
0.0809892
0.0800849
0.0790862
0.0780079
0.076867
0.0756822
0.0744741
0.0732655
0.0720809
0.0709466
0.0698903
0.068941
0.0681282
0.0674791
0.0670211
0.0668034
0.0668593
0.00154243
0.00144787
0.00113315
0.000621308
-5.10803e-05
-0.000857938
-0.00177422
-0.00277414
-0.00383233
-0.00492446
-0.00602756
-0.0071203
-0.00818296
-0.00919758
-0.0101481
-0.0110199
-0.0118003
-0.012478
-0.0130432
-0.0134876
-0.0138041
-0.0139869
-0.0140314
-0.0139339
-0.0136918
-0.0133035
-0.0127682
-0.0120859
-0.0112576
-0.0102847
-0.00916936
-0.00791455
-0.00652368
-0.00500072
-0.00335014
-0.00157699
0.000313231
0.00231467
0.0044211
0.00662588
0.00892194
0.011302
0.0137584
0.0162833
0.0188687
0.021506
0.0241868
0.0269023
0.0296436
0.0324018
0.0351676
0.0379319
0.0406854
0.0434191
0.0461235
0.0487895
0.0514079
0.0539697
0.0564661
0.0588885
0.0612283
0.0634772
0.0656274
0.0676714
0.0696018
0.0714122
0.073096
0.0746476
0.0760616
0.0773335
0.0784595
0.0794363
0.0802613
0.080933
0.0814504
0.0818138
0.0820244
0.0820844
0.0819969
0.0817664
0.0813983
0.0808995
0.0802782
0.0795439
0.0787077
0.0777822
0.0767812
0.0757206
0.0746175
0.0734909
0.0723613
0.0712507
0.0701824
0.0691808
0.0682712
0.0674789
0.0668282
0.0663438
0.0660643
0.0660151
0.00265984
0.00241325
0.00200365
0.00143963
0.000741004
-6.96431e-05
-0.000970143
-0.00193866
-0.00295337
-0.00399319
-0.00503802
-0.00606888
-0.00706815
-0.00801964
-0.00890863
-0.00972185
-0.0104474
-0.0110749
-0.0115951
-0.0120002
-0.0122835
-0.0124395
-0.0124637
-0.0123526
-0.0121037
-0.0117152
-0.0111864
-0.0105173
-0.00970862
-0.00876165
-0.00767851
-0.00646183
-0.00511485
-0.00364127
-0.0020454
-0.000332017
0.0014937
0.00342616
0.00545941
0.0075871
0.00980248
0.0120986
0.0144681
0.0169035
0.019397
0.0219405
0.0245258
0.0271445
0.0297882
0.032448
0.0351152
0.0377809
0.0404365
0.0430729
0.0456812
0.0482526
0.0507782
0.0532495
0.055658
0.0579954
0.0602535
0.0624243
0.0645003
0.0664743
0.0683394
0.0700892
0.0717178
0.0732195
0.0745894
0.0758232
0.0769172
0.0778684
0.0786744
0.0793338
0.0798457
0.0802105
0.0804295
0.0805046
0.0804391
0.0802371
0.079904
0.0794462
0.0788717
0.0781893
0.0774094
0.0765437
0.0756053
0.0746086
0.0735694
0.0725048
0.0714334
0.0703747
0.0693493
0.0683785
0.0674841
0.066688
0.0660117
0.0654769
0.0651065
0.0649124
0.00398094
0.00355639
0.00302944
0.00239239
0.00164579
0.000809237
-9.77537e-05
-0.00105673
-0.00204928
-0.00305717
-0.00406283
-0.00504962
-0.00600193
-0.00690528
-0.0077463
-0.00851297
-0.00919449
-0.00978116
-0.0102645
-0.0106373
-0.0108932
-0.0110271
-0.0110346
-0.0109126
-0.0106586
-0.0102709
-0.0097488
-0.00909221
-0.00830176
-0.00737873
-0.00632508
-0.00514329
-0.00383639
-0.00240793
-0.000861963
0.000796917
0.0025638
0.00443338
0.00639991
0.00845729
0.0105991
0.0128187
0.015109
0.0174628
0.0198726
0.0223305
0.0248288
0.0273595
0.0299141
0.0324844
0.0350619
0.0376382
0.0402046
0.0427528
0.0452739
0.0477595
0.0502011
0.0525905
0.0549195
0.05718
0.0593642
0.0614644
0.0634735
0.0653844
0.0671907
0.0688861
0.0704648
0.0719216
0.0732518
0.0744512
0.0755163
0.0764443
0.0772328
0.0778805
0.0783868
0.078752
0.0789772
0.0790644
0.0790166
0.0788379
0.0785333
0.078109
0.0775722
0.0769314
0.0761962
0.0753775
0.0744873
0.0735387
0.0725463
0.0715254
0.0704926
0.0694653
0.0684615
0.0674997
0.0665988
0.0657772
0.0650541
0.0644485
0.0639651
0.0635998
0.00545756
0.00483919
0.00417874
0.00345204
0.00263992
0.00175908
0.000826975
-0.000141146
-0.00112978
-0.00212337
-0.00310673
-0.00406532
-0.0049854
-0.00585413
-0.00665954
-0.00739082
-0.00803817
-0.00859275
-0.00904685
-0.00939379
-0.00962776
-0.00974392
-0.00973836
-0.00960802
-0.00935063
-0.00896468
-0.00844943
-0.00780479
-0.00703137
-0.00613042
-0.00510381
-0.00395384
-0.00268341
-0.00129599
0.000204569
0.00181394
0.00352742
0.00533989
0.00724583
0.00923939
0.0113144
0.0134646
0.015683
0.0179628
0.0202966
0.022677
0.0250965
0.0275473
0.0300214
0.0325107
0.0350071
0.0375024
0.0399884
0.0424568
0.0448992
0.0473075
0.0496734
0.051989
0.0542464
0.0564379
0.0585557
0.0605927
0.0625418
0.0643963
0.0661498
0.0677965
0.0693307
0.0707473
0.0720419
0.0732104
0.0742496
0.0751565
0.075929
0.0765658
0.0770663
0.0774307
0.0776602
0.0777566
0.0777227
0.0775624
0.0772803
0.0768821
0.0763748
0.0757662
0.0750651
0.0742815
0.0734264
0.0725118
0.0715508
0.0705573
0.069546
0.0685321
0.0675315
0.0665601
0.0656341
0.0647689
0.0639816
0.0632887
0.0626761
0.0621236
0.00704696
0.00622606
0.00542124
0.00459221
0.00370058
0.00276061
0.0017879
0.000794986
-0.000205339
-0.00119985
-0.00217557
-0.00311989
-0.00402078
-0.00486694
-0.00564785
-0.00635383
-0.00697606
-0.00750658
-0.00793843
-0.00826554
-0.00848263
-0.00858528
-0.0085699
-0.0084337
-0.00817464
-0.00779133
-0.00728306
-0.00664986
-0.00589237
-0.00501178
-0.00400983
-0.0028888
-0.0016515
-0.000301257
0.00115824
0.00272289
0.00438812
0.00614897
0.00800017
0.00993613
0.0119509
0.0140384
0.016192
0.0184049
0.0206702
0.0229808
0.0253293
0.0277082
0.0301097
0.0325261
0.0349496
0.0373722
0.039786
0.0421829
0.0445548
0.0468937
0.0491919
0.0514416
0.0536352
0.055765
0.0578237
0.0598043
0.0617
0.0635043
0.0652111
0.0668144
0.0683091
0.0696901
0.0709531
0.0720941
0.07311
0.073998
0.0747559
0.0753824
0.075877
0.0762399
0.0764719
0.0765748
0.0765513
0.0764047
0.0761395
0.0757611
0.0752757
0.0746906
0.0740139
0.0732546
0.072423
0.0715297
0.0705866
0.069606
0.0686011
0.0675851
0.0665718
0.0655751
0.0646085
0.0636847
0.0628194
0.0620267
0.0612739
0.0605251
0.00871178
0.00768467
0.00672859
0.00578813
0.00480606
0.00379502
0.00276898
0.00173814
0.000712951
-0.000295537
-0.00127632
-0.00221856
-0.0031118
-0.00394624
-0.00471262
-0.00540238
-0.0060077
-0.0065215
-0.00693755
-0.00725041
-0.00745531
-0.00754828
-0.00752619
-0.00738647
-0.00712725
-0.00674738
-0.0062463
-0.00562406
-0.00488137
-0.00401941
-0.00303989
-0.00194505
-0.000737647
0.000579157
0.00200179
0.00352628
0.00514821
0.00686278
0.00866492
0.0105493
0.0125101
0.0145415
0.016637
0.0187901
0.0209942
0.0232423
0.0255273
0.0278419
0.0301787
0.0325301
0.0348886
0.0372465
0.0395959
0.0419292
0.0442384
0.0465159
0.0487541
0.0509454
0.0530825
0.0551578
0.0571644
0.0590954
0.0609441
0.0627043
0.0643699
0.0659353
0.0673952
0.068745
0.0699802
0.0710971
0.0720925
0.0729635
0.0737083
0.0743253
0.074814
0.0751745
0.0754075
0.0755145
0.075498
0.0753611
0.0751078
0.0747431
0.0742728
0.0737033
0.0730422
0.0722977
0.0714789
0.0705956
0.0696583
0.0686781
0.0676663
0.0666348
0.0655954
0.06456
0.0635398
0.0625454
0.0615911
0.0606892
0.0597892
0.0588402
0.0104198
0.0091861
0.00807502
0.00701663
0.00593602
0.0048444
0.00375478
0.00267511
0.00161384
0.000580173
-0.000416628
-0.00136737
-0.00226313
-0.00309542
-0.00385615
-0.00453782
-0.00513365
-0.0056374
-0.00604348
-0.00634712
-0.00654416
-0.00663105
-0.006605
-0.00646381
-0.00620589
-0.0058302
-0.00533638
-0.00472461
-0.00399562
-0.00315062
-0.00219134
-0.00112002
6.06668e-05
0.00134763
0.00273745
0.00422621
0.00580962
0.00748307
0.00924165
0.0110802
0.0129932
0.0149747
0.0170187
0.0191188
0.0212687
0.0234615
0.0256903
0.0279481
0.0302277
0.0325217
0.0348229
0.0371238
0.0394166
0.0416939
0.0439482
0.0461718
0.0483575
0.0504977
0.0525854
0.0546133
0.0565745
0.0584623
0.0602703
0.0619922
0.0636222
0.0651547
0.0665847
0.0679074
0.0691187
0.0702147
0.0711922
0.0720485
0.0727816
0.0733899
0.0738729
0.0742303
0.0744629
0.074572
0.0745596
0.0744286
0.0741827
0.0738263
0.0733648
0.0728039
0.0721505
0.0714121
0.0705968
0.0697134
0.0687713
0.0677803
0.0667503
0.0656917
0.0646147
0.0635293
0.062445
0.0613704
0.0603186
0.059301
0.0582495
0.0570996
0.0121433
0.0107048
0.00943705
0.00825645
0.00707122
0.00589174
0.00473025
0.00359283
0.00248615
0.00141784
0.000395612
-0.000572855
-0.00147997
-0.00231844
-0.00308137
-0.00376228
-0.00435521
-0.00485481
-0.00525623
-0.00555527
-0.00574831
-0.00583231
-0.00580485
-0.00566407
-0.00540862
-0.00503772
-0.00455117
-0.0039493
-0.00323288
-0.00240318
-0.001462
-0.00041158
0.000745463
0.00200615
0.00336708
0.0048244
0.00637395
0.00801129
0.0097317
0.0115301
0.0134011
0.0153389
0.0173378
0.0193916
0.021494
0.0236385
0.0258182
0.0280264
0.0302561
0.0325002
0.0347516
0.0370028
0.0392465
0.0414754
0.043682
0.0458592
0.0479995
0.0500958
0.0521411
0.0541283
0.0560506
0.0579016
0.0596749
0.0613643
0.0629641
0.0644688
0.0658734
0.0671734
0.0683643
0.0694426
0.070405
0.0712487
0.0719716
0.0725722
0.0730497
0.0734038
0.0736349
0.0737442
0.0737333
0.0736049
0.0733624
0.0730096
0.0725513
0.0719927
0.0713401
0.0706
0.0697798
0.0688875
0.0679313
0.0669198
0.0658618
0.0647662
0.0636418
0.0624972
0.0613402
0.0601776
0.059022
0.057884
0.0566792
0.0553297
0.0138585
0.012218
0.0107935
0.00948806
0.00819391
0.00692094
0.005681
0.00447862
0.00331887
0.00220796
0.00115227
0.000158199
-0.000767943
-0.00161995
-0.00239194
-0.00307847
-0.00367442
-0.00417516
-0.00457656
-0.00487506
-0.00506759
-0.00515155
-0.00512492
-0.00498616
-0.0047342
-0.00436855
-0.0038892
-0.00329654
-0.00259148
-0.00177543
-0.000850244
0.000181876
0.00131837
0.00255623
0.00389207
0.00532215
0.00684243
0.00844859
0.010136
0.0118997
0.0137344
0.0156347
0.0175947
0.0196085
0.0216701
0.0237729
0.0259105
0.0280762
0.0302631
0.0324645
0.0346732
0.0368822
0.039084
0.0412717
0.043438
0.0455758
0.0476779
0.0497372
0.0517468
0.0536999
0.0555899
0.0574102
0.0591547
0.0608172
0.062392
0.0638739
0.0652577
0.066539
0.0677135
0.0687773
0.0697273
0.0705606
0.071275
0.0718689
0.0723414
0.072692
0.0729208
0.0730287
0.0730172
0.0728887
0.0726459
0.0722925
0.0718325
0.0712707
0.0706125
0.0698639
0.0690317
0.0681227
0.0671443
0.066104
0.0650095
0.0638684
0.0626885
0.061477
0.0602402
0.0589837
0.0577196
0.0564582
0.0550996
0.0535531
0.0155447
0.013706
0.0121254
0.0106936
0.00928763
0.00791698
0.0065934
0.00532015
0.00410104
0.00294094
0.00184501
0.000818576
-0.000133099
-0.00100495
-0.00179205
-0.0024898
-0.00309388
-0.00360041
-0.00400595
-0.00430751
-0.00450257
-0.00458896
-0.00456502
-0.00442963
-0.00418204
-0.00382194
-0.00334948
-0.00276527
-0.00207038
-0.0012663
-0.000354915
0.000661541
0.00178047
0.00299888
0.00431342
0.0057204
0.00721588
0.00879566
0.0104552
0.0121895
0.0139936
0.0158621
0.0177893
0.0197696
0.0217967
0.0238645
0.0259666
0.0280966
0.0302479
0.0324135
0.0345867
0.0367604
0.0389276
0.0410812
0.0432143
0.0453197
0.0473903
0.0494194
0.0514001
0.0533256
0.0551895
0.0569852
0.0587066
0.0603478
0.0619029
0.0633667
0.0647344
0.0660011
0.0671628
0.0682154
0.0691558
0.0699809
0.0706887
0.0712772
0.0717454
0.0720924
0.0723184
0.0724238
0.07241
0.0722789
0.0720329
0.0716751
0.0712091
0.0706392
0.0699701
0.0692072
0.0683565
0.0674241
0.0664164
0.0653401
0.0642018
0.0630083
0.061766
0.0604812
0.0591591
0.0578039
0.056428
0.0550413
0.0535292
0.0517891
0.0171839
0.0151509
0.0134157
0.0118571
0.0103372
0.00886572
0.00745453
0.00610577
0.00482205
0.00360722
0.00246547
0.00140102
0.000418148
-0.000478972
-0.00128633
-0.00200012
-0.00261678
-0.00313315
-0.00354645
-0.0038542
-0.00405436
-0.00414527
-0.00412568
-0.00399477
-0.00375209
-0.00339761
-0.00293166
-0.00235504
-0.001669
-0.000875124
2.46467e-05
0.00102806
0.00213245
0.00333477
0.00463171
0.00601968
0.00749481
0.00905292
0.0106895
0.0123998
0.0141787
0.0160212
0.0179216
0.0198743
0.0218733
0.0239126
0.0259859
0.028087
0.0302093
0.0323461
0.0344907
0.0366361
0.0387756
0.0409021
0.0430088
0.0450887
0.0471347
0.0491402
0.0510984
0.0530028
0.0548467
0.0566238
0.0583279
0.0599531
0.0614937
0.0629444
0.0643004
0.0655568
0.0667093
0.0677541
0.0686877
0.0695072
0.0702102
0.0707948
0.0712594
0.0716033
0.0718262
0.0719284
0.0719109
0.0717752
0.0715235
0.0711582
0.0706826
0.0701003
0.0694156
0.0686333
0.0677586
0.066797
0.065754
0.0646355
0.0634473
0.0621952
0.0608849
0.0595217
0.0581097
0.0566524
0.0551621
0.0536491
0.0519845
0.0500544
0.0187602
0.0165371
0.0146489
0.0129633
0.0113284
0.00975406
0.0082522
0.00682417
0.00547167
0.00419764
0.00300534
0.0018981
0.000879255
-4.77859e-05
-0.000879777
-0.00161374
-0.00224685
-0.00277654
-0.00320061
-0.00351718
-0.00372469
-0.00382187
-0.00380788
-0.00368229
-0.00344491
-0.00309591
-0.00263589
-0.0020659
-0.00138732
-0.000601786
0.000288673
0.00128168
0.00237449
0.00356406
0.00484714
0.00622018
0.00767932
0.00922037
0.0108389
0.0125303
0.0142896
0.0161117
0.0179911
0.0199223
0.0218994
0.0239164
0.0259675
0.0280462
0.0301462
0.0322609
0.0343836
0.0365077
0.0386263
0.0407326
0.0428197
0.0448807
0.0469088
0.0488973
0.0508396
0.052729
0.0545591
0.0563234
0.0580159
0.0596306
0.0611619
0.0626044
0.0639531
0.0652033
0.0663506
0.0673909
0.0683208
0.0691373
0.0698376
0.0704198
0.0708821
0.0712234
0.0714433
0.0715418
0.0715196
0.0713778
0.0711182
0.0707429
0.0702545
0.0696563
0.0689521
0.0681461
0.0672427
0.0662468
0.0651634
0.0639974
0.0627541
0.0614384
0.0600554
0.0586095
0.0571041
0.0555418
0.0539355
0.0522956
0.0504799
0.0483633
0.0202596
0.0178502
0.0158111
0.013999
0.0122484
0.0105695
0.00897473
0.00746452
0.00603991
0.00470302
0.00345626
0.00230223
0.00124352
0.000282696
-0.000577719
-0.00133539
-0.00198815
-0.00253409
-0.00297157
-0.00329915
-0.00351574
-0.00362059
-0.00361324
-0.00349348
-0.00326146
-0.00291763
-0.00246288
-0.00189841
-0.00122571
-0.000446547
0.000436902
0.00142214
0.00250639
0.00368661
0.00495958
0.00632172
0.00776915
0.00929772
0.0109031
0.0125807
0.0143257
0.016133
0.0179972
0.0199127
0.021874
0.0238752
0.0259103
0.0279731
0.0300574
0.0321566
0.0342642
0.0363736
0.0384781
0.0405708
0.0426451
0.0446939
0.0467106
0.0486886
0.0506213
0.052502
0.0543243
0.0560817
0.0577682
0.0593779
0.060905
0.0623442
0.0636903
0.0649386
0.0660844
0.0671238
0.0680532
0.0688693
0.0695693
0.0701509
0.0706121
0.0709518
0.071169
0.0712638
0.0712363
0.0710873
0.0708183
0.0704308
0.0699272
0.0693102
0.0685831
0.0677495
0.0668135
0.0657792
0.0646508
0.063433
0.0621302
0.0607468
0.0592871
0.057755
0.0561533
0.054484
0.0527604
0.0509935
0.0490281
0.0467284
0.0216695
0.0190775
0.0168895
0.0149515
0.013085
0.0113005
0.0096111
0.00801653
0.00651709
0.00511432
0.00380998
0.00260591
0.00150399
0.00050616
-0.000385723
-0.00117003
-0.0018452
-0.0024098
-0.00286273
-0.0032031
-0.00343027
-0.00354385
-0.00354374
-0.00343006
-0.00320327
-0.00286416
-0.00241379
-0.00185352
-0.00118499
-0.00041017
0.000468619
0.0014488
0.00252758
0.00370191
0.0049685
0.00632373
0.00776372
0.00928438
0.0108814
0.0125504
0.0142863
0.0160843
0.0179389
0.0198447
0.0217962
0.0237876
0.0258131
0.0278665
0.0299414
0.0320317
0.0341308
0.0362322
0.0383292
0.0404151
0.042483
0.0445263
0.0465381
0.0485121
0.0504414
0.0523196
0.0541401
0.0558965
0.0575827
0.0591928
0.0607209
0.0621617
0.0635099
0.0647605
0.065909
0.0669512
0.0678833
0.0687019
0.069404
0.0699871
0.0704489
0.070788
0.0710035
0.0710947
0.0710617
0.0709049
0.0706252
0.070224
0.0697031
0.0690649
0.0683122
0.0674481
0.0664761
0.0653997
0.0642228
0.0629494
0.0615834
0.0601287
0.0585891
0.0569681
0.0552677
0.0534896
0.0516479
0.049754
0.0476403
0.0451605
0.0229788
0.0202075
0.0178725
0.0158093
0.0138268
0.0119362
0.0101508
0.00847018
0.00689388
0.00542288
0.00405832
0.00280154
0.00165378
0.000616277
-0.000309701
-0.00112304
-0.00182275
-0.00240795
-0.00287802
-0.00323257
-0.00347135
-0.00359436
-0.00360182
-0.00349423
-0.00327236
-0.00293724
-0.00249014
-0.00193259
-0.00126645
-0.000493855
0.000382734
0.00136069
0.00243717
0.00360906
0.00487299
0.00622531
0.00766215
0.00917947
0.010773
0.0124383
0.0141705
0.0159645
0.0178151
0.019717
0.0216647
0.0236525
0.0256745
0.0277247
0.0297968
0.0318846
0.0339818
0.0360818
0.0381779
0.0402634
0.0423316
0.0443758
0.0463894
0.0483656
0.050298
0.0521798
0.0540045
0.0557657
0.0574574
0.0590734
0.0606078
0.0620552
0.0634101
0.0646676
0.0658228
0.0668716
0.0678099
0.0686341
0.0693411
0.0699278
0.0703922
0.0707323
0.0709469
0.0710352
0.0709968
0.0708318
0.0705408
0.0701248
0.0695852
0.0689239
0.0681434
0.0672463
0.0662355
0.0651141
0.0638857
0.0625535
0.0611213
0.0595924
0.0579703
0.0562578
0.0544568
0.0525687
0.0506082
0.0485875
0.0463267
0.0436694
0.0241772
0.0212295
0.0187492
0.0165616
0.0144633
0.0124661
0.010584
0.00881591
0.00716105
0.00561996
0.00419324
0.0028816
0.00168578
0.00060647
-0.000355622
-0.0011999
-0.00192588
-0.0025332
-0.00302169
-0.00339139
-0.00364246
-0.00377525
-0.00379035
-0.00368861
-0.00347107
-0.003139
-0.00269387
-0.00213743
-0.00147176
-0.000699169
0.000177801
0.00115645
0.00223386
0.00340679
0.00467181
0.00602525
0.00746326
0.00898184
0.0105767
0.0122433
0.0139769
0.0157723
0.0176246
0.0195284
0.0214782
0.0234684
0.0254931
0.0275463
0.0296219
0.0317138
0.0338155
0.0359206
0.0380223
0.040114
0.042189
0.0442407
0.0462624
0.0482474
0.050189
0.0520805
0.0539155
0.0556875
0.0573904
0.0590178
0.0605639
0.0620229
0.0633894
0.0646583
0.0658246
0.066884
0.0678321
0.0686652
0.0693799
0.069973
0.070442
0.0707848
0.071
0.0710863
0.0710431
0.07087
0.0705674
0.0701359
0.0695765
0.0688909
0.0680809
0.0671487
0.0660969
0.0649283
0.0636457
0.0622523
0.0607513
0.0591459
0.0574388
0.055633
0.0537298
0.0517306
0.0496507
0.0475032
0.0450963
0.0422636
0.0252552
0.0221335
0.0195093
0.0171981
0.0149844
0.0128804
0.0109008
0.00904439
0.00730979
0.00569713
0.00420661
0.00283843
0.00159285
0.000470074
-0.000529707
-0.00140637
-0.00215992
-0.00279046
-0.00329826
-0.00368374
-0.00394744
-0.00409008
-0.00411262
-0.00401622
-0.00380218
-0.00347197
-0.00302733
-0.00247025
-0.00180301
-0.00102803
-0.000147954
0.000834415
0.00191601
0.00309351
0.0043634
0.00572205
0.00716562
0.00869004
0.010291
0.0119639
0.013704
0.0155063
0.0173658
0.0192772
0.021235
0.0232336
0.025267
0.0273296
0.0294151
0.0315174
0.0336301
0.0357467
0.0378605
0.0399649
0.0420533
0.044119
0.0461553
0.0481553
0.0501124
0.05202
0.0538714
0.0556602
0.0573799
0.0590244
0.0605876
0.0620635
0.0634466
0.0647316
0.0659134
0.0669875
0.0679493
0.0687948
0.0695203
0.0701225
0.0705987
0.0709464
0.0711638
0.0712494
0.0712022
0.0710216
0.0707076
0.0702603
0.0696806
0.0689697
0.068129
0.0671603
0.0660658
0.0648479
0.0635092
0.0620526
0.0604808
0.0587966
0.0570028
0.055102
0.0530952
0.0509838
0.048784
0.0465098
0.0439574
0.0409508
0.0262037
0.0229101
0.0201435
0.0177094
0.0153804
0.0131696
0.0110922
0.00914661
0.00733132
0.005646
0.00409044
0.00266444
0.00136781
0.000200304
-0.000838341
-0.00174845
-0.00253048
-0.00318497
-0.00371257
-0.00411409
-0.00439044
-0.00454272
-0.00457223
-0.00448039
-0.00426874
-0.00393902
-0.00349323
-0.00293362
-0.00226259
-0.00148267
-0.000596632
0.000392541
0.00148165
0.00266729
0.00394596
0.005314
0.0067675
0.00830231
0.00991409
0.0115983
0.0133501
0.0151647
0.0170371
0.0189618
0.0209334
0.0229462
0.0249946
0.0270727
0.0291744
0.0312935
0.0334235
0.0355581
0.0376905
0.0398143
0.0419226
0.0440088
0.046066
0.0480875
0.0500665
0.0519964
0.0538704
0.0556819
0.0574245
0.0590918
0.0606774
0.0621756
0.0635804
0.0648864
0.0660884
0.0671815
0.0681611
0.0690227
0.0697625
0.070377
0.070863
0.071218
0.0714396
0.0715262
0.0714763
0.0712891
0.0709641
0.0705013
0.0699012
0.0691645
0.0682922
0.067286
0.0661476
0.0648791
0.0634827
0.0619611
0.0603168
0.0585522
0.05667
0.0546726
0.0525612
0.0503367
0.0480164
0.0456152
0.0429178
0.0397382
0.0270145
0.0235507
0.0206427
0.0180862
0.0156422
0.0133244
0.0111489
0.00911373
0.00721704
0.00545823
0.00383675
0.002352
0.00100338
-0.000209726
-0.00128803
-0.00223228
-0.00304335
-0.00372216
-0.00426971
-0.00468721
-0.00497596
-0.0051374
-0.00517311
-0.00508477
-0.00487418
-0.0045434
-0.00409469
-0.00353043
-0.00285318
-0.00206562
-0.0011707
-0.000171574
0.000928461
0.00212597
0.00341741
0.00479903
0.00626684
0.00781663
0.00944403
0.0111445
0.0129134
0.0147457
0.0166364
0.0185801
0.0205713
0.0226045
0.0246739
0.0267737
0.0288978
0.03104
0.0331938
0.0353529
0.0375105
0.03966
0.0417948
0.043908
0.0459927
0.0480421
0.0500494
0.0520079
0.0539107
0.0557511
0.0575225
0.0592183
0.0608323
0.0623581
0.0637899
0.0651221
0.0663491
0.0674658
0.0684673
0.0693491
0.0701069
0.0707369
0.0712359
0.0716008
0.0718291
0.0719187
0.0718677
0.0716751
0.0713402
0.0708625
0.0702422
0.0694796
0.0685755
0.0675312
0.066348
0.0650278
0.0635726
0.0619847
0.0602663
0.05842
0.0564481
0.0543529
0.0521355
0.049797
0.0473557
0.0448271
0.0419846
0.0386324
0.0276795
0.0240466
0.0209979
0.0183195
0.0157608
0.013336
0.0110622
0.00893705
0.00695847
0.00512559
0.00343755
0.00189341
0.000492213
-0.000767047
-0.00188548
-0.00286425
-0.00370455
-0.00440767
-0.00497503
-0.00540819
-0.00570882
-0.00587864
-0.00591948
-0.00583332
-0.00562231
-0.00528875
-0.00483508
-0.00426385
-0.00357778
-0.00277977
-0.00187296
-0.000860609
0.000253922
0.00146713
0.00277539
0.00417482
0.00566134
0.00723074
0.00887863
0.0106005
0.0123916
0.014247
0.0161616
0.0181299
0.0201466
0.0222061
0.0243027
0.0264304
0.0285832
0.0307548
0.0329389
0.0351288
0.0373181
0.0395001
0.0416678
0.0438146
0.0459333
0.0480172
0.0500593
0.0520527
0.0539906
0.0558661
0.0576725
0.0594029
0.0610509
0.0626101
0.0640744
0.065438
0.066695
0.0678401
0.0688681
0.0697743
0.0705541
0.0712034
0.0717187
0.0720967
0.0723343
0.0724291
0.0723791
0.0721829
0.0718393
0.0713477
0.0707079
0.0699197
0.0689839
0.0679011
0.0666727
0.0653001
0.0637852
0.06213
0.0603366
0.0584073
0.0563444
0.0541503
0.051826
0.0493725
0.0468092
0.0441528
0.0411647
0.0376398
0.0281908
0.0243895
0.0212008
0.0184007
0.0157273
0.0131956
0.0108233
0.00860794
0.00654716
0.00463983
0.00288485
0.00128097
-0.000173138
-0.00147884
-0.00263759
-0.00365089
-0.00452029
-0.00524746
-0.00583421
-0.00628244
-0.0065941
-0.00677119
-0.00681585
-0.0067304
-0.00651726
-0.00617895
-0.00571806
-0.00513735
-0.00443975
-0.00362838
-0.00270651
-0.00167749
-0.000544755
0.000688072
0.00201722
0.00343873
0.00494846
0.00654217
0.0082155
0.00996387
0.0117825
0.0136664
0.0156103
0.017609
0.0196571
0.0217489
0.0238787
0.0260405
0.0282283
0.0304357
0.0326564
0.0348838
0.0371114
0.0393322
0.0415396
0.0437265
0.0458859
0.0480108
0.0500942
0.0521292
0.0541086
0.0560256
0.057873
0.0596442
0.0613322
0.0629307
0.0644332
0.0658336
0.0671259
0.0683045
0.0693638
0.0702989
0.071105
0.0717777
0.072313
0.0727072
0.0729572
0.07306
0.0730134
0.0728156
0.0724651
0.071961
0.0713026
0.0704897
0.0695225
0.0684015
0.0671277
0.0657025
0.0641273
0.062404
0.0605347
0.0585214
0.0563665
0.0540724
0.05164
0.0490706
0.0463845
0.0435992
0.0404649
0.0367665
0.0285407
0.0245715
0.0212428
0.0183212
0.0155332
0.0128946
0.0104236
0.00811784
0.00597467
0.00399271
0.00217062
0.000506849
-0.00100027
-0.00235241
-0.00355135
-0.00459891
-0.00549703
-0.00624774
-0.00685319
-0.00731557
-0.0076371
-0.00782013
-0.00786712
-0.00778068
-0.00756346
-0.00721816
-0.00674759
-0.00615474
-0.00544277
-0.00461495
-0.00367468
-0.00262539
-0.00147065
-0.000214232
0.00113997
0.00258791
0.00412544
0.00574828
0.00745201
0.00923199
0.0110834
0.0130012
0.0149801
0.017015
0.0191003
0.0212303
0.0233994
0.0256016
0.0278306
0.0300802
0.032344
0.0346155
0.0368879
0.0391543
0.041408
0.0436417
0.0458484
0.048021
0.0501524
0.0522355
0.0542631
0.0562279
0.0581229
0.059941
0.0616753
0.0633191
0.0648657
0.0663087
0.0676418
0.0688591
0.0699548
0.0709237
0.0717606
0.072461
0.0730203
0.0734346
0.0737003
0.0738143
0.0737739
0.0735769
0.0732216
0.0727067
0.0720313
0.0711946
0.0701968
0.0690381
0.0677192
0.0662412
0.0646055
0.0628137
0.0608677
0.0587697
0.0565219
0.0541267
0.0515852
0.0488987
0.0460886
0.0431733
0.0398917
0.0360185
0.0287216
0.0245843
0.0211157
0.0180726
0.0151699
0.0124242
0.00985446
0.00745825
0.0052326
0.00317596
0.00128674
-0.000436902
-0.00199689
-0.00339521
-0.00463393
-0.00571526
-0.00664148
-0.00741495
-0.0080381
-0.00851341
-0.00884344
-0.00903088
-0.00907849
-0.0089891
-0.00876558
-0.00841084
-0.00792796
-0.00732017
-0.00659081
-0.00574327
-0.00478106
-0.00370778
-0.00252715
-0.00124308
0.000140431
0.00161929
0.00318931
0.00484614
0.00658528
0.00840204
0.0102915
0.0122487
0.0142683
0.0163451
0.0184735
0.0206479
0.0228624
0.0251111
0.0273877
0.0296859
0.0319994
0.0343215
0.0366453
0.0389641
0.0412706
0.0435579
0.0458187
0.0480459
0.0502321
0.05237
0.0544524
0.0564717
0.0584208
0.0602924
0.0620794
0.0637747
0.0653715
0.066863
0.0682427
0.0695043
0.0706418
0.0716496
0.0725224
0.073255
0.0738427
0.0742811
0.0745664
0.0746949
0.0746638
0.0744706
0.074113
0.0735894
0.0728986
0.0720398
0.0710125
0.0698168
0.0684534
0.0669229
0.0652266
0.0633661
0.061343
0.0591595
0.0568179
0.0543207
0.0516689
0.0488641
0.0459287
0.0428822
0.0394515
0.0354018
0.0287257
0.0244201
0.0208113
0.0176464
0.0146289
0.0117759
0.00910734
0.00662059
0.00431244
0.00218119
0.000224952
-0.00155831
-0.0031708
-0.00461481
-0.00589273
-0.00700713
-0.00796058
-0.00875573
-0.0093953
-0.00988211
-0.0102191
-0.0104091
-0.0104554
-0.0103608
-0.0101285
-0.00976175
-0.00926378
-0.00863806
-0.00788807
-0.00701734
-0.00602953
-0.00492842
-0.00371791
-0.00240201
-0.000984792
0.000529595
0.00213687
0.0038326
0.00561224
0.00747098
0.00940392
0.011406
0.013472
0.0155965
0.017774
0.0199988
0.0222649
0.0245663
0.0268969
0.0292503
0.03162
0.0339993
0.0363813
0.038759
0.0411253
0.043473
0.0457948
0.0480834
0.0503312
0.0525309
0.0546749
0.0567556
0.0587655
0.0606973
0.0625435
0.0642968
0.0659502
0.0674964
0.0689287
0.0702405
0.0714255
0.0724778
0.0733916
0.0741615
0.0747823
0.0752493