/*--------------------------------*- C++ -*----------------------------------*\
| =========                 |                                                 |
| \\      /  F ield         | OpenFOAM: The Open Source CFD Toolbox           |
|  \\    /   O peration     | Version:  2212                                  |
|   \\  /    A nd           | Website:  www.openfoam.com                      |
|    \\/     M anipulation  |                                                 |
\*---------------------------------------------------------------------------*/
FoamFile
{
    version     2.0;
    format      ascii;
    arch        "LSB;label=32;scalar=64";
    class       surfaceScalarField;
    location    "0.076";
    object      phi_0;
}
// * * * * * * * * * * * * * * * * * * * * * * * * * * * * * * * * * * * * * //

dimensions      [0 3 -1 0 0 0 0];

oriented        oriented;

internalField   nonuniform List<scalar> 
19800
(
6.9598e-11
-6.95414e-11
2.36964e-10
-1.67351e-10
4.22774e-10
-1.85801e-10
5.68267e-10
-1.45487e-10
6.40837e-10
-7.25781e-11
6.2245e-10
1.84071e-11
5.04034e-10
1.18403e-10
2.82324e-10
2.21722e-10
-4.23961e-11
3.24718e-10
-4.67446e-10
4.25046e-10
-9.88645e-10
5.21199e-10
-1.60081e-09
6.12151e-10
-2.29804e-09
6.97231e-10
-3.07402e-09
7.75993e-10
-3.92218e-09
8.48161e-10
-4.83577e-09
9.13591e-10
-5.80797e-09
9.72214e-10
-6.83199e-09
1.02401e-09
-7.90105e-09
1.06905e-09
-9.00846e-09
1.10741e-09
-1.01477e-08
1.13919e-09
-1.13122e-08
1.16453e-09
-1.24958e-08
1.18358e-09
-1.36923e-08
1.1965e-09
-1.48958e-08
1.20348e-09
-1.61005e-08
1.2047e-09
-1.73008e-08
1.20036e-09
-1.84915e-08
1.19066e-09
-1.96673e-08
1.17579e-09
-2.08232e-08
1.15595e-09
-2.19546e-08
1.13138e-09
-2.30568e-08
1.10226e-09
-2.41256e-08
1.06881e-09
-2.51569e-08
1.03125e-09
-2.61467e-08
9.89786e-10
-2.70913e-08
9.44633e-10
-2.79873e-08
8.95993e-10
-2.88314e-08
8.44081e-10
-2.96205e-08
7.89121e-10
-3.03518e-08
7.31322e-10
-3.10227e-08
6.70895e-10
-3.16308e-08
6.08066e-10
-3.21739e-08
5.43057e-10
-3.26499e-08
4.7609e-10
-3.30573e-08
4.07387e-10
-3.33945e-08
3.37171e-10
-3.36602e-08
2.65682e-10
-3.38533e-08
1.93156e-10
-3.39732e-08
1.19813e-10
-3.40191e-08
4.5893e-11
-3.39907e-08
-2.83589e-11
-3.3888e-08
-1.02699e-10
-3.37111e-08
-1.76871e-10
-3.34605e-08
-2.50616e-10
-3.31368e-08
-3.23689e-10
-3.2741e-08
-3.9583e-10
-3.22742e-08
-4.66762e-10
-3.1738e-08
-5.36219e-10
-3.11341e-08
-6.03939e-10
-3.04644e-08
-6.69643e-10
-2.97313e-08
-7.33063e-10
-2.89374e-08
-7.93934e-10
-2.80854e-08
-8.51976e-10
-2.71785e-08
-9.069e-10
-2.62201e-08
-9.58426e-10
-2.52138e-08
-1.00628e-09
-2.41636e-08
-1.0502e-09
-2.30737e-08
-1.08992e-09
-2.19485e-08
-1.12517e-09
-2.07928e-08
-1.15571e-09
-1.96115e-08
-1.18127e-09
-1.84099e-08
-1.2016e-09
-1.71934e-08
-1.21649e-09
-1.59677e-08
-1.22572e-09
-1.47387e-08
-1.22907e-09
-1.35123e-08
-1.22635e-09
-1.2295e-08
-1.21737e-09
-1.1093e-08
-1.20199e-09
-9.91291e-09
-1.18006e-09
-8.76147e-09
-1.15145e-09
-7.6454e-09
-1.11607e-09
-6.57154e-09
-1.07385e-09
-5.54677e-09
-1.02478e-09
-4.57794e-09
-9.68836e-10
-3.67185e-09
-9.06088e-10
-2.8352e-09
-8.3665e-10
-2.07449e-09
-7.60705e-10
-1.39597e-09
-6.78528e-10
-8.0545e-10
-5.90518e-10
-3.08194e-10
-4.97248e-10
9.13439e-11
-3.99532e-10
3.89862e-10
-2.98519e-10
5.85719e-10
-1.95859e-10
6.79727e-10
-9.40058e-11
6.7641e-10
3.32052e-12
5.86057e-10
9.03515e-11
4.27914e-10
1.5814e-10
2.35615e-10
1.92298e-10
6.63512e-11
1.69265e-10
6.63489e-11
1.70615e-10
-2.40146e-10
4.65615e-10
-4.62368e-10
7.47238e-10
-4.67402e-10
9.16236e-10
-3.14479e-10
9.02691e-10
-5.90296e-11
6.62028e-10
2.59072e-10
1.68273e-10
6.12142e-10
-5.91152e-10
9.81143e-10
-1.61941e-09
1.35296e-09
-2.9129e-09
1.71855e-09
-4.4633e-09
2.0716e-09
-6.25889e-09
2.40773e-09
-8.28554e-09
2.72389e-09
-1.05275e-08
3.01794e-09
-1.29678e-08
3.28847e-09
-1.55888e-08
3.53459e-09
-1.83723e-08
3.75574e-09
-2.13e-08
3.9517e-09
-2.43534e-08
4.12247e-09
-2.75142e-08
4.26819e-09
-3.07642e-08
4.38916e-09
-3.40855e-08
4.4858e-09
-3.74605e-08
4.55859e-09
-4.0872e-08
4.60807e-09
-4.43034e-08
4.63486e-09
-4.77383e-08
4.63965e-09
-5.11611e-08
4.6231e-09
-5.45564e-08
4.58596e-09
-5.79096e-08
4.52898e-09
-6.12066e-08
4.45293e-09
-6.44337e-08
4.35855e-09
-6.75781e-08
4.24666e-09
-7.06274e-08
4.11805e-09
-7.35697e-08
3.97354e-09
-7.63938e-08
3.81391e-09
-7.90892e-08
3.63999e-09
-8.16458e-08
3.45259e-09
-8.40542e-08
3.25255e-09
-8.63058e-08
3.04069e-09
-8.83923e-08
2.81783e-09
-9.03063e-08
2.58483e-09
-9.20407e-08
2.34254e-09
-9.35895e-08
2.09181e-09
-9.49469e-08
1.83351e-09
-9.6108e-08
1.56851e-09
-9.70686e-08
1.2977e-09
-9.78248e-08
1.02197e-09
-9.83739e-08
7.42214e-10
-9.87134e-08
4.59359e-10
-9.88419e-08
1.74322e-10
-9.87583e-08
-1.11945e-10
-9.84625e-08
-3.98482e-10
-9.7955e-08
-6.8433e-10
-9.72372e-08
-9.68501e-10
-9.63109e-08
-1.24999e-09
-9.51789e-08
-1.52779e-09
-9.38447e-08
-1.8009e-09
-9.23127e-08
-2.06826e-09
-9.05878e-08
-2.32884e-09
-8.86758e-08
-2.5816e-09
-8.65834e-08
-2.82549e-09
-8.43179e-08
-3.05944e-09
-8.18874e-08
-3.28241e-09
-7.9301e-08
-3.49333e-09
-7.65683e-08
-3.69114e-09
-7.36998e-08
-3.87479e-09
-7.07067e-08
-4.04326e-09
-6.76011e-08
-4.19554e-09
-6.43957e-08
-4.33063e-09
-6.11038e-08
-4.44755e-09
-5.77397e-08
-4.54538e-09
-5.43181e-08
-4.6232e-09
-5.08544e-08
-4.68016e-09
-4.73647e-08
-4.71542e-09
-4.38656e-08
-4.72823e-09
-4.0374e-08
-4.71788e-09
-3.69077e-08
-4.68374e-09
-3.34844e-08
-4.62522e-09
-3.01226e-08
-4.54186e-09
-2.68408e-08
-4.43328e-09
-2.36577e-08
-4.29919e-09
-2.05921e-08
-4.13943e-09
-1.76629e-08
-3.95401e-09
-1.48886e-08
-3.74309e-09
-1.22876e-08
-3.50706e-09
-9.87771e-09
-3.24655e-09
-7.67594e-09
-2.96248e-09
-5.69825e-09
-2.65622e-09
-3.95914e-09
-2.32963e-09
-2.47111e-09
-1.98528e-09
-1.24397e-09
-1.62669e-09
-2.83813e-10
-1.25868e-09
4.08266e-10
-8.87935e-10
8.38108e-10
-5.23846e-10
1.02115e-09
-1.79727e-10
9.86134e-10
1.25359e-10
7.80109e-10
3.64164e-10
4.74338e-10
4.98071e-10
1.6916e-10
4.74436e-10
2.35507e-10
1.8643e-10
-4.26568e-10
4.70903e-10
-7.46837e-10
6.81547e-10
-6.78058e-10
6.98221e-10
-3.31142e-10
4.33501e-10
2.05672e-10
-1.72169e-10
8.6473e-10
-1.15603e-09
1.59601e-09
-2.53809e-09
2.36319e-09
-4.32519e-09
3.14006e-09
-6.51434e-09
3.90768e-09
-9.09511e-09
4.65236e-09
-1.20516e-08
5.36422e-09
-1.53638e-08
6.03612e-09
-1.90089e-08
6.66299e-09
-2.29617e-08
7.24128e-09
-2.71957e-08
7.76859e-09
-3.16834e-08
8.2434e-09
-3.63965e-08
8.66487e-09
-4.13067e-08
9.03268e-09
-4.63855e-08
9.34695e-09
-5.16044e-08
9.6081e-09
-5.69355e-08
9.81686e-09
-6.2351e-08
9.97414e-09
-6.7824e-08
1.0081e-08
-7.33279e-08
1.01388e-08
-7.88369e-08
1.01487e-08
-8.4326e-08
1.01122e-08
-8.97709e-08
1.00309e-08
-9.51482e-08
9.90628e-09
-1.00435e-07
9.74e-09
-1.0561e-07
9.53372e-09
-1.10653e-07
9.28913e-09
-1.15543e-07
9.00795e-09
-1.20261e-07
8.69192e-09
-1.2479e-07
8.34279e-09
-1.29112e-07
7.96233e-09
-1.33212e-07
7.55235e-09
-1.37074e-07
7.11463e-09
-1.40685e-07
6.65099e-09
-1.4403e-07
6.16327e-09
-1.47099e-07
5.65332e-09
-1.49879e-07
5.12299e-09
-1.52361e-07
4.57418e-09
-1.54537e-07
4.00878e-09
-1.56397e-07
3.42873e-09
-1.57935e-07
2.83596e-09
-1.59146e-07
2.23244e-09
-1.60023e-07
1.62015e-09
-1.60565e-07
1.00112e-09
-1.60768e-07
3.77388e-10
-1.60631e-07
-2.48977e-10
-1.60154e-07
-8.75867e-10
-1.59337e-07
-1.50115e-09
-1.58183e-07
-2.12267e-09
-1.56695e-07
-2.73824e-09
-1.54877e-07
-3.34565e-09
-1.52735e-07
-3.94265e-09
-1.50276e-07
-4.52701e-09
-1.47509e-07
-5.09645e-09
-1.44442e-07
-5.64867e-09
-1.41086e-07
-6.18139e-09
-1.37453e-07
-6.6923e-09
-1.33556e-07
-7.17909e-09
-1.2941e-07
-7.63947e-09
-1.2503e-07
-8.07114e-09
-1.20433e-07
-8.47185e-09
-1.15637e-07
-8.83937e-09
-1.10661e-07
-9.17149e-09
-1.05525e-07
-9.46609e-09
-1.00252e-07
-9.72108e-09
-9.48628e-08
-9.93444e-09
-8.93818e-08
-1.01042e-08
-8.38333e-08
-1.02286e-08
-7.82428e-08
-1.03059e-08
-7.26367e-08
-1.03344e-08
-6.70419e-08
-1.03127e-08
-6.14862e-08
-1.02394e-08
-5.59979e-08
-1.01135e-08
-5.06058e-08
-9.93396e-09
-4.5339e-08
-9.70007e-09
-4.02268e-08
-9.41137e-09
-3.52985e-08
-9.0677e-09
-3.05833e-08
-8.66924e-09
-2.61098e-08
-8.21656e-09
-2.19062e-08
-7.71074e-09
-1.79993e-08
-7.15343e-09
-1.44147e-08
-6.54702e-09
-1.11762e-08
-5.8948e-09
-8.30453e-09
-5.20125e-09
-5.81744e-09
-4.47236e-09
-3.72799e-09
-3.71615e-09
-2.04333e-09
-2.94333e-09
-7.62919e-10
-2.16835e-09
1.23948e-10
-1.41071e-09
6.4119e-10
-6.96968e-10
8.29851e-10
-6.33012e-11
7.52846e-10
4.4117e-10
4.99963e-10
7.50948e-10
1.92743e-10
7.81649e-10
4.28251e-10
1.47765e-10
-5.74323e-10
3.2214e-10
-9.21199e-10
3.42802e-10
-6.98708e-10
8.11867e-11
-6.95188e-11
-5.57143e-10
8.43994e-10
-1.63852e-09
1.9461e-09
-3.206e-09
3.16349e-09
-5.28387e-09
4.44106e-09
-7.88139e-09
5.73759e-09
-1.0996e-08
7.0223e-09
-1.4616e-08
8.27231e-09
-1.87223e-08
9.47059e-09
-2.32908e-08
1.06046e-08
-2.82928e-08
1.1665e-08
-3.36968e-08
1.26453e-08
-3.9469e-08
1.35408e-08
-4.5574e-08
1.43484e-08
-5.19754e-08
1.50662e-08
-5.86361e-08
1.56934e-08
-6.55189e-08
1.62297e-08
-7.25863e-08
1.66756e-08
-7.98015e-08
1.70321e-08
-8.71278e-08
1.73004e-08
-9.45292e-08
1.74824e-08
-1.01971e-07
1.758e-08
-1.09417e-07
1.75954e-08
-1.16836e-07
1.75308e-08
-1.24194e-07
1.73889e-08
-1.3146e-07
1.71723e-08
-1.38603e-07
1.68836e-08
-1.45595e-07
1.65257e-08
-1.52408e-07
1.61015e-08
-1.59014e-07
1.5614e-08
-1.65388e-07
1.5066e-08
-1.71506e-07
1.44606e-08
-1.77344e-07
1.3801e-08
-1.82882e-07
1.309e-08
-1.88098e-07
1.2331e-08
-1.92975e-07
1.1527e-08
-1.97492e-07
1.06812e-08
-2.01636e-07
9.79689e-09
-2.0539e-07
8.8772e-09
-2.08742e-07
7.92545e-09
-2.11678e-07
6.94495e-09
-2.14188e-07
5.93904e-09
-2.16263e-07
4.91111e-09
-2.17895e-07
3.86459e-09
-2.19078e-07
2.80294e-09
-2.19807e-07
1.72966e-09
-2.20078e-07
6.48319e-10
-2.19889e-07
-4.3747e-10
-2.19241e-07
-1.52406e-09
-2.18134e-07
-2.60776e-09
-2.16572e-07
-3.6848e-09
-2.14559e-07
-4.75139e-09
-2.12101e-07
-5.80372e-09
-2.09206e-07
-6.83789e-09
-2.05883e-07
-7.84999e-09
-2.02143e-07
-8.8361e-09
-1.97999e-07
-9.79227e-09
-1.93466e-07
-1.07145e-08
-1.8856e-07
-1.15989e-08
-1.83297e-07
-1.24414e-08
-1.77699e-07
-1.3238e-08
-1.71785e-07
-1.3985e-08
-1.65579e-07
-1.46783e-08
-1.59104e-07
-1.53141e-08
-1.52387e-07
-1.58887e-08
-1.45454e-07
-1.63985e-08
-1.38336e-07
-1.68398e-08
-1.31061e-07
-1.72093e-08
-1.23661e-07
-1.75036e-08
-1.1617e-07
-1.77197e-08
-1.08622e-07
-1.78546e-08
-1.0105e-07
-1.79057e-08
-9.34926e-08
-1.78704e-08
-8.59853e-08
-1.77468e-08
-7.85659e-08
-1.75329e-08
-7.12727e-08
-1.72272e-08
-6.4144e-08
-1.68287e-08
-5.72186e-08
-1.63368e-08
-5.05349e-08
-1.57514e-08
-4.41309e-08
-1.50732e-08
-3.80441e-08
-1.43034e-08
-3.23107e-08
-1.34442e-08
-2.69653e-08
-1.24988e-08
-2.20406e-08
-1.14717e-08
-1.75663e-08
-1.03692e-08
-1.35683e-08
-9.19919e-09
-1.00682e-08
-7.97249e-09
-7.08129e-09
-6.70307e-09
-4.61537e-09
-5.40926e-09
-2.66861e-09
-4.11511e-09
-1.2271e-09
-2.85222e-09
-2.6183e-10
-1.66223e-09
2.7485e-10
-5.99982e-10
4.53409e-10
2.62607e-10
3.71608e-10
8.32744e-10
1.60279e-10
9.92975e-10
5.88535e-10
7.71657e-11
-6.51495e-10
7.35304e-11
-9.17552e-10
-1.81828e-10
-4.43356e-10
-8.14858e-10
5.6351e-10
-1.91938e-09
1.94853e-09
-3.56249e-09
3.58919e-09
-5.78861e-09
5.38961e-09
-8.62329e-09
7.27572e-09
-1.20764e-08
9.19068e-09
-1.6145e-08
1.10909e-08
-2.0816e-08
1.29433e-08
-2.60678e-08
1.47224e-08
-3.18725e-08
1.64093e-08
-3.81971e-08
1.79896e-08
-4.50045e-08
1.94528e-08
-5.2255e-08
2.07913e-08
-5.99066e-08
2.2e-08
-6.79157e-08
2.30754e-08
-7.62379e-08
2.40156e-08
-8.48282e-08
2.482e-08
-9.36416e-08
2.54889e-08
-1.02633e-07
2.60235e-08
-1.11758e-07
2.64253e-08
-1.20972e-07
2.66969e-08
-1.30233e-07
2.68408e-08
-1.39498e-07
2.68603e-08
-1.48726e-07
2.67587e-08
-1.57877e-07
2.65397e-08
-1.66912e-07
2.62072e-08
-1.75793e-07
2.57652e-08
-1.84485e-07
2.5218e-08
-1.92954e-07
2.45698e-08
-2.01165e-07
2.3825e-08
-2.09087e-07
2.29882e-08
-2.1669e-07
2.20638e-08
-2.23946e-07
2.10567e-08
-2.30827e-07
1.99714e-08
-2.37309e-07
1.88126e-08
-2.43367e-07
1.75853e-08
-2.4898e-07
1.62941e-08
-2.54127e-07
1.49442e-08
-2.5879e-07
1.35403e-08
-2.62952e-07
1.20875e-08
-2.66598e-07
1.05909e-08
-2.69715e-07
9.05553e-09
-2.7229e-07
7.48663e-09
-2.74315e-07
5.88943e-09
-2.75781e-07
4.26924e-09
-2.76683e-07
2.63144e-09
-2.77016e-07
9.81449e-10
-2.76778e-07
-6.75202e-10
-2.7597e-07
-2.33292e-09
-2.74591e-07
-3.98606e-09
-2.72647e-07
-5.62889e-09
-2.70143e-07
-7.25563e-09
-2.67086e-07
-8.86042e-09
-2.63487e-07
-1.04374e-08
-2.59356e-07
-1.19805e-08
-2.54708e-07
-1.34838e-08
-2.49559e-07
-1.49414e-08
-2.43927e-07
-1.63471e-08
-2.37831e-07
-1.76949e-08
-2.31293e-07
-1.89788e-08
-2.24339e-07
-2.01929e-08
-2.16992e-07
-2.1331e-08
-2.09283e-07
-2.23875e-08
-2.01241e-07
-2.33565e-08
-1.92897e-07
-2.42324e-08
-1.84286e-07
-2.50096e-08
-1.75443e-07
-2.56828e-08
-1.66405e-07
-2.62469e-08
-1.57212e-07
-2.6697e-08
-1.47903e-07
-2.70284e-08
-1.38521e-07
-2.72368e-08
-1.29108e-07
-2.73184e-08
-1.19709e-07
-2.72694e-08
-1.10369e-07
-2.70869e-08
-1.01134e-07
-2.67681e-08
-9.20498e-08
-2.63112e-08
-8.31638e-08
-2.57146e-08
-7.45227e-08
-2.49779e-08
-6.6173e-08
-2.41012e-08
-5.81606e-08
-2.30856e-08
-5.05302e-08
-2.19337e-08
-4.33253e-08
-2.06491e-08
-3.6587e-08
-1.92371e-08
-3.03536e-08
-1.77051e-08
-2.46601e-08
-1.60627e-08
-1.95366e-08
-1.43227e-08
-1.50076e-08
-1.25014e-08
-1.10908e-08
-1.06199e-08
-7.7946e-09
-8.70544e-09
-5.11703e-09
-6.79268e-09
-3.04289e-09
-4.92636e-09
-1.54123e-09
-3.16389e-09
-5.62285e-10
-1.57893e-09
-3.39803e-11
-2.65703e-10
1.42e-10
6.56762e-10
9.54015e-11
1.03958e-09
6.83939e-10
-1.09269e-11
-6.40565e-10
-2.36675e-10
-6.91814e-10
-8.27701e-10
1.47654e-10
-1.89922e-09
1.63503e-09
-3.53854e-09
3.58784e-09
-5.80885e-09
5.8595e-09
-8.75232e-09
8.33308e-09
-1.2393e-08
1.09164e-08
-1.67396e-08
1.35373e-08
-2.17877e-08
1.6139e-08
-2.7522e-08
1.86776e-08
-3.39186e-08
2.1119e-08
-4.09461e-08
2.34367e-08
-4.85674e-08
2.56109e-08
-5.67411e-08
2.76265e-08
-6.54221e-08
2.94722e-08
-7.45625e-08
3.11404e-08
-8.41129e-08
3.26257e-08
-9.40223e-08
3.3925e-08
-1.04239e-07
3.50368e-08
-1.14711e-07
3.5961e-08
-1.25387e-07
3.66988e-08
-1.36214e-07
3.72524e-08
-1.47141e-07
3.76245e-08
-1.58119e-07
3.78187e-08
-1.69098e-07
3.78392e-08
-1.8003e-07
3.76905e-08
-1.90868e-07
3.73776e-08
-2.01566e-07
3.69056e-08
-2.12081e-07
3.62803e-08
-2.22371e-07
3.55073e-08
-2.32393e-07
3.45926e-08
-2.42111e-07
3.35423e-08
-2.51485e-07
3.23627e-08
-2.60481e-07
3.10601e-08
-2.69066e-07
2.9641e-08
-2.77206e-07
2.8112e-08
-2.84874e-07
2.64797e-08
-2.92039e-07
2.4751e-08
-2.98678e-07
2.29325e-08
-3.04765e-07
2.10313e-08
-3.10279e-07
1.90542e-08
-3.152e-07
1.70084e-08
-3.1951e-07
1.49009e-08
-3.23193e-07
1.2739e-08
-3.26237e-07
1.053e-08
-3.28628e-07
8.28126e-09
-3.30359e-07
6.00029e-09
-3.31423e-07
3.69468e-09
-3.31813e-07
1.37209e-09
-3.31529e-07
-9.59705e-10
-3.30569e-07
-3.29283e-09
-3.28936e-07
-5.61932e-09
-3.26633e-07
-7.93111e-09
-3.23669e-07
-1.02201e-08
-3.20051e-07
-1.2478e-08
-3.15792e-07
-1.46965e-08
-3.10906e-07
-1.68673e-08
-3.05407e-07
-1.89819e-08
-2.99317e-07
-2.10321e-08
-2.92655e-07
-2.30091e-08
-2.85445e-07
-2.49048e-08
-2.77713e-07
-2.67105e-08
-2.69488e-07
-2.84179e-08
-2.608e-07
-3.00188e-08
-2.51683e-07
-3.15049e-08
-2.42171e-07
-3.28682e-08
-2.32303e-07
-3.41008e-08
-2.22118e-07
-3.51951e-08
-2.11657e-07
-3.61436e-08
-2.00964e-07
-3.69394e-08
-1.90086e-07
-3.75755e-08
-1.79069e-07
-3.80457e-08
-1.67961e-07
-3.83441e-08
-1.56814e-07
-3.84653e-08
-1.45679e-07
-3.84044e-08
-1.34609e-07
-3.81574e-08
-1.23656e-07
-3.77208e-08
-1.12875e-07
-3.70921e-08
-1.0232e-07
-3.62697e-08
-9.2045e-08
-3.52529e-08
-8.21036e-08
-3.40426e-08
-7.25485e-08
-3.26407e-08
-6.34312e-08
-3.1051e-08
-5.48011e-08
-2.92793e-08
-4.67049e-08
-2.73333e-08
-3.91861e-08
-2.52238e-08
-3.22841e-08
-2.29648e-08
-2.60327e-08
-2.05741e-08
-2.04595e-08
-1.80746e-08
-1.55843e-08
-1.54952e-08
-1.1417e-08
-1.28727e-08
-7.95672e-09
-1.0253e-08
-5.18889e-09
-7.69419e-09
-3.08341e-09
-5.26938e-09
-1.592e-09
-3.07033e-09
-6.45535e-10
-1.21217e-09
-1.50988e-10
1.62217e-10
1.22974e-11
8.7629e-10
6.96235e-10
-1.08038e-10
-5.32529e-10
-5.8259e-10
-2.17261e-10
-1.54842e-09
1.11349e-09
-3.10474e-09
3.19132e-09
-5.32795e-09
5.81105e-09
-8.27377e-09
8.80532e-09
-1.19791e-08
1.20384e-08
-1.64643e-08
1.54016e-08
-2.17349e-08
1.88078e-08
-2.77837e-08
2.21878e-08
-3.45928e-08
2.54868e-08
-4.21352e-08
2.86614e-08
-5.03762e-08
3.16778e-08
-5.9275e-08
3.45097e-08
-6.87858e-08
3.71372e-08
-7.88589e-08
3.95453e-08
-8.94414e-08
4.1723e-08
-1.00478e-07
4.36627e-08
-1.11913e-07
4.53598e-08
-1.23688e-07
4.68118e-08
-1.35745e-07
4.80181e-08
-1.48026e-07
4.89797e-08
-1.60473e-07
4.9699e-08
-1.73028e-07
5.01795e-08
-1.85634e-07
5.04253e-08
-1.98237e-07
5.04418e-08
-2.10781e-07
5.02346e-08
-2.23214e-07
4.98102e-08
-2.35483e-07
4.91752e-08
-2.4754e-07
4.8337e-08
-2.59336e-07
4.73029e-08
-2.70824e-07
4.60808e-08
-2.8196e-07
4.46786e-08
-2.92702e-07
4.31047e-08
-3.03009e-07
4.13674e-08
-3.12844e-07
3.94753e-08
-3.22169e-07
3.74371e-08
-3.30951e-07
3.52616e-08
-3.39157e-07
3.29578e-08
-3.4676e-07
3.05346e-08
-3.5373e-07
2.80014e-08
-3.60043e-07
2.53673e-08
-3.65676e-07
2.26418e-08
-3.7061e-07
1.98344e-08
-3.74825e-07
1.69547e-08
-3.78308e-07
1.40124e-08
-3.81044e-07
1.10174e-08
-3.83023e-07
7.97966e-09
-3.84238e-07
4.90928e-09
-3.84682e-07
1.8165e-09
-3.84354e-07
-1.28832e-09
-3.83252e-07
-4.3947e-09
-3.81379e-07
-7.49204e-09
-3.78741e-07
-1.05696e-08
-3.75344e-07
-1.36166e-08
-3.712e-07
-1.6622e-08
-3.66322e-07
-1.95749e-08
-3.60725e-07
-2.24641e-08
-3.54428e-07
-2.52785e-08
-3.47454e-07
-2.80069e-08
-3.39825e-07
-3.0638e-08
-3.31569e-07
-3.31608e-08
-3.22715e-07
-3.5564e-08
-3.13296e-07
-3.78366e-08
-3.03348e-07
-3.99676e-08
-2.92906e-07
-4.19462e-08
-2.82013e-07
-4.37618e-08
-2.70709e-07
-4.5404e-08
-2.59042e-07
-4.68629e-08
-2.47057e-07
-4.81287e-08
-2.34804e-07
-4.9192e-08
-2.22335e-07
-5.00442e-08
-2.09704e-07
-5.06768e-08
-1.96966e-07
-5.10824e-08
-1.84177e-07
-5.12539e-08
-1.71396e-07
-5.11852e-08
-1.58683e-07
-5.08711e-08
-1.46096e-07
-5.03073e-08
-1.33698e-07
-4.94908e-08
-1.21548e-07
-4.84198e-08
-1.09707e-07
-4.70939e-08
-9.82349e-08
-4.55144e-08
-8.71911e-08
-4.36846e-08
-7.66323e-08
-4.16098e-08
-6.66135e-08
-3.9298e-08
-5.71866e-08
-3.67602e-08
-4.83996e-08
-3.40108e-08
-4.02959e-08
-3.10685e-08
-3.29131e-08
-2.79569e-08
-2.62817e-08
-2.47059e-08
-2.04241e-08
-2.13528e-08
-1.53529e-08
-1.79439e-08
-1.10693e-08
-1.45366e-08
-7.56125e-09
-1.12022e-08
-4.80186e-09
-8.02876e-09
-2.74733e-09
-5.12487e-09
-1.33499e-09
-2.62451e-09
-4.81431e-10
-6.91338e-10
-8.04476e-11
4.75304e-10
6.15787e-10
-2.09024e-10
-3.2351e-10
-9.4709e-10
5.20809e-10
-2.31169e-09
2.47809e-09
-4.38299e-09
5.26262e-09
-7.22363e-09
8.65168e-09
-1.08791e-08
1.24608e-08
-1.53789e-08
1.65382e-08
-2.07373e-08
2.076e-08
-2.69552e-08
2.50258e-08
-3.40217e-08
2.92543e-08
-4.19152e-08
3.33802e-08
-5.0605e-08
3.73511e-08
-6.00528e-08
4.11256e-08
-7.02142e-08
4.46711e-08
-8.10391e-08
4.79622e-08
-9.24735e-08
5.09797e-08
-1.0446e-07
5.37094e-08
-1.16938e-07
5.61413e-08
-1.29847e-07
5.82688e-08
-1.43124e-07
6.00881e-08
-1.56704e-07
6.15982e-08
-1.70524e-07
6.27996e-08
-1.8452e-07
6.3695e-08
-1.98628e-07
6.42882e-08
-2.12787e-07
6.45844e-08
-2.26936e-07
6.45899e-08
-2.41012e-07
6.43115e-08
-2.54959e-07
6.37572e-08
-2.68719e-07
6.29353e-08
-2.82237e-07
6.18547e-08
-2.95459e-07
6.05249e-08
-3.08334e-07
5.89557e-08
-3.20813e-07
5.71571e-08
-3.32847e-07
5.51395e-08
-3.44394e-07
5.29136e-08
-3.55409e-07
5.04902e-08
-3.65852e-07
4.78804e-08
-3.75686e-07
4.50954e-08
-3.84874e-07
4.21466e-08
-3.93385e-07
3.90456e-08
-4.01188e-07
3.58041e-08
-4.08255e-07
3.24339e-08
-4.1456e-07
2.8947e-08
-4.20081e-07
2.53556e-08
-4.24798e-07
2.1672e-08
-4.28695e-07
1.79086e-08
-4.31755e-07
1.40781e-08
-4.33969e-07
1.01931e-08
-4.35326e-07
6.26667e-09
-4.35821e-07
2.31183e-09
-4.35451e-07
-1.65816e-09
-4.34216e-07
-5.62992e-09
-4.32118e-07
-9.58989e-09
-4.29164e-07
-1.35244e-08
-4.25361e-07
-1.74196e-08
-4.20721e-07
-2.12615e-08
-4.1526e-07
-2.50361e-08
-4.08995e-07
-2.87293e-08
-4.01946e-07
-3.23268e-08
-3.94139e-07
-3.58143e-08
-3.85599e-07
-3.91777e-08
-3.76357e-07
-4.24027e-08
-3.66446e-07
-4.54751e-08
-3.55902e-07
-4.83809e-08
-3.44763e-07
-5.11061e-08
-3.33072e-07
-5.36372e-08
-3.20874e-07
-5.59606e-08
-3.08214e-07
-5.80633e-08
-2.95145e-07
-5.99326e-08
-2.81717e-07
-6.15562e-08
-2.67987e-07
-6.29225e-08
-2.5401e-07
-6.40204e-08
-2.39848e-07
-6.48396e-08
-2.25559e-07
-6.53706e-08
-2.11208e-07
-6.56047e-08
-1.96859e-07
-6.55345e-08
-1.82577e-07
-6.51535e-08
-1.68427e-07
-6.44567e-08
-1.54478e-07
-6.34405e-08
-1.40794e-07
-6.21031e-08
-1.27444e-07
-6.04443e-08
-1.14492e-07
-5.84662e-08
-1.02003e-07
-5.61735e-08
-9.00395e-08
-5.35734e-08
-7.86611e-08
-5.06764e-08
-6.79244e-08
-4.74969e-08
-5.7882e-08
-4.40533e-08
-4.8581e-08
-4.03695e-08
-4.00627e-08
-3.64752e-08
-3.23613e-08
-3.24074e-08
-2.55023e-08
-2.82118e-08
-1.95016e-08
-2.39446e-08
-1.43639e-08
-1.96743e-08
-1.00814e-08
-1.54847e-08
-6.6323e-09
-1.14779e-08
-3.97958e-09
-7.77759e-09
-2.06976e-09
-4.53434e-09
-8.31983e-10
-1.92912e-09
-1.7756e-10
-1.79121e-10
4.38228e-10
-3.10831e-10
-1.26791e-11
-1.3191e-09
1.52906e-09
-3.09543e-09
4.25442e-09
-5.69975e-09
7.86694e-09
-9.17912e-09
1.2131e-08
-1.3567e-08
1.68487e-08
-1.88835e-08
2.18546e-08
-2.51355e-08
2.7012e-08
-3.2318e-08
3.22082e-08
-4.04147e-08
3.7351e-08
-4.93996e-08
4.23651e-08
-5.9238e-08
4.71895e-08
-6.98875e-08
5.17752e-08
-8.12996e-08
5.60831e-08
-9.34202e-08
6.00828e-08
-1.06191e-07
6.37505e-08
-1.1955e-07
6.70686e-08
-1.33433e-07
7.00244e-08
-1.47774e-07
7.26093e-08
-1.62504e-07
7.48181e-08
-1.77555e-07
7.6649e-08
-1.92857e-07
7.81022e-08
-2.08343e-07
7.91804e-08
-2.23943e-07
7.9888e-08
-2.39589e-07
8.02308e-08
-2.55215e-07
8.02162e-08
-2.70756e-07
7.98525e-08
-2.86148e-07
7.91489e-08
-3.01328e-07
7.81157e-08
-3.16237e-07
7.67635e-08
-3.30816e-07
7.51039e-08
-3.45009e-07
7.31487e-08
-3.58762e-07
7.09103e-08
-3.72024e-07
6.84013e-08
-3.84746e-07
6.56349e-08
-3.9688e-07
6.26244e-08
-4.08383e-07
5.93835e-08
-4.19213e-07
5.59258e-08
-4.29332e-07
5.22657e-08
-4.38704e-07
4.84172e-08
-4.47295e-07
4.43949e-08
-4.55074e-07
4.02135e-08
-4.62015e-07
3.58878e-08
-4.68093e-07
3.14329e-08
-4.73285e-07
2.6864e-08
-4.77572e-07
2.21965e-08
-4.8094e-07
1.7446e-08
-4.83376e-07
1.26284e-08
-4.84869e-07
7.75971e-09
-4.85413e-07
2.85606e-09
-4.85005e-07
-2.06613e-09
-4.83645e-07
-6.99026e-09
-4.81335e-07
-1.18996e-08
-4.78082e-07
-1.67771e-08
-4.73896e-07
-2.16058e-08
-4.68789e-07
-2.63683e-08
-4.62778e-07
-3.10474e-08
-4.55882e-07
-3.56254e-08
-4.48124e-07
-4.0085e-08
-4.3953e-07
-4.44085e-08
-4.30129e-07
-4.85782e-08
-4.19955e-07
-5.25768e-08
-4.09043e-07
-5.63867e-08
-3.97434e-07
-5.99906e-08
-3.85168e-07
-6.33715e-08
-3.72293e-07
-6.65125e-08
-3.58857e-07
-6.93971e-08
-3.4491e-07
-7.20093e-08
-3.30509e-07
-7.43337e-08
-3.1571e-07
-7.63551e-08
-3.00574e-07
-7.80593e-08
-2.85161e-07
-7.9433e-08
-2.69537e-07
-8.04635e-08
-2.53769e-07
-8.11393e-08
-2.37923e-07
-8.14501e-08
-2.22071e-07
-8.13868e-08
-2.06282e-07
-8.0942e-08
-1.90629e-07
-8.01096e-08
-1.75184e-07
-7.88857e-08
-1.60019e-07
-7.72682e-08
-1.45206e-07
-7.52577e-08
-1.30815e-07
-7.28569e-08
-1.16916e-07
-7.00721e-08
-1.03577e-07
-6.69126e-08
-9.08621e-08
-6.33916e-08
-7.8832e-08
-5.9527e-08
-6.75435e-08
-5.53418e-08
-5.70482e-08
-5.08648e-08
-4.73912e-08
-4.61322e-08
-3.86103e-08
-4.11882e-08
-3.07353e-08
-3.60869e-08
-2.3786e-08
-3.08938e-08
-1.7772e-08
-2.56883e-08
-1.26909e-08
-2.05658e-08
-8.52775e-09
-1.5641e-08
-5.25408e-09
-1.10513e-08
-2.82742e-09
-6.961e-09
-1.19128e-09
-3.56525e-09
-2.75864e-10
-1.09454e-09
1.62364e-10
-4.11665e-10
3.98971e-10
-1.69153e-09
2.80893e-09
-3.88485e-09
6.44776e-09
-7.03119e-09
1.10133e-08
-1.11612e-08
1.6261e-08
-1.62952e-08
2.19827e-08
-2.24425e-08
2.8002e-08
-2.96015e-08
3.4171e-08
-3.77598e-08
4.03666e-08
-4.68952e-08
4.64864e-08
-5.69764e-08
5.24462e-08
-6.79636e-08
5.81768e-08
-7.98103e-08
6.36219e-08
-9.24634e-08
6.87363e-08
-1.05865e-07
7.34842e-08
-1.19952e-07
7.78376e-08
-1.34658e-07
8.17752e-08
-1.49916e-07
8.52816e-08
-1.65653e-07
8.83461e-08
-1.81797e-07
9.09622e-08
-1.98275e-07
9.31269e-08
-2.15013e-07
9.48402e-08
-2.31937e-07
9.61048e-08
-2.48974e-07
9.69254e-08
-2.66052e-07
9.73088e-08
-2.83099e-07
9.72632e-08
-3.00045e-07
9.67985e-08
-3.16822e-07
9.59254e-08
-3.33362e-07
9.46558e-08
-3.49601e-07
9.30026e-08
-3.65476e-07
9.09793e-08
-3.80928e-07
8.86e-08
-3.95897e-07
8.58794e-08
-4.10328e-07
8.28328e-08
-4.24169e-07
7.94758e-08
-4.37369e-07
7.58244e-08
-4.49881e-07
7.18951e-08
-4.61659e-07
6.77043e-08
-4.72663e-07
6.32692e-08
-4.82852e-07
5.8607e-08
-4.92192e-07
5.37349e-08
-5.0065e-07
4.86709e-08
-5.08195e-07
4.34328e-08
-5.14801e-07
3.80388e-08
-5.20444e-07
3.25073e-08
-5.25104e-07
2.68569e-08
-5.28765e-07
2.11066e-08
-5.31412e-07
1.52754e-08
-5.33035e-07
9.38263e-09
-5.33627e-07
3.44793e-09
-5.33184e-07
-2.50892e-09
-5.31706e-07
-8.46788e-09
-5.29197e-07
-1.44087e-08
-5.25663e-07
-2.03109e-08
-5.21115e-07
-2.6154e-08
-5.15567e-07
-3.1917e-08
-5.09035e-07
-3.7579e-08
-5.01542e-07
-4.31189e-08
-4.93111e-07
-4.85157e-08
-4.83771e-07
-5.37482e-08
-4.73554e-07
-5.87951e-08
-4.62496e-07
-6.36354e-08
-4.50634e-07
-6.82482e-08
-4.38012e-07
-7.26126e-08
-4.24676e-07
-7.67081e-08
-4.10673e-07
-8.05146e-08
-3.96058e-07
-8.40123e-08
-3.80886e-07
-8.71819e-08
-3.65214e-07
-9.0005e-08
-3.49106e-07
-9.24636e-08
-3.32624e-07
-9.45408e-08
-3.15837e-07
-9.62205e-08
-2.98812e-07
-9.74879e-08
-2.81622e-07
-9.83292e-08
-2.6434e-07
-9.87324e-08
-2.4704e-07
-9.86868e-08
-2.29798e-07
-9.81837e-08
-2.12692e-07
-9.72163e-08
-1.95797e-07
-9.57801e-08
-1.79192e-07
-9.3873e-08
-1.62954e-07
-9.14961e-08
-1.47158e-07
-8.86532e-08
-1.31878e-07
-8.5352e-08
-1.17186e-07
-8.1604e-08
-1.03152e-07
-7.74256e-08
-8.98414e-08
-7.28381e-08
-7.73142e-08
-6.78689e-08
-6.56267e-08
-6.25524e-08
-5.48282e-08
-5.69307e-08
-4.4961e-08
-5.10554e-08
-3.60592e-08
-4.49886e-08
-2.8148e-08
-3.88051e-08
-2.12424e-08
-3.25939e-08
-1.53469e-08
-2.64613e-08
-1.04545e-08
-2.05334e-08
-6.54656e-09
-1.49592e-08
-3.59282e-09
-9.91475e-09
-1.55203e-09
-5.60604e-09
-3.73485e-10
-2.27309e-09
-2.11124e-10
-5.10522e-10
9.09508e-10
-2.06002e-09
4.35839e-09
-4.6703e-09
9.05804e-09
-8.36115e-09
1.47041e-08
-1.31467e-08
2.10466e-08
-1.90334e-08
2.78695e-08
-2.60191e-08
3.49877e-08
-3.40927e-08
4.22445e-08
-4.32335e-08
4.95074e-08
-5.34125e-08
5.66654e-08
-6.45922e-08
6.36259e-08
-7.67276e-08
7.03122e-08
-8.97671e-08
7.66613e-08
-1.03653e-07
8.26222e-08
-1.18323e-07
8.81539e-08
-1.33709e-07
9.32242e-08
-1.49742e-07
9.78082e-08
-1.66349e-07
1.01888e-07
-1.83453e-07
1.0545e-07
-2.00978e-07
1.08487e-07
-2.18846e-07
1.10995e-07
-2.3698e-07
1.12974e-07
-2.55301e-07
1.14425e-07
-2.73731e-07
1.15355e-07
-2.92193e-07
1.15771e-07
-3.10611e-07
1.15682e-07
-3.28912e-07
1.15099e-07
-3.47022e-07
1.14035e-07
-3.64869e-07
1.12504e-07
-3.82386e-07
1.1052e-07
-3.99506e-07
1.08099e-07
-4.16163e-07
1.05258e-07
-4.32297e-07
1.02013e-07
-4.47848e-07
9.83839e-08
-4.6276e-07
9.43877e-08
-4.76979e-07
9.00434e-08
-4.90455e-07
8.53705e-08
-5.03139e-07
8.03886e-08
-5.14987e-07
7.51176e-08
-5.25958e-07
6.95779e-08
-5.36013e-07
6.37902e-08
-5.45118e-07
5.77753e-08
-5.53239e-07
5.15546e-08
-5.6035e-07
4.51495e-08
-5.66425e-07
3.85818e-08
-5.71441e-07
3.18736e-08
-5.75382e-07
2.50472e-08
-5.78232e-07
1.81254e-08
-5.7998e-07
1.11309e-08
-5.80619e-07
4.08693e-09
-5.80145e-07
-2.983e-09
-5.78558e-07
-1.00552e-08
-5.75861e-07
-1.71057e-08
-5.72061e-07
-2.41104e-08
-5.6717e-07
-3.10448e-08
-5.61203e-07
-3.78843e-08
-5.54178e-07
-4.46042e-08
-5.46117e-07
-5.11795e-08
-5.37047e-07
-5.75854e-08
-5.26999e-07
-6.37968e-08
-5.16005e-07
-6.97888e-08
-5.04104e-07
-7.55364e-08
-4.91337e-07
-8.1015e-08
-4.7775e-07
-8.62e-08
-4.63391e-07
-9.10674e-08
-4.48312e-07
-9.55933e-08
-4.3257e-07
-9.97546e-08
-4.16223e-07
-1.03529e-07
-3.99334e-07
-1.06894e-07
-3.81969e-07
-1.09829e-07
-3.64196e-07
-1.12314e-07
-3.46086e-07
-1.14331e-07
-3.27712e-07
-1.15861e-07
-3.09151e-07
-1.1689e-07
-2.90481e-07
-1.17403e-07
-2.71779e-07
-1.17388e-07
-2.53128e-07
-1.16835e-07
-2.34609e-07
-1.15736e-07
-2.16303e-07
-1.14086e-07
-1.98294e-07
-1.11883e-07
-1.80661e-07
-1.09129e-07
-1.63486e-07
-1.05828e-07
-1.46847e-07
-1.0199e-07
-1.30822e-07
-9.76295e-08
-1.15483e-07
-9.27644e-08
-1.00901e-07
-8.74203e-08
-8.71406e-08
-8.16291e-08
-7.42625e-08
-7.54304e-08
-6.23207e-08
-6.88725e-08
-5.13623e-08
-6.20138e-08
-4.14267e-08
-5.49243e-08
-3.25448e-08
-4.7687e-08
-2.47382e-08
-4.04005e-08
-1.80189e-08
-3.31806e-08
-1.2389e-08
-2.61633e-08
-7.84054e-09
-1.95077e-08
-4.35601e-09
-1.33993e-08
-1.90967e-09
-8.05238e-09
-4.69352e-10
-3.7134e-09
-6.80481e-10
-6.06894e-10
1.51641e-09
-2.42196e-09
6.17346e-09
-5.44568e-09
1.20818e-08
-9.67906e-09
1.89375e-08
-1.51199e-08
2.64874e-08
-2.17607e-08
3.45103e-08
-2.95873e-08
4.28144e-08
-3.85783e-08
5.12355e-08
-4.87044e-08
5.96335e-08
-5.99288e-08
6.78898e-08
-7.22074e-08
7.59045e-08
-8.54892e-08
8.3594e-08
-9.97171e-08
9.08893e-08
-1.14829e-07
9.77337e-08
-1.30756e-07
1.04081e-07
-1.47428e-07
1.09896e-07
-1.64771e-07
1.1515e-07
-1.82705e-07
1.19822e-07
-2.01152e-07
1.23898e-07
-2.20031e-07
1.27366e-07
-2.3926e-07
1.30224e-07
-2.58756e-07
1.3247e-07
-2.78438e-07
1.34107e-07
-2.98222e-07
1.3514e-07
-3.18028e-07
1.35577e-07
-3.37777e-07
1.3543e-07
-3.57389e-07
1.34711e-07
-3.76788e-07
1.33434e-07
-3.95898e-07
1.31614e-07
-4.14648e-07
1.29269e-07
-4.32966e-07
1.26417e-07
-4.50786e-07
1.23077e-07
-4.6804e-07
1.19268e-07
-4.84668e-07
1.15012e-07
-5.00609e-07
1.10329e-07
-5.15806e-07
1.05241e-07
-5.30207e-07
9.97711e-08
-5.4376e-07
9.39417e-08
-5.56419e-07
8.77761e-08
-5.68139e-07
8.12979e-08
-5.7888e-07
7.45311e-08
-5.88604e-07
6.75e-08
-5.97279e-07
6.02294e-08
-6.04874e-07
5.27443e-08
-6.11363e-07
4.50701e-08
-6.16721e-07
3.72325e-08
-6.20932e-07
2.92575e-08
-6.23978e-07
2.11714e-08
-6.25848e-07
1.3001e-08
-6.26534e-07
4.77325e-09
-6.26033e-07
-3.48461e-09
-6.24343e-07
-1.17449e-08
-6.21469e-07
-1.99799e-08
-6.17418e-07
-2.81612e-08
-6.12202e-07
-3.62606e-08
-6.05837e-07
-4.42495e-08
-5.98342e-07
-5.2099e-08
-5.89742e-07
-5.97802e-08
-5.80063e-07
-6.72641e-08