/*--------------------------------*- C++ -*----------------------------------*\
| =========                 |                                                 |
| \\      /  F ield         | OpenFOAM: The Open Source CFD Toolbox           |
|  \\    /   O peration     | Version:  2212                                  |
|   \\  /    A nd           | Website:  www.openfoam.com                      |
|    \\/     M anipulation  |                                                 |
\*---------------------------------------------------------------------------*/
FoamFile
{
    version     2.0;
    format      ascii;
    arch        "LSB;label=32;scalar=64";
    class       volVectorField;
    location    "0.076";
    object      U_0;
}
// * * * * * * * * * * * * * * * * * * * * * * * * * * * * * * * * * * * * * //

dimensions      [0 1 -1 0 0 0 0];

internalField   nonuniform List<vector> 
10000
(
(3.17534e-06 -2.76366e-06 0)
(1.46697e-05 -7.35e-06 0)
(3.33573e-05 -8.70967e-06 0)
(5.07773e-05 -7.53257e-06 0)
(6.22825e-05 -5.07461e-06 0)
(6.53123e-05 -1.9948e-06 0)
(5.86352e-05 1.34157e-06 0)
(4.16857e-05 4.73068e-06 0)
(1.43491e-05 8.05396e-06 0)
(-2.32031e-05 1.12445e-05 0)
(-7.06127e-05 1.42645e-05 0)
(-0.000127401 1.70911e-05 0)
(-0.000193007 1.97107e-05 0)
(-0.000266814 2.21164e-05 0)
(-0.000348174 2.43062e-05 0)
(-0.000436419 2.62804e-05 0)
(-0.000530868 2.80405e-05 0)
(-0.000630839 2.95883e-05 0)
(-0.000735652 3.09284e-05 0)
(-0.000844634 3.20656e-05 0)
(-0.000957119 3.30045e-05 0)
(-0.00107246 3.37511e-05 0)
(-0.00119001 3.43107e-05 0)
(-0.00130916 3.4688e-05 0)
(-0.0014293 3.48898e-05 0)
(-0.00154985 3.4923e-05 0)
(-0.00167023 3.47937e-05 0)
(-0.00178991 3.45085e-05 0)
(-0.00190836 3.40735e-05 0)
(-0.00202506 3.34943e-05 0)
(-0.00213954 3.27774e-05 0)
(-0.00225133 3.19295e-05 0)
(-0.00235998 3.09569e-05 0)
(-0.00246508 2.9866e-05 0)
(-0.00256623 2.86631e-05 0)
(-0.00266304 2.73542e-05 0)
(-0.00275515 2.59451e-05 0)
(-0.00284223 2.44421e-05 0)
(-0.00292396 2.28519e-05 0)
(-0.00300005 2.11799e-05 0)
(-0.00307023 1.94319e-05 0)
(-0.00313423 1.76148e-05 0)
(-0.00319184 1.57352e-05 0)
(-0.00324284 1.37997e-05 0)
(-0.00328705 1.18141e-05 0)
(-0.00332431 9.78424e-06 0)
(-0.00335448 7.71744e-06 0)
(-0.00337745 5.62095e-06 0)
(-0.00339311 3.50085e-06 0)
(-0.00340141 1.36352e-06 0)
(-0.00340229 -7.84402e-07 0)
(-0.00339574 -2.936e-06 0)
(-0.00338175 -5.08337e-06 0)
(-0.00336036 -7.21881e-06 0)
(-0.00333163 -9.33556e-06 0)
(-0.00329562 -1.14264e-05 0)
(-0.00325246 -1.34833e-05 0)
(-0.00320227 -1.54987e-05 0)
(-0.00314522 -1.74648e-05 0)
(-0.00308149 -1.93732e-05 0)
(-0.00301129 -2.12163e-05 0)
(-0.00293488 -2.29868e-05 0)
(-0.00285251 -2.46767e-05 0)
(-0.00276449 -2.6277e-05 0)
(-0.00267113 -2.77795e-05 0)
(-0.00257281 -2.9176e-05 0)
(-0.00246988 -3.04584e-05 0)
(-0.00236277 -3.16187e-05 0)
(-0.0022519 -3.26498e-05 0)
(-0.00213774 -3.35441e-05 0)
(-0.00202077 -3.42936e-05 0)
(-0.0019015 -3.48905e-05 0)
(-0.00178046 -3.53281e-05 0)
(-0.00165821 -3.55997e-05 0)
(-0.00153533 -3.56987e-05 0)
(-0.00141241 -3.56187e-05 0)
(-0.00129007 -3.5354e-05 0)
(-0.00116895 -3.48993e-05 0)
(-0.00104969 -3.42495e-05 0)
(-0.000932952 -3.33997e-05 0)
(-0.000819415 -3.23463e-05 0)
(-0.000709756 -3.1086e-05 0)
(-0.000604662 -2.96163e-05 0)
(-0.000504821 -2.79353e-05 0)
(-0.000410916 -2.60422e-05 0)
(-0.000323626 -2.39376e-05 0)
(-0.000243612 -2.16238e-05 0)
(-0.000171514 -1.91049e-05 0)
(-0.000107939 -1.63879e-05 0)
(-5.34456e-05 -1.34842e-05 0)
(-8.52685e-06 -1.04118e-05 0)
(2.6419e-05 -7.19807e-06 0)
(5.11299e-05 -3.88632e-06 0)
(6.55419e-05 -5.48004e-07 0)
(6.98901e-05 2.69577e-06 0)
(6.48668e-05 5.63726e-06 0)
(5.18421e-05 7.91687e-06 0)
(3.33225e-05 8.89605e-06 0)
(1.43013e-05 7.4943e-06 0)
(2.75581e-06 2.75608e-06 0)
(7.86686e-06 -1.47699e-05 0)
(3.11236e-05 -3.05035e-05 0)
(6.20658e-05 -3.27734e-05 0)
(8.67986e-05 -2.50014e-05 0)
(9.5953e-05 -1.11124e-05 0)
(8.40645e-05 6.30932e-06 0)
(4.78067e-05 2.55755e-05 0)
(-1.46552e-05 4.55887e-05 0)
(-0.000104037 6.56279e-05 0)
(-0.00022026 8.52179e-05 0)
(-0.000362691 0.000104042 0)
(-0.000530298 0.000121887 0)
(-0.000721768 0.000138608 0)
(-0.000935593 0.000154111 0)
(-0.00117013 0.000168333 0)
(-0.00142363 0.00018124 0)
(-0.0016943 0.000192815 0)
(-0.00198031 0.000203052 0)
(-0.00227981 0.000211959 0)
(-0.00259097 0.000219548 0)
(-0.00291195 0.000225842 0)
(-0.00324095 0.000230863 0)
(-0.00357619 0.000234642 0)
(-0.00391593 0.00023721 0)
(-0.00425848 0.0002386 0)
(-0.00460219 0.000238849 0)
(-0.00494546 0.000237997 0)
(-0.00528673 0.000236081 0)
(-0.00562451 0.000233141 0)
(-0.00595736 0.000229218 0)
(-0.0062839 0.000224352 0)
(-0.00660279 0.000218585 0)
(-0.00691277 0.000211958 0)
(-0.00721263 0.000204515 0)
(-0.00750123 0.000196296 0)
(-0.00777745 0.000187343 0)
(-0.00804029 0.000177698 0)
(-0.00828877 0.000167404 0)
(-0.00852198 0.000156504 0)
(-0.00873908 0.000145039 0)
(-0.00893928 0.000133053 0)
(-0.00912186 0.000120591 0)
(-0.00928617 0.000107695 0)
(-0.00943161 9.44099e-05 0)
(-0.00955765 8.07805e-05 0)
(-0.00966383 6.68518e-05 0)
(-0.00974975 5.26698e-05 0)
(-0.00981509 3.82811e-05 0)
(-0.00985956 2.37315e-05 0)
(-0.00988299 9.06796e-06 0)
(-0.00988525 -5.66061e-06 0)
(-0.00986628 -2.04052e-05 0)
(-0.00982609 -3.51162e-05 0)
(-0.00976478 -4.97425e-05 0)
(-0.00968252 -6.42334e-05 0)
(-0.00957952 -7.85377e-05 0)
(-0.00945612 -9.26024e-05 0)
(-0.0093127 -0.000106374 0)
(-0.00914972 -0.000119799 0)
(-0.00896772 -0.000132824 0)
(-0.00876733 -0.000145395 0)
(-0.00854924 -0.000157457 0)
(-0.00831423 -0.000168957 0)
(-0.00806315 -0.000179838 0)
(-0.00779695 -0.000190045 0)
(-0.00751662 -0.000199524 0)
(-0.00722325 -0.000208221 0)
(-0.00691801 -0.000216085 0)
(-0.00660214 -0.000223063 0)
(-0.00627693 -0.000229104 0)
(-0.00594378 -0.00023416 0)
(-0.00560412 -0.000238182 0)
(-0.00525947 -0.000241125 0)
(-0.0049114 -0.000242945 0)
(-0.00456154 -0.000243601 0)
(-0.00421158 -0.000243056 0)
(-0.00386325 -0.000241275 0)
(-0.00351832 -0.000238227 0)
(-0.00317862 -0.000233883 0)
(-0.00284598 -0.000228223 0)
(-0.00252227 -0.000221227 0)
(-0.00220938 -0.000212884 0)
(-0.00190918 -0.000203189 0)
(-0.00162355 -0.000192146 0)
(-0.00135435 -0.000179769 0)
(-0.00110338 -0.000166082 0)
(-0.000872399 -0.000151127 0)
(-0.000663058 -0.000134962 0)
(-0.000476894 -0.000117673 0)
(-0.000315272 -9.93816e-05 0)
(-0.000179327 -8.02562e-05 0)
(-6.98817e-05 -6.05356e-05 0)
(1.26657e-05 -4.05604e-05 0)
(6.84997e-05 -2.08265e-05 0)
(9.86162e-05 -2.06876e-06 0)
(0.000105135 1.46102e-05 0)
(9.16526e-05 2.75491e-05 0)
(6.38005e-05 3.424e-05 0)
(3.10533e-05 3.10518e-05 0)
(7.48545e-06 1.42896e-05 0)
(8.85681e-06 -3.34839e-05 0)
(3.30917e-05 -6.178e-05 0)
(6.07588e-05 -6.02843e-05 0)
(7.49214e-05 -3.74648e-05 0)
(6.433e-05 -4.03089e-07 0)
(2.19574e-05 4.55976e-05 0)
(-5.68312e-05 9.6727e-05 0)
(-0.000174802 0.000150295 0)
(-0.000333215 0.00020441 0)
(-0.000532192 0.000257741 0)
(-0.000771009 0.000309347 0)
(-0.00104831 0.000358564 0)
(-0.00136227 0.000404922 0)
(-0.00171073 0.000448093 0)
(-0.00209125 0.000487853 0)
(-0.00250126 0.000524057 0)
(-0.00293803 0.000556614 0)
(-0.00339877 0.000585485 0)
(-0.00388064 0.000610658 0)
(-0.00438079 0.000632149 0)
(-0.00489638 0.000649999 0)
(-0.00542457 0.000664264 0)
(-0.00596257 0.000675012 0)
(-0.00650767 0.000682322 0)
(-0.00705716 0.000686284 0)
(-0.00760843 0.000686992 0)
(-0.00815895 0.000684547 0)
(-0.00870624 0.000679056 0)
(-0.00924792 0.000670627 0)
(-0.00978169 0.000659374 0)
(-0.0103053 0.00064541 0)
(-0.0108167 0.000628851 0)
(-0.0113138 0.000609814 0)
(-0.0117947 0.00058842 0)
(-0.0122575 0.000564786 0)
(-0.0127005 0.000539034 0)
(-0.013122 0.000511284 0)
(-0.0135204 0.000481659 0)
(-0.0138944 0.000450281 0)
(-0.0142425 0.000417275 0)
(-0.0145634 0.000382765 0)
(-0.0148562 0.000346877 0)
(-0.0151195 0.000309739 0)
(-0.0153526 0.000271479 0)
(-0.0155546 0.000232226 0)
(-0.0157247 0.000192113 0)
(-0.0158622 0.000151271 0)
(-0.0159668 0.000109834 0)
(-0.0160378 6.79383e-05 0)
(-0.0160751 2.57217e-05 0)
(-0.0160784 -1.66761e-05 0)
(-0.0160477 -5.91123e-05 0)
(-0.015983 -0.000101443 0)
(-0.0158843 -0.000143523 0)
(-0.0157521 -0.000185205 0)
(-0.0155867 -0.000226338 0)
(-0.0153885 -0.000266772 0)
(-0.0151583 -0.000306353 0)
(-0.0148968 -0.000344928 0)
(-0.0146048 -0.000382341 0)
(-0.0142834 -0.000418437 0)
(-0.0139336 -0.000453061 0)
(-0.0135568 -0.000486055 0)
(-0.0131543 -0.000517262 0)
(-0.0127276 -0.000546527 0)
(-0.0122783 -0.000573695 0)
(-0.0118082 -0.000598614 0)
(-0.0113191 -0.000621136 0)
(-0.010813 -0.000641113 0)
(-0.010292 -0.000658403 0)
(-0.00975831 -0.000672867 0)
(-0.00921421 -0.000684373 0)
(-0.00866212 -0.000692793 0)
(-0.00810453 -0.000698008 0)
(-0.00754404 -0.000699905 0)
(-0.00698331 -0.000698382 0)
(-0.00642509 -0.000693346 0)
(-0.00587218 -0.000684716 0)
(-0.00532745 -0.000672423 0)
(-0.00479378 -0.000656413 0)
(-0.00427411 -0.000636648 0)
(-0.00377136 -0.00061311 0)
(-0.00328847 -0.000585802 0)
(-0.00282834 -0.000554756 0)
(-0.0023938 -0.000520034 0)
(-0.00198763 -0.000481736 0)
(-0.00161245 -0.00044001 0)
(-0.00127075 -0.000395068 0)
(-0.000964763 -0.000347197 0)
(-0.000696452 -0.00029679 0)
(-0.000467377 -0.000244381 0)
(-0.000278589 -0.000190696 0)
(-0.000130472 -0.00013673 0)
(-2.25276e-05 -8.38598e-05 0)
(4.68953e-05 -3.40021e-05 0)
(8.09537e-05 1.0158e-05 0)
(8.46459e-05 4.48757e-05 0)
(6.52772e-05 6.50172e-05 0)
(3.43559e-05 6.38227e-05 0)
(8.9035e-06 3.33091e-05 0)
(7.67026e-06 -5.13027e-05 0)
(2.5515e-05 -8.69552e-05 0)
(3.85299e-05 -7.46442e-05 0)
(2.94465e-05 -2.81442e-05 0)
(-1.35554e-05 4.1986e-05 0)
(-9.8226e-05 0.000127569 0)
(-0.000229854 0.00022244 0)
(-0.000411715 0.000322051 0)
(-0.000645408 0.000423058 0)
(-0.000931197 0.000523012 0)
(-0.00126831 0.000620117 0)
(-0.00165516 0.000713065 0)
(-0.00208956 0.000800898 0)
(-0.00256882 0.00088293 0)
(-0.00308993 0.000958673 0)
(-0.0036496 0.00102779 0)
(-0.00424435 0.00109007 0)
(-0.00487058 0.00114539 0)
(-0.00552461 0.00119369 0)
(-0.00620271 0.00123497 0)
(-0.00690114 0.00126929 0)
(-0.00761619 0.00129672 0)
(-0.00834416 0.00131739 0)
(-0.00908143 0.00133144 0)
(-0.00982443 0.00133901 0)
(-0.0105697 0.00134028 0)
(-0.0113138 0.00133545 0)
(-0.0120534 0.00132469 0)
(-0.0127854 0.00130823 0)
(-0.0135066 0.00128627 0)
(-0.0142141 0.00125903 0)
(-0.014905 0.00122673 0)
(-0.0155765 0.0011896 0)
(-0.0162262 0.00114787 0)
(-0.0168514 0.00110176 0)
(-0.0174497 0.00105152 0)
(-0.0180191 0.000997368 0)
(-0.0185573 0.000939556 0)
(-0.0190623 0.000878318 0)
(-0.0195325 0.000813897 0)
(-0.0199659 0.00074654 0)
(-0.0203612 0.00067649 0)
(-0.0207168 0.000603998 0)
(-0.0210314 0.000529315 0)
(-0.021304 0.000452695 0)
(-0.0215335 0.000374397 0)
(-0.021719 0.000294681 0)
(-0.0218599 0.000213808 0)
(-0.0219556 0.000132045 0)
(-0.0220056 4.96652e-05 0)
(-0.0220098 -3.3059e-05 0)
(-0.0219679 -0.000115849 0)
(-0.0218801 -0.000198424 0)
(-0.0217466 -0.000280497 0)
(-0.0215677 -0.000361781 0)
(-0.021344 -0.000441983 0)
(-0.0210761 -0.000520807 0)
(-0.0207649 -0.000597956 0)
(-0.0204115 -0.00067313 0)
(-0.020017 -0.000746026 0)
(-0.0195828 -0.000816343 0)
(-0.0191104 -0.000883777 0)
(-0.0186015 -0.000948023 0)
(-0.0180579 -0.00100878 0)
(-0.0174818 -0.00106574 0)
(-0.0168752 -0.00111862 0)
(-0.0162405 -0.00116711 0)
(-0.0155802 -0.00121093 0)
(-0.014897 -0.0012498 0)
(-0.0141938 -0.00128344 0)
(-0.0134733 -0.0013116 0)
(-0.0127388 -0.00133401 0)
(-0.0119935 -0.00135043 0)
(-0.0112406 -0.00136065 0)
(-0.0104837 -0.00136445 0)
(-0.00972637 -0.00136163 0)
(-0.00897218 -0.00135203 0)
(-0.00822491 -0.00133551 0)
(-0.00748833 -0.00131194 0)
(-0.00676628 -0.00128123 0)
(-0.00606262 -0.00124333 0)
(-0.00538121 -0.00119822 0)
(-0.00472589 -0.00114594 0)
(-0.00410044 -0.00108656 0)
(-0.00350855 -0.00102025 0)
(-0.00295378 -0.00094724 0)
(-0.0024395 -0.000867848 0)
(-0.00196886 -0.000782528 0)
(-0.00154466 -0.000691886 0)
(-0.0011693 -0.000596727 0)
(-0.000844654 -0.000498119 0)
(-0.000571933 -0.000397481 0)
(-0.000351488 -0.000296698 0)
(-0.000182597 -0.000198292 0)
(-6.31899e-05 -0.000105639 0)
(1.04818e-05 -2.32728e-05 0)
(4.41473e-05 4.27617e-05 0)
(4.59173e-05 8.45435e-05 0)
(2.79905e-05 9.19541e-05 0)
(7.98631e-06 5.19344e-05 0)
(5.28407e-06 -6.30951e-05 0)
(1.20282e-05 -9.6852e-05 0)
(2.39393e-06 -6.47184e-05 0)
(-3.92003e-05 1.45898e-05 0)
(-0.000124079 0.000127123 0)
(-0.000260104 0.000261916 0)
(-0.000452714 0.000410478 0)
(-0.000705325 0.00056634 0)
(-0.00101964 0.000724604 0)
(-0.00139593 0.000881567 0)
(-0.00183335 0.00103444 0)
(-0.0023301 0.00118113 0)
(-0.00288369 0.00132008 0)
(-0.00349102 0.00145013 0)
(-0.00414857 0.00157044 0)
(-0.00485249 0.00168041 0)
(-0.00559866 0.00177966 0)
(-0.00638278 0.00186791 0)
(-0.00720046 0.00194504 0)
(-0.00804721 0.00201101 0)
(-0.00891851 0.00206588 0)
(-0.00980986 0.00210974 0)
(-0.0107168 0.00214275 0)
(-0.0116348 0.00216511 0)
(-0.0125596 0.00217705 0)
(-0.013487 0.00217885 0)
(-0.0144126 0.00217078 0)
(-0.0153325 0.00215315 0)
(-0.0162428 0.00212628 0)
(-0.0171395 0.0020905 0)
(-0.0180191 0.00204617 0)
(-0.018878 0.00199363 0)
(-0.0197127 0.00193325 0)
(-0.0205201 0.00186539 0)
(-0.0212971 0.00179042 0)
(-0.0220408 0.00170873 0)
(-0.0227483 0.00162069 0)
(-0.023417 0.0015267 0)
(-0.0240446 0.00142713 0)
(-0.0246287 0.0013224 0)
(-0.0251672 0.00121288 0)
(-0.0256581 0.00109899 0)
(-0.0260998 0.000981126 0)
(-0.0264905 0.000859705 0)
(-0.026829 0.00073514 0)
(-0.0271138 0.000607849 0)
(-0.0273441 0.000478257 0)
(-0.0275188 0.000346795 0)
(-0.0276373 0.000213897 0)
(-0.0276992 8.0006e-05 0)
(-0.027704 -5.44321e-05 0)
(-0.0276516 -0.000188964 0)
(-0.0275422 -0.000323132 0)
(-0.0273759 -0.000456471 0)
(-0.0271534 -0.00058851 0)
(-0.0268751 -0.000718776 0)
(-0.026542 -0.000846788 0)
(-0.0261552 -0.000972063 0)
(-0.0257159 -0.00109411 0)
(-0.0252257 -0.00121245 0)
(-0.0246861 -0.00132659 0)
(-0.0240992 -0.00143603 0)
(-0.0234669 -0.00154029 0)
(-0.0227917 -0.00163887 0)
(-0.0220759 -0.00173129 0)
(-0.0213225 -0.00181708 0)
(-0.0205341 -0.00189575 0)
(-0.019714 -0.00196685 0)
(-0.0188654 -0.00202994 0)
(-0.0179918 -0.00208456 0)
(-0.0170968 -0.00213029 0)
(-0.0161842 -0.00216675 0)
(-0.0152581 -0.00219354 0)
(-0.0143225 -0.00221031 0)
(-0.0133817 -0.00221672 0)
(-0.01244 -0.0022125 0)
(-0.0115019 -0.00219736 0)
(-0.010572 -0.0021711 0)
(-0.00965485 -0.00213353 0)
(-0.00875518 -0.00208454 0)
(-0.00787767 -0.00202407 0)
(-0.00702698 -0.0019521 0)
(-0.00620774 -0.00186874 0)
(-0.00542451 -0.00177415 0)
(-0.00468169 -0.00166862 0)
(-0.00398354 -0.00155256 0)
(-0.00333405 -0.00142655 0)
(-0.00273689 -0.00129137 0)
(-0.00219536 -0.00114803 0)
(-0.00171221 -0.000997864 0)
(-0.00128959 -0.00084261 0)
(-0.000928853 -0.000684513 0)
(-0.000630372 -0.000526496 0)
(-0.000393349 -0.000372361 0)
(-0.000215546 -0.000227054 0)
(-9.30027e-05 -9.70071e-05 0)
(-1.97625e-05 9.44398e-06 0)
(1.24851e-05 8.1661e-05 0)
(1.55994e-05 0.000106231 0)
(5.81841e-06 6.52967e-05 0)
(2.3209e-06 -6.6713e-05 0)
(-4.88479e-06 -8.62076e-05 0)
(-4.25572e-05 -2.35788e-05 0)
(-0.000123219 9.84447e-05 0)
(-0.000256897 0.000262875 0)
(-0.00045108 0.000456179 0)
(-0.00071096 0.000667665 0)
(-0.00103977 0.000888994 0)
(-0.0014391 0.0011137 0)
(-0.00190908 0.00133676 0)
(-0.00244869 0.00155434 0)
(-0.00305593 0.00176346 0)
(-0.00372799 0.00196187 0)
(-0.00446141 0.00214788 0)
(-0.00525224 0.0023202 0)
(-0.00609613 0.00247793 0)
(-0.00698841 0.00262042 0)
(-0.00792421 0.00274725 0)
(-0.00889847 0.00285817 0)
(-0.00990607 0.00295308 0)
(-0.0109418 0.003032 0)
(-0.0120005 0.00309504 0)
(-0.0130769 0.00314241 0)
(-0.0141659 0.00317436 0)
(-0.0152624 0.0031912 0)
(-0.0163614 0.0031933 0)
(-0.0174582 0.00318105 0)
(-0.0185478 0.00315489 0)
(-0.0196257 0.00311526 0)
(-0.0206875 0.00306263 0)
(-0.0217287 0.00299752 0)
(-0.0227453 0.00292041 0)
(-0.0237333 0.00283184 0)
(-0.0246888 0.00273233 0)
(-0.0256082 0.00262243 0)
(-0.026488 0.00250269 0)
(-0.0273251 0.00237366 0)
(-0.0281162 0.0022359 0)
(-0.0288585 0.00208999 0)
(-0.0295493 0.0019365 0)
(-0.0301862 0.00177602 0)
(-0.0307667 0.00160912 0)
(-0.0312889 0.00143642 0)
(-0.0317509 0.00125851 0)
(-0.0321509 0.00107601 0)
(-0.0324876 0.000889512 0)
(-0.0327596 0.000699659 0)
(-0.032966 0.000507076 0)
(-0.0331058 0.000312406 0)
(-0.0331786 0.000116294 0)
(-0.0331839 -8.06032e-05 0)
(-0.0331217 -0.000277621 0)
(-0.032992 -0.000474088 0)
(-0.032795 -0.000669322 0)
(-0.0325315 -0.000862635 0)
(-0.0322022 -0.00105333 0)
(-0.031808 -0.00124071 0)
(-0.0313503 -0.00142407 0)
(-0.0308307 -0.00160269 0)
(-0.0302507 -0.00177587 0)
(-0.0296125 -0.00194287 0)
(-0.0289183 -0.002103 0)
(-0.0281706 -0.00225554 0)
(-0.027372 -0.00239976 0)
(-0.0265256 -0.00253498 0)
(-0.0256345 -0.0026605 0)
(-0.0247021 -0.00277563 0)
(-0.0237321 -0.0028797 0)
(-0.0227284 -0.00297206 0)
(-0.0216951 -0.00305209 0)
(-0.0206363 -0.00311917 0)
(-0.0195566 -0.00317272 0)
(-0.0184606 -0.00321222 0)
(-0.0173531 -0.00323714 0)
(-0.0162391 -0.00324703 0)
(-0.0151237 -0.00324146 0)
(-0.0140121 -0.00322009 0)
(-0.0129096 -0.0031826 0)
(-0.0118216 -0.00312878 0)
(-0.0107535 -0.00305846 0)
(-0.00971062 -0.00297159 0)
(-0.00869848 -0.0028682 0)
(-0.00772236 -0.00274846 0)
(-0.00678748 -0.00261267 0)
(-0.00589891 -0.00246128 0)
(-0.00506146 -0.00229495 0)
(-0.00427969 -0.00211455 0)
(-0.00355773 -0.00192127 0)
(-0.00289929 -0.00171662 0)
(-0.00230748 -0.00150253 0)
(-0.00178468 -0.00128151 0)
(-0.00133243 -0.00105673 0)
(-0.000951239 -0.000832218 0)
(-0.000640378 -0.000613117 0)
(-0.000397674 -0.000405962 0)
(-0.000219276 -0.000219049 0)
(-9.93964e-05 -6.28928e-05 0)
(-2.99968e-05 4.93396e-05 0)
(-3.46991e-07 0.000101248 0)
(3.03241e-06 7.1006e-05 0)
(-8.84328e-07 -6.09314e-05 0)
(-2.36502e-05 -5.16897e-05 0)
(-9.27701e-05 5.35012e-05 0)
(-0.000216916 0.000228902 0)
(-0.000404267 0.000454987 0)
(-0.000661561 0.00071597 0)
(-0.000993419 0.000999156 0)
(-0.00140264 0.00129446 0)
(-0.00189045 0.00159388 0)
(-0.00245674 0.00189113 0)
(-0.0031002 0.00218125 0)
(-0.00381855 0.00246037 0)
(-0.00460867 0.00272549 0)
(-0.00546674 0.0029743 0)
(-0.00638841 0.00320507 0)
(-0.00736889 0.00341648 0)
(-0.00840301 0.00360762 0)
(-0.00948538 0.00377785 0)
(-0.0106104 0.00392678 0)
(-0.0117723 0.00405421 0)
(-0.0129654 0.00416014 0)
(-0.0141837 0.00424465 0)
(-0.0154216 0.00430799 0)
(-0.0166731 0.00435046 0)
(-0.0179325 0.00437247 0)
(-0.0191944 0.00437447 0)
(-0.020453 0.00435697 0)
(-0.0217032 0.00432055 0)
(-0.0229396 0.0042658 0)
(-0.0241571 0.00419336 0)
(-0.0253509 0.00410388 0)
(-0.0265162 0.00399804 0)
(-0.0276485 0.00387656 0)
(-0.0287435 0.00374014 0)
(-0.0297969 0.00358953 0)
(-0.0308049 0.00342546 0)
(-0.0317638 0.0032487 0)
(-0.0326699 0.00306001 0)
(-0.0335201 0.00286017 0)
(-0.0343113 0.00264997 0)
(-0.0350405 0.00243021 0)
(-0.0357053 0.00220169 0)
(-0.0363032 0.00196522 0)
(-0.036832 0.00172164 0)
(-0.0372899 0.00147178 0)
(-0.0376751 0.00121647 0)
(-0.0379864 0.000956584 0)
(-0.0382224 0.000692978 0)
(-0.0383822 0.000426531 0)
(-0.0384653 0.000158129 0)
(-0.0384711 -0.000111328 0)
(-0.0383996 -0.00038093 0)
(-0.0382507 -0.000649757 0)
(-0.038025 -0.000916877 0)
(-0.037723 -0.00118135 0)
(-0.0373457 -0.00144222 0)
(-0.0368942 -0.00169854 0)
(-0.03637 -0.00194934 0)
(-0.0357749 -0.00219365 0)
(-0.0351107 -0.00243049 0)
(-0.0343799 -0.0026589 0)
(-0.0335849 -0.00287789 0)
(-0.0327287 -0.00308649 0)
(-0.0318142 -0.00328374 0)
(-0.030845 -0.00346869 0)
(-0.0298245 -0.0036404 0)
(-0.0287567 -0.00379792 0)
(-0.0276458 -0.00394037 0)
(-0.0264961 -0.00406687 0)
(-0.0253122 -0.00417655 0)
(-0.0240991 -0.00426861 0)
(-0.0228617 -0.00434228 0)
(-0.0216053 -0.00439683 0)
(-0.0203355 -0.00443159 0)
(-0.0190577 -0.00444593 0)
(-0.0177778 -0.00443933 0)
(-0.0165016 -0.0044113 0)
(-0.015235 -0.00436147 0)
(-0.0139843 -0.00428956 0)
(-0.0127553 -0.0041954 0)
(-0.0115543 -0.00407892 0)
(-0.0103872 -0.00394024 0)
(-0.00925993 -0.00377961 0)
(-0.0081784 -0.00359749 0)
(-0.00714819 -0.00339453 0)
(-0.00617466 -0.00317169 0)
(-0.00526283 -0.0029302 0)
(-0.00441728 -0.00267169 0)
(-0.0036421 -0.00239823 0)
(-0.00294072 -0.00211244 0)
(-0.00231583 -0.00181762 0)
(-0.00176922 -0.00151793 0)
(-0.0013016 -0.00121853 0)
(-0.000912491 -0.000925914 0)
(-0.000599991 -0.000648148 0)
(-0.000360621 -0.000395296 0)
(-0.000189081 -0.000179867 0)
(-7.79764e-05 -1.72722e-05 0)
(-1.82587e-05 7.35575e-05 0)
(-2.46314e-08 6.77789e-05 0)
(-4.14898e-06 -4.51549e-05 0)
(-4.3278e-05 8.67466e-06 0)
(-0.000145835 0.000169572 0)
(-0.000316261 0.000409691 0)
(-0.000560542 0.000707507 0)
(-0.000884395 0.00104534 0)
(-0.00129162 0.00140874 0)
(-0.00178435 0.00178603 0)
(-0.0023633 0.00216781 0)
(-0.00302794 0.00254654 0)
(-0.00377659 0.00291618 0)
(-0.00460661 0.00327195 0)
(-0.00551454 0.00361009 0)
(-0.00649618 0.00392765 0)
(-0.00754679 0.00422238 0)
(-0.00866115 0.00449256 0)
(-0.00983366 0.00473694 0)
(-0.0110584 0.00495466 0)
(-0.0123294 0.00514514 0)
(-0.0136402 0.0053081 0)
(-0.0149846 0.00544343 0)
(-0.0163562 0.00555124 0)
(-0.0177486 0.00563176 0)
(-0.0191554 0.00568536 0)
(-0.0205703 0.00571253 0)
(-0.0219872 0.00571382 0)
(-0.0233999 0.00568989 0)
(-0.0248026 0.00564142 0)
(-0.0261893 0.00556918 0)
(-0.0275546 0.00547397 0)
(-0.0288929 0.00535664 0)
(-0.030199 0.00521805 0)
(-0.0314678 0.00505911 0)
(-0.0326947 0.00488075 0)
(-0.0338748 0.00468391 0)
(-0.0350039 0.00446956 0)
(-0.0360778 0.00423868 0)
(-0.0370925 0.00399227 0)
(-0.0380445 0.00373134 0)
(-0.0389303 0.00345692 0)
(-0.0397467 0.00317004 0)
(-0.0404908 0.00287175 0)
(-0.04116 0.00256312 0)
(-0.0417519 0.00224522 0)
(-0.0422642 0.00191915 0)
(-0.0426953 0.001586 0)
(-0.0430435 0.00124689 0)
(-0.0433074 0.000902951 0)
(-0.0434862 0.000555328 0)
(-0.0435789 0.000205178 0)
(-0.0435852 -0.000146325 0)
(-0.043505 -0.000497995 0)
(-0.0433382 -0.000848632 0)
(-0.0430854 -0.00119702 0)
(-0.0427472 -0.00154194 0)
(-0.0423248 -0.00188214 0)
(-0.0418193 -0.0022164 0)
(-0.0412325 -0.00254343 0)
(-0.0405663 -0.002862 0)
(-0.0398229 -0.00317083 0)
(-0.0390048 -0.00346866 0)
(-0.0381149 -0.00375421 0)
(-0.0371564 -0.00402625 0)
(-0.0361327 -0.0042835 0)
(-0.0350476 -0.00452475 0)
(-0.033905 -0.00474876 0)
(-0.0327094 -0.00495436 0)
(-0.0314653 -0.00514036 0)
(-0.0301775 -0.00530563 0)
(-0.0288513 -0.0054491 0)
(-0.027492 -0.0055697 0)
(-0.0261053 -0.00566646 0)
(-0.0246968 -0.00573844 0)
(-0.0232727 -0.0057848 0)
(-0.0218392 -0.00580475 0)
(-0.0204025 -0.00579762 0)
(-0.0189693 -0.00576283 0)
(-0.0175461 -0.00569991 0)
(-0.0161394 -0.00560852 0)
(-0.0147561 -0.00548849 0)
(-0.0134028 -0.00533978 0)
(-0.0120861 -0.00516258 0)
(-0.0108124 -0.00495725 0)
(-0.00958829 -0.00472443 0)
(-0.00841973 -0.00446505 0)
(-0.00731262 -0.00418034 0)
(-0.00627242 -0.00387196 0)
(-0.00530414 -0.00354203 0)
(-0.00441223 -0.0031932 0)
(-0.0036005 -0.00282882 0)
(-0.00287196 -0.00245304 0)
(-0.00222871 -0.00207097 0)
(-0.00167182 -0.00168895 0)
(-0.00120117 -0.00131472 0)
(-0.00081531 -0.000957833 0)
(-0.000511364 -0.000629949 0)
(-0.000284759 -0.000345351 0)
(-0.000129019 -0.000121358 0)
(-3.71259e-05 2.10771e-05 0)
(-3.16088e-06 5.49657e-05 0)
(-7.37513e-06 -1.91819e-05 0)
(-6.31614e-05 9.58833e-05 0)
(-0.000200152 0.000326394 0)
(-0.000418449 0.000643141 0)
(-0.000721677 0.0010231 0)
(-0.00111434 0.00144706 0)
(-0.00159922 0.0018991 0)
(-0.00217763 0.00236614 0)
(-0.00284963 0.00283749 0)
(-0.00361412 0.00330444 0)
(-0.00446897 0.00375995 0)
(-0.0054111 0.00419834 0)
(-0.00643663 0.00461509 0)
(-0.007541 0.00500659 0)
(-0.00871904 0.00537007 0)
(-0.00996511 0.00570338 0)
(-0.0112732 0.00600493 0)
(-0.012637 0.00627359 0)
(-0.0140498 0.00650859 0)
(-0.015505 0.0067095 0)
(-0.0169958 0.00687617 0)
(-0.0185152 0.00700865 0)
(-0.0200563 0.0071072 0)
(-0.0216123 0.00717224 0)
(-0.0231763 0.00720432 0)
(-0.0247415 0.0072041 0)
(-0.0263015 0.00717237 0)
(-0.0278497 0.00710997 0)
(-0.0293799 0.00701783 0)
(-0.0308858 0.00689693 0)
(-0.0323616 0.00674831 0)
(-0.0338016 0.00657305 0)
(-0.0352002 0.00637227 0)
(-0.0365522 0.00614712 0)
(-0.0378526 0.00589877 0)
(-0.0390965 0.00562845 0)
(-0.0402794 0.00533737 0)
(-0.0413971 0.00502678 0)
(-0.0424455 0.00469796 0)
(-0.0434209 0.00435218 0)
(-0.0443198 0.00399076 0)
(-0.0451391 0.00361501 0)
(-0.0458757 0.00322627 0)
(-0.0465272 0.00282589 0)
(-0.0470912 0.00241524 0)
(-0.0475656 0.00199572 0)
(-0.0479488 0.00156872 0)
(-0.0482392 0.00113567 0)
(-0.0484358 0.000698012 0)
(-0.0485378 0.000257197 0)
(-0.0485447 -0.000185295 0)
(-0.0484562 -0.000627973 0)
(-0.0482726 -0.00106933 0)
(-0.0479943 -0.00150783 0)
(-0.0476221 -0.00194195 0)
(-0.0471571 -0.00237013 0)
(-0.0466007 -0.0027908 0)
(-0.0459548 -0.00320239 0)
(-0.0452215 -0.00360332 0)
(-0.0444032 -0.003992 0)
(-0.0435027 -0.00436684 0)
(-0.0425231 -0.00472628 0)
(-0.0414678 -0.00506872 0)
(-0.0403408 -0.00539262 0)
(-0.0391459 -0.00569642 0)
(-0.0378877 -0.00597861 0)
(-0.0365709 -0.0062377 0)
(-0.0352004 -0.00647224 0)
(-0.0337816 -0.00668081 0)
(-0.0323202 -0.00686208 0)
(-0.0308219 -0.00701473 0)
(-0.0292928 -0.00713756 0)
(-0.0277394 -0.00722941 0)
(-0.0261681 -0.00728925 0)
(-0.0245856 -0.00731613 0)
(-0.022999 -0.00730921 0)
(-0.0214152 -0.00726781 0)
(-0.0198413 -0.00719138 0)
(-0.0182846 -0.00707954 0)
(-0.0167523 -0.00693208 0)
(-0.0152516 -0.00674903 0)
(-0.0137896 -0.00653063 0)
(-0.0123735 -0.00627742 0)
(-0.0110099 -0.00599023 0)
(-0.00970564 -0.00567023 0)
(-0.0084669 -0.00531904 0)
(-0.00729962 -0.00493872 0)
(-0.00620923 -0.00453191 0)
(-0.00520057 -0.00410189 0)
(-0.00427783 -0.00365273 0)
(-0.00344441 -0.00318943 0)
(-0.00270282 -0.00271807 0)
(-0.00205456 -0.00224607 0)
(-0.00150001 -0.00178241 0)
(-0.00103833 -0.00133796 0)
(-0.000667409 -0.000925827 0)
(-0.000383586 -0.000561813 0)
(-0.00018149 -0.000264802 0)
(-5.63194e-05 -5.72871e-05 0)
(-6.27335e-06 3.23215e-05 0)
(-1.05147e-05 1.69593e-05 0)
(-8.29298e-05 0.000210285 0)
(-0.00025468 0.00052481 0)
(-0.000521575 0.000930532 0)
(-0.000884817 0.00140336 0)
(-0.00134759 0.00192291 0)
(-0.00191157 0.00247202 0)
(-0.00257707 0.00303643 0)
(-0.00334337 0.0036043 0)
(-0.00420873 0.00416588 0)
(-0.00517045 0.00471317 0)
(-0.00622495 0.00523963 0)
(-0.00736789 0.00574001 0)
(-0.00859428 0.00621008 0)
(-0.00989851 0.00664652 0)
(-0.0112745 0.00704674 0)
(-0.0127159 0.0074088 0)
(-0.0142159 0.0077313 0)
(-0.0157673 0.00801326 0)
(-0.0173632 0.00825411 0)
(-0.0189962 0.00845361 0)
(-0.0206588 0.00861177 0)
(-0.0223437 0.00872885 0)
(-0.0240437 0.00880533 0)
(-0.0257512 0.00884182 0)
(-0.0274592 0.0088391 0)
(-0.0291606 0.00879809 0)
(-0.0308484 0.00871978 0)
(-0.0325159 0.00860527 0)
(-0.0341565 0.00845574 0)
(-0.0357637 0.00827244 0)
(-0.0373315 0.00805666 0)
(-0.038854 0.00780975 0)
(-0.0403253 0.00753312 0)
(-0.0417402 0.00722818 0)
(-0.0430935 0.00689641 0)
(-0.0443802 0.0065393 0)
(-0.0455958 0.00615836 0)
(-0.0467359 0.00575515 0)
(-0.0477965 0.00533124 0)
(-0.0487739 0.00488821 0)
(-0.0496645 0.00442768 0)
(-0.0504654 0.00395129 0)
(-0.0511735 0.00346069 0)
(-0.0517865 0.00295755 0)
(-0.0523022 0.00244358 0)
(-0.0527186 0.00192049 0)
(-0.0530343 0.00139002 0)
(-0.053248 0.000853939 0)
(-0.0533589 0.000314024 0)
(-0.0533664 -0.000227918 0)
(-0.0532703 -0.000770063 0)
(-0.0530709 -0.00131057 0)
(-0.0527685 -0.00184757 0)
(-0.0523641 -0.00237918 0)
(-0.0518589 -0.00290351 0)
(-0.0512544 -0.00341864 0)
(-0.0505525 -0.00392267 0)
(-0.0497557 -0.00441365 0)
(-0.0488664 -0.00488966 0)
(-0.0478877 -0.00534876 0)
(-0.046823 -0.00578903 0)
(-0.045676 -0.00620856 0)
(-0.0444507 -0.00660545 0)
(-0.0431516 -0.00697782 0)
(-0.0417834 -0.00732382 0)
(-0.0403512 -0.00764166 0)
(-0.0388604 -0.00792958 0)
(-0.0373167 -0.00818586 0)
(-0.0357261 -0.00840888 0)
(-0.034095 -0.00859708 0)
(-0.0324298 -0.00874898 0)
(-0.0307375 -0.00886322 0)
(-0.029025 -0.00893855 0)
(-0.0272995 -0.00897383 0)
(-0.0255685 -0.0089681 0)
(-0.0238395 -0.00892053 0)
(-0.0221202 -0.00883049 0)
(-0.0204182 -0.00869756 0)
(-0.0187413 -0.00852153 0)
(-0.0170972 -0.00830247 0)
(-0.0154936 -0.00804073 0)
(-0.013938 -0.00773698 0)
(-0.0124377 -0.00739228 0)
(-0.0109997 -0.00700809 0)
(-0.00963088 -0.00658638 0)
(-0.00833751 -0.00612966 0)
(-0.00712546 -0.0056411 0)
(-0.00600001 -0.00512461 0)
(-0.00496577 -0.00458499 0)
(-0.00402657 -0.00402805 0)
(-0.00318542 -0.00346082 0)
(-0.00244433 -0.00289175 0)
(-0.0018043 -0.00233093 0)
(-0.00126522 -0.00179045 0)
(-0.00082586 -0.00128467 0)
(-0.000483612 -0.000830662 0)
(-0.000234318 -0.000448556 0)
(-7.54554e-05 -0.000161965 0)
(-9.30923e-06 -1.5664e-07 0)
(-1.35451e-05 6.31073e-05 0)
(-0.000102371 0.000351814 0)
(-0.000308756 0.00076503 0)
(-0.000624366 0.00127238 0)
(-0.001048 0.00184908 0)
(-0.00158149 0.00247385 0)
(-0.00222528 0.00312856 0)
(-0.00297865 0.00379793 0)
(-0.00383999 0.00446915 0)
(-0.00480682 0.00513152 0)
(-0.00587579 0.00577618 0)
(-0.00704276 0.0063958 0)
(-0.00830287 0.00698443 0)
(-0.00965065 0.00753723 0)
(-0.0110801 0.00805036 0)
(-0.0125846 0.0085208 0)
(-0.0141574 0.00894626 0)
(-0.0157912 0.00932504 0)
(-0.0174786 0.00965597 0)
(-0.019212 0.00993833 0)
(-0.0209836 0.0101718 0)
(-0.0227857 0.0103563 0)
(-0.0246103 0.0104921 0)
(-0.0264498 0.0105797 0)
(-0.0282963 0.0106199 0)
(-0.0301422 0.0106135 0)
(-0.03198 0.0105616 0)
(-0.0338023 0.0104653 0)
(-0.035602 0.0103259 0)
(-0.0373719 0.0101448 0)
(-0.0391053 0.00992339 0)
(-0.0407958 0.00966331 0)
(-0.0424368 0.0093661 0)
(-0.0440225 0.00903341 0)
(-0.0455471 0.00866695 0)
(-0.0470049 0.00826845 0)
(-0.0483909 0.00783969 0)
(-0.0497 0.00738249 0)
(-0.0509277 0.00689868 0)
(-0.0520697 0.00639014 0)
(-0.0531219 0.00585877 0)
(-0.0540807 0.00530649 0)
(-0.0549428 0.00473527 0)
(-0.0557051 0.00414707 0)
(-0.0563649 0.00354391 0)
(-0.0569199 0.00292781 0)
(-0.0573682 0.00230083 0)
(-0.0577081 0.00166506 0)
(-0.0579382 0.0010226 0)
(-0.0580577 0.000375572 0)
(-0.058066 -0.000273852 0)
(-0.0579629 -0.000923496 0)
(-0.0577485 -0.00157115 0)
(-0.0574235 -0.0022146 0)
(-0.0569887 -0.00285159 0)
(-0.0564453 -0.00347985 0)
(-0.0557952 -0.00409712 0)
(-0.0550403 -0.00470109 0)
(-0.0541831 -0.00528946 0)
(-0.0532263 -0.00585994 0)
(-0.0521733 -0.00641022 0)
(-0.0510276 -0.00693801 0)
(-0.0497931 -0.00744103 0)