/*--------------------------------*- C++ -*----------------------------------*\
| =========                 |                                                 |
| \\      /  F ield         | OpenFOAM: The Open Source CFD Toolbox           |
|  \\    /   O peration     | Version:  2212                                  |
|   \\  /    A nd           | Website:  www.openfoam.com                      |
|    \\/     M anipulation  |                                                 |
\*---------------------------------------------------------------------------*/
FoamFile
{
    version     2.0;
    format      ascii;
    arch        "LSB;label=32;scalar=64";
    class       volScalarField;
    location    "0.023";
    object      p;
}
// * * * * * * * * * * * * * * * * * * * * * * * * * * * * * * * * * * * * * //

dimensions      [0 2 -2 0 0 0 0];

internalField   nonuniform List<scalar> 
10000
(
2.06132e-09
-0.000362862
-0.00115288
-0.00216142
-0.0032656
-0.0044614
-0.00572175
-0.00701598
-0.00831493
-0.00959239
-0.0108254
-0.0119944
-0.0130818
-0.0140718
-0.0149512
-0.01571
-0.0163403
-0.0168353
-0.017189
-0.0173966
-0.0174546
-0.0173607
-0.0171138
-0.0167131
-0.0161589
-0.0154524
-0.0145955
-0.0135906
-0.0124407
-0.0111491
-0.00972003
-0.00815788
-0.00646741
-0.00465359
-0.00272174
-0.000677361
0.00147371
0.00372518
0.0060706
0.00850365
0.0110179
0.0136064
0.0162619
0.0189775
0.021746
0.0245601
0.0274121
0.0302946
0.0332
0.036121
0.0390499
0.0419787
0.0448994
0.0478044
0.0506861
0.0535367
0.0563483
0.0591131
0.0618234
0.0644719
0.0670514
0.0695542
0.071973
0.0743
0.0765285
0.0786518
0.080664
0.0825588
0.08433
0.0859718
0.0874787
0.088846
0.0900701
0.0911474
0.0920751
0.0928507
0.0934721
0.0939382
0.0942489
0.0944051
0.0944089
0.0942638
0.093974
0.0935454
0.0929848
0.0923009
0.091504
0.0906067
0.0896239
0.0885734
0.0874758
0.0863554
0.0852399
0.0841621
0.0831597
0.0822763
0.0815595
0.0810605
0.080831
0.0808586
-0.000406452
-0.000739558
-0.00138891
-0.00222736
-0.00317615
-0.0042097
-0.0053031
-0.0064304
-0.0075664
-0.0086873
-0.00977197
-0.0108021
-0.0117617
-0.0126362
-0.0134124
-0.0140797
-0.0146296
-0.0150555
-0.0153512
-0.015512
-0.0155339
-0.0154142
-0.015151
-0.0147436
-0.0141918
-0.0134962
-0.0126584
-0.0116806
-0.0105651
-0.00931498
-0.00793412
-0.00642647
-0.00479612
-0.00304779
-0.0011867
0.00078199
0.00285296
0.00502028
0.00727776
0.00961938
0.012039
0.01453
0.0170854
0.0196985
0.0223626
0.0250706
0.0278151
0.0305887
0.0333842
0.0361946
0.0390125
0.0418303
0.0446401
0.0474348
0.0502068
0.0529487
0.0556529
0.058312
0.0609187
0.0634661
0.0659471
0.0683544
0.0706809
0.0729195
0.0750637
0.0771075
0.0790451
0.0808706
0.0825783
0.0841626
0.0856185
0.086942
0.0881297
0.0891787
0.0900864
0.0908506
0.0914698
0.0919431
0.0922708
0.0924545
0.0924966
0.0924008
0.0921715
0.0918148
0.0913375
0.0907484
0.0900578
0.0892778
0.0884229
0.08751
0.0865586
0.0855908
0.0846318
0.08371
0.0828573
0.0821088
0.0815002
0.0810683
0.0808592
0.080887
-0.000721533
-0.000957732
-0.0014632
-0.00216865
-0.00299822
-0.00391429
-0.00488885
-0.00589674
-0.00691482
-0.00792144
-0.00889658
-0.00982275
-0.0106852
-0.0114706
-0.0121666
-0.0127626
-0.0132497
-0.0136209
-0.0138706
-0.0139938
-0.0139864
-0.0138455
-0.0135689
-0.0131553
-0.0126047
-0.0119174
-0.0110945
-0.0101376
-0.00904926
-0.00783213
-0.00648963
-0.00502544
-0.00344338
-0.0017478
5.63807e-05
0.00196414
0.00397034
0.00606943
0.00825563
0.0105232
0.0128661
0.0152779
0.017752
0.0202818
0.0228609
0.0254825
0.0281395
0.0308246
0.0335308
0.0362513
0.0389789
0.0417065
0.0444264
0.0471314
0.0498145
0.0524683
0.0550856
0.0576594
0.0601826
0.0626484
0.06505
0.0673804
0.0696326
0.0718001
0.0738768
0.0758568
0.0777347
0.0795048
0.0811618
0.0827002
0.0841157
0.0854044
0.0865633
0.08759
0.088482
0.0892375
0.0898551
0.0903344
0.0906759
0.0908814
0.0909537
0.0908965
0.0907144
0.0904133
0.0900003
0.0894837
0.0888736
0.0881817
0.0874219
0.0866099
0.0857638
0.0849037
0.0840522
0.0832341
0.0824768
0.0818092
0.0812605
0.0808603
0.0806517
0.0806604
-0.000718372
-0.000922198
-0.00135936
-0.00198284
-0.00273164
-0.0035667
-0.00445857
-0.0053819
-0.00631473
-0.00723737
-0.00813123
-0.00897947
-0.0097677
-0.0104836
-0.0111161
-0.011655
-0.0120918
-0.0124191
-0.0126313
-0.0127237
-0.012692
-0.0125331
-0.0122449
-0.011826
-0.0112759
-0.0105948
-0.00978375
-0.00884406
-0.0077778
-0.00658762
-0.0052768
-0.00384871
-0.00230677
-0.000655121
0.00110144
0.0029581
0.00491001
0.00695188
0.0090781
0.0112831
0.0135613
0.0159064
0.0183118
0.0207712
0.0232785
0.0258272
0.0284102
0.0310204
0.033651
0.0362954
0.038947
0.0415985
0.0442426
0.046872
0.04948
0.0520597
0.0546042
0.0571064
0.0595596
0.0619572
0.0642923
0.0665583
0.0687487
0.070857
0.0728774
0.0748045
0.0766328
0.078357
0.0799719
0.0814726
0.0828548
0.084115
0.0852505
0.0862588
0.0871379
0.0878862
0.0885026
0.0889868
0.0893396
0.0895629
0.0896595
0.0896331
0.0894884
0.0892311
0.0888682
0.0884078
0.0878594
0.0872342
0.0865452
0.0858069
0.0850358
0.0842502
0.0834701
0.0827173
0.0820153
0.0813888
0.0808627
0.0804624
0.0802227
0.0801661
-0.000380729
-0.000647768
-0.00108692
-0.00167631
-0.00237819
-0.00315907
-0.00399137
-0.00485117
-0.00571768
-0.00657282
-0.00740013
-0.00818412
-0.00891076
-0.00956821
-0.0101463
-0.0106357
-0.0110283
-0.0113173
-0.0114966
-0.0115614
-0.011508
-0.011333
-0.0110341
-0.01061
-0.0100602
-0.00938461
-0.00858388
-0.00765946
-0.00661322
-0.0054475
-0.00416532
-0.00276985
-0.00126434
0.000347167
0.0020601
0.00386995
0.00577215
0.00776156
0.00983273
0.0119803
0.0141989
0.0164824
0.0188245
0.0212191
0.0236603
0.0261417
0.0286564
0.0311974
0.0337583
0.0363328
0.0389143
0.0414958
0.04407
0.0466298
0.0491689
0.0516806
0.0541583
0.0565951
0.0589842
0.0613192
0.0635935
0.0658008
0.0679347
0.0699892
0.0719586
0.0738375
0.0756207
0.0773032
0.07888
0.0803464
0.0816986
0.0829331
0.0840474
0.0850392
0.0859067
0.0866484
0.0872635
0.0877519
0.0881146
0.0883534
0.088471
0.0884713
0.0883587
0.0881389
0.0878187
0.0874056
0.0869087
0.0863383
0.0857066
0.0850269
0.084314
0.0835842
0.0828552
0.0821459
0.0814762
0.0808671
0.0803397
0.0799158
0.0796168
0.0794545
0.000192904
-0.000182119
-0.0006673
-0.00126052
-0.00194701
-0.00269958
-0.00349438
-0.00431066
-0.00512928
-0.00593345
-0.00670838
-0.00744047
-0.00811704
-0.00872665
-0.00925956
-0.00970732
-0.0100623
-0.0103181
-0.0104689
-0.01051
-0.0104374
-0.010248
-0.00993974
-0.00951105
-0.00896129
-0.00829029
-0.00749865
-0.00658776
-0.00555934
-0.0044155
-0.00315897
-0.00179273
-0.000319965
0.00125539
0.00292891
0.00469636
0.00655348
0.00849533
0.0105166
0.012612
0.0147763
0.0170036
0.0192881
0.0216237
0.0240046
0.0264246
0.0288769
0.0313548
0.0338522
0.0363631
0.0388809
0.0413986
0.0439091
0.0464056
0.0488821
0.0513323
0.0537495
0.056127
0.0584581
0.0607364
0.0629558
0.0651101
0.0671933
0.0691994
0.0711228
0.0729584
0.0747011
0.0763462
0.0778888
0.0793246
0.0806499
0.0818614
0.0829568
0.0839339
0.084791
0.0855268
0.0861406
0.0866324
0.0870033
0.0872552
0.0873906
0.0874133
0.0873277
0.0871393
0.0868542
0.0864798
0.0860244
0.0854975
0.0849104
0.084275
0.0836048
0.0829139
0.0822179
0.0815328
0.0808756
0.0802636
0.0797149
0.0792478
0.0788681
0.0785739
0.000935766
0.000429013
-0.000129606
-0.000754635
-0.00145196
-0.00219963
-0.00297742
-0.00376846
-0.0045562
-0.00532533
-0.00606228
-0.00675496
-0.00739233
-0.00796406
-0.00846083
-0.00887471
-0.00919884
-0.009427
-0.0095538
-0.00957462
-0.00948562
-0.00928392
-0.00896741
-0.0085346
-0.00798476
-0.00731768
-0.00653392
-0.0056348
-0.00462192
-0.00349721
-0.00226323
-0.000922782
0.000521008
0.00206429
0.00370281
0.00543261
0.00724961
0.00914903
0.0111256
0.0131743
0.01529
0.0174671
0.0196999
0.0219826
0.0243094
0.0266742
0.0290705
0.0314919
0.0339325
0.0363863
0.0388469
0.0413074
0.0437608
0.0462009
0.0486215
0.0510167
0.05338
0.0557046
0.0579839
0.0602119
0.0623825
0.0644899
0.0665282
0.0684915
0.0703743
0.0721716
0.0738786
0.0754906
0.0770031
0.078412
0.0797137
0.0809051
0.0819838
0.082948
0.0837959
0.0845264
0.0851388
0.0856333
0.0860109
0.0862733
0.0864232
0.0864642
0.0864004
0.086237
0.0859798
0.0856355
0.0852118
0.0847176
0.0841628
0.0835585
0.0829163
0.0822488
0.0815693
0.0808914
0.0802293
0.079597
0.0790104
0.0784845
0.0780089
0.0775682
0.00179472
0.00114381
0.000494867
-0.000181192
-0.000909174
-0.00167142
-0.00245015
-0.00323187
-0.00400328
-0.00475098
-0.00546281
-0.0061279
-0.00673631
-0.00727905
-0.00774779
-0.0081351
-0.0084345
-0.00864026
-0.00874726
-0.00875117
-0.00864845
-0.00843637
-0.00811282
-0.00767636
-0.00712632
-0.00646254
-0.00568557
-0.00479664
-0.00379718
-0.00268897
-0.00147449
-0.000156565
0.00126177
0.00277684
0.00438465
0.00608139
0.00786308
0.00972498
0.011662
0.0136692
0.0157419
0.0178745
0.0200615
0.0222971
0.0245757
0.0268914
0.029238
0.0316092
0.0339993
0.0364025
0.0388123
0.041222
0.0436249
0.046015
0.0483863
0.050733
0.0530486
0.0553264
0.0575601
0.0597437
0.0618715
0.0639378
0.0659367
0.0678624
0.0697097
0.0714735
0.0731492
0.0747324
0.0762187
0.0776042
0.0788853
0.0800593
0.0811237
0.0820766
0.0829164
0.0836421
0.0842531
0.0847495
0.0851322
0.0854029
0.0855643
0.0856196
0.0855728
0.0854287
0.0851925
0.0848705
0.0844696
0.0839981
0.0834649
0.0828797
0.0822529
0.0815952
0.0809181
0.0802331
0.0795517
0.0788854
0.0782478
0.0776518
0.077071
0.0764767
0.00272702
0.00192662
0.00117719
0.000436932
-0.000335923
-0.0011276
-0.00192231
-0.00270872
-0.00347642
-0.00421446
-0.0049122
-0.00555997
-0.00614892
-0.00667104
-0.00711904
-0.00748626
-0.00776662
-0.00795473
-0.00804588
-0.00803611
-0.00792219
-0.00770153
-0.00737205
-0.00693244
-0.00638214
-0.00572112
-0.00494991
-0.00406963
-0.00308155
-0.00198738
-0.000789633
0.000508867
0.00190519
0.00339586
0.00497706
0.00664508
0.00839599
0.0102251
0.0121275
0.0140986
0.0161336
0.0182273
0.020374
0.0225682
0.0248045
0.0270771
0.0293801
0.0317074
0.0340532
0.0364119
0.0387771
0.0411424
0.0435011
0.0458475
0.0481758
0.0504801
0.052754
0.054991
0.057185
0.05933
0.0614206
0.0634512
0.065416
0.0673094
0.0691259
0.0708608
0.0725095
0.0740679
0.0755317
0.0768971
0.0781607
0.0793197
0.0803718
0.0813151
0.082148
0.0828695
0.0834789
0.0839764
0.0843629
0.0846398
0.0848098
0.0848758
0.0848415
0.0847113
0.08449
0.0841832
0.0837972
0.0833395
0.0828182
0.0822418
0.0816192
0.0809598
0.0802732
0.0795692
0.078857
0.0781458
0.0774477
0.0767737
0.0760822
0.0753328
0.00369824
0.00274791
0.00189223
0.0010785
0.000250406
-0.000581507
-0.00140376
-0.00220682
-0.002982
-0.00372063
-0.00441388
-0.0050533
-0.00563112
-0.0061403
-0.00657438
-0.00692739
-0.00719378
-0.00736861
-0.00744763
-0.00742726
-0.00730445
-0.00707681
-0.00674245
-0.00630023
-0.00574975
-0.005091
-0.00432451
-0.00345133
-0.00247269
-0.00139031
-0.00020671
0.00107534
0.00245302
0.00392302
0.00548158
0.00712503
0.00884952
0.0106506
0.0125233
0.0144633
0.0164659
0.0185259
0.0206379
0.0227963
0.0249961
0.0272316
0.029497
0.0317864
0.034094
0.0364143
0.0387412
0.0410682
0.043389
0.0456978
0.0479891
0.050257
0.0524952
0.0546974
0.0568573
0.0589694
0.0610283
0.0630285
0.0649642
0.06683
0.0686205
0.0703309
0.0719569
0.0734943
0.0749392
0.0762878
0.0775368
0.0786834
0.0797252
0.0806605
0.0814875
0.0822053
0.0828132
0.0833112
0.0837002
0.0839815
0.0841575
0.0842308
0.084205
0.0840838
0.0838717
0.0835736
0.0831955
0.0827438
0.0822258
0.081649
0.0810212
0.0803502
0.0796442
0.0789114
0.0781592
0.0773948
0.0766293
0.075872
0.0750678
0.0741648
0.00468059
0.00358265
0.00261852
0.00172529
0.000833981
-4.65672e-05
-0.000904981
-0.001734
-0.00252628
-0.00327456
-0.0039717
-0.00461064
-0.0051847
-0.00568776
-0.00611404
-0.00645816
-0.0067152
-0.00688081
-0.0069512
-0.00692299
-0.0067934
-0.00656028
-0.00622205
-0.00577779
-0.00522719
-0.00457026
-0.00380748
-0.00293994
-0.00196892
-0.000896193
0.000275747
0.00154423
0.00290655
0.00435942
0.00589912
0.00752205
0.00922444
0.0110019
0.0128498
0.0147636
0.016739
0.0187707
0.0208533
0.0229816
0.0251506
0.0273549
0.0295886
0.031846
0.0341214
0.0364094
0.0387039
0.0409988
0.0432877
0.0455651
0.0478254
0.0500628
0.0522711
0.0544441
0.0565756
0.0586602
0.0606928
0.0626677
0.0645794
0.0664224
0.0681914
0.0698817
0.0714891
0.0730095
0.0744391
0.0757741
0.0770113
0.0781479
0.0791815
0.0801102
0.0809325
0.0816472
0.0822537
0.0827518
0.0831422
0.0834263
0.0836059
0.0836836
0.0836624
0.0835458
0.0833378
0.0830429
0.0826662
0.0822137
0.0816917
0.0811066
0.0804652
0.0797743
0.0790408
0.0782713
0.077472
0.0766483
0.0758104
0.0749668
0.0740497
0.0729967
0.00565117
0.00440961
0.00333726
0.00236118
0.00140101
0.000465157
-0.000436447
-0.00129863
-0.00211567
-0.00288136
-0.00358977
-0.00423517
-0.004812
-0.00531491
-0.00573876
-0.0060788
-0.0063308
-0.00649093
-0.00655576
-0.00652219
-0.00638776
-0.00615065
-0.00580956
-0.00536375
-0.00481302
-0.00415741
-0.00339741
-0.00253418
-0.0015691
-0.000503951
0.000658801
0.00191654
0.0032666
0.00470573
0.00623023
0.00783657
0.00952106
0.0112794
0.0131071
0.0149997
0.0169528
0.0189613
0.02102
0.0231237
0.0252676
0.0274463
0.0296542
0.0318855
0.0341347
0.0363962
0.0386644
0.0409331
0.0431963
0.0454482
0.0476833
0.0498961
0.0520802
0.0542296
0.0563383
0.0584009
0.0604122
0.062367
0.0642596
0.0660845
0.0678365
0.0695111
0.071104
0.0726113
0.0740291
0.0753538
0.0765821
0.0777111
0.0787385
0.0796623
0.080481
0.0811934
0.0817987
0.0822967
0.0826877
0.0829729
0.083154
0.0832334
0.0832136
0.0830978
0.0828896
0.0825928
0.0822121
0.0817527
0.0812201
0.08062
0.0799582
0.0792405
0.0784727
0.0776605
0.0768084
0.0759208
0.0750073
0.0740759
0.073047
0.0718485
0.00659215
0.00521098
0.00403159
0.0029715
0.00193907
0.000942834
-7.72777e-06
-0.000909066
-0.00175697
-0.00254644
-0.00327254
-0.00393055
-0.00451582
-0.00502373
-0.00544989
-0.00579024
-0.00604113
-0.00619911
-0.00626108
-0.00622439
-0.00608694
-0.00584726
-0.00550426
-0.00505733
-0.00450637
-0.00385153
-0.00309342
-0.00223326
-0.00127247
-0.000212887
0.000943085
0.00219283
0.00353365
0.00496231
0.00647518
0.00806877
0.00973948
0.0114831
0.0132951
0.0151712
0.017107
0.0190975
0.0211375
0.0232221
0.0253464
0.0275053
0.0296931
0.0319041
0.0341327
0.0363738
0.0386216
0.0408701
0.0431133
0.0453455
0.0475614
0.0497552
0.0519209
0.0540522
0.0561435
0.0581893
0.0601847
0.0621244
0.0640027
0.0658143
0.067554
0.0692172
0.0707997
0.0722977
0.0737074
0.075025
0.0762473
0.0773712
0.0783944
0.0793151
0.0801315
0.0808425
0.081447
0.0819445
0.0823354
0.0826206
0.0828015
0.0828802
0.0828589
0.0827406
0.0825281
0.0822252
0.0818357
0.0813643
0.0808156
0.0801948
0.0795069
0.0787567
0.0779494
0.0770894
0.0761804
0.0752256
0.0742344
0.0732146
0.0720755
0.0707366
0.00748962
0.00597239
0.00468722
0.00354288
0.00243636
0.00137622
0.000372274
-0.000573177
-0.0014571
-0.00227566
-0.00302485
-0.00370071
-0.0042993
-0.00481677
-0.00524951
-0.0055941
-0.0058473
-0.00600602
-0.00606758
-0.00602983
-0.00589104
-0.00565003
-0.00530588
-0.00485813
-0.00430682
-0.00365222
-0.00289508
-0.00203672
-0.0010786
-2.2535e-05
0.00112901
0.0023734
0.00370795
0.00512938
0.00663411
0.00821874
0.00987972
0.0116129
0.0134137
0.015278
0.0172014
0.0191789
0.0212055
0.0232762
0.0253865
0.0275311
0.0297045
0.0319008
0.0341147
0.036341
0.0385742
0.0408084
0.0430374
0.0452558
0.0474581
0.0496386
0.0517914
0.0539102
0.0559895
0.0580239
0.0600085
0.0619381
0.0638071
0.0656101
0.0673419
0.068998
0.0705744
0.0720671
0.0734722
0.074786
0.0760051
0.0771265
0.0781478
0.079067
0.0798826
0.080593
0.0811971
0.0816943
0.0820846
0.0823687
0.0825479
0.0826239
0.0825988
0.082475
0.0822551
0.0819422
0.0815399
0.081052
0.0804827
0.0798365
0.0791177
0.0783306
0.0774794
0.0765678
0.0755986
0.0745742
0.073504
0.0723958
0.0711488
0.0696741
0.00833158
0.00668203
0.00529236
0.00406348
0.00288184
0.00175562
0.000694898
-0.000298652
-0.00122298
-0.00207511
-0.00285186
-0.00354994
-0.00416607
-0.00469717
-0.00514029
-0.00549248
-0.00575087
-0.00591287
-0.00597628
-0.00593933
-0.00580068
-0.00555934
-0.00521462
-0.00476621
-0.00421432
-0.00355939
-0.00280228
-0.00194437
-0.000987205
6.73727e-05
0.00121685
0.00245853
0.0037897
0.00520713
0.00670727
0.00828671
0.00994195
0.0116689
0.013463
0.0153201
0.0172358
0.0192053
0.0212237
0.023286
0.0253876
0.0275235
0.0296879
0.0318751
0.03408
0.0362973
0.0385217
0.0407472
0.0429678
0.045178
0.0473723
0.0495451
0.0516904
0.0538023
0.0558749
0.0579032
0.0598822
0.0618068
0.0636714
0.0654704
0.0671989
0.0688523
0.0704266
0.0719178
0.073322
0.0746353
0.0758541
0.0769756
0.0779973
0.078917
0.0797331
0.0804439
0.0810482
0.0815452
0.0819346
0.082217
0.0823933
0.0824651
0.082434
0.0823022
0.0820721
0.0817462
0.0813275
0.0808195
0.0802258
0.0795503
0.0787968
0.077969
0.0770704
0.076104
0.0750721
0.0739764
0.0728265
0.0716303
0.0702774
0.0686715
0.00910694
0.00732928
0.00583678
0.0045232
0.00326554
0.00207169
0.000951685
-9.31474e-05
-0.00106146
-0.0019509
-0.0027589
-0.00348287
-0.00412025
-0.00466854
-0.00512525
-0.00548785
-0.00575395
-0.00592147
-0.00598869
-0.00595418
-0.00581686
-0.00557596
-0.00523102
-0.00478196
-0.00422915
-0.0035732
-0.00281506
-0.00195618
-0.000998156
5.70254e-05
0.00120679
0.00244843
0.0037792
0.00519588
0.00669493
0.00827298
0.00992651
0.0116514
0.0134433
0.0152978
0.0172106
0.0191771
0.0211923
0.0232515
0.0253498
0.0274823
0.0296433
0.031827
0.0340284
0.0362424
0.0384636
0.040686
0.0429039
0.0451114
0.0473033
0.0494739
0.0516173
0.0537275
0.0557989
0.0578264
0.059805
0.0617296
0.0635946
0.0653944
0.0671241
0.0687791
0.0703554
0.071849
0.0732559
0.0745719
0.0757936
0.0769178
0.0779421
0.0788642
0.0796823
0.0803946
0.0809998
0.0814968
0.0818853
0.0821655
0.082338
0.0824042
0.0823655
0.0822238
0.081981
0.0816394
0.0812015
0.0806703
0.0800491
0.0793411
0.0785497
0.077678
0.076729
0.0757054
0.0746088
0.0734404
0.0722102
0.0709264
0.0694698
0.0677368
0.00980569
0.00790412
0.00631096
0.00491297
0.00357846
0.00231559
0.00113445
3.58365e-05
-0.000979309
-0.00190907
-0.00275145
-0.0035045
-0.00416627
-0.00473471
-0.00520767
-0.00558307
-0.00585908
-0.00603411
-0.00610678
-0.00607598
-0.00594087
-0.00570095
-0.00535597
-0.0049061
-0.00435189
-0.00369405
-0.00293363
-0.00207221
-0.0011115
-5.35629e-05
0.00109896
0.00234329
0.00367669
0.00509593
0.00659747
0.00817792
0.00983377
0.0115609
0.0133548
0.0152113
0.0171261
0.0190946
0.0211118
0.0231729
0.0252733
0.0274078
0.0295706
0.0317564
0.0339599
0.0361761
0.0383997
0.0406248
0.0428454
0.0450559
0.0472508
0.0494247
0.0515716
0.0536856
0.0557612
0.0577932
0.0597766
0.0617062
0.0635764
0.0653817
0.0671171
0.0687781
0.0703605
0.0718603
0.0732733
0.0745955
0.075823
0.0769527
0.0779819
0.0789083
0.07973
0.080445
0.0810519
0.0815494
0.0819371
0.0822147
0.0823829
0.0824424
0.0823948
0.0822414
0.081984
0.0816245
0.081165
0.0806081
0.0799565
0.0792132
0.0783811
0.0774628
0.0764611
0.075378
0.0742149
0.0729728
0.071662
0.0702912
0.0687327
0.0668764
0.0104195
0.00839763
0.00670586
0.00522402
0.0038123
0.00247922
0.00123536
8.1049e-05
-0.000983155
-0.00195572
-0.00283516
-0.00362003
-0.00430876
-0.0048997
-0.00539111
-0.00578141
-0.00606923
-0.00625338
-0.00633282
-0.00630667
-0.00617436
-0.0059357
-0.00559069
-0.00513967
-0.00458334
-0.00392255
-0.00315848
-0.00229284
-0.00132747
-0.000264552
0.000893239
0.00214311
0.00348225
0.00490742
0.00641505
0.00800174
0.00966394
0.0113975
0.0131979
0.015061
0.0169825
0.0189579
0.0209822
0.0230505
0.0251581
0.0272998
0.02947
0.0316632
0.0338744
0.0360985
0.0383301
0.0405634
0.0427922
0.0450111
0.0472147
0.0493973
0.0515532
0.0536765
0.0557616
0.0578035
0.0597968
0.0617364
0.0636167
0.0654322
0.0671778
0.068849
0.0704416
0.0719515
0.0733743
0.0747059
0.0759423
0.0770802
0.0781167
0.0790493
0.0798762
0.0805952
0.0812048
0.0817035
0.0820906
0.0823657
0.0825289
0.0825811
0.0825234
0.082357
0.0820834
0.0817042
0.081221
0.0806361
0.0799519
0.0791708
0.0782955
0.0773283
0.0762715
0.0751271
0.0738961
0.0725793
0.0711877
0.0697305
0.068072
0.0660956
0.0109414
0.00880206
0.00701327
0.00544815
0.00395905
0.00255501
0.00124713
3.55652e-05
-0.0010795
-0.002097
-0.00301577
-0.00383466
-0.00455243
-0.00516782
-0.00567956
-0.00608653
-0.00638775
-0.00658229
-0.00666941
-0.00664855
-0.00651942
-0.00628209
-0.00593679
-0.00548405
-0.0049247
-0.00425971
-0.00349047
-0.00261882
-0.00164675
-0.000576508
0.000589194
0.00184751
0.00319557
0.00463009
0.00614747
0.00774426
0.00941683
0.011161
0.0129724
0.0148467
0.0167797
0.0187669
0.0208032
0.0228838
0.0250037
0.027158
0.0293409
0.0315471
0.0337714
0.0360089
0.0382541
0.0405011
0.0427438
0.0449767
0.0471944
0.0493913
0.0515617
0.0536999
0.0558
0.057857
0.0598655
0.0618202
0.0637155
0.0655458
0.0673062
0.0689919
0.0705988
0.0721226
0.0735589
0.0749032
0.0761516
0.0773003
0.0783465
0.0792875
0.0801213
0.0808459
0.0814594
0.0819601
0.0823471
0.0826197
0.0827779
0.0828222
0.0827537
0.0825733
0.0822822
0.0818816
0.081373
0.0807581
0.0800391
0.0792181
0.0782974
0.0772792
0.0761655
0.0749581
0.0736579
0.0722656
0.0707931
0.06925
0.0674931
0.0653994
0.0113657
0.00911066
0.00722592
0.00557797
0.00401132
0.00253579
0.00116289
-0.000107286
-0.00127484
-0.00233902
-0.00329893
-0.00415362
-0.00490214
-0.00554365
-0.00607737
-0.00650248
-0.00681826
-0.00702411
-0.00711957
-0.00710438
-0.00697856
-0.00674241
-0.00639637
-0.00594111
-0.00537761
-0.00470706
-0.00393102
-0.00305149
-0.00207053
-0.000990485
0.000185869
0.00145562
0.00281583
0.00426316
0.00579397
0.00740472
0.00909171
0.0108508
0.0126775
0.0145676
0.0165169
0.0185207
0.020574
0.0226718
0.0248093
0.0269814
0.0291824
0.031407
0.03365
0.0359063
0.0381707
0.040437
0.0426992
0.0449517
0.0471891
0.0494059
0.0515966
0.0537551
0.0558757
0.0579532
0.0599821
0.061957
0.0638722
0.0657222
0.0675019
0.0692067
0.070832
0.0723737
0.073827
0.0751875
0.0764509
0.0776134
0.0786718
0.0796235
0.0804663
0.0811981
0.0818169
0.0823207
0.0827082
0.0829787
0.0831319
0.0831683
0.0830885
0.0828934
0.0825837
0.0821604
0.0816248
0.0809783
0.0802226
0.0793598
0.0783919
0.0773208
0.0761484
0.0748766
0.073506
0.0720378
0.0704841
0.0688556
0.0670016
0.0647925
0.0116867
0.00931744
0.00733735
0.00560671
0.00396235
0.00241476
0.000975998
-0.000354004
-0.0015755
-0.00268783
-0.0036903
-0.00458225
-0.00536305
-0.00603217
-0.00658917
-0.00703352
-0.00736476
-0.00758255
-0.00768674
-0.0076774
-0.00755482
-0.00731948
-0.006972
-0.0065132
-0.00594431
-0.0052667
-0.00448213
-0.00359267
-0.00260052
-0.0015081
-0.000318262
0.000965998
0.00234167
0.00380532
0.00535325
0.00698182
0.0086873
0.0104655
0.012312
0.0142225
0.0161927
0.018218
0.0202932
0.0224133
0.0245734
0.0267685
0.0289929
0.0312413
0.0335085
0.0357893
0.0380783
0.0403695
0.0426568
0.0449346
0.0471975
0.04944
0.0516566
0.0538411
0.0559878
0.0580911
0.0601457
0.062146
0.0640863
0.0659609
0.0677647
0.0694929
0.071141
0.0727045
0.0741787
0.0755588
0.0768405
0.0780198
0.0790933
0.0800582
0.0809123
0.0816533
0.0822789
0.0827871
0.0831762
0.0834453
0.083594
0.0836225
0.0835313
0.0833209
0.0829918
0.0825448
0.0819809
0.0813012
0.0805074
0.0796011
0.0785843
0.0774587
0.0762262
0.0748886
0.0734468
0.0719019
0.0702669
0.0685533
0.0666027
0.0642797
0.0118994
0.00941679
0.00734171
0.0055282
0.00380584
0.00218553
0.000679995
-0.000710972
-0.00198762
-0.00314934
-0.00419566
-0.00512616
-0.00594054
-0.00663853
-0.00721987
-0.00768428
-0.00803158
-0.00826172
-0.00837486
-0.00837136
-0.00825169
-0.00801655
-0.00766672
-0.00720325
-0.00662758
-0.0059413
-0.00514628
-0.00424473
-0.00323894
-0.00213145
-0.000925201
0.000376731
0.00177122
0.00325475
0.00482353
0.00647386
0.00820194
0.0100036
0.0118743
0.0138098
0.0158057
0.0178572
0.0199591
0.0221065
0.0242944
0.0265177
0.028771
0.0310486
0.0333454
0.0356562
0.0379755
0.0402972
0.0426153
0.0449242
0.0472183
0.0494924
0.0517405
0.0539567
0.0561351
0.0582698
0.0603555
0.0623865
0.064357
0.0662613
0.0680941
0.0698504
0.0715256
0.0731151
0.0746141
0.0760176
0.0773211
0.0785203
0.079612
0.080593
0.081461
0.0822134
0.0828477
0.0833618
0.0837538
0.0840225
0.0841673
0.0841883
0.0840857
0.0838598
0.0835108
0.0830392
0.0824459
0.0817319
0.0808985
0.0799474
0.0788803
0.0776988
0.0764049
0.0750004
0.0734865
0.0718642
0.0701474
0.0683484
0.0663015
0.0638648
0.0119993
0.00940344
0.00723337
0.00533674
0.00353567
0.00184181
0.000268537
-0.00118441
-0.0025173
-0.00372958
-0.00482092
-0.00579119
-0.00664029
-0.00736813
-0.0079746
-0.00845966
-0.00882342
-0.00906615
-0.00918827
-0.00919033
-0.00907303
-0.00883725
-0.00848401
-0.00801459
-0.00743062
-0.00673387
-0.00592633
-0.00501034
-0.00398833
-0.00286295
-0.00163724
-0.000314377
0.00110238
0.00260941
0.00420288
0.00587899
0.00763388
0.00946333
0.0113628
0.0133279
0.0153541
0.0174366
0.0195702
0.0217499
0.0239709
0.0262277
0.0285151
0.0308274
0.0331593
0.0355057
0.0378609
0.0402189
0.0425737
0.0449194
0.0472507
0.0495621
0.0518476
0.0541012
0.0563168
0.0584886
0.0606108
0.0626779
0.064684
0.0666231
0.0684898
0.070279
0.0719859
0.0736058
0.0751336
0.0765645
0.0778934
0.0791163
0.0802293
0.0812295
0.0821141
0.0828804
0.0835257
0.0840475
0.0844439
0.0847134
0.0848554
0.0848695
0.0847558
0.0845142
0.0841449
0.0836482
0.0830248
0.0822755
0.0814015
0.0804043
0.0792855
0.0780469
0.0766904
0.075218
0.0736309
0.0719303
0.070131
0.0682458
0.0661019
0.0635511
0.0119819
0.00927255
0.0070069
0.00502656
0.00314591
0.0013775
-0.000264566
-0.00178047
-0.00317065
-0.00443463
-0.00557218
-0.00658331
-0.00746806
-0.00822649
-0.00885868
-0.0093648
-0.00974527
-0.0100006
-0.0101315
-0.0101386
-0.0100229
-0.00978551
-0.00942764
-0.00895083
-0.00835685
-0.00764762
-0.00682531
-0.00589236
-0.00485138
-0.00370514
-0.0024568
-0.00110964
0.000332937
0.00186723
0.00348932
0.00519536
0.00698139
0.00884309
0.0107759
0.0127752
0.0148365
0.0169549
0.0191253
0.0213425
0.0236016
0.0258974
0.0282244
0.0305768
0.0329495
0.0353371
0.037734
0.0401341
0.0425313
0.0449198
0.0472942
0.0496488
0.0519775
0.0542743
0.0565328
0.0587471
0.0609114
0.0630201
0.065067
0.0670462
0.068952
0.0707789
0.0725222
0.074177
0.0757381
0.0772004
0.0785588
0.079809
0.080947
0.0819696
0.0828739
0.0836567
0.0843153
0.084847
0.0852496
0.0855215
0.0856618
0.0856698
0.0855454
0.0852883
0.0848987
0.0843766
0.0837225
0.0829371
0.0820216
0.0809773
0.0798057
0.0785087
0.0770884
0.0755469
0.0738854
0.0721053
0.0702222
0.0682496
0.0660072
0.0633409
0.0118434
0.00901943
0.00665714
0.00459194
0.00263072
0.000786693
-0.000925288
-0.0025053
-0.00395389
-0.00527071
-0.00645556
-0.0075085
-0.00842966
-0.00921925
-0.00987756
-0.010405
-0.0108023
-0.01107
-0.0112092
-0.0112207
-0.0111056
-0.0108654
-0.0105016
-0.0100157
-0.00940975
-0.00868585
-0.0078463
-0.00689372
-0.00583085
-0.00466064
-0.00338635
-0.0020114
-0.000539308
0.00102613
0.00268096
0.0044212
0.00624278
0.00814128
0.010112
0.0121504
0.0142517
0.016411
0.0186233
0.0208833
0.023186
0.0255262
0.0278982
0.0302965
0.0327156
0.0351502
0.0375946
0.0400426
0.0424882
0.0449255
0.0473488
0.0497525
0.0521303
0.0544759
0.056783
0.0590455
0.0612576
0.0634133
0.0655065
0.067531
0.0694809
0.0713507
0.0731353
0.0748297
0.0764286
0.0779266
0.0793187
0.0806002
0.0817669
0.0828155
0.0837425
0.0845449
0.0852195
0.0857634
0.0861742
0.0864501
0.0865899
0.0865928
0.0864584
0.0861864
0.0857765
0.0852289
0.0845438
0.0837218
0.082764
0.0816715
0.0804461
0.0790895
0.0776041
0.075992
0.0742545
0.0723933
0.0704246
0.0683628
0.0660201
0.0632362
0.0115797
0.00863937
0.00617893
0.00402743
0.00198438
6.34928e-05
-0.00171965
-0.00336507
-0.00487332
-0.00624409
-0.00747723
-0.00857278
-0.00953096
-0.0103521
-0.0110369
-0.0115858
-0.0119996
-0.0122794
-0.0124261
-0.0124411
-0.0123256
-0.0120812
-0.0117097
-0.0112129
-0.0105928
-0.00985186
-0.00899243
-0.00801734
-0.00692952
-0.00573209
-0.0044284
-0.00302201
-0.00151655
8.40924e-05
0.00177588
0.00355472
0.00541636
0.0073563
0.00936977
0.011452
0.0135984
0.0158038
0.0180632
0.0203713
0.0227231
0.0251133
0.0275361
0.029986
0.0324573
0.0349447
0.0374424
0.0399444
0.0424443
0.0449364
0.0474147
0.0498734
0.0523061
0.0547064
0.0570678
0.0593842
0.0616496
0.0638579
0.0660028
0.0680779
0.0700773
0.0719951
0.0738261
0.075565
0.0772063
0.0787447
0.0801748
0.0814917
0.0826912
0.0837693
0.0847226
0.0855476
0.086241
0.0867996
0.0872208
0.0875026
0.0876434
0.0876425
0.087499
0.0872127
0.086783
0.0862099
0.0854936
0.0846345
0.0836336
0.0824921
0.0812116
0.0797941
0.078242
0.0765576
0.0747422
0.0727979
0.0707414
0.0685881
0.0661428
0.0632388
0.0111867
0.00812777
0.00556722
0.00332778
0.00120125
-0.000798002
-0.00265377
-0.00436603
-0.00593523
-0.00736103
-0.00864331
-0.00978215
-0.0107779
-0.011631
-0.0123423
-0.0129125
-0.0133426
-0.0136338
-0.0137872
-0.0138045
-0.0136873
-0.0134372
-0.0130562
-0.0125463
-0.0119098
-0.0111491
-0.010267
-0.00926639
-0.00815041
-0.00692233
-0.00558566
-0.00414404
-0.00260122
-0.000961188
0.000771906
0.00259381
0.00450012
0.00648621
0.00854725
0.0106784
0.0128749
0.0151317
0.0174436
0.0198054
0.0222119
0.0246577
0.0271371
0.0296443
0.0321738
0.03472
0.0372771
0.039839
0.0423994
0.0449523
0.0474915
0.0500112
0.0525047
0.0549655
0.0573871
0.0597631
0.0620875
0.064354
0.0665562
0.0686875
0.0707418
0.0727129
0.0745955
0.076384
0.0780728
0.0796562
0.0811289
0.0824857
0.083722
0.0848336
0.0858167
0.0866677
0.0873829
0.087959
0.088393
0.0886827
0.0888264
0.0888231
0.0886718
0.0883719
0.087923
0.0873247
0.0865771
0.0856805
0.0846358
0.0834442
0.0821075
0.0806276
0.079007
0.0772482
0.0753529
0.0733229
0.0711762
0.068929
0.0663784
0.0633513
0.0106603
0.00748003
0.00481708
0.00248772
0.000275716
-0.00180374
-0.00373379
-0.00551437
-0.00714583
-0.00862772
-0.00995995
-0.0111427
-0.0121764
-0.0130618
-0.0137996
-0.0143909
-0.0148367
-0.0151384
-0.0152977
-0.0153161
-0.0151956
-0.014938
-0.0145455
-0.0140202
-0.0133647
-0.0125815
-0.0116737
-0.0106444
-0.00949695
-0.00823471
-0.00686132
-0.00538053
-0.00379623
-0.00211254
-0.000333728
0.00153577
0.0034914
0.00552844
0.00764201
0.00982718
0.012079
0.0143925
0.0167624
0.0191835
0.0216503
0.0241575
0.0266993
0.0292699
0.0318635
0.0344745
0.0370971
0.0397251
0.0423521
0.0449719
0.0475782
0.0501648
0.0527252
0.0552525
0.0577402
0.0601818
0.0625711
0.0649016
0.0671668
0.06936
0.0714748
0.0735049
0.0754445