/*--------------------------------*- C++ -*----------------------------------*\
| =========                 |                                                 |
| \\      /  F ield         | OpenFOAM: The Open Source CFD Toolbox           |
|  \\    /   O peration     | Version:  2212                                  |
|   \\  /    A nd           | Website:  www.openfoam.com                      |
|    \\/     M anipulation  |                                                 |
\*---------------------------------------------------------------------------*/
FoamFile
{
    version     2.0;
    format      ascii;
    arch        "LSB;label=32;scalar=64";
    class       volScalarField;
    location    "0.079";
    object      p;
}
// * * * * * * * * * * * * * * * * * * * * * * * * * * * * * * * * * * * * * //

dimensions      [0 2 -2 0 0 0 0];

internalField   nonuniform List<scalar> 
10000
(
-3.86517e-07
9.12163e-05
-0.000127173
-0.000699193
-0.00157663
-0.00270469
-0.00402797
-0.00549324
-0.00705235
-0.00866261
-0.0102865
-0.0118914
-0.0134487
-0.0149338
-0.0163254
-0.0176052
-0.0187575
-0.019769
-0.0206285
-0.0213267
-0.0218559
-0.0222102
-0.0223851
-0.0223773
-0.0221848
-0.0218068
-0.0212432
-0.0204953
-0.0195649
-0.0184548
-0.0171685
-0.0157102
-0.0140844
-0.0122966
-0.0103527
-0.00825902
-0.00602265
-0.00365101
-0.00115197
0.00146621
0.00419483
0.00702501
0.00994754
0.0129529
0.0160314
0.0191729
0.0223671
0.0256034
0.0288711
0.0321594
0.0354575
0.0387541
0.0420383
0.045299
0.048525
0.051705
0.0548282
0.0578835
0.06086
0.0637472
0.0665346
0.0692122
0.07177
0.0741987
0.076489
0.0786322
0.0806203
0.0824459
0.0841021
0.0855829
0.0868826
0.0879966
0.088921
0.0896532
0.0901911
0.0905341
0.0906825
0.0906377
0.0904026
0.0899815
0.0893802
0.0886062
0.0876687
0.0865787
0.0853489
0.0839946
0.0825332
0.0809848
0.0793722
0.0777216
0.0760626
0.0744288
0.0728581
0.071393
0.070081
0.0689738
0.0681239
0.0675818
0.0673892
0.0674955
-9.19588e-05
2.61996e-07
-0.000211395
-0.000721963
-0.00148196
-0.00245294
-0.00359426
-0.00486381
-0.00622166
-0.0076311
-0.00905899
-0.0104756
-0.0118548
-0.0131733
-0.0144109
-0.0155501
-0.0165756
-0.0174744
-0.0182354
-0.0188494
-0.0193086
-0.0196068
-0.0197392
-0.0197023
-0.0194939
-0.0191126
-0.0185582
-0.0178314
-0.0169337
-0.0158674
-0.0146357
-0.013242
-0.0116907
-0.00998673
-0.00813539
-0.00614273
-0.00401524
-0.0017599
0.000615893
0.0031044
0.00569745
0.00838663
0.0111632
0.0140182
0.0169424
0.0199262
0.0229598
0.0260333
0.0291364
0.0322588
0.0353902
0.0385201
0.041638
0.0447334
0.0477957
0.0508143
0.0537788
0.0566787
0.0595039
0.0622444
0.0648904
0.0674324
0.069861
0.0721675
0.0743434
0.0763804
0.0782712
0.0800089
0.0815873
0.0830007
0.0842441
0.0853135
0.0862054
0.0869177
0.0874487
0.0877981
0.0879665
0.0879559
0.0877692
0.0874109
0.086887
0.086205
0.085374
0.0844048
0.0833099
0.082104
0.0808038
0.0794284
0.0779993
0.0765411
0.0750809
0.073649
0.0722786
0.0710065
0.0698717
0.0689151
0.0681749
0.0676863
0.0674949
0.0676017
0.000126266
0.000213106
1.73021e-06
-0.000477357
-0.00117069
-0.00204628
-0.0030712
-0.00421039
-0.00542979
-0.0066975
-0.00798409
-0.00926276
-0.0105094
-0.0117025
-0.0128231
-0.0138546
-0.0147822
-0.0155934
-0.0162774
-0.0168252
-0.0172291
-0.0174829
-0.0175816
-0.0175216
-0.0173005
-0.0169166
-0.0163696
-0.0156599
-0.0147887
-0.013758
-0.0125704
-0.0112293
-0.00973863
-0.00810281
-0.00632691
-0.00441655
-0.00237786
-0.000217442
0.00205771
0.00444025
0.00692247
0.00949638
0.0121537
0.0148857
0.0176838
0.0205387
0.0234411
0.0263814
0.0293499
0.0323368
0.0353322
0.038326
0.0413082
0.0442688
0.0471977
0.0500847
0.05292
0.0556935
0.0583956
0.0610169
0.0635481
0.06598
0.068304
0.0705116
0.0725947
0.0745459
0.0763581
0.0780249
0.0795405
0.0808997
0.0820978
0.0831313
0.0839971
0.0846932
0.0852185
0.0855728
0.085757
0.0857731
0.0856243
0.0853153
0.0848519
0.0842415
0.0834931
0.082617
0.0816256
0.0805327
0.0793544
0.0781086
0.0768155
0.0754979
0.0741807
0.0728912
0.0716588
0.0705155
0.0694946
0.0686301
0.0679532
0.0674934
0.0673028
0.0674101
0.000697652
0.00072501
0.000482208
2.34371e-06
-0.000665308
-0.00149185
-0.00244855
-0.0035052
-0.00463219
-0.00580155
-0.00698708
-0.00816464
-0.00931225
-0.0104101
-0.0114407
-0.0123882
-0.0132389
-0.0139808
-0.0146035
-0.0150982
-0.0154574
-0.0156752
-0.0157466
-0.0156679
-0.0154366
-0.015051
-0.0145106
-0.0138155
-0.0129667
-0.0119661
-0.010816
-0.0095195
-0.00808014
-0.00650218
-0.00479037
-0.00295
-0.000986857
0.00109278
0.00328226
0.00557456
0.00796235
0.010438
0.0129936
0.0156209
0.0183115
0.0210566
0.0238472
0.0266741
0.029528
0.0323995
0.0352791
0.0381572
0.041024
0.0438701
0.0466857
0.0494611
0.0521868
0.0548532
0.0574512
0.0599716
0.0624057
0.0647448
0.0669804
0.0691046
0.0711098
0.0729888
0.0747349
0.0763422
0.0778051
0.0791188
0.0802789
0.0812822
0.082126
0.0828084
0.0833285
0.0836863
0.0838829
0.0839204
0.0838019
0.0835321
0.0831169
0.0825634
0.0818803
0.0810774
0.0801665
0.0791609
0.0780757
0.0769278
0.075736
0.0745211
0.0733059
0.0721151
0.070975
0.0699135
0.0689598
0.0681433
0.0674916
0.0670318
0.0668136
0.0668703
0.00157553
0.00148801
0.00117812
0.000669662
-4.15387e-07
-0.000806408
-0.00172308
-0.00272445
-0.00378495
-0.00488013
-0.00598685
-0.00708359
-0.00815046
-0.00916945
-0.0101243
-0.0110006
-0.0117855
-0.0124675
-0.013037
-0.0134854
-0.0138056
-0.0139917
-0.0140392
-0.0139443
-0.0137043
-0.0133178
-0.0127838
-0.0121026
-0.011275
-0.0103024
-0.00918723
-0.00793212
-0.0065405
-0.00501632
-0.00336409
-0.00158882
0.000304009
0.00230845
0.00441818
0.00662649
0.00892637
0.0113106
0.0137715
0.0163012
0.0188918
0.0215346
0.0242211
0.0269425
0.0296899
0.0324541
0.035226
0.0379965
0.0407563
0.0434961
0.0462065
0.0488784
0.0515025
0.0540698
0.0565714
0.0589986
0.0613429
0.0635961
0.0657502
0.0677975
0.0697308
0.0715433
0.0732286
0.0747811
0.0761955
0.0774673
0.0785924
0.0795678
0.0803911
0.0810605
0.0815753
0.0819357
0.0821427
0.0821985
0.0821064
0.0818707
0.0814972
0.0809929
0.0803659
0.0796256
0.0787832
0.0778512
0.0768437
0.0757765
0.0746669
0.0735338
0.072398
0.0712816
0.0702078
0.0692012
0.0682873
0.0674915
0.0668383
0.066352
0.0660718
0.066023
0.00270831
0.00246618
0.00205964
0.00149773
0.000800266
-1.02859e-05
-0.00091181
-0.00188217
-0.00289947
-0.00394248
-0.00499093
-0.00602575
-0.00702915
-0.00798487
-0.00887811
-0.00969558
-0.0104254
-0.0110571
-0.0115814
-0.0119903
-0.0122772
-0.0124364
-0.0124635
-0.0123549
-0.0121081
-0.0117214
-0.011194
-0.010526
-0.00971812
-0.00877169
-0.00768877
-0.00647195
-0.00512442
-0.00364989
-0.00205263
-0.000337426
0.00149052
0.00342555
0.00546164
0.00759242
0.00981115
0.0121109
0.0144844
0.0169242
0.0194223
0.0219708
0.0245613
0.0271854
0.0298345
0.0324998
0.0351726
0.0378441
0.0405052
0.0431472
0.045761
0.0483377
0.0508686
0.0533449
0.0557581
0.0580998
0.060362
0.0625366
0.0646161
0.0665931
0.0684608
0.0702126
0.0718424
0.0733448
0.074715
0.0759485
0.0770416
0.0779914
0.0787956
0.0794528
0.0799621
0.080324
0.0805394
0.0806105
0.0805406
0.0803338
0.0799956
0.0795327
0.0789527
0.0782646
0.0774788
0.0766071
0.0756625
0.0746596
0.0736141
0.0725435
0.0714661
0.0704018
0.0693711
0.0683955
0.067497
0.0666974
0.0660184
0.0654817
0.0651103
0.064916
0.00404459
0.00362213
0.00309656
0.00246026
0.00171382
0.000876599
-3.1909e-05
-0.000993167
-0.00198856
-0.00299977
-0.00400914
-0.00499992
-0.00595634
-0.00686382
-0.00770906
-0.00847992
-0.00916555
-0.00975626
-0.0102436
-0.0106201
-0.0108794
-0.0110165
-0.0110269
-0.0109073
-0.0106554
-0.0102695
-0.00974883
-0.00909342
-0.00830388
-0.00738151
-0.00632822
-0.00514644
-0.0038392
-0.00241
-0.00086292
0.000797487
0.00256626
0.00443799
0.00640692
0.00846697
0.0106117
0.0128345
0.0151283
0.0174859
0.0198999
0.0223624
0.0248654
0.0274009
0.0299605
0.0325358
0.0351185
0.0376998
0.0402714
0.0428245
0.0453506
0.0478411
0.0502874
0.0526813
0.0550145
0.0572789
0.0594669
0.0615706
0.0635828
0.0654964
0.067305
0.0690021
0.0705819
0.0720393
0.0733696
0.0745686
0.0756327
0.0765592
0.0773459
0.0779914
0.0784952
0.0788574
0.0790791
0.0791625
0.0791105
0.0789273
0.0786179
0.0781886
0.0776467
0.0770005
0.0762597
0.0754353
0.0745392
0.0735847
0.0725863
0.0715595
0.0705211
0.0694883
0.0684793
0.0675129
0.0666078
0.0657828
0.0650568
0.064449
0.063964
0.063598
0.00553603
0.00491766
0.00425708
0.00352988
0.00271686
0.00183464
0.000900478
-7.02828e-05
-0.00106205
-0.00205917
-0.00304635
-0.00400898
-0.00493318
-0.00580603
-0.00661562
-0.00735106
-0.00800247
-0.00856104
-0.00901897
-0.00936952
-0.00960686
-0.00972614
-0.00972338
-0.00959551
-0.00934024
-0.00895609
-0.00844234
-0.00779895
-0.00702657
-0.00612641
-0.00510027
-0.00395047
-0.00267992
-0.00129199
0.000209466
0.00182009
0.0035351
0.00534934
0.00725731
0.00925315
0.0113307
0.0134836
0.0157051
0.0179882
0.0203258
0.0227103
0.025134
0.0275892
0.0300678
0.0325616
0.0350627
0.0375626
0.0400532
0.0425261
0.044973
0.0473856
0.0497558
0.0520755
0.0543367
0.0565317
0.0586529
0.060693
0.0626449
0.0645018
0.0662573
0.0679055
0.0694406
0.0708577
0.0721522
0.0733202
0.0743583
0.0752636
0.0760343
0.0766689
0.0771669
0.0775285
0.0777546
0.0778473
0.0778093
0.0776446
0.077358
0.0769552
0.076443
0.0758292
0.0751227
0.0743337
0.073473
0.0725527
0.071586
0.0705867
0.0695698
0.0685506
0.067545
0.066569
0.0656387
0.0647699
0.0639796
0.0632841
0.0626694
0.0621154
0.00713962
0.00631698
0.00551068
0.00468011
0.0037866
0.00284449
0.00186922
0.000873251
-0.000130501
-0.00112877
-0.00210844
-0.00305687
-0.00396195
-0.00481229
-0.00559737
-0.00630748
-0.00693375
-0.00746825
-0.0079039
-0.00823457
-0.00845498
-0.0085607
-0.00854812
-0.0084144
-0.00815746
-0.00777598
-0.0072693
-0.00663745
-0.00588107
-0.00500136
-0.00400005
-0.00287939
-0.00164213
-0.00029155
0.0011686
0.00273418
0.00440063
0.00616294
0.00801582
0.00995369
0.0119706
0.0140604
0.0162167
0.0184326
0.0207013
0.0230155
0.0253677
0.0277505
0.0301561
0.0325767
0.0350043
0.0374311
0.0398489
0.0422498
0.0446257
0.0469687
0.0492707
0.0515241
0.053721
0.055854
0.0579157
0.0598991
0.0617973
0.0636037
0.0653122
0.0669168
0.0684122
0.0697936
0.0710564
0.0721967
0.0732114
0.0740978
0.0748538
0.0754783
0.0759704
0.0763303
0.0765591
0.0766584
0.0766309
0.0764802
0.0762106
0.0758277
0.0753376
0.0747476
0.0740658
0.0733013
0.0724642
0.0715655
0.0706168
0.0696306
0.0686202
0.067599
0.0665807
0.0655793
0.0646083
0.0636808
0.0628121
0.0620164
0.0612609
0.0605098
0.00881814
0.00778774
0.00682904
0.00588604
0.0049013
0.00388734
0.00285822
0.00182392
0.000794955
-0.000217567
-0.0012025
-0.00214897
-0.00304651
-0.00388518
-0.00465574
-0.00534964
-0.00595902
-0.00647677
-0.00689661
-0.00721301
-0.00742123
-0.00751731
-0.00749798
-0.00736071
-0.00710367
-0.00672568
-0.00622624
-0.00560543
-0.00486395
-0.00400301
-0.00302428
-0.00192997
-0.000722776
0.000594155
0.00201722
0.00354237
0.00516521
0.00688092
0.00868444
0.0105704
0.012533
0.0145663
0.0166641
0.0188198
0.0210269
0.0232781
0.0255665
0.0278847
0.0302251
0.0325802
0.0349424
0.0373039
0.039657
0.0419939
0.0443067
0.0465878
0.0488295
0.0510241
0.0531641
0.0552423
0.0572516
0.0591851
0.061036
0.0627979
0.064465
0.0660315
0.067492
0.0688419
0.0700768
0.0711929
0.072187
0.0730564
0.0737993
0.0744142
0.0749005
0.075258
0.0754878
0.0755914
0.075571
0.07543
0.0751726
0.0748035
0.0743287
0.0737545
0.0730885
0.0723389
0.0715149
0.0706263
0.0696835
0.0686978
0.0676806
0.0666438
0.0655994
0.0645592
0.0635346
0.0625362
0.0615781
0.0606727
0.0597694
0.0588172
0.0105394
0.00930105
0.00818624
0.00712447
0.00604039
0.00494521
0.00385193
0.00276839
0.00170302
0.000665046
-0.000336161
-0.00129134
-0.0021915
-0.00302809
-0.00379305
-0.00447892
-0.00507882
-0.0055865
-0.00599639
-0.00630361
-0.00650398
-0.00659397
-0.00657072
-0.00643202
-0.00617627
-0.00580251
-0.0053104
-0.00470015
-0.00397246
-0.00312859
-0.00217028
-0.00109966
8.06465e-05
0.00136757
0.00275757
0.00424672
0.00583078
0.00750513
0.00926481
0.0111046
0.013019
0.0150022
0.0170482
0.0191506
0.021303
0.0234985
0.0257303
0.0279913
0.0302741
0.0325715
0.0348759
0.0371799
0.0394759
0.0417565
0.044014
0.0462409
0.0484296
0.0505728
0.0526632
0.0546936
0.0566572
0.0585472
0.060357
0.0620804
0.0637116
0.0652451
0.0666755
0.0679982
0.069209
0.070304
0.0712802
0.0721349
0.072866
0.0734722
0.0739527
0.0743074
0.0745368
0.0746424
0.0746263
0.0744913
0.0742414
0.0738808
0.0734149
0.0728495
0.0721913
0.071448
0.0706276
0.069739
0.0687915
0.0677951
0.0667597
0.0656957
0.0646135
0.0635233
0.0624344
0.0613554
0.0602994
0.0592779
0.0582225
0.0570686
0.0122757
0.0108313
0.00955883
0.00837405
0.00718466
0.00600094
0.00483521
0.00369349
0.00258241
0.00150953
0.000482644
-0.000490445
-0.00140211
-0.00224502
-0.00301226
-0.00369741
-0.00429448
-0.00479805
-0.00520329
-0.00550593
-0.00570234
-0.00578948
-0.00576485
-0.00562656
-0.00537333
-0.00500443
-0.00451964
-0.00391933
-0.00320434
-0.00237596
-0.00143589
-0.000386275
0.000770234
0.00203063
0.0033915
0.00484901
0.00639902
0.00803699
0.00975818
0.0115575
0.0134296
0.0153689
0.0173694
0.0194252
0.0215297
0.0236766
0.0258589
0.0280699
0.0303025
0.0325495
0.0348036
0.0370576
0.0393042
0.041536
0.0437455
0.0459255
0.0480686
0.0501675
0.0522152
0.0542047
0.0561291
0.0579819
0.0597567
0.0614474
0.0630482
0.0645536
0.0659585
0.0672583
0.0684487
0.069526
0.0704869
0.0713289
0.0720499
0.0726483
0.0731233
0.0734746
0.0737026
0.0738085
0.073794
0.0736618
0.0734153
0.0730584
0.0725957
0.0720327
0.0713754
0.0706306
0.0698055
0.0689081
0.0679465
0.0669296
0.0658661
0.0647651
0.0636354
0.0624858
0.0613239
0.0601566
0.0589964
0.057854
0.0566448
0.0552905
0.0140032
0.0123558
0.0109256
0.0096152
0.0083162
0.00703842
0.00579369
0.00458652
0.00342199
0.00230624
0.00124567
0.000246768
-0.000684049
-0.00154062
-0.00231704
-0.00300788
-0.00360801
-0.00411279
-0.00451808
-0.00482027
-0.0050162
-0.0051033
-0.00507952
-0.00494332
-0.00469364
-0.00433
-0.00385243
-0.00326146
-0.00255799
-0.00174337
-0.000819393
0.000211758
0.00134751
0.00258488
0.00392049
0.00535056
0.00687107
0.00847763
0.0101656
0.01193
0.0137656
0.0156669
0.0176283
0.0196438
0.0217071
0.023812
0.0259519
0.0281201
0.0303095
0.0325133
0.0347244
0.0369358
0.0391402
0.0413304
0.0434993
0.0456395
0.0477441
0.0498058
0.0518176
0.0537727
0.0556644
0.0574862
0.0592319
0.0608955
0.0624711
0.0639534
0.0653374
0.0666184
0.0677921
0.0688549
0.0698033
0.0706348
0.0713473
0.0719391
0.0724091
0.0727568
0.0729826
0.0730872
0.0730722
0.0729399
0.0726932
0.0723357
0.0718714
0.0713052
0.0706425
0.0698894
0.0690523
0.0681383
0.0671545
0.0661086
0.0650085
0.063862
0.0626767
0.0614599
0.060218
0.0589564
0.0576874
0.0564212
0.0550576
0.0535056
0.0157013
0.0138547
0.0122675
0.0108301
0.00941855
0.00804251
0.00671365
0.00543517
0.00421082
0.00304556
0.00194456
0.000913125
-4.34292e-05
-0.000919983
-0.00171162
-0.00241372
-0.00302207
-0.00353276
-0.00394225
-0.00424751
-0.00444601
-0.00453562
-0.00451461
-0.0043818
-0.0041365
-0.00377847
-0.0033079
-0.00272547
-0.00203226
-0.00122974
-0.00031973
0.000695603
0.00181363
0.00303137
0.00434549
0.0057523
0.00724784
0.00882778
0.0104876
0.0122224
0.0140272
0.0158965
0.0178248
0.0198063
0.0218349
0.0239046
0.0260087
0.0281408
0.0302941
0.0324618
0.0346371
0.0368129
0.0389822
0.0411381
0.0432733
0.0453809
0.0474538
0.049485
0.0514676
0.0533948
0.0552601
0.0570571
0.0587795
0.0604214
0.0619771
0.0634413
0.0648089
0.0660753
0.0672361
0.0682875
0.0692263
0.0700496
0.0707554
0.0713417
0.0718073
0.0721516
0.0723745
0.0724768
0.0724595
0.0723247
0.0720748
0.0717129
0.0712427
0.0706684
0.069995
0.0692276
0.0683721
0.0674346
0.0664215
0.0653396
0.0641957
0.0629966
0.0617487
0.0604584
0.0591308
0.0577703
0.0563892
0.0549973
0.0534796
0.0517333
0.0173518
0.01531
0.0135674
0.0120024
0.0104764
0.00899907
0.00758213
0.00622768
0.00493836
0.00371807
0.00257096
0.00150128
0.000513369
-0.000388568
-0.00120057
-0.00191885
-0.0025399
-0.00306047
-0.00347776
-0.00378931
-0.003993
-0.00408715
-0.00407052
-0.00394226
-0.00370194
-0.00334956
-0.00288559
-0.00231089
-0.00162665
-0.000834442
6.3833e-05
0.00106593
0.00216921
0.00337072
0.00466713
0.00605478
0.00752974
0.00908779
0.0107245
0.012435
0.0142145
0.0160575
0.0179587
0.0199124
0.0219127
0.0239536
0.0260285
0.0281313
0.0302553
0.0323939
0.0345402
0.0366874
0.0388287
0.0409571
0.0430657
0.0451475
0.0471955
0.0492029
0.0511628
0.0530685
0.0549136
0.0566917
0.0583966
0.0600223
0.0615634
0.0630143
0.0643701
0.0656259
0.0667775
0.067821
0.068753
0.0695707
0.0702716
0.0708539
0.071316
0.0716571
0.0718771
0.0719761
0.0719553
0.0718159
0.0715602
0.0711908
0.070711
0.0701245
0.0694355
0.0686487
0.0677693
0.0668024
0.065754
0.0646298
0.063436
0.0621782
0.0608621
0.0594931
0.0580754
0.0566124
0.0551166
0.053598
0.0519274
0.0499902
0.0189388
0.016706
0.0148099
0.0131173
0.0114757
0.00989489
0.00838684
0.00695276
0.00559431
0.00431446
0.00311652
0.00200384
0.000979836
4.78093e-05
-0.000788977
-0.00152752
-0.00216507
-0.00269909
-0.00312726
-0.00344766
-0.00365874
-0.00375926
-0.00374831
-0.00362539
-0.00339039
-0.00304361
-0.00258572
-0.00201774
-0.00134104
-0.00055731
0.000331447
0.00132295
0.00241453
0.00360319
0.0048856
0.00625811
0.00771689
0.00925773
0.0108762
0.0125677
0.0143272
0.0161496
0.0180296
0.0199616
0.0219398
0.0239581
0.0260105
0.0280906
0.030192
0.0323081
0.0344323
0.0365578
0.0386779
0.0407858
0.0428746
0.0449373
0.0469671
0.0489572
0.0509009
0.0527915
0.0546225
0.0563876
0.0580806
0.0596957
0.0612273
0.0626699
0.0640183
0.0652678
0.0664141
0.0674531
0.0683813
0.0691959
0.069894
0.0704738
0.0709335
0.0712721
0.0714892
0.0715846
0.071559
0.0714135
0.0711499
0.0707705
0.070278
0.0696757
0.0689671
0.0681565
0.0672483
0.0662472
0.0651582
0.0639867
0.0627376
0.0614161
0.060027
0.0585751
0.0570636
0.0554954
0.0538832
0.0522374
0.0504151
0.0482908
0.0204485
0.0180286
0.0159809
0.0141612
0.0124034
0.0107175
0.00911609
0.00759948
0.00616857
0.00482557
0.00357294
0.00241324
0.00134915
0.000383242
-0.000482075
-0.00124448
-0.00190179
-0.0024521
-0.00289371
-0.00322522
-0.0034455
-0.00355374
-0.00354944
-0.00343244
-0.00320291
-0.00286143
-0.00240888
-0.00184651
-0.00117584
-0.000398683
0.000482889
0.0014665
0.00254941
0.00372859
0.00500071
0.00636216
0.00780908
0.0093373
0.0109425
0.0126199
0.0143649
0.0161723
0.0180369
0.0199531
0.0219151
0.0239173
0.0259535
0.0280175
0.0301029
0.0322032
0.034312
0.0364226
0.0385283
0.0406223
0.0426979
0.0447482
0.0467664
0.0487458
0.0506797
0.0525613
0.0543843
0.0561423
0.0578292
0.0594392
0.0609664
0.0624055
0.0637512
0.0649986
0.0661435
0.0671815
0.0681092
0.0689233
0.069621
0.0702001
0.0706589
0.0709958
0.0712103
0.0713019
0.071271
0.0711183
0.0708452
0.0704536
0.0699459
0.0693247
0.0685933
0.0677551
0.0668141
0.0657745
0.0646407
0.0634173
0.0621086
0.0607192
0.0592532
0.0577148
0.0561068
0.0544312
0.0527014
0.0509282
0.0489556
0.0466476
0.0218681
0.0192649
0.0170676
0.0151215
0.0132473
0.0114554
0.00975885
0.00815751
0.00665151
0.00524234
0.00393186
0.00272195
0.0016145
0.000611415
-0.000285535
-0.00107466
-0.00175443
-0.00232348
-0.00278065
-0.00312502
-0.00335591
-0.00347293
-0.00347596
-0.00336515
-0.00314098
-0.00280428
-0.00235621
-0.00179818
-0.00113189
-0.000359248
0.000517524
0.00149596
0.00257326
0.00374639
0.00501198
0.00636638
0.00780573
0.00932587
0.0109225
0.0125911
0.0143269
0.0161248
0.0179795
0.0198858
0.0218379
0.0238301
0.0258563
0.0279105
0.0299864
0.0320776
0.0341776
0.0362799
0.0383779
0.0404647
0.0425338
0.0445783
0.0465915
0.0485666
0.0504969
0.0523758
0.0541968
0.0559537
0.0576402
0.0592504
0.0607785
0.062219
0.0635666
0.0648165
0.0659639
0.0670047
0.067935
0.0687516
0.0694513
0.0700319
0.0704913
0.0708278
0.0710403
0.0711283
0.0710918
0.0709312
0.0706475
0.0702423
0.0697172
0.0690748
0.0683175
0.0674487
0.0664716
0.0653901
0.0642078
0.0629287
0.0615568
0.0600959
0.0585498
0.0569222
0.0552152
0.0534306
0.0515823
0.0496816
0.0475603
0.0450715
0.0231864
0.0204033
0.0180584
0.0159867
0.013996
0.0120976
0.0103047
0.00861687
0.00703367
0.00555605
0.00418518
0.00292234
0.00176884
0.000725968
-0.000205136
-0.00102339
-0.00172781
-0.00231755
-0.00279193
-0.00315052
-0.00339308
-0.00351961
-0.0035303
-0.00342568
-0.00320652
-0.00287393
-0.00242926
-0.00187413
-0.0012104
-0.000440155
0.000434274
0.00141035
0.00248522
0.00365576
0.00491855
0.00626989
0.00770595
0.00922261
0.0108156
0.0124803
0.0142121
0.0160059
0.0178565
0.0197586
0.0217067
0.023695
0.0257176
0.0277684
0.0298412
0.0319297
0.0340275
0.0361281
0.0382249
0.0403112
0.0423804
0.0444256
0.0464403
0.0484175
0.0503505
0.0522329
0.0540581
0.0558197
0.0575115
0.0591274
0.0606617
0.0621086
0.063463
0.0647196
0.0658738
0.0669211
0.0678576
0.0686796
0.0693842
0.0699686
0.0704304
0.0707678
0.0709794
0.0710644
0.0710225
0.0708537
0.0705588
0.0701387
0.0695948
0.0689292
0.068144
0.0672421
0.0662262
0.0650997
0.0638658
0.062528
0.0610898
0.0595546
0.0579257
0.0562065
0.0543986
0.0525037
0.0505361
0.0485082
0.0462392
0.0435723
0.0243931
0.0214329
0.0189423
0.0167457
0.0146389
0.0126335
0.0107435
0.00896797
0.00730597
0.00575799
0.00432473
0.00300687
0.00180519
0.000720373
-0.000246937
-0.00109622
-0.00182699
-0.00243891
-0.00293178
-0.00330558
-0.00356051
-0.0036969
-0.00371533
-0.00361665
-0.00340194
-0.00307252
-0.00262998
-0.00207615
-0.00141307
-0.00064297
0.00023172
0.00120837
0.00228402
0.00345545
0.00471919
0.00607153
0.00750863
0.00902637
0.0106205
0.0122864
0.0140193
0.0158144
0.0176665
0.0195703
0.0215203
0.0235107
0.0255357
0.0275894
0.0296655
0.0317578
0.0338599
0.0359653
0.0380675
0.0401598
0.0422357
0.0442882
0.0463107
0.0482964
0.0502386
0.0521306
0.053966
0.0557382
0.057441
0.0590683
0.060614
0.0620726
0.0634385
0.0647066
0.0658718
0.0669296
0.0678759
0.0687068
0.0694191
0.0700098
0.0704762
0.0708163
0.0710284
0.0711114
0.0710646
0.0708878
0.0705812
0.0701456
0.0695819
0.0688917
0.0680769
0.0671399
0.0660831
0.0649092
0.0636212
0.0622221
0.060715
0.059103
0.0573892
0.0555764
0.0536661
0.0516596
0.0495723
0.0474171
0.0450016
0.0421587
0.0254786
0.022344
0.0197091
0.0173885
0.0151659
0.0130533
0.0110656
0.00920143
0.00745942
0.00583967
0.00434243
0.00296792
0.00171635
0.000587949
-0.000417147
-0.0012989
-0.00205731
-0.00269252
-0.00320475
-0.00359439
-0.00386201
-0.00400835
-0.00403433
-0.00394109
-0.00372997
-0.00340256
-0.0029607
-0.00240643
-0.00174194
-0.00096957
-9.18921e-05
0.000888324
0.00196801
0.00314388
0.00441241
0.00576986
0.00721234
0.00873572
0.0103357
0.0120077
0.0137471
0.0155489
0.0174081
0.0193192
0.0212769
0.0232755
0.0253091
0.0273719
0.0294577
0.0315601
0.0336729
0.0357897
0.0379038
0.0400088
0.0420978
0.0441641
0.0462009
0.0482015
0.0501591
0.0520671
0.0539188
0.0557076
0.0574272
0.0590714
0.0606341
0.0621096
0.0634921
0.0647762
0.0659569
0.0670294
0.0679893
0.0688327
0.0695559
0.0701557
0.0706291
0.070974
0.0711882
0.0712705
0.0712198
0.0710354
0.0707174
0.070266
0.0696819
0.0689663
0.0681207
0.0671471
0.0660476
0.0648244
0.0634802
0.0620177
0.0604397
0.058749
0.0569482
0.0550402
0.0530261
0.0509071
0.0486995
0.0464172
0.0438558
0.0408385
0.0264341
0.023127
0.0203493
0.0179054
0.0155672
0.0133475
0.0112617
0.00930816
0.00748526
0.00579269
0.00423028
0.00279782
0.00149511
0.000321892
-0.000722158
-0.00163744
-0.00242441
-0.00308361
-0.00361569
-0.00402143
-0.0043018
-0.00445788
-0.00449091
-0.00440232
-0.00419373
-0.00386701
-0.0034242
-0.00286753
-0.00219936
-0.00142218
-0.000538703
0.000448158
0.00153524
0.00271919
0.0039964
0.0053631
0.00681532
0.0083489
0.00995954
0.0116427
0.0133938
0.0152077
0.0170794
0.0190037
0.0209749
0.0229876
0.025036
0.0271141
0.0292157
0.0313347
0.0334647
0.0355993
0.0377319
0.039856
0.0419647
0.0440512
0.0461089
0.0481309
0.0501103
0.0520404
0.0539145
0.055726
0.0574683
0.0591352
0.0607205
0.0622182
0.0636223
0.0649274
0.0661282
0.0672198
0.0681975
0.069057
0.0697945
0.0704065
0.0708898
0.0712418
0.0714603
0.0715436
0.0714901
0.0712992
0.0709702
0.0705032
0.0698986
0.0691572
0.0682801
0.0672689
0.0661253
0.0648514
0.0634494
0.0619218
0.0602711
0.0584999
0.0566106
0.0546059
0.0524867
0.0502544
0.047926
0.0455165
0.0428096
0.039619
0.0272509
0.0237731
0.0208537
0.0182872
0.0158337
0.0135068
0.0113226
0.00927931
0.00737487
0.00560869
0.00398023
0.00248892
0.00113416
-8.47457e-05
-0.00116855
-0.00211804
-0.0029341
-0.00361765
-0.00416975
-0.00459157
-0.00488442
-0.00504971
-0.00508901
-0.00500405
-0.00479671
-0.00446912
-0.00402353
-0.00346233
-0.00278806
-0.0020034
-0.0011112
-0.000114496
0.000983457
0.0021792
0.00346906
0.00484916
0.0063155
0.00786393
0.0094901
0.0111895
0.0129574
0.0147888
0.0166786
0.0186216
0.0206123
0.0226452
0.0247143
0.0268139
0.0289377
0.0310796
0.0332332
0.0353921
0.0375497
0.0396994
0.0418343
0.0439477
0.0460328
0.0480825
0.0500901
0.0520488
0.0539516
0.0557918
0.0575629
0.0592584
0.0608719
0.0623972
0.0638283
0.0651595
0.0663853
0.0675004
0.0685002
0.0693799
0.0701354
0.070763
0.0712593
0.0716212
0.0718463
0.0719325
0.0718781
0.0716818
0.0713428
0.0708609
0.070236
0.0694688
0.0685598
0.0675104
0.0663219
0.0649961
0.0635351
0.0619412
0.0602164
0.0583633
0.0563841
0.0542813
0.0520561
0.0497095
0.0472597
0.0447226
0.0418703
0.0385067
0.027921
0.0242738
0.0212134
0.0185248
0.0159563
0.0135222
0.0112396
0.00910613
0.0071197
0.00527937
0.00358428
0.00203351
0.000626093
-0.000639057
-0.00176305
-0.0027471
-0.00359243
-0.00430037
-0.00487235
-0.00530991
-0.00561467
-0.00578839
-0.00583294
-0.00575034
-0.00554274
-0.00521249
-0.00476204
-0.004194
-0.00351109
-0.00271614
-0.00181215
-0.000802273
0.000310118
0.00152145
0.00282794
0.00422568
0.00571062
0.00727857
0.00892516
0.0106458
0.0124357
0.01429
0.0162035
0.018171
0.020187
0.0222459
0.024342
0.0264692
0.0286215
0.0307927
0.0329763
0.0351661
0.0373552
0.039537
0.0417047
0.0438515
0.0459705
0.0480546
0.0500969
0.0520904
0.0540282
0.0559035
0.0577095
0.0594395
0.061087
0.0626457
0.0641092
0.0654717
0.0667275
0.0678712
0.0688974
0.0698016
0.0705792
0.0712261
0.0717387
0.0721137
0.0723481
0.0724396
0.0723862
0.0721862
0.0718386
0.0713428
0.0706984
0.0699056
0.0689649
0.0678769
0.0666431
0.0652648
0.063744
0.0620826
0.0602827
0.0583464
0.0562761
0.0540742
0.0517419
0.0492801
0.0467082
0.0440429
0.0410449
0.0375083
0.0284366
0.0246208
0.0214199
0.0186095
0.0159262
0.013385
0.0110037
0.00878
0.00671127
0.00479645
0.00303438
0.0014238
-3.65971e-05
-0.00134823
-0.00251257
-0.00353119
-0.0044057
-0.00513777
-0.00572919
-0.00618182
-0.00649765
-0.00667875
-0.00672728
-0.00664553
-0.00643591
-0.00610099
-0.00564344
-0.00506607
-0.00437179
-0.00356358
-0.00264459
-0.00161809
-0.000487618
0.00074316
0.00207039
0.00349008
0.00499815
0.00659034
0.00826223
0.0100092
0.0118264
0.013709
0.0156518
0.0176495
0.0196966
0.0217876
0.0239166
0.0260777
0.0282648
0.0304716
0.0326918
0.0349188
0.037146
0.0393666
0.0415738
0.0437606
0.04592
0.0480451
0.0501286
0.0521635
0.0541428
0.0560595
0.0579066
0.0596773
0.0613649
0.0629627
0.0644643
0.0658637
0.0671548
0.0683319
0.0693896
0.0703228
0.0711267
0.071797
0.0723297
0.072721
0.0729678
0.0730674
0.0730173
0.0728158
0.0724614
0.071953
0.0712902
0.0704726
0.0695004
0.0683741
0.0670948
0.0656638
0.0640826
0.062353
0.0604769
0.0584566
0.0562941
0.0539921
0.0515516
0.0489737
0.0462788
0.0434845
0.04034
0.0366296
0.02879
0.0248059
0.021465
0.0185328
0.0157348
0.0130865
0.0106065
0.00829234
0.00614117
0.00415167
0.00232245
0.000651945
-0.00086149
-0.00221958
-0.00342415
-0.0044771
-0.00538039
-0.00613604
-0.00674616
-0.00721297
-0.00753877
-0.00772592
-0.0077769
-0.00769424
-0.0074806
-0.0071388
-0.00667171
-0.00608235
-0.00537379
-0.00454919
-0.00361184
-0.00256519
-0.00141287
-0.000158662
0.00119349
0.00263954
0.00417533
0.00579652
0.00749864
0.00927706
0.0111269
0.0130433
0.0150209
0.0170545
0.0191386
0.0212677
0.0234358
0.025637
0.0278652
0.0301141
0.0323773
0.0346481
0.03692
0.039186
0.0414393
0.0436728
0.0458794
0.048052
0.0501834
0.0522664
0.0542938
0.0562584
0.058153
0.0599707
0.0617044
0.0633475
0.0648932
0.0663351
0.067667
0.0688829
0.0699771
0.0709441
0.0717791
0.0724771
0.0730338
0.0734453
0.0737079
0.0738186
0.0737748
0.0735741
0.0732149
0.0726958
0.0720159
0.0711746
0.0701717
0.0690077
0.0676832
0.0661994
0.0645575
0.0627592
0.0608065
0.0587012
0.0564457
0.0540426
0.0514928
0.0487978
0.0459787
0.0430543
0.0397623
0.0358769
0.0289733
0.0248211
0.0213401
0.0182863
0.0153735
0.012618
0.0100393
0.0076346
0.00540092
0.00333672
0.00144036
-0.000290003
-0.0018563
-0.00326058
-0.004505
-0.00559178
-0.0065232
-0.00730161
-0.00792946
-0.00840927
-0.00874367
-0.00893531
-0.00898694
-0.00890137
-0.00868151
-0.0083304
-0.00785114
-0.00724692
-0.00652101
-0.00567673
-0.00471755
-0.00364706
-0.002469
-0.00118728
0.000194098
0.00167098
0.00323913
0.00489415
0.00663153
0.00844657
0.0103344
0.01229
0.0143081
0.0163834
0.0185105
0.0206836
0.022897
0.0251446
0.0274203
0.0297177
0.0320304
0.0343516
0.0366748
0.0389929
0.041299
0.043586
0.0458466
0.0480736
0.0502596
0.0523974
0.0544795
0.0564986
0.0584473
0.0603184
0.0621048
0.0637993
0.0653952
0.0668857
0.0682642
0.0695245
0.0706605
0.0716667
0.0725375
0.0732679
0.073853
0.0742887
0.074571
0.0746964
0.0746619
0.074465
0.0741035
0.0735758
0.0728805
0.0720169
0.0709846
0.0697837
0.0684146
0.0668782
0.0651756
0.0633085
0.0612785
0.0590877
0.0567384
0.0542332
0.0515732
0.0487597
0.0458152
0.0427594
0.0393182
0.0352561
0.028979
0.0246584
0.0210372
0.0178615
0.0148338
0.011971
0.00929346
0.0067982
0.00448204
0.00234323
0.000379903
-0.00141006
-0.00302887
-0.00447888
-0.00576255
-0.0068824
-0.00784105
-0.00864115
-0.00928548
-0.00977687
-0.0101182
-0.0103126
-0.0103628
-0.0102721
-0.0100436
-0.00968058
-0.00918629
-0.00856416
-0.00781765
-0.00695026
-0.00596563
-0.00486747
-0.00365966
-0.0023462
-0.000931215
0.000581062
0.00218631
0.00388009
0.00565781
0.00751472
0.00944589
0.0114462
0.0135105
0.0156334
0.0178093
0.0200326
0.0222975
0.0245978
0.0269273
0.0292797
0.0316485
0.0340268
0.036408
0.038785
0.0411507
0.043498
0.0458194
0.0481077
0.0503553
0.0525547
0.0546984
0.0567788
0.0587884
0.0607196
0.0625652
0.0643178
0.0659702
0.0675154
0.0689466
0.0702572
0.0714408
0.0724915
0.0734035
0.0741712