/*--------------------------------*- C++ -*----------------------------------*\
| =========                 |                                                 |
| \\      /  F ield         | OpenFOAM: The Open Source CFD Toolbox           |
|  \\    /   O peration     | Version:  2212                                  |
|   \\  /    A nd           | Website:  www.openfoam.com                      |
|    \\/     M anipulation  |                                                 |
\*---------------------------------------------------------------------------*/
FoamFile
{
    version     2.0;
    format      ascii;
    arch        "LSB;label=32;scalar=64";
    class       surfaceScalarField;
    location    "0.079";
    object      phi;
}
// * * * * * * * * * * * * * * * * * * * * * * * * * * * * * * * * * * * * * //

dimensions      [0 3 -1 0 0 0 0];

oriented        oriented;

internalField   nonuniform List<scalar> 
19800
(
6.98741e-11
-6.97467e-11
2.39674e-10
-1.69796e-10
4.26545e-10
-1.86873e-10
5.73023e-10
-1.46478e-10
6.46202e-10
-7.31856e-11
6.27958e-10
1.82503e-11
5.09202e-10
1.18756e-10
2.86612e-10
2.226e-10
-3.95309e-11
3.26136e-10
-4.66557e-10
4.27025e-10
-9.90286e-10
5.2372e-10
-1.60549e-09
6.15196e-10
-2.30626e-09
7.00769e-10
-3.08625e-09
7.79996e-10
-3.93885e-09
8.52594e-10
-4.85726e-09
9.18412e-10
-5.83464e-09
9.77381e-10
-6.86413e-09
1.0295e-09
-7.93893e-09
1.0748e-09
-9.05231e-09
1.11338e-09
-1.01976e-08
1.14534e-09
-1.13685e-08
1.17083e-09
-1.25585e-08
1.18999e-09
-1.37615e-08
1.20301e-09
-1.49715e-08
1.21005e-09
-1.61828e-08
1.2113e-09
-1.73898e-08
1.20696e-09
-1.8587e-08
1.19723e-09
-1.97693e-08
1.1823e-09
-2.09317e-08
1.16239e-09
-2.20695e-08
1.13771e-09
-2.31779e-08
1.10846e-09
-2.42527e-08
1.07485e-09
-2.52898e-08
1.03708e-09
-2.62852e-08
9.95376e-10
-2.72352e-08
9.49955e-10
-2.81362e-08
9.01033e-10
-2.8985e-08
8.48821e-10
-2.97786e-08
7.93541e-10
-3.0514e-08
7.35407e-10
-3.11886e-08
6.74637e-10
-3.18e-08
6.11452e-10
-3.23461e-08
5.46067e-10
-3.28248e-08
4.78711e-10
-3.32344e-08
4.09611e-10
-3.35734e-08
3.38986e-10
-3.38405e-08
2.67068e-10
-3.40346e-08
1.9409e-10
-3.41549e-08
1.20291e-10
-3.42008e-08
4.59197e-11
-3.4172e-08
-2.87793e-11
-3.40684e-08
-1.0356e-10
-3.38903e-08
-1.78166e-10
-3.36379e-08
-2.52346e-10
-3.33121e-08
-3.25848e-10
-3.29137e-08
-3.984e-10
-3.24439e-08
-4.69736e-10
-3.19043e-08
-5.39597e-10
-3.12966e-08
-6.07704e-10
-3.06229e-08
-6.73774e-10
-2.98853e-08
-7.37543e-10
-2.90866e-08
-7.9874e-10
-2.82295e-08
-8.57072e-10
-2.73172e-08
-9.12262e-10
-2.63532e-08
-9.64045e-10
-2.5341e-08
-1.01214e-09
-2.42848e-08
-1.05627e-09
-2.31886e-08
-1.09616e-09
-2.20571e-08
-1.13156e-09
-2.08948e-08
-1.16223e-09
-1.9707e-08
-1.18788e-09
-1.84987e-08
-1.20827e-09
-1.72755e-08
-1.22319e-09
-1.60431e-08
-1.23242e-09
-1.48073e-08
-1.23572e-09
-1.35744e-08
-1.23292e-09
-1.23506e-08
-1.22384e-09
-1.11422e-08
-1.20833e-09
-9.95604e-09
-1.18621e-09
-8.79866e-09
-1.15737e-09
-7.67693e-09
-1.12172e-09
-6.59773e-09
-1.07921e-09
-5.56793e-09
-1.0298e-09
-4.59443e-09
-9.73496e-10
-3.68408e-09
-9.10349e-10
-2.84359e-09
-8.40486e-10
-2.07951e-09
-7.64091e-10
-1.39807e-09
-6.81439e-10
-8.0512e-10
-5.92934e-10
-3.05949e-10
-4.99159e-10
9.49817e-11
-4.0093e-10
3.94375e-10
-2.99401e-10
5.90604e-10
-1.96231e-10
6.84504e-10
-9.38933e-11
6.80642e-10
3.86492e-12
5.89392e-10
9.12422e-11
4.30133e-10
1.59249e-10
2.36703e-10
1.93429e-10
6.65923e-11
1.70117e-10
6.65901e-11
1.69874e-10
-2.39617e-10
4.66621e-10
-4.66555e-10
7.50892e-10
-4.71148e-10
9.21791e-10
-3.17376e-10
9.09259e-10
-6.06571e-11
6.68441e-10
2.59073e-10
1.73179e-10
6.1401e-10
-5.89222e-10
9.85004e-10
-1.62195e-09
1.35887e-09
-2.92143e-09
1.72651e-09
-4.47928e-09
2.08157e-09
-6.28374e-09
2.41965e-09
-8.32063e-09
2.73765e-09
-1.05741e-08
3.03345e-09
-1.30271e-08
3.3056e-09
-1.56619e-08
3.55319e-09
-1.84602e-08
3.77568e-09
-2.14035e-08
3.97284e-09
-2.44733e-08
4.14464e-09
-2.76512e-08
4.29126e-09
-3.09189e-08
4.41298e-09
-3.42583e-08
4.51023e-09
-3.76518e-08
4.58349e-09
-4.10821e-08
4.63333e-09
-4.45324e-08
4.66037e-09
-4.79864e-08
4.66528e-09
-5.14282e-08
4.64876e-09
-5.48425e-08
4.61152e-09
-5.82145e-08
4.55431e-09
-6.153e-08
4.4779e-09
-6.47754e-08
4.38307e-09
-6.79375e-08
4.27062e-09
-7.1004e-08
4.14133e-09
-7.39629e-08
3.99601e-09
-7.6803e-08
3.83548e-09
-7.95136e-08
3.66056e-09
-8.20847e-08
3.47208e-09
-8.45067e-08
3.27087e-09
-8.6771e-08
3.05777e-09
-8.88692e-08
2.83362e-09
-9.07938e-08
2.59927e-09
-9.25379e-08
2.35557e-09
-9.40952e-08
2.10338e-09
-9.54601e-08
1.84355e-09
-9.66275e-08
1.57698e-09
-9.7593e-08
1.30455e-09
-9.83531e-08
1.02716e-09
-9.89047e-08
7.45718e-10
-9.92456e-08
4.61151e-10
-9.93741e-08
1.74395e-10
-9.92892e-08
-1.1359e-10
-9.8991e-08
-4.0184e-10
-9.84797e-08
-6.89381e-10
-9.77569e-08
-9.7522e-10
-9.68243e-08
-1.25835e-09
-9.5685e-08
-1.53777e-09
-9.43423e-08
-1.81245e-09
-9.28005e-08
-2.08133e-09
-9.10649e-08
-2.34339e-09
-8.91411e-08
-2.59756e-09
-8.70358e-08
-2.84278e-09
-8.47566e-08
-3.07799e-09
-8.23115e-08
-3.30212e-09
-7.97097e-08
-3.51412e-09
-7.69608e-08
-3.71291e-09
-7.40755e-08
-3.89745e-09
-7.1065e-08
-4.06672e-09
-6.79415e-08
-4.21969e-09
-6.47177e-08
-4.35537e-09
-6.14071e-08
-4.47277e-09
-5.8024e-08
-4.57096e-09
-5.45833e-08
-4.64901e-09
-5.11004e-08
-4.70607e-09
-4.75916e-08
-4.74129e-09
-4.40733e-08
-4.75394e-09
-4.05629e-08
-4.74331e-09
-3.7078e-08
-4.70874e-09
-3.36367e-08
-4.64967e-09
-3.02573e-08
-4.5656e-09
-2.69585e-08
-4.45617e-09
-2.37591e-08
-4.3211e-09
-2.06781e-08
-4.16022e-09
-1.77344e-08
-3.97354e-09
-1.49466e-08
-3.76126e-09
-1.23332e-08
-3.52375e-09
-9.91206e-09
-3.26165e-09
-7.70025e-09
-2.9759e-09
-5.71381e-09
-2.66788e-09
-3.96729e-09
-2.33946e-09
-2.47322e-09
-1.99324e-09
-1.2414e-09
-1.63274e-09
-2.77957e-10
-1.26284e-09
4.16074e-10
-8.90255e-10
8.46612e-10
-5.24435e-10
1.02923e-09
-1.78766e-10
9.92887e-10
1.27584e-10
7.84923e-10
3.67222e-10
4.77013e-10
5.01347e-10
1.70024e-10
4.77097e-10
2.36609e-10
1.87578e-10
-4.27202e-10
4.73337e-10
-7.52325e-10
6.85934e-10
-6.83754e-10
7.03882e-10
-3.35325e-10
4.39173e-10
2.04042e-10
-1.68192e-10
8.66436e-10
-1.15574e-09
1.60156e-09
-2.54365e-09
2.37291e-09
-4.33887e-09
3.15408e-09
-6.53839e-09
3.92603e-09
-9.13178e-09
4.67496e-09
-1.21031e-08
5.39092e-09
-1.54322e-08
6.06675e-09
-1.9096e-08
6.69732e-09
-2.30695e-08
7.27907e-09
-2.73259e-08
7.80956e-09
-3.18374e-08
8.28725e-09
-3.65759e-08
8.7113e-09
-4.15126e-08
9.08139e-09
-4.6619e-08
9.39763e-09
-5.18665e-08
9.66046e-09
-5.72268e-08
9.87058e-09
-6.26723e-08
1.00289e-08
-6.81756e-08
1.01366e-08
-7.37101e-08
1.01949e-08
-7.92499e-08
1.02051e-08
-8.47698e-08
1.01686e-08
-9.02453e-08
1.0087e-08
-9.56528e-08
9.96188e-09
-1.0097e-07
9.79482e-09
-1.06174e-07
9.58751e-09
-1.11245e-07
9.34164e-09
-1.16163e-07
9.05893e-09
-1.20908e-07
8.74114e-09
-1.25463e-07
8.39004e-09
-1.29809e-07
8.00741e-09
-1.33932e-07
7.59506e-09
-1.37816e-07
7.15479e-09
-1.41447e-07
6.68844e-09
-1.44811e-07
6.19787e-09
-1.47897e-07
5.68492e-09
-1.50693e-07
5.15147e-09
-1.53189e-07
4.59942e-09
-1.55376e-07
4.03067e-09
-1.57246e-07
3.44715e-09
-1.58792e-07
2.85083e-09
-1.60009e-07
2.24368e-09
-1.60891e-07
1.62771e-09
-1.61435e-07
1.00495e-09
-1.61638e-07
3.77475e-10
-1.61499e-07
-2.52641e-10
-1.61017e-07
-8.83263e-10
-1.60194e-07
-1.51224e-09
-1.59032e-07
-2.13743e-09
-1.57534e-07
-2.7566e-09
-1.55704e-07
-3.36753e-09
-1.53549e-07
-3.96797e-09
-1.51074e-07
-4.55568e-09
-1.48289e-07
-5.12833e-09
-1.45203e-07
-5.68362e-09
-1.41827e-07
-6.21926e-09
-1.38172e-07
-6.73293e-09
-1.34252e-07
-7.2223e-09
-1.30081e-07
-7.68505e-09
-1.25675e-07
-8.1189e-09
-1.21051e-07
-8.52158e-09
-1.16227e-07
-8.89084e-09
-1.11222e-07
-9.22448e-09
-1.06057e-07
-9.52037e-09
-1.00753e-07
-9.77639e-09
-9.53335e-08
-9.99052e-09
-8.98217e-08
-1.01608e-08
-8.42424e-08
-1.02854e-08
-7.86211e-08
-1.03626e-08
-7.29843e-08
-1.03908e-08
-6.73592e-08
-1.03684e-08
-6.17737e-08
-1.02942e-08
-5.62563e-08
-1.01671e-08
-5.08359e-08
-9.98601e-09
-4.55418e-08
-9.7503e-09
-4.04034e-08
-9.45948e-09
-3.54502e-08
-9.11342e-09
-3.07114e-08
-8.71229e-09
-2.6216e-08
-8.25669e-09
-2.19921e-08
-7.7477e-09
-1.80667e-08
-7.187e-09
-1.44656e-08
-6.57702e-09
-1.12124e-08
-5.92106e-09
-8.32822e-09
-5.22363e-09
-5.8307e-09
-4.49076e-09
-3.73292e-09
-3.73052e-09
-2.04203e-09
-2.95372e-09
-7.5742e-10
-2.17487e-09
1.31739e-10
-1.4136e-09
6.49566e-10
-6.96599e-10
8.37399e-10
-6.02501e-11
7.58549e-10
4.46076e-10
5.03324e-10
7.56569e-10
1.93917e-10
7.86495e-10
4.30526e-10
1.48834e-10
-5.76032e-10
3.24535e-10
-9.28028e-10
3.46326e-10
-7.05552e-10
8.47225e-11
-7.37186e-11
-5.55354e-10
8.44127e-10
-1.64072e-09
1.95179e-09
-3.21474e-09
3.1756e-09
-5.30192e-09
4.46009e-09
-7.91164e-09
5.7638e-09
-1.10414e-08
7.05575e-09
-1.46793e-08
8.3129e-09
-1.88065e-08
9.51809e-09
-2.33984e-08
1.06587e-08
-2.84264e-08
1.17254e-08
-3.38589e-08
1.27115e-08
-3.96617e-08
1.36124e-08
-4.57994e-08
1.44249e-08
-5.22353e-08
1.51472e-08
-5.89322e-08
1.57783e-08
-6.58525e-08
1.63179e-08
-7.29588e-08
1.67667e-08
-8.02138e-08
1.71256e-08
-8.75807e-08
1.73958e-08
-9.50233e-08
1.75792e-08
-1.02506e-07
1.76777e-08
-1.09995e-07
1.76935e-08
-1.17455e-07
1.76289e-08
-1.24854e-07
1.74865e-08
-1.32161e-07
1.72689e-08
-1.39345e-07
1.69788e-08
-1.46377e-07
1.66191e-08
-1.53228e-07
1.61927e-08
-1.59872e-07
1.57025e-08
-1.66282e-07
1.51514e-08
-1.72434e-07
1.45426e-08
-1.78306e-07
1.38792e-08
-1.83875e-07
1.31642e-08
-1.89121e-07
1.24007e-08
-1.94025e-07
1.1592e-08
-1.98568e-07
1.07413e-08
-2.02735e-07
9.85168e-09
-2.0651e-07
8.92654e-09
-2.0988e-07
7.96913e-09
-2.12832e-07
6.98279e-09
-2.15356e-07
5.97087e-09
-2.17441e-07
4.93677e-09
-2.19082e-07
3.88397e-09
-2.2027e-07
2.81593e-09
-2.21001e-07
1.7362e-09
-2.21272e-07
6.48382e-10
-2.21081e-07
-4.43895e-10
-2.20427e-07
-1.53696e-09
-2.19312e-07
-2.62708e-09
-2.17739e-07
-3.71045e-09
-2.15713e-07
-4.78329e-09
-2.13238e-07
-5.84173e-09
-2.10325e-07
-6.88185e-09
-2.0698e-07
-7.89973e-09
-2.03217e-07
-8.89141e-09
-1.99048e-07
-9.85291e-09
-1.94487e-07
-1.07802e-08
-1.89551e-07
-1.16694e-08
-1.84257e-07
-1.25163e-08
-1.78625e-07
-1.33172e-08
-1.72676e-07
-1.40679e-08
-1.66433e-07
-1.47646e-08
-1.5992e-07
-1.54035e-08
-1.53164e-07
-1.59807e-08
-1.46191e-07
-1.64927e-08
-1.39032e-07
-1.69358e-08
-1.31716e-07
-1.73066e-08
-1.24275e-07
-1.76018e-08
-1.16742e-07
-1.78182e-08
-1.09152e-07
-1.79531e-08
-1.01539e-07
-1.80035e-08
-9.394e-08
-1.79672e-08
-8.63922e-08
-1.7842e-08
-7.89334e-08
-1.76259e-08
-7.16017e-08
-1.73177e-08
-6.44359e-08
-1.69161e-08
-5.74749e-08
-1.64206e-08
-5.07571e-08
-1.58311e-08
-4.4321e-08
-1.51484e-08
-3.82041e-08
-1.43736e-08
-3.24428e-08
-1.3509e-08
-2.70719e-08
-1.25579e-08
-2.21242e-08
-1.15248e-08
-1.76293e-08
-1.04159e-08
-1.36136e-08
-9.23937e-09
-1.00983e-08
-8.00597e-09
-7.09908e-09
-6.72979e-09
-4.62353e-09
-5.42928e-09
-2.66976e-09
-4.12863e-09
-1.22371e-09
-2.85964e-09
-2.56132e-10
-1.66417e-09
2.80964e-10
-5.97351e-10
4.58498e-10
2.68536e-10
3.74805e-10
8.40256e-10
1.61451e-10
9.99846e-10
5.91982e-10
7.80178e-11
-6.5406e-10
7.49944e-11
-9.25003e-10
-1.80541e-10
-4.50019e-10
-8.15377e-10
5.61108e-10
-1.92398e-09
1.95273e-09
-3.57392e-09
3.60172e-09
-5.80995e-09
5.41164e-09
-8.65784e-09
7.30798e-09
-1.21276e-08
9.23354e-09
-1.62163e-08
1.11445e-08
-2.09108e-08
1.30074e-08
-2.61895e-08
1.47968e-08
-3.20243e-08
1.64935e-08
-3.8382e-08
1.80831e-08
-4.52255e-08
1.9555e-08
-5.25147e-08
2.09016e-08
-6.02074e-08
2.21176e-08
-6.82598e-08
2.31996e-08
-7.66274e-08
2.41458e-08
-8.52647e-08
2.49553e-08
-9.41266e-08
2.56286e-08
-1.03168e-07
2.61667e-08
-1.12343e-07
2.65714e-08
-1.21609e-07
2.6845e-08
-1.30922e-07
2.69903e-08
-1.40239e-07
2.70104e-08
-1.49518e-07
2.69087e-08
-1.58721e-07
2.66889e-08
-1.67807e-07
2.63549e-08
-1.76739e-07
2.59108e-08
-1.8548e-07
2.53607e-08
-1.93997e-07
2.4709e-08
-2.02254e-07
2.39601e-08
-2.10222e-07
2.31186e-08
-2.17868e-07
2.21891e-08
-2.25165e-07
2.11761e-08
-2.32085e-07
2.00845e-08
-2.38604e-07
1.8919e-08
-2.44696e-07
1.76845e-08
-2.5034e-07
1.63857e-08
-2.55517e-07
1.50278e-08
-2.60206e-07
1.36155e-08
-2.6439e-07
1.21541e-08
-2.68056e-07
1.06485e-08
-2.71189e-07
9.10396e-09
-2.73778e-07
7.52565e-09
-2.75813e-07
5.91885e-09
-2.77286e-07
4.28893e-09
-2.78191e-07
2.6413e-09
-2.78524e-07
9.81425e-10
-2.78283e-07
-6.85117e-10
-2.77467e-07
-2.3527e-09
-2.76079e-07
-4.01562e-09
-2.74121e-07
-5.66814e-09
-2.716e-07
-7.30439e-09
-2.68523e-07
-8.9185e-09
-2.649e-07
-1.05045e-08
-2.60744e-07
-1.20565e-08
-2.56067e-07
-1.35683e-08
-2.50886e-07
-1.5034e-08
-2.45219e-07
-1.64474e-08
-2.39085e-07
-1.78025e-08
-2.32508e-07
-1.90933e-08
-2.25512e-07
-2.03137e-08
-2.18122e-07
-2.14577e-08
-2.10367e-07
-2.25194e-08
-2.02278e-07
-2.3493e-08
-1.93886e-07
-2.43729e-08
-1.85225e-07
-2.51535e-08
-1.76331e-07
-2.58295e-08
-1.67242e-07
-2.63956e-08
-1.57997e-07
-2.6847e-08
-1.48636e-07
-2.7179e-08
-1.39202e-07
-2.73873e-08
-1.29738e-07
-2.74679e-08
-1.20287e-07
-2.74173e-08
-1.10897e-07
-2.72324e-08
-1.01612e-07
-2.69105e-08
-9.24805e-08
-2.64496e-08
-8.35481e-08
-2.58485e-08
-7.48623e-08
-2.51063e-08
-6.647e-08
-2.42235e-08
-5.84171e-08
-2.32012e-08
-5.07488e-08
-2.20419e-08
-4.35085e-08
-2.07493e-08
-3.67377e-08
-1.93287e-08
-3.04748e-08
-1.77877e-08
-2.47548e-08
-1.61359e-08
-1.96081e-08
-1.43861e-08
-1.50593e-08
-1.25548e-08
-1.11257e-08
-1.06633e-08
-7.8161e-09
-8.73889e-09
-5.12824e-09
-6.81649e-09
-3.04679e-09
-4.9411e-09
-1.54052e-09
-3.17044e-09
-5.5933e-10
-1.57855e-09
-3.0658e-11
-2.6014e-10
1.44405e-10
6.65191e-10
9.63637e-11
1.04789e-09
6.88349e-10
-1.04834e-11
-6.43583e-10
-2.36649e-10
-6.98845e-10
-8.29538e-10
1.42871e-10
-1.90511e-09
1.63668e-09
-3.55128e-09
3.59891e-09
-5.83169e-09
5.88214e-09
-8.78886e-09
8.36879e-09
-1.2447e-08
1.09662e-08
-1.6815e-08
1.36015e-08
-2.18884e-08
1.62179e-08
-2.7652e-08
1.8771e-08
-3.40816e-08
2.12264e-08
-4.11457e-08
2.35577e-08
-4.88073e-08
2.57446e-08
-5.70245e-08
2.77722e-08
-6.57519e-08
2.96291e-08
-7.49417e-08
3.13074e-08
-8.45439e-08
3.28019e-08
-9.45074e-08
3.41093e-08
-1.0478e-07
3.52281e-08
-1.1531e-07
3.61584e-08
-1.26045e-07
3.69012e-08
-1.36932e-07
3.74587e-08
-1.47921e-07
3.78337e-08
-1.5896e-07
3.80297e-08
-1.70001e-07
3.8051e-08
-1.80994e-07
3.79021e-08
-1.91893e-07
3.7588e-08
-2.02652e-07
3.71139e-08
-2.13227e-07
3.64854e-08
-2.23574e-07
3.57084e-08
-2.33654e-07
3.47888e-08
-2.43427e-07
3.37327e-08
-2.52855e-07
3.25464e-08
-2.61902e-07
3.12364e-08
-2.70535e-07
2.98092e-08
-2.78722e-07
2.82713e-08
-2.86432e-07
2.66295e-08
-2.93638e-07
2.48906e-08
-3.00314e-07
2.30614e-08
-3.06435e-07
2.11489e-08
-3.1198e-07
1.916e-08
-3.16928e-07
1.7102e-08
-3.21261e-07
1.49819e-08
-3.24964e-07
1.2807e-08
-3.28023e-07
1.05847e-08
-3.30427e-07
8.3225e-09
-3.32166e-07
6.02784e-09
-3.33233e-07
3.7084e-09
-3.33623e-07
1.37191e-09
-3.33335e-07
-9.73801e-10
-3.32367e-07
-3.3208e-09
-3.30721e-07
-5.66106e-09
-3.28403e-07
-7.98646e-09
-3.25418e-07
-1.02888e-08
-3.21777e-07
-1.25598e-08
-3.17491e-07
-1.47911e-08
-3.12573e-07
-1.69743e-08
-3.0704e-07
-1.91009e-08
-3.00912e-07
-2.11625e-08
-2.94209e-07
-2.31504e-08
-2.86955e-07
-2.50563e-08
-2.79176e-07
-2.68717e-08
-2.70902e-07
-2.8588e-08
-2.62163e-07
-3.0197e-08
-2.52992e-07
-3.16905e-08
-2.43424e-07
-3.30604e-08
-2.33498e-07
-3.42987e-08
-2.23254e-07
-3.53978e-08
-2.12734e-07
-3.63502e-08
-2.0198e-07
-3.71488e-08
-1.91041e-07
-3.77868e-08
-1.79962e-07
-3.82579e-08
-1.68793e-07
-3.85561e-08
-1.57585e-07
-3.86761e-08
-1.46389e-07
-3.8613e-08
-1.35259e-07
-3.83627e-08
-1.24247e-07
-3.79218e-08
-1.13409e-07
-3.72877e-08
-1.02799e-07
-3.64588e-08
-9.24706e-08
-3.54347e-08
-8.24782e-08
-3.42159e-08
-7.28748e-08
-3.28047e-08
-6.37118e-08
-3.12048e-08
-5.50391e-08
-2.9422e-08
-4.69036e-08
-2.74643e-08
-3.93489e-08
-2.53424e-08
-3.24144e-08
-2.30703e-08
-2.61343e-08
-2.06662e-08
-2.05362e-08
-1.8153e-08
-1.56396e-08
-1.55599e-08
-1.14548e-08
-1.29237e-08
-7.98059e-09
-1.02907e-08
-5.20225e-09
-7.71945e-09
-3.08941e-09
-5.28327e-09
-1.59347e-09
-3.07449e-09
-6.448e-10
-1.20881e-09
-1.49805e-10
1.702e-10
1.29167e-11
8.85172e-10
7.01263e-10
-1.08092e-10
-5.35494e-10
-5.84299e-10
-2.22645e-10
-1.55395e-09
1.11252e-09
-3.11687e-09
3.19959e-09
-5.35004e-09
5.83207e-09
-8.30957e-09
8.84167e-09
-1.20327e-08
1.20919e-08
-1.65399e-08
1.54733e-08
-2.18368e-08
1.88984e-08
-2.79163e-08
2.22974e-08
-3.47605e-08
2.56151e-08
-4.23421e-08
2.8808e-08
-5.06264e-08
3.1842e-08
-5.95724e-08
3.46906e-08
-6.9134e-08
3.73337e-08
-7.92612e-08
3.97563e-08
-8.99009e-08
4.19472e-08
-1.00998e-07
4.38989e-08
-1.12495e-07
4.56066e-08
-1.24335e-07
4.70679e-08
-1.36459e-07
4.82821e-08
-1.48808e-07
4.92502e-08
-1.61324e-07
4.99746e-08
-1.73949e-07
5.04587e-08
-1.86626e-07
5.07069e-08
-1.99299e-07
5.07244e-08
-2.11914e-07
5.05169e-08
-2.24417e-07
5.00908e-08
-2.36756e-07
4.94529e-08
-2.48881e-07
4.86104e-08
-2.60743e-07
4.75709e-08
-2.72296e-07
4.63421e-08
-2.83496e-07
4.49322e-08
-2.94299e-07
4.33495e-08
-3.04665e-07
4.16023e-08
-3.14555e-07
3.96993e-08
-3.23933e-07
3.76493e-08
-3.32764e-07
3.5461e-08
-3.41017e-07
3.31436e-08
-3.48662e-07
3.07061e-08
-3.55671e-07
2.81579e-08
-3.62019e-07
2.55081e-08
-3.67684e-07
2.27663e-08
-3.72644e-07
1.99421e-08
-3.76882e-07
1.70451e-08
-3.80382e-07
1.40851e-08
-3.83132e-07
1.10721e-08
-3.8512e-07
8.01613e-09
-3.86339e-07
4.92735e-09
-3.86783e-07
1.81607e-09
-3.8645e-07
-1.30726e-09
-3.85338e-07
-4.4321e-09
-3.83452e-07
-7.54776e-09
-3.80795e-07
-1.06434e-08
-3.77375e-07
-1.37082e-08
-3.73204e-07
-1.67311e-08
-3.68294e-07
-1.9701e-08
-3.62662e-07
-2.26066e-08
-3.56326e-07
-2.54369e-08
-3.49308e-07
-2.81805e-08
-3.41632e-07
-3.08262e-08
-3.33326e-07
-3.33626e-08
-3.24419e-07
-3.57787e-08
-3.14944e-07
-3.80631e-08
-3.04936e-07
-4.0205e-08
-2.94433e-07
-4.21934e-08
-2.83475e-07
-4.40178e-08
-2.72106e-07
-4.56676e-08
-2.60371e-07
-4.71329e-08
-2.48318e-07
-4.84038e-08
-2.35995e-07
-4.9471e-08
-2.23456e-07
-5.03257e-08
-2.10755e-07
-5.09596e-08
-1.97946e-07
-5.1365e-08
-1.85087e-07
-5.1535e-08
-1.72237e-07
-5.14634e-08
-1.59454e-07
-5.1145e-08
-1.46801e-07
-5.05756e-08
-1.34336e-07
-4.97521e-08
-1.22122e-07
-4.86727e-08
-1.1022e-07
-4.73371e-08
-9.86892e-08
-4.57466e-08
-8.75893e-08
-4.39046e-08
-7.69775e-08
-4.18166e-08
-6.69091e-08
-3.94904e-08
-5.74361e-08
-3.69373e-08
-4.86068e-08
-3.41717e-08
-4.04647e-08
-3.12124e-08
-3.30476e-08
-2.80834e-08
-2.6386e-08
-2.48146e-08
-2.05023e-08
-2.14435e-08
-1.54092e-08
-1.80168e-08
-1.11077e-08
-1.45923e-08
-7.58562e-09
-1.12415e-08
-4.8158e-09
-8.05309e-09
-2.7541e-09
-5.1362e-09
-1.3374e-09
-2.6255e-09
-4.81753e-10
-6.85447e-10
-8.0253e-11
4.83671e-10
6.21007e-10
-2.09623e-10
-3.25871e-10
-9.50717e-10
5.1844e-10
-2.32125e-09
2.48306e-09
-4.40193e-09
5.28028e-09
-7.25586e-09
8.68599e-09
-1.09289e-08
1.25147e-08
-1.54507e-08
1.66137e-08
-2.08358e-08
2.08585e-08
-2.70853e-08
2.51479e-08
-3.4188e-08
2.94002e-08
-4.21224e-08
3.35495e-08
-5.08577e-08
3.75433e-08
-6.03554e-08
4.13397e-08
-7.05708e-08
4.4906e-08
-8.14536e-08
4.82166e-08
-9.29496e-08
5.12522e-08
-1.05001e-07
5.39985e-08
-1.17547e-07
5.64454e-08
-1.30527e-07
5.85862e-08
-1.43876e-07
6.04172e-08
-1.57531e-07
6.19371e-08
-1.71428e-07
6.31466e-08
-1.85502e-07
6.40484e-08
-1.99689e-07
6.46462e-08
-2.13927e-07
6.49453e-08
-2.28155e-07
6.49518e-08
-2.42311e-07
6.46729e-08
-2.56336e-07
6.41163e-08
-2.70174e-07
6.32906e-08
-2.83768e-07
6.22046e-08
-2.97065e-07
6.08678e-08
-3.10013e-07
5.929e-08
-3.22562e-07
5.74814e-08
-3.34665e-07
5.54525e-08
-3.46277e-07
5.32139e-08
-3.57354e-07
5.07765e-08
-3.67856e-07
4.81515e-08
-3.77746e-07
4.53502e-08
-3.86986e-07
4.23841e-08
-3.95545e-07
3.92647e-08
-4.03391e-07
3.60039e-08
-4.10496e-07
3.26136e-08
-4.16836e-07
2.91059e-08
-4.22387e-07
2.5493e-08
-4.27129e-07
2.17872e-08
-4.31045e-07
1.80013e-08
-4.34121e-07
1.41477e-08
-4.36344e-07
1.02395e-08
-4.37706e-07
6.28953e-09
-4.38201e-07
2.31106e-09
-4.37826e-07
-1.68259e-09
-4.3658e-07
-5.67792e-09
-4.34467e-07
-9.66129e-09
-4.31491e-07
-1.36189e-08
-4.27662e-07
-1.75369e-08
-4.22992e-07
-2.14011e-08
-4.17496e-07
-2.51974e-08
-4.11191e-07
-2.89116e-08
-4.04099e-07
-3.25294e-08
-3.96243e-07
-3.60364e-08
-3.87651e-07
-3.94183e-08
-3.78353e-07
-4.26607e-08
-3.68382e-07
-4.57495e-08
-3.57774e-07
-4.86705e-08
-3.4657e-07
-5.14096e-08
-3.3481e-07
-5.39533e-08
-3.2254e-07
-5.62879e-08
-3.09807e-07
-5.84003e-08
-2.96662e-07
-6.02777e-08
-2.83158e-07
-6.1908e-08
-2.6935e-07
-6.32793e-08
-2.55295e-07
-6.43805e-08
-2.41053e-07
-6.52014e-08
-2.26686e-07
-6.57323e-08
-2.12256e-07
-6.59646e-08
-1.97829e-07
-6.58908e-08
-1.83469e-07
-6.55045e-08
-1.69244e-07
-6.48007e-08
-1.5522e-07
-6.37757e-08
-1.41465e-07
-6.24278e-08
-1.28046e-07
-6.07568e-08
-1.15027e-07
-5.87651e-08
-1.02475e-07
-5.64571e-08
-9.04509e-08
-5.38403e-08
-7.9016e-08
-5.09254e-08
-6.82267e-08
-4.77266e-08
-5.81356e-08
-4.42628e-08
-4.87902e-08
-4.05577e-08
-4.0232e-08
-3.66416e-08
-3.24951e-08
-3.25515e-08
-2.56051e-08
-2.83335e-08
-1.95779e-08
-2.4044e-08
-1.44182e-08
-1.9752e-08
-1.01179e-08
-1.55418e-08
-6.65501e-09
-1.1516e-08
-3.99224e-09
-7.79897e-09
-2.07569e-09
-4.54206e-09
-8.33983e-10
-1.92715e-09
-1.77835e-10
-1.72481e-10
4.43172e-10
-3.11992e-10
-1.38781e-11
-1.32472e-09
1.53116e-09
-3.10922e-09
4.26755e-09
-5.72582e-09
7.89687e-09
-9.22195e-09
1.21821e-08
-1.36314e-08
1.69242e-08
-1.89744e-08
2.19567e-08
-2.5258e-08
2.71421e-08
-3.24772e-08
3.2367e-08
-4.06157e-08
3.75387e-08
-4.96474e-08
4.25812e-08
-5.95375e-08
4.74333e-08
-7.02434e-08
5.20456e-08
-8.17163e-08
5.63788e-08
-9.39019e-08
6.04022e-08
-1.06742e-07
6.40919e-08
-1.20173e-07
6.74302e-08
-1.34132e-07
7.04041e-08
-1.48551e-07
7.30051e-08
-1.63362e-07
7.52281e-08
-1.78495e-07
7.70709e-08
-1.93883e-07
7.85339e-08
-2.09454e-07
7.96198e-08
-2.25141e-07
8.03328e-08
-2.40874e-07
8.0679e-08
-2.56588e-07
8.06657e-08
-2.72216e-07
8.03011e-08
-2.87695e-07
7.95946e-08
-3.02961e-07
7.85565e-08
-3.17953e-07
7.71975e-08
-3.32615e-07
7.5529e-08
-3.46888e-07
7.35632e-08
-3.60719e-07
7.13123e-08
-3.74056e-07
6.87892e-08
-3.86849e-07
6.6007e-08
-3.99051e-07
6.29792e-08
-4.10619e-07
5.97194e-08
-4.2151e-07
5.62415e-08
-4.31686e-07
5.25597e-08
-4.4111e-07
4.86885e-08
-4.49748e-07
4.46423e-08
-4.57571e-07
4.0436e-08
-4.64549e-07
3.60844e-08
-4.70659e-07
3.16028e-08
-4.75878e-07
2.70065e-08
-4.80188e-07
2.2311e-08
-4.83572e-07
1.75321e-08
-4.86018e-07
1.26856e-08
-4.87517e-07
7.78775e-09
-4.8806e-07
2.85483e-09
-4.87646e-07
-2.09665e-09
-4.86274e-07
-7.04997e-09
-4.83947e-07
-1.19882e-08
-4.80672e-07
-1.68944e-08
-4.76457e-07
-2.17512e-08
-4.71317e-07
-2.65414e-08
-4.65267e-07
-3.12473e-08
-4.58327e-07
-3.58514e-08
-4.50521e-07
-4.03361e-08
-4.41873e-07
-4.46836e-08
-4.32415e-07
-4.88763e-08
-4.2218e-07
-5.28965e-08
-4.11202e-07
-5.67267e-08
-3.99524e-07
-6.03494e-08
-3.87186e-07
-6.37475e-08
-3.74235e-07
-6.69041e-08
-3.6072e-07
-6.98027e-08
-3.46693e-07
-7.2427e-08
-3.3221e-07
-7.47615e-08
-3.17326e-07
-7.67912e-08
-3.02104e-07
-7.85017e-08
-2.86605e-07
-7.98796e-08
-2.70894e-07
-8.09122e-08
-2.55038e-07
-8.1588e-08
-2.39106e-07
-8.18967e-08
-2.23168e-07
-8.18292e-08
-2.07294e-07
-8.1378e-08
-1.91558e-07
-8.05371e-08
-1.76031e-07
-7.93026e-08
-1.60786e-07
-7.76724e-08
-1.45896e-07
-7.56471e-08
-1.31431e-07
-7.32298e-08
-1.17462e-07
-7.04264e-08
-1.04056e-07
-6.72467e-08
-9.12773e-08
-6.37038e-08
-7.9188e-08
-5.98159e-08
-6.78447e-08
-5.5606e-08
-5.72991e-08
-5.11034e-08
-4.75964e-08
-4.63442e-08
-3.87748e-08
-4.13732e-08
-3.08637e-08
-3.62445e-08
-2.38833e-08
-3.10244e-08
-1.78429e-08
-2.57924e-08
-1.27401e-08
-2.06446e-08
-8.55973e-09
-1.56964e-08
-5.27298e-09
-1.10857e-08
-2.83706e-09
-6.97798e-09
-1.19505e-09
-3.56916e-09
-2.76629e-10
-1.09091e-09
1.66544e-10
-4.13395e-10
3.99517e-10
-1.69921e-09
2.81696e-09
-3.90297e-09
6.47133e-09
-7.06454e-09
1.10585e-08
-1.12149e-08
1.63325e-08
-1.63745e-08
2.20838e-08
-2.25529e-08
2.81351e-08
-2.97483e-08
3.43376e-08
-3.79487e-08
4.05674e-08
-4.71315e-08
4.67215e-08
-5.72653e-08
5.27151e-08
-6.83104e-08
5.84784e-08
-8.02199e-08
6.3955e-08
-9.29404e-08
6.90994e-08
-1.06414e-07
7.38754e-08
-1.20577e-07
7.82548e-08
-1.35363e-07
8.22163e-08
-1.50703e-07
8.57442e-08
-1.66526e-07
8.88279e-08
-1.82758e-07
9.14606e-08
-1.99327e-07
9.36394e-08
-2.16157e-07
9.53642e-08
-2.33175e-07
9.66377e-08
-2.50307e-07
9.74648e-08
-2.6748e-07
9.7852e-08
-2.84622e-07
9.78078e-08
-3.01663e-07
9.73418e-08
-3.18533e-07
9.6465e-08
-3.35166e-07
9.51894e-08
-3.51496e-07
9.35278e-08
-3.67461e-07
9.14937e-08
-3.82999e-07
8.91014e-08
-3.98052e-07
8.63657e-08
-4.12565e-07
8.33019e-08
-4.26484e-07
7.99257e-08
-4.39758e-07
7.62533e-08
-4.5234e-07
7.23011e-08
-4.64184e-07
6.80858e-08
-4.75249e-07
6.36246e-08
-4.85495e-07
5.89347e-08
-4.94886e-07
5.40338e-08
-5.0339e-07
4.89396e-08
-5.10976e-07
4.36702e-08
-5.17617e-07
3.82439e-08
-5.23289e-07
3.26792e-08
-5.27973e-07
2.6995e-08
-5.31652e-07
2.12102e-08
-5.3431e-07
1.53441e-08
-5.35939e-07
9.41619e-09
-5.3653e-07
3.44612e-09
-5.3608e-07
-2.54612e-09
-5.3459e-07
-8.54034e-09
-5.32062e-07
-1.45161e-08
-5.28504e-07
-2.0453e-08
-5.23925e-07
-2.633e-08
-5.1834e-07
-3.21263e-08
-5.11766e-07
-3.78208e-08
-5.04226e-07
-4.33922e-08
-4.95742e-07
-4.88193e-08
-4.86345e-07
-5.40809e-08
-4.76066e-07
-5.91555e-08
-4.64941e-07
-6.4022e-08
-4.53008e-07
-6.86592e-08
-4.40311e-07
-7.30464e-08
-4.26896e-07
-7.71628e-08
-4.12812e-07
-8.09881e-08
-3.98112e-07
-8.45027e-08
-3.82852e-07
-8.7687e-08
-3.67091e-07
-9.05224e-08
-3.50891e-07
-9.29911e-08
-3.34317e-07
-9.5076e-08
-3.17435e-07
-9.67609e-08
-3.00317e-07
-9.8031e-08
-2.83032e-07
-9.88725e-08
-2.65655e-07
-9.92733e-08
-2.48262e-07
-9.92228e-08
-2.30928e-07
-9.87122e-08
-2.1373e-07
-9.77348e-08
-1.96746e-07
-9.6286e-08
-1.80055e-07
-9.4364e-08
-1.63732e-07
-9.19697e-08
-1.47855e-07
-8.91071e-08
-1.32497e-07
-8.5784e-08
-1.17732e-07
-8.2012e-08
-1.03628e-07
-7.78077e-08
-9.02516e-08
-7.31925e-08
-7.76635e-08
-6.81941e-08
-6.59198e-08
-6.28471e-08
-5.50701e-08
-5.7194e-08
-4.51567e-08
-5.12865e-08
-3.62139e-08
-4.51873e-08
-2.82668e-08
-3.89715e-08
-2.13305e-08
-3.27287e-08
-1.54093e-08
-2.65658e-08
-1.0496e-08
-2.06096e-08
-6.57189e-09
-1.50099e-08
-3.60627e-09
-9.94359e-09
-1.55761e-09
-5.61782e-09
-3.74744e-10
-2.27378e-09
-2.08202e-10
-5.12826e-10
9.1235e-10
-2.06973e-09
4.37385e-09
-4.69276e-09
9.09434e-09
-8.40184e-09
1.47675e-08
-1.32113e-08
2.11419e-08
-1.91277e-08
2.80002e-08
-2.6149e-08
3.51564e-08
-3.42639e-08
4.24525e-08
-4.3452e-08
4.97555e-08
-5.3684e-08
5.69535e-08
-6.49222e-08
6.39533e-08
-7.71216e-08
7.06778e-08
-9.02301e-08
7.70636e-08
-1.0419e-07
8.30592e-08
-1.18938e-07
8.86235e-08
-1.34407e-07
9.3724e-08
-1.50527e-07
9.83358e-08
-1.67223e-07
1.0244e-07
-1.8442e-07
1.06025e-07
-2.02041e-07
1.09081e-07
-2.20007e-07
1.11606e-07
-2.38241e-07
1.13598e-07
-2.56662e-07
1.15059e-07
-2.75194e-07
1.15996e-07
-2.93758e-07
1.16416e-07
-3.12279e-07
1.16329e-07
-3.30682e-07
1.15744e-07
-3.48892e-07
1.14676e-07
-3.66839e-07
1.13137e-07
-3.84454e-07
1.11143e-07
-4.01669e-07
1.08709e-07
-4.1842e-07
1.05852e-07
-4.34644e-07
1.0259e-07
-4.50283e-07
9.894e-08
-4.65278e-07
9.49209e-08
-4.79576e-07
9.05517e-08
-4.93127e-07
8.58516e-08
-5.05881e-07
8.08405e-08
-5.17795e-07
7.55385e-08
-5.28827e-07
6.9966e-08
-5.38937e-07
6.4144e-08
-5.48091e-07
5.80933e-08
-5.56256e-07
5.18355e-08
-5.63404e-07
4.53921e-08
-5.6951e-07
3.87851e-08
-5.74552e-07
3.20368e-08
-5.78511e-07
2.51696e-08
-5.81373e-07
1.82064e-08
-5.83128e-07
1.11702e-08
-5.83766e-07
4.08442e-09
-5.83285e-07
-3.02742e-09
-5.81683e-07
-1.01414e-08
-5.78966e-07
-1.72334e-08
-5.7514e-07
-2.4279e-08
-5.70217e-07
-3.12536e-08
-5.6421e-07
-3.81326e-08
-5.5714e-07
-4.48909e-08
-5.49029e-07
-5.15035e-08
-5.39903e-07
-5.79453e-08
-5.29793e-07
-6.41911e-08
-5.18732e-07
-7.02159e-08
-5.0676e-07
-7.59945e-08
-4.93917e-07
-8.15021e-08
-4.80249e-07
-8.67141e-08
-4.65806e-07
-9.16063e-08
-4.50639e-07
-9.61546e-08
-4.34806e-07
-1.00336e-07
-4.18365e-07
-1.04127e-07
-4.01381e-07
-1.07507e-07
-3.83918e-07
-1.10454e-07
-3.66045e-07
-1.12949e-07
-3.47834e-07
-1.14972e-07
-3.29359e-07
-1.16506e-07
-3.10697e-07
-1.17535e-07
-2.91925e-07
-1.18045e-07
-2.73123e-07
-1.18025e-07
-2.54372e-07
-1.17463e-07
-2.35755e-07
-1.16352e-07
-2.17353e-07
-1.14688e-07
-1.99249e-07
-1.12468e-07
-1.81526e-07
-1.09693e-07
-1.64263e-07
-1.0637e-07
-1.4754e-07
-1.02507e-07
-1.31434e-07
-9.81179e-08
-1.16019e-07
-9.32227e-08
-1.01365e-07
-8.78464e-08
-8.75379e-08
-8.20213e-08
-7.45979e-08
-7.57871e-08
-6.25993e-08
-6.91926e-08
-5.15894e-08
-6.22964e-08
-4.16078e-08
-5.5169e-08
-3.26852e-08
-4.7894e-08
-2.48435e-08
-4.05704e-08
-1.80946e-08
-3.33148e-08
-1.24402e-08
-2.6264e-08
-7.87232e-09
-1.95777e-08
-4.37329e-09
-1.34426e-08
-1.91705e-09
-8.07407e-09
-4.71098e-10
-3.71973e-09
-6.79305e-10
-6.0975e-10
1.52211e-09
-2.43369e-09
6.1978e-09
-5.47242e-09
1.21331e-08
-9.72698e-09
1.90221e-08
-1.51953e-08
2.66102e-08
-2.18698e-08
3.46748e-08
-2.97365e-08
4.30231e-08
-3.87738e-08
5.14898e-08
-4.89524e-08
5.9934e-08
-6.02352e-08
6.82363e-08
-7.25781e-08
7.62961e-08
-8.59297e-08
8.40294e-08
-1.00233e-07
9.13667e-08
-1.15425e-07
9.82509e-08
-1.31437e-07
1.04636e-07
-1.48199e-07
1.10486e-07
-1.65634e-07
1.15771e-07
-1.83665e-07
1.20472e-07
-2.02212e-07
1.24572e-07
-2.21194e-07
1.28063e-07
-2.40527e-07
1.30939e-07
-2.6013e-07
1.332e-07
-2.79919e-07
1.34848e-07
-2.99812e-07
1.3589e-07
-3.19727e-07
1.36332e-07
-3.39585e-07
1.36186e-07
-3.59305e-07
1.35465e-07
-3.78812e-07
1.34182e-07
-3.98028e-07
1.32353e-07
-4.16882e-07
1.29996e-07
-4.35302e-07
1.27129e-07
-4.5322e-07
1.2377e-07
-4.70571e-07
1.1994e-07
-4.87291e-07
1.1566e-07
-5.0332e-07
1.1095e-07
-5.18602e-07
1.05833e-07
-5.33082e-07
1.00332e-07
-5.4671e-07
9.44684e-08
-5.59438e-07
8.82665e-08
-5.71222e-07
8.17501e-08
-5.82022e-07
7.49432e-08
-5.91799e-07
6.78703e-08
-6.0052e-07
6.05564e-08
-6.08154e-07
5.30267e-08
-6.14676e-07
4.53067e-08
-6.20061e-07
3.74223e-08
-6.24291e-07
2.93997e-08
-6.2735e-07
2.12655e-08
-6.29227e-07
1.30465e-08
-6.29912e-07
4.76991e-09
-6.29403e-07
-3.53677e-09
-6.27698e-07
-1.18457e-08
-6.24803e-07
-2.01289e-08
-6.20724e-07
-2.8358e-08
-6.15473e-07
-3.65043e-08
-6.09067e-07
-4.45391e-08
-6.01524e-07
-5.24333e-08
-5.9287e-07
-6.0158e-08
-5.83131e-07