/*--------------------------------*- C++ -*----------------------------------*\
| =========                 |                                                 |
| \\      /  F ield         | OpenFOAM: The Open Source CFD Toolbox           |
|  \\    /   O peration     | Version:  2212                                  |
|   \\  /    A nd           | Website:  www.openfoam.com                      |
|    \\/     M anipulation  |                                                 |
\*---------------------------------------------------------------------------*/
FoamFile
{
    version     2.0;
    format      ascii;
    arch        "LSB;label=32;scalar=64";
    class       surfaceScalarField;
    location    "0.062";
    object      phi;
}
// * * * * * * * * * * * * * * * * * * * * * * * * * * * * * * * * * * * * * //

dimensions      [0 3 -1 0 0 0 0];

oriented        oriented;

internalField   nonuniform List<scalar> 
19800
(
6.77159e-11
-6.76959e-11
2.33366e-10
-1.65642e-10
4.16517e-10
-1.83155e-10
5.59241e-10
-1.42732e-10
6.29299e-10
-7.00577e-11
6.09613e-10
1.97025e-11
4.91941e-10
1.17654e-10
2.73559e-10
2.18405e-10
-4.496e-11
3.18513e-10
-4.60815e-10
4.15846e-10
-9.69792e-10
5.08995e-10
-1.56678e-09
5.96974e-10
-2.24599e-09
6.79219e-10
-3.00128e-09
7.55294e-10
-3.82622e-09
8.24948e-10
-4.71427e-09
8.88064e-10
-5.65881e-09
9.44559e-10
-6.65325e-09
9.94432e-10
-7.69102e-09
1.03776e-09
-8.76566e-09
1.07461e-09
-9.87077e-09
1.1051e-09
-1.10001e-08
1.12937e-09
-1.21477e-08
1.14756e-09
-1.33076e-08
1.15983e-09
-1.44739e-08
1.16635e-09
-1.56412e-08
1.16732e-09
-1.68041e-08
1.16291e-09
-1.79575e-08
1.15332e-09
-1.90962e-08
1.13876e-09
-2.02156e-08
1.11941e-09
-2.13111e-08
1.09548e-09
-2.23783e-08
1.06718e-09
-2.3413e-08
1.0347e-09
-2.44112e-08
9.98254e-10
-2.53693e-08
9.58051e-10
-2.62836e-08
9.14296e-10
-2.71508e-08
8.67186e-10
-2.79677e-08
8.16931e-10
-2.87315e-08
7.63746e-10
-2.94393e-08
7.07836e-10
-3.00887e-08
6.49404e-10
-3.06773e-08
5.88658e-10
-3.12032e-08
5.25821e-10
-3.16643e-08
4.6111e-10
-3.2059e-08
3.94734e-10
-3.23859e-08
3.26907e-10
-3.26438e-08
2.57844e-10
-3.28315e-08
1.87766e-10
-3.29484e-08
1.16912e-10
-3.29939e-08
4.55054e-11
-3.29677e-08
-2.62289e-11
-3.28697e-08
-9.80497e-11
-3.27e-08
-1.69717e-10
-3.2459e-08
-2.40991e-10
-3.21474e-08
-3.11623e-10
-3.1766e-08
-3.81364e-10
-3.1316e-08
-4.49962e-10
-3.07989e-08
-5.17156e-10
-3.02162e-08
-5.82689e-10
-2.95699e-08
-6.46303e-10
-2.88622e-08
-7.07728e-10
-2.80955e-08
-7.66698e-10
-2.72725e-08
-8.22953e-10
-2.63963e-08
-8.7622e-10
-2.547e-08
-9.26232e-10
-2.44973e-08
-9.72731e-10
-2.34819e-08
-1.01546e-09
-2.24277e-08
-1.05414e-09
-2.13392e-08
-1.08852e-09
-2.02208e-08
-1.11836e-09
-1.90774e-08
-1.1434e-09
-1.7914e-08
-1.16342e-09
-1.67358e-08
-1.17819e-09
-1.55483e-08
-1.1875e-09
-1.43572e-08
-1.19114e-09
-1.31683e-08
-1.1889e-09
-1.19877e-08
-1.18062e-09
-1.08215e-08
-1.16613e-09
-9.67624e-09
-1.1453e-09
-8.55825e-09
-1.11799e-09
-7.47413e-09
-1.08412e-09
-6.43051e-09
-1.04362e-09
-5.43405e-09
-9.96459e-10
-4.49143e-09
-9.42619e-10
-3.60928e-09
-8.8215e-10
-2.79412e-09
-8.15154e-10
-2.05233e-09
-7.41802e-10
-1.38998e-09
-6.62352e-10
-8.12786e-10
-5.77186e-10
-3.25932e-10
-4.86851e-10
6.6186e-11
-3.92117e-10
3.60273e-10
-2.94085e-10
5.5462e-10
-1.94345e-10
6.49872e-10
-9.5253e-11
6.50294e-10
-4.22859e-13
5.65645e-10
8.46497e-11
4.1442e-10
1.51228e-10
2.2905e-10
1.85374e-10
6.49278e-11
1.64124e-10
6.49265e-11
1.61058e-10
-2.28742e-10
4.44888e-10
-4.49494e-10
7.18147e-10
-4.56396e-10
8.81114e-10
-3.0572e-10
8.65251e-10
-5.41845e-11
6.27285e-10
2.57644e-10
1.42517e-10
6.02454e-10
-6.00837e-10
9.61728e-10
-1.60528e-09
1.32297e-09
-2.86702e-09
1.67757e-09
-4.37766e-09
2.01961e-09
-6.12559e-09
2.34493e-09
-8.09702e-09
2.65063e-09
-1.02765e-08
2.93476e-09
-1.26476e-08
3.19598e-09
-1.5193e-08
3.43346e-09
-1.78951e-08
3.6467e-09
-2.07362e-08
3.83551e-09
-2.36983e-08
3.99988e-09
-2.67636e-08
4.13998e-09
-2.99146e-08
4.25612e-09
-3.31339e-08
4.34871e-09
-3.64046e-08
4.41824e-09
-3.971e-08
4.46525e-09
-4.3034e-08
4.49035e-09
-4.63609e-08
4.49418e-09
-4.96754e-08
4.47743e-09
-5.29629e-08
4.44081e-09
-5.62092e-08
4.38504e-09
-5.94006e-08
4.31085e-09
-6.25242e-08
4.21902e-09
-6.55673e-08
4.11029e-09
-6.8518e-08
3.98545e-09
-7.13651e-08
3.84529e-09
-7.40976e-08
3.69059e-09
-7.67055e-08
3.52213e-09
-7.9179e-08
3.3407e-09
-8.15092e-08
3.14712e-09
-8.36876e-08
2.94217e-09
-8.57064e-08
2.72668e-09
-8.75585e-08
2.50144e-09
-8.92371e-08
2.26726e-09
-9.07362e-08
2.02498e-09
-9.20505e-08
1.77542e-09
-9.31752e-08
1.51943e-09
-9.41061e-08
1.25784e-09
-9.48398e-08
9.91514e-10
-9.53734e-08
7.21319e-10
-9.57046e-08
4.48131e-10
-9.58319e-08
1.72842e-10
-9.57545e-08
-1.03659e-10
-9.54721e-08
-3.80458e-10
-9.49852e-08
-6.56615e-10
-9.4295e-08
-9.3119e-10
-9.34034e-08
-1.20323e-09
-9.2313e-08
-1.47176e-09
-9.10271e-08
-1.73581e-09
-8.95499e-08
-1.9944e-09
-8.78861e-08
-2.24652e-09
-8.60412e-08
-2.49115e-09
-8.40216e-08
-2.72731e-09
-8.18344e-08
-2.95394e-09
-7.94873e-08
-3.17003e-09
-7.69889e-08
-3.37457e-09
-7.43486e-08
-3.56656e-09
-7.15764e-08
-3.74497e-09
-6.8683e-08
-3.9088e-09
-6.56801e-08
-4.05708e-09
-6.25798e-08
-4.18881e-09
-5.93951e-08
-4.30306e-09
-5.61396e-08
-4.39891e-09
-5.28275e-08
-4.4755e-09
-4.94737e-08
-4.53197e-09
-4.60937e-08
-4.56753e-09
-4.27034e-08
-4.5814e-09
-3.93194e-08
-4.5729e-09
-3.59587e-08
-4.54137e-09
-3.26386e-08
-4.48625e-09
-2.93768e-08
-4.40707e-09
-2.61913e-08
-4.30344e-09
-2.31004e-08
-4.17507e-09
-2.01222e-08
-4.0218e-09
-1.72751e-08
-3.84359e-09
-1.45771e-08
-3.64059e-09
-1.20461e-08
-3.41312e-09
-9.69952e-09
-3.16177e-09
-7.5539e-09
-2.88742e-09
-5.6249e-09
-2.59134e-09
-3.92676e-09
-2.27533e-09
-2.47178e-09
-1.94183e-09
-1.26969e-09
-1.5942e-09
-3.26692e-10
-1.23708e-09
3.55888e-10
-8.76922e-10
7.83388e-10
-5.22757e-10
9.70404e-10
-1.87442e-10
9.44469e-10
1.10585e-10
7.50809e-10
3.44885e-10
4.5825e-10
4.77931e-10
1.64023e-10
4.58351e-10
2.28947e-10
1.74957e-10
-4.03704e-10
4.4265e-10
-7.17165e-10
6.40615e-10
-6.54357e-10
6.50652e-10
-3.15754e-10
3.87083e-10
2.09392e-10
-2.08172e-10
8.52896e-10
-1.17109e-09
1.56536e-09
-2.52073e-09
2.31138e-09
-4.26339e-09
3.06562e-09
-6.39576e-09
3.80996e-09
-8.90743e-09
4.5313e-09
-1.17827e-08
5.22023e-09
-1.50021e-08
5.87e-09
-1.85431e-08
6.4758e-09
-2.23814e-08
7.03426e-09
-2.64911e-08
7.54314e-09
-3.08454e-08
8.00104e-09
-3.54171e-08
8.40717e-09
-4.01785e-08
8.76128e-09
-4.5102e-08
9.06352e-09
-5.01603e-08
9.31434e-09
-5.5326e-08
9.51445e-09
-6.05725e-08
9.66477e-09
-6.58736e-08
9.76637e-09
-7.12038e-08
9.82047e-09
-7.65379e-08
9.82838e-09
-8.1852e-08
9.79152e-09
-8.71226e-08
9.71137e-09
-9.2327e-08
9.58945e-09
-9.74435e-08
9.42735e-09
-1.02451e-07
9.22669e-09
-1.0733e-07
8.9891e-09
-1.12061e-07
8.71625e-09
-1.16625e-07
8.40984e-09
-1.21006e-07
8.07158e-09
-1.25187e-07
7.70318e-09
-1.29153e-07
7.30637e-09
-1.32889e-07
6.88289e-09
-1.36381e-07
6.4345e-09
-1.39617e-07
5.96297e-09
-1.42586e-07
5.47007e-09
-1.45276e-07
4.95761e-09
-1.47679e-07
4.42739e-09
-1.49785e-07
3.88123e-09
-1.51586e-07
3.32098e-09
-1.53077e-07
2.74848e-09
-1.54251e-07
2.16563e-09
-1.55104e-07
1.57435e-09
-1.55632e-07
9.76552e-10
-1.55834e-07
3.74205e-10
-1.55707e-07
-2.30713e-10
-1.55251e-07
-8.36197e-10
-1.54467e-07
-1.44021e-09
-1.53358e-07
-2.04067e-09
-1.51926e-07
-2.6355e-09
-1.50175e-07
-3.22256e-09
-1.48111e-07
-3.79972e-09
-1.45741e-07
-4.36482e-09
-1.43071e-07
-4.91567e-09
-1.40112e-07
-5.45008e-09
-1.36874e-07
-5.96583e-09
-1.33367e-07
-6.46069e-09
-1.29605e-07
-6.93245e-09
-1.256e-07
-7.37888e-09
-1.21369e-07
-7.7978e-09
-1.16927e-07
-8.18702e-09
-1.12292e-07
-8.54437e-09
-1.07481e-07
-8.86771e-09
-1.02515e-07
-9.15495e-09
-9.74138e-08
-9.40408e-09
-9.21996e-08
-9.61312e-09
-8.68949e-08
-9.78018e-09
-8.15234e-08
-9.90347e-09
-7.61096e-08
-9.98129e-09
-7.0679e-08
-1.0012e-08
-6.52577e-08
-9.99427e-09
-5.98724e-08
-9.92665e-09
-5.45506e-08
-9.80804e-09
-4.93202e-08
-9.6375e-09
-4.42093e-08
-9.41429e-09
-3.92464e-08
-9.13793e-09
-3.446e-08
-8.80821e-09
-2.98784e-08
-8.42524e-09
-2.55295e-08
-7.98953e-09
-2.14405e-08
-7.50206e-09
-1.76379e-08
-6.96438e-09
-1.41466e-08
-6.37873e-09
-1.09897e-08
-5.74824e-09
-8.18787e-09
-5.07718e-09
-5.7584e-09
-4.37129e-09
-3.71434e-09
-3.63825e-09
-2.06304e-09
-2.88839e-09
-8.04356e-10
-2.13561e-09
7.16189e-11
-1.39873e-09
5.87601e-10
-7.03419e-10
7.82906e-10
-8.4723e-11
7.18082e-10
4.09702e-10
4.79832e-10
7.16181e-10
1.85826e-10
7.52356e-10
4.14771e-10
1.3737e-10
-5.41087e-10
2.96416e-10
-8.76228e-10
3.06257e-10
-6.6419e-10
4.23151e-11
-5.18282e-11
-5.87252e-10
8.38973e-10
-1.64693e-09
1.91258e-09
-3.17839e-09
3.09683e-09
-5.20494e-09
4.33793e-09
-7.73527e-09
5.59593e-09
-1.07666e-08
6.84123e-09
-1.42871e-08
8.05183e-09
-1.82783e-08
9.21141e-09
-2.27163e-08
1.0308e-08
-2.75733e-08
1.13328e-08
-3.28186e-08
1.22795e-08
-3.84192e-08
1.31438e-08
-4.43409e-08
1.39227e-08
-5.05482e-08
1.46145e-08
-5.70052e-08
1.52183e-08
-6.36759e-08
1.57342e-08
-7.0524e-08
1.61625e-08
-7.75138e-08
1.65042e-08
-8.46098e-08
1.67608e-08
-9.17772e-08
1.69338e-08
-9.89821e-08
1.70253e-08
-1.06191e-07
1.70373e-08
-1.13372e-07
1.69722e-08
-1.20493e-07
1.68324e-08
-1.27524e-07
1.66206e-08
-1.34436e-07
1.63392e-08
-1.412e-07
1.59912e-08
-1.4779e-07
1.55793e-08
-1.54181e-07
1.51063e-08
-1.60346e-07
1.45751e-08
-1.66263e-07
1.39888e-08
-1.7191e-07
1.33501e-08
-1.77266e-07
1.26622e-08
-1.82311e-07
1.1928e-08
-1.87027e-07
1.11506e-08
-1.91397e-07
1.0333e-08
-1.95405e-07
9.47837e-09
-1.99037e-07
8.58977e-09
-2.0228e-07
7.67038e-09
-2.05123e-07
6.72335e-09
-2.07554e-07
5.75189e-09
-2.09564e-07
4.75925e-09
-2.11147e-07
3.7487e-09
-2.12297e-07
2.72357e-09
-2.13007e-07
1.68722e-09
-2.13276e-07
6.43051e-10
-2.13101e-07
-4.05478e-10
-2.12483e-07
-1.45487e-09
-2.11421e-07
-2.50159e-09
-2.0992e-07
-3.54206e-09
-2.07983e-07
-4.57262e-09
-2.05616e-07
-5.5896e-09
-2.02826e-07
-6.5893e-09
-1.99623e-07
-7.56796e-09
-1.96017e-07
-8.5218e-09
-1.9202e-07
-9.44702e-09
-1.87646e-07
-1.03398e-08
-1.8291e-07
-1.11963e-08
-1.7783e-07
-1.20127e-08
-1.72424e-07
-1.27853e-08
-1.66711e-07
-1.35101e-08
-1.60715e-07
-1.41834e-08
-1.54458e-07
-1.48016e-08
-1.47965e-07
-1.53609e-08
-1.41262e-07
-1.58579e-08
-1.34377e-07
-1.6289e-08
-1.27339e-07
-1.66509e-08
-1.20179e-07
-1.69404e-08
-1.12928e-07
-1.71545e-08
-1.05619e-07
-1.72903e-08
-9.82858e-08
-1.73451e-08
-9.09636e-08
-1.73165e-08
-8.36878e-08
-1.72024e-08
-7.64949e-08
-1.7001e-08
-6.94217e-08
-1.67106e-08
-6.25056e-08
-1.63304e-08
-5.57841e-08
-1.58595e-08
-4.92944e-08
-1.52979e-08
-4.30736e-08
-1.4646e-08
-3.7158e-08
-1.39051e-08
-3.15831e-08
-1.3077e-08
-2.63825e-08
-1.2165e-08
-2.15881e-08
-1.11731e-08
-1.7229e-08
-1.01073e-08
-1.33308e-08
-8.97535e-09
-9.91469e-09
-7.78744e-09
-6.99592e-09
-6.55703e-09
-4.58255e-09
-5.30177e-09
-2.67332e-09
-4.04484e-09
-1.25526e-09
-2.81678e-09
-3.00832e-10
-1.65785e-09
2.35628e-10
-6.21188e-10
4.2191e-10
2.23423e-10
3.52331e-10
7.85766e-10
1.5338e-10
9.51306e-10
5.68152e-10
6.99148e-11
-6.11002e-10
5.60614e-11
-8.62376e-10
-2.03684e-10
-4.04444e-10
-8.30337e-10
5.74845e-10
-1.91461e-09
1.92322e-09
-3.52133e-09
3.51931e-09
-5.69344e-09
5.26894e-09
-8.45545e-09
7.09993e-09
-1.18167e-08
8.95716e-09
-1.57739e-08
1.07985e-08
-2.03142e-08
1.25921e-08
-2.54164e-08
1.43136e-08
-3.10531e-08
1.59447e-08
-3.71921e-08
1.74718e-08
-4.37975e-08
1.88849e-08
-5.08305e-08
2.01768e-08
-5.82503e-08
2.13425e-08
-6.60147e-08
2.23789e-08
-7.40807e-08
2.32843e-08
-8.24046e-08
2.40581e-08
-9.09428e-08
2.47006e-08
-9.96517e-08
2.52131e-08
-1.08488e-07
2.55973e-08
-1.1741e-07
2.58555e-08
-1.26375e-07
2.59904e-08
-1.35343e-07
2.60051e-08
-1.44273e-07
2.59029e-08
-1.53128e-07
2.56873e-08
-1.6187e-07
2.53623e-08
-1.70463e-07
2.49317e-08
-1.78871e-07
2.43997e-08
-1.87062e-07
2.37703e-08
-1.95004e-07
2.3048e-08
-2.02666e-07
2.2237e-08
-2.10019e-07
2.13418e-08
-2.17036e-07
2.0367e-08
-2.2369e-07
1.93169e-08
-2.29958e-07
1.81962e-08
-2.35817e-07
1.70096e-08
-2.41246e-07
1.57617e-08
-2.46225e-07
1.44573e-08
-2.50736e-07
1.3101e-08
-2.54764e-07
1.16978e-08
-2.58293e-07
1.02524e-08
-2.61311e-07
8.76972e-09
-2.63806e-07
7.25481e-09
-2.6577e-07
5.71267e-09
-2.67195e-07
4.14835e-09
-2.68075e-07
2.56701e-09
-2.68405e-07
9.73864e-10
-2.68185e-07
-6.25819e-10
-2.67413e-07
-2.22668e-09
-2.66092e-07
-3.82332e-09
-2.64223e-07
-5.41024e-09
-2.61814e-07
-6.98192e-09
-2.58871e-07
-8.53272e-09
-2.55403e-07
-1.0057e-08
-2.51422e-07
-1.1549e-08
-2.46941e-07
-1.30031e-08
-2.41974e-07
-1.44134e-08
-2.3654e-07
-1.57741e-08
-2.30657e-07
-1.70794e-08
-2.24346e-07
-1.83235e-08
-2.17631e-07
-1.95006e-08
-2.10536e-07
-2.0605e-08
-2.03088e-07
-2.1631e-08
-1.95317e-07
-2.2573e-08
-1.87252e-07
-2.34255e-08
-1.78927e-07
-2.41831e-08
-1.70375e-07
-2.48406e-08
-1.61633e-07
-2.53931e-08
-1.52738e-07
-2.58357e-08
-1.43728e-07
-2.61639e-08
-1.34645e-07
-2.63734e-08
-1.2553e-07
-2.64604e-08
-1.16425e-07
-2.64213e-08
-1.07374e-07
-2.6253e-08
-9.84224e-08
-2.5953e-08
-8.96141e-08
-2.5519e-08
-8.09946e-08
-2.49498e-08
-7.26095e-08
-2.42446e-08
-6.4504e-08
-2.34034e-08
-5.67226e-08
-2.24274e-08
-4.9309e-08
-2.13187e-08
-4.23053e-08
-2.00807e-08
-3.57518e-08
-1.87185e-08
-2.96859e-08
-1.7239e-08
-2.41417e-08
-1.56515e-08
-1.9149e-08
-1.39681e-08
-1.4732e-08
-1.22045e-08
-1.09081e-08
-1.0381e-08
-7.68616e-09
-8.52367e-09
-5.06482e-09
-6.66618e-09
-3.02994e-09
-4.85167e-09
-1.55213e-09
-3.13567e-09
-5.83764e-10
-1.58955e-09
-5.55664e-11
-3.04768e-10
1.27176e-10
6.03027e-10
8.97015e-11
9.88781e-10
6.57857e-10
-1.45579e-11
-5.96423e-10
-2.43284e-10
-6.33668e-10
-8.29156e-10
1.81432e-10
-1.8823e-09
1.628e-09
-3.48663e-09
3.52754e-09
-5.70296e-09
5.73564e-09
-8.57187e-09
8.13784e-09
-1.21164e-08
1.06445e-08
-1.63446e-08
1.31854e-08
-2.12519e-08
1.57059e-08
-2.68233e-08
1.81635e-08
-3.30352e-08
2.05255e-08
-3.98571e-08
2.27665e-08
-4.72527e-08
2.48675e-08
-5.51817e-08
2.68139e-08
-6.36003e-08
2.85954e-08
-7.24621e-08
3.02043e-08
-8.1719e-08
3.16358e-08
-9.13216e-08
3.28869e-08
-1.0122e-07
3.39564e-08
-1.11363e-07
3.48442e-08
-1.21702e-07
3.55517e-08
-1.32186e-07
3.60809e-08
-1.42765e-07
3.64347e-08
-1.53391e-07
3.66167e-08
-1.64017e-07
3.66308e-08
-1.74595e-07
3.64815e-08
-1.85082e-07
3.61738e-08
-1.95432e-07
3.57127e-08
-2.05604e-07
3.51037e-08
-2.15557e-07
3.43523e-08
-2.25251e-07
3.34644e-08
-2.34649e-07
3.24459e-08
-2.43715e-07
3.13029e-08
-2.52415e-07
3.00416e-08
-2.60716e-07
2.86682e-08
-2.68588e-07
2.71891e-08
-2.76002e-07
2.56107e-08
-2.82932e-07
2.39395e-08
-2.89353e-07
2.21821e-08
-2.9524e-07
2.03451e-08
-3.00575e-07
1.84353e-08
-3.05336e-07
1.64593e-08
-3.09508e-07
1.44242e-08
-3.13075e-07
1.23366e-08
-3.16024e-07
1.02038e-08
-3.18344e-07
8.0327e-09
-3.20026e-07
5.83054e-09
-3.21064e-07
3.60455e-09
-3.21452e-07
1.36209e-09
-3.21188e-07
-8.89398e-10
-3.20273e-07
-3.14239e-09
-3.18707e-07
-5.38926e-09
-3.16495e-07
-7.62227e-09
-3.13643e-07
-9.83364e-09
-3.1016e-07
-1.20155e-08
-3.06057e-07
-1.41598e-08
-3.01348e-07
-1.62587e-08
-2.96047e-07
-1.83039e-08
-2.90173e-07
-2.02875e-08
-2.83746e-07
-2.22012e-08
-2.76788e-07
-2.40369e-08
-2.69325e-07
-2.57866e-08
-2.61384e-07
-2.7442e-08
-2.52993e-07
-2.89953e-08
-2.44186e-07
-3.04384e-08
-2.34996e-07
-3.17636e-08
-2.25458e-07
-3.29632e-08
-2.15611e-07
-3.40297e-08
-2.05496e-07
-3.49561e-08
-1.95154e-07
-3.57353e-08
-1.84629e-07
-3.63607e-08
-1.73967e-07
-3.68261e-08
-1.63214e-07
-3.71257e-08
-1.52421e-07
-3.72542e-08
-1.41635e-07
-3.72068e-08
-1.30909e-07
-3.69793e-08
-1.20293e-07
-3.65685e-08
-1.09841e-07
-3.59715e-08
-9.96039e-08
-3.51868e-08
-8.96349e-08
-3.42136e-08
-7.99859e-08
-3.30524e-08
-7.07083e-08
-3.1705e-08
-6.1852e-08
-3.0175e-08
-5.34651e-08
-2.84676e-08
-4.55934e-08
-2.65903e-08
-3.82792e-08
-2.45532e-08
-3.15611e-08
-2.23696e-08
-2.54724e-08
-2.00568e-08
-2.00403e-08
-1.76366e-08
-1.52844e-08
-1.51369e-08
-1.12152e-08
-1.25929e-08
-7.83219e-09
-1.00492e-08
-5.12199e-09
-7.56186e-09
-3.05607e-09
-5.20158e-09
-1.58832e-09
-3.05729e-09
-6.52412e-10
-1.24068e-09
-1.58868e-10
1.09484e-10
8.55005e-12
8.21369e-10
6.6641e-10
-1.08009e-10
-4.88438e-10
-5.77174e-10
-1.6449e-10
-1.52634e-09
1.13058e-09
-3.04989e-09
3.15156e-09
-5.22095e-09
5.69861e-09
-8.0929e-09
8.60756e-09
-1.1701e-08
1.1746e-08
-1.60647e-08
1.50081e-08
-2.11889e-08
1.83095e-08
-2.70664e-08
2.15834e-08
-3.36796e-08
2.47767e-08
-4.1002e-08
2.78478e-08
-4.89996e-08
3.07642e-08
-5.76328e-08
3.35007e-08
-6.68569e-08
3.60381e-08
-7.66237e-08
3.83622e-08
-8.68819e-08
4.04625e-08
-9.75781e-08
4.2332e-08
-1.08658e-07
4.39663e-08
-1.20064e-07
4.5363e-08
-1.31742e-07
4.65219e-08
-1.43634e-07
4.7444e-08
-1.55685e-07
4.81317e-08
-1.67839e-07
4.85884e-08
-1.80041e-07
4.88185e-08
-1.92237e-07
4.8827e-08
-2.04375e-07
4.86197e-08
-2.16404e-07
4.82026e-08
-2.28274e-07
4.75825e-08
-2.39936e-07
4.67663e-08
-2.51345e-07
4.57614e-08
-2.62456e-07
4.45754e-08
-2.73226e-07
4.32159e-08
-2.83614e-07
4.16911e-08
-2.93582e-07
4.00091e-08
-3.03092e-07
3.81781e-08
-3.12109e-07
3.62066e-08
-3.20602e-07
3.4103e-08
-3.28538e-07
3.18761e-08
-3.35891e-07
2.95345e-08
-3.42633e-07
2.70871e-08
-3.4874e-07
2.45428e-08
-3.54191e-07
2.19106e-08
-3.58967e-07
1.91996e-08
-3.63049e-07
1.64192e-08
-3.66424e-07
1.35785e-08
-3.69078e-07
1.0687e-08
-3.71002e-07
7.7543e-09
-3.72188e-07
4.79009e-09
-3.7263e-07
1.80412e-09
-3.72325e-07
-1.19368e-09
-3.71275e-07
-4.19327e-09
-3.69479e-07
-7.18452e-09
-3.66944e-07
-1.01571e-08
-3.63677e-07
-1.31008e-08
-3.59688e-07
-1.60049e-08
-3.54989e-07
-1.8859e-08
-3.49595e-07
-2.16523e-08
-3.43525e-07
-2.43743e-08
-3.36798e-07
-2.7014e-08
-3.29439e-07
-2.95608e-08
-3.21472e-07
-3.20038e-08
-3.12926e-07
-3.43323e-08
-3.03832e-07
-3.65356e-08
-2.94225e-07
-3.86031e-08
-2.84139e-07
-4.05244e-08
-2.73613e-07
-4.22892e-08
-2.62689e-07
-4.38873e-08
-2.51409e-07
-4.53091e-08
-2.39821e-07
-4.6545e-08
-2.2797e-07
-4.7586e-08
-2.15907e-07
-4.84236e-08
-2.03683e-07
-4.90494e-08
-1.91353e-07
-4.94561e-08
-1.7897e-07
-4.96369e-08
-1.66592e-07
-4.95855e-08
-1.54274e-07
-4.92967e-08
-1.42076e-07
-4.87664e-08
-1.30057e-07
-4.79913e-08
-1.18274e-07
-4.69695e-08
-1.06787e-07
-4.57004e-08
-9.56543e-08
-4.41851e-08
-8.49328e-08
-4.24265e-08
-7.46783e-08
-4.04296e-08
-6.49441e-08
-3.82018e-08
-5.57808e-08
-3.57535e-08
-4.72355e-08
-3.30985e-08
-3.93506e-08
-3.02546e-08
-3.21629e-08
-2.72444e-08
-2.57028e-08
-2.40967e-08
-1.99924e-08
-2.08473e-08
-1.50445e-08
-1.75408e-08
-1.0861e-08
-1.42327e-08
-7.43094e-09
-1.09919e-08
-4.72892e-09
-7.9036e-09
-2.71321e-09
-5.07301e-09
-1.32382e-09
-2.63007e-09
-4.80701e-10
-7.33629e-10
-8.17779e-11
4.22454e-10
5.84633e-10
-2.05374e-10
-2.8303e-10
-9.29204e-10
5.59317e-10
-2.26439e-09
2.46579e-09
-4.28699e-09
5.17418e-09
-7.0566e-09
8.46821e-09
-1.06166e-08
1.21676e-08
-1.49949e-08
1.61243e-08
-2.0205e-08
2.02182e-08
-2.62475e-08
2.43521e-08
-3.31113e-08
2.84472e-08
-4.07752e-08
3.24406e-08
-4.92092e-08
3.62818e-08
-5.8376e-08
3.9931e-08
-6.82321e-08
4.33568e-08
-7.87291e-08
4.65351e-08
-8.98143e-08
4.94474e-08
-1.01432e-07
5.20802e-08
-1.13524e-07
5.44241e-08
-1.26031e-07
5.64728e-08
-1.38891e-07
5.82231e-08
-1.52042e-07
5.96737e-08
-1.65424e-07
6.08258e-08
-1.78974e-07
6.16818e-08
-1.92632e-07
6.22457e-08
-2.06336e-07
6.25226e-08
-2.20027e-07
6.25187e-08
-2.33648e-07
6.22407e-08
-2.47142e-07
6.16964e-08
-2.60454e-07
6.0894e-08
-2.7353e-07
5.98423e-08
-2.86319e-07
5.85503e-08
-2.98771e-07
5.70276e-08
-3.10839e-07
5.5284e-08
-3.22478e-07
5.33296e-08
-3.33643e-07
5.11747e-08
-3.44295e-07
4.88298e-08
-3.54394e-07
4.63056e-08
-3.63904e-07
4.3613e-08
-3.72791e-07
4.07628e-08
-3.81022e-07
3.77664e-08
-3.8857e-07
3.46348e-08
-3.95407e-07
3.13796e-08
-4.01509e-07
2.80122e-08
-4.06853e-07
2.45444e-08
-4.11422e-07
2.09878e-08
-4.15198e-07
1.73545e-08
-4.18168e-07
1.36565e-08
-4.20319e-07
9.90596e-09
-4.21644e-07
6.11536e-09
-4.22138e-07
2.29719e-09
-4.21795e-07
-1.5359e-09
-4.20617e-07
-5.37107e-09
-4.18607e-07
-9.19536e-09
-4.15768e-07
-1.29957e-08
-4.1211e-07
-1.67587e-08
-4.07644e-07
-2.04711e-08
-4.02384e-07
-2.41194e-08
-3.96346e-07
-2.76901e-08
-3.89551e-07
-3.11693e-08
-3.82021e-07
-3.45436e-08
-3.73783e-07
-3.77991e-08
-3.64865e-07
-4.09221e-08
-3.55298e-07
-4.38989e-08
-3.45118e-07
-4.67161e-08
-3.34361e-07
-4.93601e-08
-3.23067e-07
-5.18177e-08
-3.11281e-07
-5.40759e-08
-2.99046e-07
-5.6122e-08
-2.86411e-07
-5.79436e-08
-2.73428e-07
-5.95288e-08
-2.60148e-07
-6.08662e-08
-2.46626e-07
-6.19449e-08
-2.32921e-07
-6.27549e-08
-2.1909e-07
-6.32868e-08
-2.05195e-07
-6.3532e-08
-1.91297e-07
-6.3483e-08
-1.77461e-07
-6.31336e-08
-1.63748e-07
-6.24785e-08
-1.50226e-07
-6.1514e-08
-1.36957e-07
-6.02381e-08
-1.24007e-07
-5.86505e-08
-1.11439e-07
-5.67528e-08
-9.93164e-08
-5.45494e-08
-8.76991e-08
-5.20468e-08
-7.66458e-08
-4.92551e-08
-6.62116e-08
-4.61878e-08
-5.64476e-08
-4.28624e-08
-4.74004e-08
-3.93018e-08
-3.91103e-08
-3.55345e-08
-3.1611e-08
-3.1596e-08
-2.4928e-08
-2.75303e-08
-1.90771e-08
-2.33916e-08
-1.40638e-08
-1.9246e-08
-9.88105e-09
-1.51746e-08
-6.50865e-09
-1.1276e-08
-3.91142e-09
-7.67025e-09
-2.03833e-09
-4.50316e-09
-8.21588e-10
-1.95036e-09
-1.76204e-10
-2.22925e-10
4.08429e-10
-3.03674e-10
2.06296e-11
-1.28861e-09
1.54425e-09
-3.02216e-09
4.19931e-09
-5.56084e-09
7.71284e-09
-8.94913e-09
1.18565e-08
-1.32187e-08
1.64372e-08
-1.83884e-08
2.1294e-08
-2.44645e-08
2.62943e-08
-3.14415e-08
3.13291e-08
-3.93035e-08
3.63092e-08
-4.80249e-08
4.11619e-08
-5.75716e-08
4.58286e-08
-6.79026e-08
5.02619e-08
-7.89703e-08
5.44245e-08
-9.07223e-08
5.82871e-08
-1.03102e-07
6.1827e-08
-1.16049e-07
6.50275e-08
-1.29502e-07
6.78764e-08
-1.43394e-07
7.03657e-08
-1.57662e-07
7.24907e-08
-1.72238e-07
7.42496e-08
-1.87055e-07
7.56432e-08
-2.02047e-07
7.66739e-08
-2.17148e-07
7.73464e-08
-2.32292e-07
7.76663e-08
-2.47414e-07
7.76411e-08
-2.62452e-07
7.72787e-08
-2.77344e-07
7.65885e-08
-2.9203e-07
7.55801e-08
-3.06452e-07
7.42644e-08
-3.20554e-07
7.26522e-08
-3.34282e-07
7.07553e-08
-3.47583e-07
6.85856e-08
-3.60409e-07
6.61554e-08
-3.72712e-07
6.34775e-08
-3.84447e-07
6.05647e-08
-3.95572e-07
5.74303e-08
-4.06046e-07
5.40875e-08
-4.15833e-07
5.05499e-08
-4.24898e-07
4.68313e-08
-4.33209e-07
4.29457e-08
-4.40736e-07
3.89071e-08
-4.47454e-07
3.47297e-08
-4.53338e-07
3.04281e-08
-4.58367e-07
2.60169e-08
-4.62523e-07
2.15107e-08
-4.65791e-07
1.69247e-08
-4.68159e-07
1.22738e-08
-4.69617e-07
7.57356e-09
-4.70159e-07
2.83934e-09
-4.69782e-07
-1.91311e-09
-4.68485e-07
-6.66793e-09
-4.66272e-07
-1.14091e-08
-4.63147e-07
-1.61203e-08
-4.59121e-07
-2.07851e-08
-4.54204e-07
-2.53872e-08
-4.48414e-07
-2.99097e-08
-4.41768e-07
-3.43359e-08
-4.34289e-07
-3.8649e-08
-4.26e-07
-4.2832e-08
-4.16931e-07
-4.68681e-08
-4.07113e-07
-5.07402e-08
-3.9658e-07
-5.44317e-08
-3.85371e-07
-5.79257e-08
-3.73525e-07
-6.12057e-08
-3.61087e-07
-6.42556e-08
-3.48104e-07
-6.70592e-08
-3.34625e-07
-6.9601e-08
-3.20703e-07
-7.18658e-08
-3.06392e-07
-7.38392e-08
-2.91751e-07
-7.55071e-08
-2.7684e-07
-7.68564e-08
-2.6172e-07
-7.78748e-08
-2.46456e-07
-7.85508e-08
-2.31114e-07
-7.88744e-08
-2.1576e-07
-7.88365e-08
-2.00464e-07
-7.84295e-08
-1.85295e-07
-7.76474e-08
-1.70323e-07
-7.64861e-08
-1.55618e-07
-7.49433e-08
-1.41249e-07
-7.30191e-08
-1.27286e-07
-7.07161e-08
-1.13796e-07
-6.80396e-08
-1.00844e-07
-6.49986e-08
-8.84934e-08
-6.16056e-08
-7.68038e-08
-5.78773e-08
-6.58306e-08
-5.38357e-08
-5.56239e-08
-4.95085e-08
-4.62282e-08
-4.49302e-08
-3.76809e-08
-4.01434e-08
-3.00111e-08
-3.52001e-08
-2.3239e-08
-3.01637e-08
-1.73745e-08
-2.51105e-08
-1.24161e-08
-2.0133e-08
-8.35005e-09
-1.5342e-08
-5.14958e-09
-1.08707e-08
-2.77437e-09
-6.87836e-09
-1.17062e-09
-3.55411e-09
-2.71685e-10
-1.12185e-09
1.36746e-10
-4.01083e-10
4.21715e-10
-1.64852e-09
2.79169e-09
-3.78539e-09
6.33619e-09
-6.84866e-09
1.07761e-08
-1.08669e-08
1.58748e-08
-1.58591e-08
2.14293e-08
-2.18336e-08
2.72685e-08
-2.87883e-08
3.3249e-08
-3.67108e-08
3.92516e-08
-4.55792e-08
4.51776e-08
-5.53627e-08
5.09454e-08
-6.60227e-08
5.64885e-08
-7.75135e-08
6.17528e-08
-8.97837e-08
6.66947e-08
-1.02777e-07
7.128e-08
-1.16432e-07
7.54819e-08
-1.30684e-07
7.92801e-08
-1.45468e-07
8.26599e-08
-1.60713e-07
8.56112e-08
-1.76351e-07
8.81281e-08
-1.92309e-07
9.02079e-08
-2.08517e-07
9.18508e-08
-2.24902e-07
9.30597e-08
-2.41395e-07
9.38393e-08
-2.57925e-07
9.41964e-08
-2.74424e-07
9.41393e-08
-2.90822e-07
9.36773e-08
-3.07055e-07
9.28213e-08
-3.23058e-07
9.15829e-08
-3.38768e-07
8.99745e-08
-3.54125e-07
8.80093e-08
-3.69071e-07
8.57012e-08
-3.8355e-07
8.30644e-08
-3.97508e-07
8.01137e-08
-4.10895e-07
7.68643e-08
-4.23662e-07
7.33316e-08
-4.35763e-07
6.95316e-08
-4.47156e-07
6.54801e-08
-4.57799e-07
6.11937e-08
-4.67657e-07
5.66889e-08
-4.76694e-07
5.19824e-08
-4.84878e-07
4.70914e-08
-4.92181e-07
4.2033e-08
-4.98578e-07
3.68246e-08
-5.04045e-07
3.1484e-08
-5.08563e-07
2.60289e-08
-5.12116e-07
2.04775e-08
-5.1469e-07
1.48481e-08
-5.16276e-07
9.15913e-09
-5.16866e-07
3.4294e-09
-5.16457e-07
-2.32214e-09
-5.15048e-07
-8.07633e-09
-5.12644e-07
-1.38138e-08
-5.09249e-07
-1.95149e-08
-5.04874e-07
-2.51599e-08
-4.99533e-07
-3.07288e-08
-4.93241e-07
-3.62015e-08
-4.86019e-07
-4.15579e-08
-4.7789e-07
-4.67776e-08
-4.68882e-07
-5.18402e-08
-4.59025e-07
-5.67254e-08
-4.48352e-07
-6.14128e-08
-4.36902e-07
-6.58823e-08
-4.24714e-07
-7.01136e-08
-4.11832e-07
-7.40871e-08
-3.98305e-07
-7.77831e-08
-3.84181e-07
-8.11825e-08
-3.69516e-07
-8.42666e-08
-3.54364e-07
-8.70173e-08
-3.38786e-07
-8.94173e-08
-3.22843e-07
-9.14499e-08
-3.06601e-07
-9.30994e-08
-2.90124e-07
-9.43511e-08
-2.73483e-07
-9.51918e-08
-2.56748e-07
-9.56092e-08
-2.39992e-07
-9.5593e-08
-2.23287e-07
-9.51341e-08
-2.06709e-07
-9.42259e-08
-1.90331e-07
-9.28636e-08
-1.7423e-07
-9.10448e-08
-1.58479e-07
-8.87701e-08
-1.43152e-07
-8.60429e-08
-1.28321e-07
-8.28702e-08
-1.14057e-07
-7.92628e-08
-1.00427e-07
-7.5236e-08
-8.74939e-08
-7.08102e-08
-7.53182e-08
-6.60114e-08
-6.3954e-08
-6.08726e-08
-5.345e-08
-5.54342e-08
-4.38477e-08
-4.97457e-08
-3.51809e-08
-4.38669e-08
-2.74747e-08
-3.78699e-08
-2.07444e-08
-3.18408e-08
-1.49951e-08
-2.58823e-08
-1.02209e-08
-2.01163e-08
-6.40448e-09
-1.46871e-08
-3.51745e-09
-9.76538e-09
-1.52081e-09
-5.55075e-09
-3.66433e-10
-2.27623e-09
-2.29685e-10
-4.9663e-10
9.1835e-10
-2.0047e-09
4.29975e-09
-4.54483e-09
8.87634e-09
-8.13502e-09
1.43663e-08
-1.27879e-08
2.05276e-08
-1.8509e-08
2.71504e-08
-2.52956e-08
3.40551e-08
-3.31363e-08
4.10897e-08
-4.20108e-08
4.81261e-08
-5.18905e-08
5.50572e-08
-6.27386e-08
6.17935e-08
-7.45113e-08
6.82612e-08
-8.71583e-08
7.43997e-08
-1.00623e-07
8.01598e-08
-1.14846e-07
8.55023e-08
-1.2976e-07
9.03964e-08
-1.45298e-07
9.48184e-08
-1.6139e-07
9.87509e-08
-1.7796e-07
1.02182e-07
-1.94936e-07
1.05104e-07
-2.12242e-07
1.07514e-07
-2.29803e-07
1.09411e-07
-2.47542e-07
1.10799e-07
-2.65384e-07
1.11682e-07
-2.83256e-07
1.12068e-07
-3.01083e-07
1.11967e-07
-3.18794e-07
1.11388e-07
-3.36319e-07
1.10346e-07
-3.53589e-07
1.08853e-07
-3.70537e-07
1.06923e-07
-3.871e-07
1.04572e-07
-4.03215e-07
1.01816e-07
-4.18822e-07
9.8672e-08
-4.33865e-07
9.5157e-08
-4.4829e-07
9.1289e-08
-4.62045e-07
8.70861e-08
-4.7508e-07
8.2567e-08
-4.87351e-07
7.77507e-08
-4.98813e-07
7.26565e-08
-5.09428e-07
6.73039e-08
-5.19159e-07
6.17128e-08
-5.27971e-07
5.59033e-08
-5.35834e-07
4.98959e-08
-5.4272e-07
4.37111e-08
-5.48606e-07
3.737e-08
-5.53471e-07
3.08935e-08
-5.57296e-07
2.43031e-08
-5.60069e-07
1.76206e-08
-5.61778e-07
1.08678e-08
-5.62415e-07
4.0669e-09
-5.61978e-07
-2.75962e-09
-5.60465e-07
-9.58907e-09
-5.5788e-07
-1.63985e-08
-5.5423e-07
-2.31648e-08
-5.49526e-07
-2.98644e-08
-5.4378e-07
-3.64739e-08
-5.37013e-07
-4.29695e-08
-5.29243e-07
-4.93272e-08
-5.20498e-07
-5.55232e-08
-5.10805e-07
-6.15333e-08
-5.00197e-07
-6.73334e-08
-4.8871e-07
-7.28998e-08
-4.76384e-07
-7.82083e-08
-4.63262e-07
-8.32355e-08
-4.49391e-07
-8.79579e-08
-4.34821e-07
-9.23526e-08
-4.19607e-07
-9.63969e-08
-4.03805e-07
-1.00069e-07
-3.87474e-07
-1.03348e-07
-3.70679e-07
-1.06213e-07
-3.53485e-07
-1.08644e-07
-3.3596e-07
-1.10624e-07
-3.18176e-07
-1.12135e-07
-3.00206e-07
-1.13162e-07
-2.82125e-07
-1.1369e-07
-2.64009e-07
-1.13708e-07
-2.45938e-07
-1.13206e-07
-2.27989e-07
-1.12175e-07
-2.10242e-07
-1.1061e-07
-1.92777e-07
-1.0851e-07
-1.75672e-07
-1.05874e-07
-1.59007e-07
-1.02708e-07
-1.42858e-07
-9.90198e-08
-1.27298e-07
-9.48222e-08
-1.12401e-07
-9.01335e-08
-9.82335e-08
-8.49775e-08
-8.48602e-08
-7.93847e-08
-7.23399e-08
-7.3393e-08
-6.07255e-08
-6.70486e-08
-5.00634e-08
-6.04077e-08
-4.03926e-08
-5.35378e-08
-3.17436e-08
-4.65189e-08
-2.41383e-08
-3.94461e-08
-1.75891e-08
-3.24315e-08
-1.20987e-08
-2.56066e-08
-7.6604e-09
-1.91255e-08
-4.25811e-09
-1.31677e-08
-1.86784e-09
-7.94101e-09
-4.59434e-10
-3.68463e-09
-6.89122e-10
-5.89802e-10
1.50813e-09
-2.35465e-09
6.06461e-09
-5.2947e-09
1.18164e-08
-9.40991e-09
1.84814e-08
-1.46972e-08
2.58149e-08
-2.11486e-08
3.36018e-08
-2.87499e-08
4.16564e-08
-3.74796e-08
4.98194e-08
-4.7309e-08
5.79556e-08
-5.82021e-08
6.59502e-08
-7.01155e-08
7.3707e-08
-8.29998e-08
8.11455e-08
-9.67992e-08
8.81991e-08
-1.11453e-07
9.48134e-08
-1.26895e-07
1.00945e-07
-1.43056e-07
1.06558e-07
-1.59864e-07
1.11626e-07
-1.77244e-07
1.1613e-07
-1.95118e-07
1.20056e-07
-2.13407e-07
1.23393e-07
-2.32032e-07
1.26139e-07
-2.50914e-07
1.28293e-07
-2.69973e-07
1.29857e-07
-2.89129e-07
1.30838e-07
-3.08305e-07
1.31243e-07
-3.27422e-07
1.31084e-07
-3.46405e-07
1.30372e-07
-3.6518e-07
1.29121e-07
-3.83675e-07
1.27347e-07
-4.01819e-07
1.25067e-07
-4.19544e-07
1.22297e-07
-4.36786e-07
1.19058e-07
-4.5348e-07
1.15367e-07
-4.69568e-07
1.11244e-07
-4.8499e-07
1.06712e-07
-4.99694e-07
1.0179e-07
-5.13627e-07
9.65e-08
-5.26741e-07
9.08644e-08
-5.3899e-07
8.49055e-08
-5.50332e-07
7.86459e-08
-5.60728e-07
7.21089e-08
-5.70142e-07
6.53177e-08
-5.78543e-07
5.82962e-08
-5.859e-07
5.10684e-08
-5.92188e-07
4.36585e-08
-5.97386e-07
3.60913e-08
-6.01475e-07
2.83917e-08
-6.04439e-07
2.05848e-08
-6.06268e-07
1.26963e-08
-6.06953e-07
4.75204e-09
-6.0649e-07
-3.22195e-09
-6.0488e-07
-1.11992e-08
-6.02126e-07
-1.9153e-08
-5.98234e-07
-2.70564e-08
-5.93217e-07
-3.48821e-08
-5.87088e-07
-4.26028e-08
-5.79867e-07
-5.01907e-08
-5.71576e-07
-5.76182e-08
-5.62241e-07