/*--------------------------------*- C++ -*----------------------------------*\
| =========                 |                                                 |
| \\      /  F ield         | OpenFOAM: The Open Source CFD Toolbox           |
|  \\    /   O peration     | Version:  2212                                  |
|   \\  /    A nd           | Website:  www.openfoam.com                      |
|    \\/     M anipulation  |                                                 |
\*---------------------------------------------------------------------------*/
FoamFile
{
    version     2.0;
    format      ascii;
    arch        "LSB;label=32;scalar=64";
    class       volVectorField;
    location    "0.062";
    object      U_0;
}
// * * * * * * * * * * * * * * * * * * * * * * * * * * * * * * * * * * * * * //

dimensions      [0 1 -1 0 0 0 0];

internalField   nonuniform List<vector> 
10000
(
(3.20446e-06 -2.59494e-06 0)
(1.42043e-05 -6.98192e-06 0)
(3.21907e-05 -8.35492e-06 0)
(4.87931e-05 -7.2034e-06 0)
(5.96869e-05 -4.81314e-06 0)
(6.23295e-05 -1.82412e-06 0)
(5.55493e-05 1.41111e-06 0)
(3.88134e-05 4.69413e-06 0)
(1.20194e-05 7.91004e-06 0)
(-2.4658e-05 1.09954e-05 0)
(-7.08667e-05 1.39139e-05 0)
(-0.000126139 1.66447e-05 0)
(-0.000189927 1.91763e-05 0)
(-0.000261633 2.15002e-05 0)
(-0.000340625 2.36134e-05 0)
(-0.000426254 2.55175e-05 0)
(-0.00051786 2.72131e-05 0)
(-0.000614781 2.87032e-05 0)
(-0.000716357 2.9992e-05 0)
(-0.000821936 3.10821e-05 0)
(-0.000930876 3.19808e-05 0)
(-0.00104255 3.2695e-05 0)
(-0.00115634 3.32283e-05 0)
(-0.00127164 3.35869e-05 0)
(-0.00138789 3.37773e-05 0)
(-0.0015045 3.38039e-05 0)
(-0.00162094 3.3673e-05 0)
(-0.00173667 3.33916e-05 0)
(-0.0018512 3.29654e-05 0)
(-0.00196402 3.23999e-05 0)
(-0.00207468 3.17018e-05 0)
(-0.00218273 3.08774e-05 0)
(-0.00228773 2.99331e-05 0)
(-0.00238929 2.88758e-05 0)
(-0.00248702 2.77117e-05 0)
(-0.00258056 2.64454e-05 0)
(-0.00266955 2.50817e-05 0)
(-0.00275368 2.36271e-05 0)
(-0.00283264 2.20888e-05 0)
(-0.00290615 2.04725e-05 0)
(-0.00297395 1.87839e-05 0)
(-0.00303579 1.70295e-05 0)
(-0.00309146 1.52157e-05 0)
(-0.00314077 1.33484e-05 0)
(-0.00318352 1.14326e-05 0)
(-0.00321957 9.47385e-06 0)
(-0.00324878 7.47911e-06 0)
(-0.00327104 5.45552e-06 0)
(-0.00328626 3.40952e-06 0)
(-0.00329437 1.34711e-06 0)
(-0.00329533 -7.25837e-07 0)
(-0.00328912 -2.80257e-06 0)
(-0.00327574 -4.8752e-06 0)
(-0.00325523 -6.93628e-06 0)
(-0.00322762 -8.97915e-06 0)
(-0.003193 -1.09971e-05 0)
(-0.00315147 -1.29833e-05 0)
(-0.00310316 -1.49305e-05 0)
(-0.00304822 -1.68306e-05 0)
(-0.00298683 -1.86755e-05 0)
(-0.00291919 -2.0458e-05 0)
(-0.00284553 -2.21707e-05 0)
(-0.00276612 -2.38059e-05 0)
(-0.00268123 -2.53559e-05 0)
(-0.00259118 -2.68132e-05 0)
(-0.0024963 -2.81694e-05 0)
(-0.00239696 -2.94164e-05 0)
(-0.00229355 -3.05466e-05 0)
(-0.00218649 -3.15525e-05 0)
(-0.00207621 -3.24268e-05 0)
(-0.00196318 -3.31622e-05 0)
(-0.00184789 -3.37515e-05 0)
(-0.00173085 -3.41875e-05 0)
(-0.0016126 -3.44627e-05 0)
(-0.0014937 -3.45708e-05 0)
(-0.00137472 -3.45059e-05 0)
(-0.00125626 -3.42627e-05 0)
(-0.00113894 -3.38359e-05 0)
(-0.00102337 -3.32204e-05 0)
(-0.000910195 -3.24116e-05 0)
(-0.000800074 -3.14055e-05 0)
(-0.000693663 -3.01983e-05 0)
(-0.000591628 -2.87874e-05 0)
(-0.000494637 -2.71714e-05 0)
(-0.000403353 -2.53497e-05 0)
(-0.000318437 -2.33224e-05 0)
(-0.000240532 -2.10912e-05 0)
(-0.000170262 -1.86599e-05 0)
(-0.000108222 -1.6035e-05 0)
(-5.49592e-05 -1.3227e-05 0)
(-1.096e-05 -1.0252e-05 0)
(2.33805e-05 -7.13626e-06 0)
(4.77966e-05 -3.92125e-06 0)
(6.22131e-05 -6.75773e-07 0)
(6.6843e-05 2.48411e-06 0)
(6.23395e-05 5.35692e-06 0)
(5.00096e-05 7.597e-06 0)
(3.22607e-05 8.58613e-06 0)
(1.39128e-05 7.27318e-06 0)
(2.70499e-06 2.70547e-06 0)
(7.74801e-06 -1.43493e-05 0)
(3.01789e-05 -2.92622e-05 0)
(5.97372e-05 -3.13887e-05 0)
(8.31262e-05 -2.37474e-05 0)
(9.13251e-05 -1.02149e-05 0)
(7.90623e-05 6.70672e-06 0)
(4.31523e-05 2.5391e-05 0)
(-1.81522e-05 4.47773e-05 0)
(-0.000105518 6.41727e-05 0)
(-0.000218849 8.31195e-05 0)
(-0.000357515 0.000101313 0)
(-0.000520504 0.000118551 0)
(-0.000706534 0.000134695 0)
(-0.000914134 0.000149653 0)
(-0.0011417 0.000163369 0)
(-0.00138755 0.000175807 0)
(-0.00164994 0.000186952 0)
(-0.00192709 0.000196801 0)
(-0.00221721 0.000205361 0)
(-0.00251852 0.000212646 0)
(-0.00282926 0.000218677 0)
(-0.00314767 0.00022348 0)
(-0.00347205 0.000227084 0)
(-0.00380072 0.000229521 0)
(-0.00413203 0.000230821 0)
(-0.0044644 0.000231021 0)
(-0.00479629 0.000230158 0)
(-0.0051262 0.000228269 0)
(-0.00545268 0.000225393 0)
(-0.00577435 0.00022157 0)
(-0.00608988 0.000216838 0)
(-0.00639799 0.000211241 0)
(-0.00669746 0.000204816 0)
(-0.00698712 0.000197607 0)
(-0.00726588 0.000189653 0)
(-0.00753269 0.000180993 0)
(-0.00778654 0.000171669 0)
(-0.00802653 0.000161721 0)
(-0.00825177 0.000151191 0)
(-0.00846146 0.00014012 0)
(-0.00865483 0.000128551 0)
(-0.00883121 0.000116525 0)
(-0.00898997 0.000104084 0)
(-0.00913052 9.12702e-05 0)
(-0.00925237 7.81258e-05 0)
(-0.00935507 6.46928e-05 0)
(-0.00943824 5.1016e-05 0)
(-0.00950156 3.714e-05 0)
(-0.00954477 2.31093e-05 0)
(-0.00956769 8.96894e-06 0)
(-0.00957019 -5.23525e-06 0)
(-0.00955223 -1.94563e-05 0)
(-0.00951382 -3.36457e-05 0)
(-0.00945503 -4.77546e-05 0)
(-0.00937603 -6.17353e-05 0)
(-0.00927703 -7.55389e-05 0)
(-0.00915834 -8.91152e-05 0)
(-0.00902032 -0.000102413 0)
(-0.00886342 -0.000115381 0)
(-0.00868815 -0.000127966 0)
(-0.0084951 -0.000140118 0)
(-0.00828495 -0.000151784 0)
(-0.00805843 -0.000162912 0)
(-0.00781636 -0.00017345 0)
(-0.00755963 -0.000183343 0)
(-0.0072892 -0.00019254 0)
(-0.00700613 -0.000200989 0)
(-0.00671152 -0.000208638 0)
(-0.00640655 -0.000215437 0)
(-0.00609249 -0.000221338 0)
(-0.00577066 -0.000226293 0)
(-0.00544245 -0.000230254 0)
(-0.00510931 -0.000233175 0)
(-0.00477276 -0.000235014 0)
(-0.00443437 -0.00023573 0)
(-0.00409576 -0.000235286 0)
(-0.00375861 -0.000233649 0)
(-0.00342463 -0.000230787 0)
(-0.00309558 -0.000226673 0)
(-0.00277324 -0.000221284 0)
(-0.00245942 -0.000214601 0)
(-0.00215594 -0.000206612 0)
(-0.00186462 -0.000197311 0)
(-0.0015873 -0.000186701 0)
(-0.00132577 -0.000174794 0)
(-0.00108179 -0.000161611 0)
(-0.00085706 -0.000147192 0)
(-0.000653209 -0.000131591 0)
(-0.000471735 -0.00011489 0)
(-0.00031398 -9.72027e-05 0)
(-0.000181064 -7.86892e-05 0)
(-7.38097e-05 -5.95781e-05 0)
(7.36742e-06 -4.01966e-05 0)
(6.26141e-05 -2.10216e-05 0)
(9.28583e-05 -2.76106e-06 0)
(0.000100114 1.35192e-05 0)
(8.78252e-05 2.62127e-05 0)
(6.14074e-05 3.28871e-05 0)
(3.00092e-05 3.00043e-05 0)
(7.26557e-06 1.39022e-05 0)
(8.57034e-06 -3.23855e-05 0)
(3.18124e-05 -5.93049e-05 0)
(5.80694e-05 -5.74731e-05 0)
(7.09886e-05 -3.50693e-05 0)
(5.97719e-05 1.0366e-06 0)
(1.76683e-05 4.57177e-05 0)
(-5.97653e-05 9.52968e-05 0)
(-0.000175164 0.000147183 0)
(-0.000329711 0.000199553 0)
(-0.000523496 0.000251128 0)
(-0.000755787 0.000301 0)
(-0.00102525 0.000348535 0)
(-0.00133011 0.000393282 0)
(-0.00166824 0.000434928 0)
(-0.0020373 0.000473261 0)
(-0.00243477 0.000508141 0)
(-0.002858 0.000539485 0)
(-0.00330431 0.000567257 0)
(-0.00377093 0.000591448 0)
(-0.0042551 0.000612078 0)
(-0.00475408 0.00062919 0)
(-0.00526514 0.000642836 0)
(-0.00578557 0.000653087 0)
(-0.00631275 0.000660021 0)
(-0.00684407 0.000663725 0)
(-0.00737703 0.00066429 0)
(-0.00790916 0.000661816 0)
(-0.00843809 0.000656406 0)
(-0.00896152 0.000648165 0)
(-0.00947723 0.000637204 0)
(-0.0099831 0.000623635 0)
(-0.0104771 0.00060757 0)
(-0.0109572 0.000589122 0)
(-0.0114216 0.000568408 0)
(-0.0118686 0.000545543 0)
(-0.0122963 0.000520644 0)
(-0.0127033 0.000493825 0)
(-0.0130881 0.000465207 0)
(-0.0134492 0.000434907 0)
(-0.0137854 0.000403047 0)
(-0.0140954 0.000369746 0)
(-0.0143781 0.000335124 0)
(-0.0146325 0.000299303 0)
(-0.0148578 0.000262406 0)
(-0.015053 0.000224557 0)
(-0.0152174 0.00018588 0)
(-0.0153506 0.000146503 0)
(-0.0154519 0.000106554 0)
(-0.0155209 6.61635e-05 0)
(-0.0155574 2.54616e-05 0)
(-0.0155612 -1.54171e-05 0)
(-0.0155321 -5.63361e-05 0)
(-0.0154702 -9.71579e-05 0)
(-0.0153757 -0.000137743 0)
(-0.0152487 -0.000177951 0)
(-0.0150898 -0.000217639 0)
(-0.0148992 -0.000256664 0)
(-0.0146778 -0.000294877 0)
(-0.014426 -0.00033213 0)
(-0.0141449 -0.000368276 0)
(-0.0138353 -0.000403166 0)
(-0.0134983 -0.000436648 0)
(-0.0131352 -0.000468574 0)
(-0.0127472 -0.000498793 0)
(-0.0123357 -0.000527154 0)
(-0.0119024 -0.000553507 0)
(-0.0114489 -0.000577706 0)
(-0.0109769 -0.000599606 0)
(-0.0104884 -0.000619065 0)
(-0.00998534 -0.000635945 0)
(-0.00946989 -0.00065011 0)
(-0.00894424 -0.00066143 0)
(-0.00841071 -0.00066978 0)
(-0.0078717 -0.000675041 0)
(-0.00732971 -0.000677102 0)
(-0.00678731 -0.000675864 0)
(-0.00624715 -0.000671234 0)
(-0.00571194 -0.000663132 0)
(-0.00518444 -0.000651487 0)
(-0.00466745 -0.000636245 0)
(-0.00416381 -0.000617366 0)
(-0.00367636 -0.000594828 0)
(-0.00320793 -0.000568633 0)
(-0.00276135 -0.000538807 0)
(-0.00233937 -0.000505405 0)
(-0.00194469 -0.000468521 0)
(-0.00157988 -0.000428295 0)
(-0.00124735 -0.000384923 0)
(-0.000949312 -0.00033868 0)
(-0.000687675 -0.000289941 0)
(-0.00046399 -0.000239214 0)
(-0.000279314 -0.000187196 0)
(-0.000134058 -0.000134845 0)
(-2.77861e-05 -8.34847e-05 0)
(4.105e-05 -3.49664e-05 0)
(7.54549e-05 8.11495e-06 0)
(8.02185e-05 4.21316e-05 0)
(6.23704e-05 6.20994e-05 0)
(3.30121e-05 6.14284e-05 0)
(8.59713e-06 3.22519e-05 0)
(7.37115e-06 -4.95299e-05 0)
(2.43103e-05 -8.32326e-05 0)
(3.62082e-05 -7.06192e-05 0)
(2.64202e-05 -2.50554e-05 0)
(-1.63983e-05 4.32342e-05 0)
(-9.96893e-05 0.000126343 0)
(-0.000228518 0.000218327 0)
(-0.000406008 0.0003148 0)
(-0.000633662 0.000412541 0)
(-0.000911699 0.000509192 0)
(-0.00123934 0.000603029 0)
(-0.00161502 0.000692789 0)
(-0.00203659 0.000777562 0)
(-0.00250145 0.000856688 0)
(-0.00300665 0.000929703 0)
(-0.00354901 0.000996291 0)
(-0.00412514 0.00105625 0)
(-0.00473156 0.00110945 0)
(-0.00536472 0.00115587 0)
(-0.00602098 0.0011955 0)
(-0.00669676 0.00122839 0)
(-0.00738845 0.00125464 0)
(-0.00809249 0.00127436 0)
(-0.00880538 0.00128767 0)
(-0.00952367 0.00129475 0)
(-0.010244 0.00129575 0)
(-0.0109631 0.00129087 0)
(-0.0116778 0.00128028 0)
(-0.0123849 0.00126419 0)
(-0.0130816 0.00124281 0)
(-0.013765 0.00121635 0)
(-0.0144323 0.00118503 0)
(-0.0150808 0.00114905 0)
(-0.0157081 0.00110866 0)
(-0.0163118 0.00106406 0)
(-0.0168895 0.00101549 0)
(-0.0174392 0.000963176 0)
(-0.0179589 0.000907342 0)
(-0.0184465 0.000848223 0)
(-0.0189005 0.000786052 0)
(-0.0193191 0.000721064 0)
(-0.0197008 0.000653496 0)
(-0.0200442 0.000583586 0)
(-0.0203483 0.000511574 0)
(-0.0206117 0.000437704 0)
(-0.0208336 0.000362223 0)
(-0.0210132 0.000285377 0)
(-0.0211497 0.00020742 0)
(-0.0212427 0.000128606 0)
(-0.0212917 4.91933e-05 0)
(-0.0212964 -3.05561e-05 0)
(-0.0212568 -0.000110376 0)
(-0.021173 -0.000189996 0)
(-0.021045 -0.000269145 0)
(-0.0208733 -0.000347548 0)
(-0.0206583 -0.000424925 0)
(-0.0204008 -0.000500993 0)
(-0.0201014 -0.000575468 0)
(-0.0197613 -0.000648061 0)
(-0.0193815 -0.000718482 0)
(-0.0189634 -0.000786442 0)
(-0.0185083 -0.000851648 0)
(-0.018018 -0.000913809 0)
(-0.0174941 -0.000972633 0)
(-0.0169386 -0.00102783 0)
(-0.0163536 -0.00107911 0)
(-0.0157414 -0.00112619 0)
(-0.0151044 -0.0011688 0)
(-0.014445 -0.00120665 0)
(-0.0137661 -0.00123949 0)
(-0.0130704 -0.00126705 0)
(-0.0123609 -0.00128908 0)
(-0.0116407 -0.00130536 0)
(-0.0109131 -0.00131565 0)
(-0.0101813 -0.00131976 0)
(-0.00944884 -0.00131748 0)
(-0.0087192 -0.00130866 0)
(-0.00799599 -0.00129315 0)
(-0.00728288 -0.00127082 0)
(-0.00658356 -0.00124159 0)
(-0.00590178 -0.00120539 0)
(-0.00524128 -0.0011622 0)
(-0.00460577 -0.00111205 0)
(-0.00399894 -0.00105501 0)
(-0.00342437 -0.000991228 0)
(-0.00288552 -0.000920913 0)
(-0.00238569 -0.000844376 0)
(-0.00192794 -0.000762042 0)
(-0.00151502 -0.000674488 0)
(-0.00114929 -0.000582482 0)
(-0.000832621 -0.000487049 0)
(-0.000566214 -0.000389549 0)
(-0.000350464 -0.000291797 0)
(-0.00018473 -0.000196223 0)
(-6.70664e-05 -0.00010609 0)
(6.09623e-06 -2.57788e-05 0)
(4.02471e-05 3.88502e-05 0)
(4.31876e-05 8.01061e-05 0)
(2.6667e-05 8.8131e-05 0)
(7.672e-06 5.01133e-05 0)
(5.03215e-06 -6.06937e-05 0)
(1.11392e-05 -9.22037e-05 0)
(9.77272e-07 -6.00802e-05 0)
(-4.0433e-05 1.74915e-05 0)
(-0.000123951 0.000127004 0)
(-0.000257118 0.000257863 0)
(-0.000445137 0.000401878 0)
(-0.000691264 0.00055281 0)
(-0.000997093 0.000705941 0)
(-0.00136286 0.000857703 0)
(-0.00178769 0.00100542 0)
(-0.00226982 0.00114707 0)
(-0.00280681 0.00128116 0)
(-0.00339565 0.0014066 0)
(-0.00403291 0.00152257 0)
(-0.00471484 0.00162851 0)
(-0.00543745 0.00172404 0)
(-0.00619658 0.00180893 0)
(-0.00698797 0.00188305 0)
(-0.00780728 0.00194639 0)
(-0.00865015 0.00199898 0)
(-0.00951222 0.00204094 0)
(-0.0103892 0.00207242 0)
(-0.0112767 0.00209363 0)
(-0.0121706 0.00210478 0)
(-0.0130668 0.00210615 0)
(-0.0139612 0.00209802 0)
(-0.01485 0.00208067 0)
(-0.0157293 0.00205442 0)
(-0.0165954 0.00201961 0)
(-0.0174449 0.00197656 0)
(-0.0182743 0.00192561 0)
(-0.0190803 0.00186713 0)
(-0.0198599 0.00180146 0)
(-0.0206101 0.00172897 0)
(-0.021328 0.00165001 0)
(-0.022011 0.00156497 0)
(-0.0226567 0.00147421 0)
(-0.0232626 0.00137811 0)
(-0.0238265 0.00127704 0)
(-0.0243464 0.00117139 0)
(-0.0248206 0.00106155 0)
(-0.0252471 0.0009479 0)
(-0.0256247 0.000830836 0)
(-0.0259518 0.000710754 0)
(-0.0262272 0.000588055 0)
(-0.02645 0.000463147 0)
(-0.0266194 0.000336438 0)
(-0.0267346 0.000208345 0)
(-0.0267951 7.92901e-05 0)
(-0.0268007 -5.02998e-05 0)
(-0.0267512 -0.000179992 0)
(-0.0266467 -0.000309349 0)
(-0.0264874 -0.000437927 0)
(-0.0262738 -0.000565277 0)
(-0.0260065 -0.000690944 0)
(-0.0256863 -0.000814471 0)
(-0.0253142 -0.000935394 0)
(-0.0248915 -0.00105325 0)
(-0.0244196 -0.00116756 0)
(-0.0239001 -0.00127786 0)
(-0.0233347 -0.00138368 0)
(-0.0227256 -0.00148454 0)
(-0.0220748 -0.00157998 0)
(-0.0213849 -0.00166953 0)
(-0.0206583 -0.00175272 0)
(-0.019898 -0.0018291 0)
(-0.0191068 -0.00189822 0)
(-0.0182878 -0.00195964 0)
(-0.0174446 -0.00201293 0)
(-0.0165804 -0.00205769 0)
(-0.0156991 -0.00209352 0)
(-0.0148043 -0.00212005 0)
(-0.0139002 -0.00213692 0)
(-0.0129907 -0.00214382 0)
(-0.0120801 -0.00214045 0)
(-0.0111727 -0.00212655 0)
(-0.0102729 -0.0021019 0)
(-0.0093851 -0.00206633 0)
(-0.00851393 -0.00201969 0)
(-0.00766388 -0.00196193 0)
(-0.00683947 -0.00189303 0)
(-0.00604521 -0.00181307 0)
(-0.0052855 -0.0017222 0)
(-0.00456464 -0.00162069 0)
(-0.00388677 -0.00150893 0)
(-0.00325577 -0.00138746 0)
(-0.00267525 -0.00125701 0)
(-0.00214842 -0.00111856 0)
(-0.001678 -0.000973386 0)
(-0.00126612 -0.000823143 0)
(-0.000914134 -0.000669994 0)
(-0.000622468 -0.000516755 0)
(-0.00039041 -0.000367089 0)
(-0.000215859 -0.000225777 0)
(-9.50468e-05 -9.90399e-05 0)
(-2.22722e-05 5.04429e-06 0)
(1.04509e-05 7.61491e-05 0)
(1.45211e-05 0.00010122 0)
(5.54456e-06 6.27895e-05 0)
(2.14922e-06 -6.39064e-05 0)
(-5.30059e-06 -8.11908e-05 0)
(-4.26915e-05 -1.92029e-05 0)
(-0.000122015 9.99728e-05 0)
(-0.000252867 0.000259898 0)
(-0.000442425 0.000447504 0)
(-0.000695648 0.000652477 0)
(-0.00101561 0.000866777 0)
(-0.00140379 0.00108417 0)
(-0.00186028 0.00129983 0)
(-0.00238406 0.00151004 0)
(-0.00297315 0.00171197 0)
(-0.00362479 0.00190345 0)
(-0.00433563 0.00208284 0)
(-0.00510182 0.00224894 0)
(-0.00591912 0.00240088 0)
(-0.00678303 0.00253805 0)
(-0.00768881 0.00266004 0)
(-0.00863157 0.00276663 0)
(-0.00960635 0.00285774 0)
(-0.0106081 0.00293339 0)
(-0.0116319 0.0029937 0)
(-0.0126725 0.00303888 0)
(-0.0137252 0.00306917 0)
(-0.0147849 0.0030849 0)
(-0.015847 0.00308641 0)
(-0.0169066 0.00307409 0)
(-0.0179592 0.00304836 0)
(-0.0190004 0.00300967 0)
(-0.0200258 0.00295847 0)
(-0.0210314 0.00289525 0)
(-0.022013 0.00282051 0)
(-0.0229669 0.00273474 0)
(-0.0238894 0.00263846 0)
(-0.024777 0.00253221 0)
(-0.0256264 0.0024165 0)
(-0.0264344 0.00229187 0)
(-0.0271981 0.00215887 0)
(-0.0279147 0.00201805 0)
(-0.0285817 0.00186996 0)
(-0.0291966 0.00171517 0)
(-0.0297573 0.00155423 0)
(-0.0302616 0.00138771 0)
(-0.030708 0.0012162 0)
(-0.0310946 0.00104028 0)
(-0.0314202 0.000860529 0)
(-0.0316834 0.000677552 0)
(-0.0318834 0.000491948 0)
(-0.0320194 0.00030433 0)
(-0.0320906 0.000115317 0)
(-0.0320969 -7.44661e-05 0)
(-0.0320381 -0.000264383 0)
(-0.0319142 -0.000453793 0)
(-0.0317256 -0.000642045 0)
(-0.0314727 -0.000828482 0)
(-0.0311563 -0.00101244 0)
(-0.0307775 -0.00119324 0)
(-0.0303373 -0.00137022 0)
(-0.0298373 -0.00154269 0)
(-0.0292791 -0.00170996 0)
(-0.0286646 -0.00187135 0)
(-0.027996 -0.00202617 0)
(-0.0272756 -0.00217373 0)
(-0.0265061 -0.00231336 0)
(-0.0256902 -0.00244436 0)
(-0.024831 -0.00256606 0)
(-0.0239318 -0.00267782 0)
(-0.0229961 -0.00277897 0)
(-0.0220276 -0.00286889 0)
(-0.0210302 -0.00294695 0)
(-0.020008 -0.00301258 0)
(-0.0189653 -0.0030652 0)
(-0.0179065 -0.00310429 0)
(-0.0168364 -0.00312934 0)
(-0.0157596 -0.0031399 0)
(-0.0146812 -0.00313556 0)
(-0.013606 -0.00311595 0)
(-0.0125393 -0.00308077 0)
(-0.0114863 -0.0030298 0)
(-0.0104521 -0.00296287 0)
(-0.00944208 -0.0028799 0)
(-0.00846139 -0.00278092 0)
(-0.00751522 -0.00266608 0)
(-0.00660863 -0.00253563 0)
(-0.00574655 -0.00239002 0)
(-0.00493368 -0.00222984 0)
(-0.00417443 -0.00205595 0)
(-0.00347288 -0.00186945 0)
(-0.00283263 -0.00167178 0)
(-0.00225675 -0.00146482 0)
(-0.0017476 -0.00125095 0)
(-0.00130674 -0.00103323 0)
(-0.000934713 -0.000815536 0)
(-0.000630883 -0.000602833 0)
(-0.000393219 -0.000401431 0)
(-0.000218062 -0.000219359 0)
(-9.98822e-05 -6.68013e-05 0)
(-3.09672e-05 4.3466e-05 0)
(-1.03107e-06 9.54998e-05 0)
(2.82688e-06 6.79877e-05 0)
(-9.58592e-07 -5.79979e-05 0)
(-2.34931e-05 -4.70125e-05 0)
(-9.13672e-05 5.65307e-05 0)
(-0.000212824 0.000227633 0)
(-0.00039567 0.000447414 0)
(-0.000646351 0.000700633 0)
(-0.00096927 0.000975047 0)
(-0.00136708 0.00126093 0)
(-0.00184091 0.00155059 0)
(-0.00239061 0.00183794 0)
(-0.00301488 0.00211823 0)
(-0.00371147 0.00238774 0)
(-0.00447732 0.00264358 0)
(-0.00530873 0.00288355 0)
(-0.00620145 0.00310598 0)
(-0.00715083 0.00330963 0)
(-0.00815188 0.00349362 0)
(-0.00919935 0.00365735 0)
(-0.0102878 0.00380048 0)
(-0.0114118 0.00392281 0)
(-0.0125656 0.00402435 0)
(-0.0137436 0.00410521 0)
(-0.0149402 0.00416561 0)
(-0.0161498 0.00420588 0)
(-0.017367 0.00422641 0)
(-0.0185862 0.00422764 0)
(-0.0198022 0.0042101 0)
(-0.0210098 0.00417431 0)
(-0.022204 0.00412089 0)
(-0.0233798 0.00405043 0)
(-0.0245326 0.00396358 0)
(-0.0256578 0.003861 0)
(-0.026751 0.00374339 0)
(-0.0278081 0.00361142 0)
(-0.0288251 0.00346582 0)
(-0.0297982 0.0033073 0)
(-0.0307238 0.00313659 0)
(-0.0315986 0.00295445 0)
(-0.0324194 0.0027616 0)
(-0.0331832 0.00255882 0)
(-0.0338874 0.00234686 0)
(-0.0345293 0.0021265 0)
(-0.0351068 0.00189853 0)
(-0.0356177 0.00166373 0)
(-0.0360603 0.00142289 0)
(-0.0364329 0.00117684 0)
(-0.0367341 0.000926378 0)
(-0.0369629 0.000672338 0)
(-0.0371183 0.000415558 0)
(-0.0371997 0.000156885 0)
(-0.0372066 -0.000102822 0)
(-0.037139 -0.000362696 0)
(-0.0369969 -0.000621856 0)
(-0.0367807 -0.000879413 0)
(-0.036491 -0.00113447 0)
(-0.0361286 -0.00138611 0)
(-0.0356946 -0.00163343 0)
(-0.0351905 -0.00187549 0)
(-0.0346179 -0.00211137 0)
(-0.0339787 -0.00234013 0)
(-0.0332751 -0.00256085 0)
(-0.0325095 -0.00277257 0)
(-0.0316846 -0.00297437 0)
(-0.0308034 -0.00316531 0)
(-0.0298691 -0.00334448 0)
(-0.0288852 -0.00351096 0)
(-0.0278554 -0.00366386 0)
(-0.0267838 -0.0038023 0)
(-0.0256744 -0.00392543 0)
(-0.0245318 -0.00403241 0)
(-0.0233606 -0.00412246 0)
(-0.0221656 -0.00419482 0)
(-0.0209521 -0.00424877 0)
(-0.0197251 -0.00428366 0)
(-0.01849 -0.00429888 0)
(-0.0172526 -0.00429389 0)
(-0.0160183 -0.00426822 0)
(-0.0147931 -0.00422148 0)
(-0.0135826 -0.0041534 0)
(-0.0123929 -0.00406377 0)
(-0.0112298 -0.00395254 0)
(-0.0100991 -0.00381977 0)
(-0.0090066 -0.00366571 0)
(-0.00795799 -0.00349076 0)
(-0.00695872 -0.00329555 0)
(-0.00601398 -0.00308096 0)
(-0.00512868 -0.00284818 0)
(-0.00430731 -0.00259875 0)
(-0.00355386 -0.00233464 0)
(-0.00287171 -0.00205837 0)
(-0.00226352 -0.00177311 0)
(-0.00173108 -0.00148286 0)
(-0.00127515 -0.00119259 0)
(-0.000895343 -0.000908572 0)
(-0.000589885 -0.000638591 0)
(-0.000355487 -0.000392386 0)
(-0.000187097 -0.000182072 0)
(-7.76324e-05 -2.25912e-05 0)
(-1.84531e-05 6.76717e-05 0)
(-1.46391e-07 6.44847e-05 0)
(-4.11748e-06 -4.241e-05 0)
(-4.2491e-05 1.21999e-05 0)
(-0.000142732 0.000170023 0)
(-0.000308982 0.000404028 0)
(-0.000546924 0.00069341 0)
(-0.000862015 0.00102111 0)
(-0.00125786 0.0013732 0)
(-0.00173647 0.00173842 0)
(-0.00229848 0.00210772 0)
(-0.00294333 0.00247382 0)
(-0.00366935 0.00283092 0)
(-0.00447396 0.00317443 0)
(-0.00535375 0.00350073 0)
(-0.00630466 0.003807 0)
(-0.00732207 0.00409108 0)
(-0.00840091 0.00435134 0)
(-0.00953574 0.00458659 0)
(-0.0107209 0.00479601 0)
(-0.0119504 0.00497907 0)
(-0.0132183 0.0051355 0)
(-0.0145183 0.00526523 0)
(-0.0158444 0.00536837 0)
(-0.0171904 0.00544516 0)
(-0.0185501 0.00549598 0)
(-0.0199174 0.00552129 0)
(-0.0212864 0.00552166 0)
(-0.0226512 0.00549771 0)
(-0.0240061 0.00545013 0)
(-0.0253455 0.00537966 0)
(-0.0266639 0.00528709 0)
(-0.0279563 0.00517324 0)
(-0.0292174 0.00503894 0)
(-0.0304425 0.00488509 0)
(-0.0316269 0.00471257 0)
(-0.0327662 0.00452231 0)
(-0.0338562 0.00431523 0)
(-0.0348929 0.00409229 0)
(-0.0358726 0.00385444 0)
(-0.0367917 0.00360266 0)
(-0.0376469 0.00333794 0)
(-0.0384352 0.00306127 0)
(-0.0391538 0.00277366 0)
(-0.0398002 0.00247612 0)
(-0.0403721 0.0021697 0)
(-0.0408674 0.00185543 0)
(-0.0412843 0.00153436 0)
(-0.0416214 0.00120756 0)
(-0.0418773 0.00087612 0)
(-0.042051 0.000541121 0)
(-0.042142 0.000203674 0)
(-0.0421496 -0.000135102 0)
(-0.0420738 -0.000474073 0)
(-0.0419146 -0.000812094 0)
(-0.0416724 -0.001148 0)
(-0.041348 -0.00148063 0)
(-0.0409423 -0.00180879 0)
(-0.0404565 -0.0021313 0)
(-0.0398922 -0.00244694 0)
(-0.0392512 -0.00275451 0)
(-0.0385357 -0.0030528 0)
(-0.0377481 -0.00334059 0)
(-0.036891 -0.00361667 0)
(-0.0359676 -0.00387982 0)
(-0.0349812 -0.00412884 0)
(-0.0339352 -0.00436254 0)
(-0.0328336 -0.00457973 0)
(-0.0316805 -0.00477927 0)
(-0.0304803 -0.00496002 0)
(-0.0292378 -0.00512088 0)
(-0.0279578 -0.00526079 0)
(-0.0266455 -0.00537873 0)
(-0.0253063 -0.00547374 0)
(-0.0239458 -0.0055449 0)
(-0.0225697 -0.00559137 0)
(-0.0211842 -0.00561239 0)
(-0.0197953 -0.00560729 0)
(-0.0184092 -0.00557548 0)
(-0.0170324 -0.0055165 0)
(-0.0156712 -0.00542999 0)
(-0.0143321 -0.00531575 0)
(-0.0130216 -0.00517375 0)
(-0.0117461 -0.00500411 0)
(-0.0105119 -0.00480718 0)
(-0.00932516 -0.00458354 0)
(-0.00819188 -0.00433405 0)
(-0.00711772 -0.0040599 0)
(-0.00610803 -0.00376264 0)
(-0.0051677 -0.00344429 0)
(-0.00430109 -0.00310741 0)
(-0.00351194 -0.00275518 0)
(-0.00280323 -0.00239161 0)
(-0.00217705 -0.00202161 0)
(-0.00163452 -0.00165127 0)
(-0.00117559 -0.0012881 0)
(-0.000798935 -0.000941289 0)
(-0.000501854 -0.000622137 0)
(-0.000280003 -0.000344466 0)
(-0.000127198 -0.000125059 0)
(-3.67732e-05 1.5754e-05 0)
(-3.19125e-06 5.16671e-05 0)
(-7.23641e-06 -1.6961e-05 0)
(-6.17144e-05 9.73834e-05 0)
(-0.000195255 0.00032294 0)
(-0.000407802 0.000631367 0)
(-0.000702753 0.00100042 0)
(-0.00108439 0.00141158 0)
(-0.00155536 0.00184949 0)
(-0.00211684 0.00230155 0)
(-0.00276885 0.00275746 0)
(-0.00351027 0.00320883 0)
(-0.00433901 0.00364888 0)
(-0.00525204 0.00407216 0)
(-0.00624558 0.00447431 0)
(-0.00731517 0.0048519 0)
(-0.00845581 0.00520226 0)
(-0.00966202 0.00552334 0)
(-0.010928 0.00581362 0)
(-0.0122475 0.00607204 0)
(-0.0136142 0.00629789 0)
(-0.0150217 0.00649078 0)
(-0.0164632 0.00665055 0)
(-0.0179322 0.0067773 0)
(-0.0194219 0.00687128 0)
(-0.0209257 0.00693292 0)
(-0.0224371 0.00696276 0)
(-0.0239495 0.00696147 0)
(-0.0254566 0.00692981 0)
(-0.0269521 0.00686861 0)
(-0.02843 0.00677877 0)
(-0.0298844 0.00666125 0)
(-0.0313096 0.00651706 0)
(-0.0327 0.00634726 0)
(-0.0340505 0.00615293 0)
(-0.0353558 0.00593518 0)
(-0.0366113 0.00569515 0)
(-0.0378122 0.00543402 0)
(-0.0389542 0.00515297 0)
(-0.0400333 0.00485319 0)
(-0.0410456 0.00453592 0)
(-0.0419874 0.00420239 0)
(-0.0428555 0.00385384 0)
(-0.0436467 0.00349155 0)
(-0.0443584 0.0031168 0)
(-0.0449879 0.00273089 0)
(-0.0455332 0.00233512 0)
(-0.0459921 0.00193082 0)
(-0.0463631 0.00151933 0)
(-0.0466447 0.00110203 0)
(-0.0468359 0.000680266 0)
(-0.046936 0.000255448 0)
(-0.0469443 -0.000171019 0)
(-0.0468608 -0.00059771 0)
(-0.0466855 -0.00102318 0)
(-0.046419 -0.00144598 0)
(-0.0460619 -0.00186463 0)
(-0.0456153 -0.00227765 0)
(-0.0450805 -0.00268354 0)
(-0.0444594 -0.00308078 0)
(-0.0437538 -0.00346788 0)
(-0.0429662 -0.00384329 0)
(-0.0420992 -0.00420551 0)
(-0.0411557 -0.00455301 0)
(-0.0401391 -0.00488427 0)
(-0.0390529 -0.00519779 0)
(-0.0379012 -0.00549208 0)
(-0.036688 -0.00576567 0)
(-0.035418 -0.00601712 0)
(-0.0340959 -0.00624502 0)
(-0.0327269 -0.00644801 0)
(-0.0313162 -0.00662476 0)
(-0.0298697 -0.00677401 0)
(-0.028393 -0.00689457 0)
(-0.0268924 -0.00698533 0)
(-0.0253741 -0.00704524 0)
(-0.0238446 -0.00707337 0)
(-0.0223106 -0.00706891 0)
(-0.0207789 -0.00703116 0)
(-0.0192564 -0.00695955 0)
(-0.01775 -0.0068537 0)
(-0.0162667 -0.00671339 0)
(-0.0148135 -0.00653859 0)
(-0.0133974 -0.00632953 0)
(-0.0120251 -0.00608668 0)
(-0.0107034 -0.0058108 0)
(-0.00943863 -0.00550302 0)
(-0.00823695 -0.00516484 0)
(-0.00710411 -0.00479823 0)
(-0.00604542 -0.00440571 0)
(-0.00506564 -0.00399042 0)
(-0.00416887 -0.00355626 0)
(-0.00335846 -0.00310802 0)
(-0.00263693 -0.00265157 0)
(-0.00200578 -0.00219406 0)
(-0.00146548 -0.00174415 0)
(-0.00101528 -0.00131233 0)
(-0.00065323 -0.000911297 0)
(-0.000375871 -0.000556332 0)
(-0.000178095 -0.000265723 0)
(-5.53885e-05 -6.12832e-05 0)
(-6.20931e-06 2.93105e-05 0)
(-1.02673e-05 1.83135e-05 0)
(-8.08115e-05 0.000208851 0)
(-0.000247947 0.000516068 0)
(-0.000507468 0.00091086 0)
(-0.000860437 0.00136997 0)
(-0.00130987 0.00187374 0)
(-0.00185731 0.00240563 0)
(-0.00250302 0.0029519 0)
(-0.00324623 0.00350115 0)
(-0.00408522 0.00404398 0)
(-0.00501732 0.00457269 0)
(-0.00603904 0.00508102 0)
(-0.00714615 0.00556388 0)
(-0.00833377 0.00601726 0)
(-0.00959648 0.00643795 0)
(-0.0109284 0.0068235 0)
(-0.0123232 0.00717206 0)
(-0.0137745 0.00748228 0)
(-0.0152753 0.00775328 0)
(-0.0168188 0.00798451 0)
(-0.0183978 0.00817576 0)
(-0.0200053 0.00832708 0)
(-0.0216341 0.00843873 0)
(-0.0232771 0.00851119 0)
(-0.0249273 0.00854508 0)
(-0.0265777 0.00854116 0)
(-0.0282215 0.00850034 0)
(-0.029852 0.00842358 0)
(-0.0314627 0.00831198 0)
(-0.0330472 0.00816667 0)
(-0.0345994 0.00798887 0)
(-0.0361134 0.00777985 0)
(-0.0375836 0.0075409 0)
(-0.0390043 0.00727338 0)
(-0.0403705 0.00697868 0)
(-0.0416771 0.00665822 0)
(-0.0429195 0.00631342 0)
(-0.0440933 0.00594577 0)
(-0.0451942 0.00555674 0)
(-0.0462184 0.00514784 0)
(-0.0471623 0.00472062 0)
(-0.0480227 0.0042766 0)
(-0.0487964 0.00381736 0)
(-0.0494809 0.00334448 0)
(-0.0500736 0.00285957 0)
(-0.0505725 0.00236426 0)
(-0.0509758 0.00186017 0)
(-0.0512819 0.00134899 0)
(-0.0514898 0.000832378 0)
(-0.0515986 0.000312053 0)
(-0.0516078 -0.000210268 0)
(-0.0515171 -0.000732841 0)
(-0.0513268 -0.0012539 0)
(-0.0510372 -0.00177167 0)
(-0.0506492 -0.00228435 0)
(-0.050164 -0.00279013 0)
(-0.0495829 -0.00328717 0)
(-0.048908 -0.00377364 0)
(-0.0481412 -0.00424769 0)
(-0.0472853 -0.00470746 0)
(-0.0463429 -0.0051511 0)
(-0.0453174 -0.00557676 0)
(-0.0442122 -0.0059826 0)
(-0.0430314 -0.00636677 0)
(-0.041779 -0.00672748 0)
(-0.0404596 -0.00706294 0)
(-0.0390782 -0.0073714 0)
(-0.0376399 -0.00765115 0)
(-0.0361502 -0.00790055 0)
(-0.0346148 -0.008118 0)
(-0.0330398 -0.00830197 0)
(-0.0314316 -0.00845103 0)
(-0.0297967 -0.00856383 0)
(-0.0281418 -0.00863915 0)
(-0.026474 -0.00867587 0)
(-0.0248004 -0.00867301 0)
(-0.0231282 -0.00862976 0)
(-0.0214648 -0.00854547 0)
(-0.0198178 -0.00841971 0)
(-0.0181945 -0.00825223 0)
(-0.0166025 -0.00804306 0)
(-0.0150492 -0.00779251 0)
(-0.0135418 -0.00750119 0)
(-0.0120875 -0.00717006 0)
(-0.0106932 -0.00680053 0)
(-0.00936546 -0.00639444 0)
(-0.00811041 -0.00595418 0)
(-0.0069338 -0.00548278 0)
(-0.00584079 -0.00498398 0)
(-0.00483591 -0.00446237 0)
(-0.00392294 -0.00392356 0)
(-0.00310486 -0.00337429 0)
(-0.0023837 -0.00282272 0)
(-0.00176051 -0.00227859 0)
(-0.00123526 -0.00175355 0)
(-0.000806845 -0.00126152 0)
(-0.000472837 -0.000819001 0)
(-0.000229301 -0.000445477 0)
(-7.39331e-05 -0.000163834 0)
(-9.15035e-06 -2.57782e-06 0)
(-1.31922e-05 6.32504e-05 0)
(-9.95833e-05 0.000346525 0)
(-0.000300179 0.00074959 0)
(-0.000606778 0.00124299 0)
(-0.00101813 0.0018028 0)
(-0.00153592 0.00240849 0)
(-0.00216054 0.00304262 0)
(-0.00289123 0.00369046 0)
(-0.00372637 0.00433966 0)
(-0.00466351 0.00497992 0)
(-0.00569937 0.00560271 0)
(-0.0068299 0.006201 0)
(-0.00805038 0.00676906 0)
(-0.00935547 0.00730225 0)
(-0.0107393 0.00779689 0)
(-0.0121956 0.00825012 0)
(-0.0137176 0.00865973 0)
(-0.0152984 0.00902413 0)
(-0.0169307 0.00934221 0)
(-0.0186073 0.0096133 0)
(-0.0203205 0.0098371 0)
(-0.0220629 0.0100136 0)
(-0.0238269 0.0101431 0)
(-0.025605 0.0102261 0)
(-0.0273896 0.0102634 0)
(-0.0291734 0.0102557 0)
(-0.0309492 0.0102041 0)
(-0.0327098 0.0101098 0)
(-0.0344483 0.00997397 0)
(-0.036158 0.00979801 0)
(-0.0378323 0.00958333 0)
(-0.039465 0.00933141 0)
(-0.0410499 0.0090438 0)
(-0.0425812 0.00872211 0)
(-0.0440534 0.00836797 0)
(-0.0454613 0.00798306 0)
(-0.0467997 0.00756911 0)
(-0.0480639 0.00712785 0)
(-0.0492496 0.00666107 0)
(-0.0503526 0.00617055 0)
(-0.051369 0.00565813 0)
(-0.0522954 0.00512566 0)
(-0.0531284 0.004575 0)
(-0.0538653 0.00400805 0)
(-0.0545035 0.00342674 0)
(-0.0550406 0.002833 0)
(-0.0554748 0.00222879 0)
(-0.0558045 0.00161611 0)
(-0.0560285 0.000996971 0)
(-0.0561458 0.000373406 0)
(-0.0561559 -0.000252523 0)
(-0.0560586 -0.000878733 0)
(-0.0558541 -0.00150312 0)
(-0.0555428 -0.00212354 0)
(-0.0551256 -0.00273787 0)
(-0.0546037 -0.00334393 0)
(-0.0539787 -0.00393953 0)
(-0.0532527 -0.00452249 0)
(-0.0524278 -0.00509059 0)
(-0.0515068 -0.00564163 0)
(-0.0504927 -0.0061734 0)
(-0.049389 -0.00668369 0)
(-0.0481994 -0.0071703 0)