/*--------------------------------*- C++ -*----------------------------------*\
| =========                 |                                                 |
| \\      /  F ield         | OpenFOAM: The Open Source CFD Toolbox           |
|  \\    /   O peration     | Version:  2212                                  |
|   \\  /    A nd           | Website:  www.openfoam.com                      |
|    \\/     M anipulation  |                                                 |
\*---------------------------------------------------------------------------*/
FoamFile
{
    version     2.0;
    format      ascii;
    arch        "LSB;label=32;scalar=64";
    class       volVectorField;
    location    "0.0225";
    object      U;
}
// * * * * * * * * * * * * * * * * * * * * * * * * * * * * * * * * * * * * * //

dimensions      [0 1 -1 0 0 0 0];

internalField   nonuniform List<vector> 
10000
(
(2.90683e-06 -2.73613e-06 0)
(1.17419e-05 -5.10236e-06 0)
(2.28997e-05 -4.78553e-06 0)
(3.09903e-05 -3.40028e-06 0)
(3.31703e-05 -1.3498e-06 0)
(2.82005e-05 1.08577e-06 0)
(1.53776e-05 3.68169e-06 0)
(-5.52969e-06 6.26704e-06 0)
(-3.4412e-05 8.77274e-06 0)
(-7.09659e-05 1.11319e-05 0)
(-0.000114754 1.33079e-05 0)
(-0.000165265 1.53065e-05 0)
(-0.000221963 1.71198e-05 0)
(-0.00028428 1.87487e-05 0)
(-0.000351633 2.02042e-05 0)
(-0.00042346 2.14741e-05 0)
(-0.000499194 2.25601e-05 0)
(-0.000578275 2.34783e-05 0)
(-0.000660176 2.42328e-05 0)
(-0.00074438 2.48268e-05 0)
(-0.000830379 2.52781e-05 0)
(-0.000917699 2.55924e-05 0)
(-0.00100588 2.57744e-05 0)
(-0.00109449 2.58338e-05 0)
(-0.00118311 2.57769e-05 0)
(-0.00127134 2.56067e-05 0)
(-0.00135881 2.53257e-05 0)
(-0.00144515 2.49433e-05 0)
(-0.00153005 2.4468e-05 0)
(-0.00161317 2.39031e-05 0)
(-0.00169422 2.32517e-05 0)
(-0.00177292 2.25202e-05 0)
(-0.00184901 2.17172e-05 0)
(-0.00192224 2.08474e-05 0)
(-0.00199238 1.99152e-05 0)
(-0.00205923 1.89252e-05 0)
(-0.00212256 1.78815e-05 0)
(-0.00218222 1.67866e-05 0)
(-0.00223802 1.56417e-05 0)
(-0.00228981 1.44522e-05 0)
(-0.00233744 1.32248e-05 0)
(-0.00238079 1.19639e-05 0)
(-0.00241973 1.06715e-05 0)
(-0.00245417 9.34901e-06 0)
(-0.002484 8.00078e-06 0)
(-0.00250915 6.62987e-06 0)
(-0.00252954 5.23826e-06 0)
(-0.00254511 3.83145e-06 0)
(-0.00255583 2.41357e-06 0)
(-0.00256164 9.86992e-07 0)
(-0.00256254 -4.44353e-07 0)
(-0.0025585 -1.87943e-06 0)
(-0.00254952 -3.31674e-06 0)
(-0.00253562 -4.74837e-06 0)
(-0.00251683 -6.16827e-06 0)
(-0.00249316 -7.57586e-06 0)
(-0.00246468 -8.96869e-06 0)
(-0.00243146 -1.03429e-05 0)
(-0.00239355 -1.16956e-05 0)
(-0.00235106 -1.30206e-05 0)
(-0.00230409 -1.43107e-05 0)
(-0.00225276 -1.55637e-05 0)
(-0.00219721 -1.67765e-05 0)
(-0.0021376 -1.79413e-05 0)
(-0.00207409 -1.90523e-05 0)
(-0.00200687 -2.01077e-05 0)
(-0.00193615 -2.1103e-05 0)
(-0.00186215 -2.20307e-05 0)
(-0.00178512 -2.28851e-05 0)
(-0.00170531 -2.36614e-05 0)
(-0.001623 -2.43524e-05 0)
(-0.00153851 -2.49513e-05 0)
(-0.00145215 -2.54545e-05 0)
(-0.00136425 -2.58576e-05 0)
(-0.00127519 -2.61518e-05 0)
(-0.00118534 -2.63281e-05 0)
(-0.00109511 -2.63819e-05 0)
(-0.00100491 -2.63101e-05 0)
(-0.000915193 -2.61068e-05 0)
(-0.000826415 -2.5764e-05 0)
(-0.000739059 -2.52736e-05 0)
(-0.000653625 -2.46282e-05 0)
(-0.000570633 -2.38207e-05 0)
(-0.000490619 -2.28448e-05 0)
(-0.000414134 -2.16966e-05 0)
(-0.000341736 -2.03738e-05 0)
(-0.000273993 -1.8872e-05 0)
(-0.000211478 -1.71849e-05 0)
(-0.000154762 -1.53089e-05 0)
(-0.000104408 -1.32448e-05 0)
(-6.09551e-05 -1.09967e-05 0)
(-2.49026e-05 -8.57292e-06 0)
(3.31444e-06 -5.98987e-06 0)
(2.33673e-05 -3.28345e-06 0)
(3.51089e-05 -5.24756e-07 0)
(3.86887e-05 2.15578e-06 0)
(3.47192e-05 4.50976e-06 0)
(2.4659e-05 6.05617e-06 0)
(1.19546e-05 5.88409e-06 0)
(2.78391e-06 2.7797e-06 0)
(6.63345e-06 -1.21796e-05 0)
(2.24966e-05 -2.0413e-05 0)
(3.89453e-05 -1.69348e-05 0)
(4.56496e-05 -7.79345e-06 0)
(3.68668e-05 4.75118e-06 0)
(9.70064e-06 1.93138e-05 0)
(-3.76096e-05 3.47602e-05 0)
(-0.000105759 5.03606e-05 0)
(-0.000194684 6.55945e-05 0)
(-0.000303809 8.01453e-05 0)
(-0.000432161 9.38181e-05 0)
(-0.000578576 0.000106476 0)
(-0.000741719 0.000118061 0)
(-0.000920147 0.000128549 0)
(-0.0011124 0.000137921 0)
(-0.00131697 0.000146187 0)
(-0.00153234 0.000153357 0)
(-0.00175705 0.00015946 0)
(-0.00198963 0.00016452 0)
(-0.00222866 0.000168581 0)
(-0.00247277 0.000171675 0)
(-0.00272063 0.000173846 0)
(-0.00297097 0.000175127 0)
(-0.00322256 0.000175569 0)
(-0.00347423 0.000175208 0)
(-0.00372485 0.000174081 0)
(-0.00397337 0.000172229 0)
(-0.00421878 0.000169692 0)
(-0.0044601 0.000166508 0)
(-0.00469645 0.000162712 0)
(-0.00492697 0.000158341 0)
(-0.00515086 0.00015343 0)
(-0.00536735 0.000148014 0)
(-0.00557575 0.000142123 0)
(-0.0057754 0.000135791 0)
(-0.00596567 0.000129052 0)
(-0.006146 0.000121933 0)
(-0.00631584 0.000114462 0)
(-0.00647472 0.000106664 0)
(-0.00662218 9.85666e-05 0)
(-0.00675781 9.01982e-05 0)
(-0.00688123 8.15828e-05 0)
(-0.00699211 7.27463e-05 0)
(-0.00709014 6.37136e-05 0)
(-0.00717506 5.45054e-05 0)
(-0.00724662 4.51446e-05 0)
(-0.00730463 3.56541e-05 0)
(-0.00734893 2.60569e-05 0)
(-0.00737937 1.63796e-05 0)
(-0.00739586 6.64601e-06 0)
(-0.00739833 -3.12415e-06 0)
(-0.00738674 -1.29088e-05 0)
(-0.00736111 -2.26839e-05 0)
(-0.00732145 -3.24239e-05 0)
(-0.00726785 -4.21022e-05 0)
(-0.00720041 -5.16939e-05 0)
(-0.00711928 -6.11751e-05 0)
(-0.00702464 -7.05193e-05 0)
(-0.00691671 -7.96973e-05 0)
(-0.00679577 -8.86787e-05 0)
(-0.0066621 -9.74328e-05 0)
(-0.00651607 -0.00010593 0)
(-0.00635807 -0.000114139 0)
(-0.00618856 -0.000122025 0)
(-0.006008 -0.000129554 0)
(-0.00581694 -0.000136693 0)
(-0.00561599 -0.000143406 0)
(-0.00540578 -0.000149654 0)
(-0.00518699 -0.0001554 0)
(-0.00496038 -0.000160607 0)
(-0.00472676 -0.000165237 0)
(-0.00448699 -0.000169249 0)
(-0.00424197 -0.000172607 0)
(-0.00399267 -0.000175271 0)
(-0.00374013 -0.000177196 0)
(-0.00348541 -0.000178342 0)
(-0.00322965 -0.000178672 0)
(-0.00297404 -0.000178151 0)
(-0.00271982 -0.000176738 0)
(-0.00246829 -0.000174392 0)
(-0.00222079 -0.000171075 0)
(-0.0019787 -0.000166753 0)
(-0.00174345 -0.000161393 0)
(-0.00151651 -0.000154966 0)
(-0.00129937 -0.000147447 0)
(-0.00109352 -0.000138822 0)
(-0.000900486 -0.000129083 0)
(-0.000721773 -0.000118232 0)
(-0.000558851 -0.000106285 0)
(-0.000413129 -9.32792e-05 0)
(-0.000285915 -7.92811e-05 0)
(-0.000178364 -6.44053e-05 0)
(-9.13863e-05 -4.88372e-05 0)
(-2.55405e-05 -3.28724e-05 0)
(1.91443e-05 -1.69825e-05 0)
(4.34171e-05 -1.92562e-06 0)
(4.91222e-05 1.1072e-05 0)
(3.97233e-05 2.00241e-05 0)
(2.17921e-05 2.17649e-05 0)
(5.8929e-06 1.19505e-05 0)
(7.14839e-06 -2.59476e-05 0)
(2.18407e-05 -3.82839e-05 0)
(3.1995e-05 -2.57417e-05 0)
(2.52323e-05 -5.22164e-08 0)
(-5.49026e-06 3.39417e-05 0)
(-6.40747e-05 7.28904e-05 0)
(-0.000152865 0.00011426 0)
(-0.000272879 0.000156192 0)
(-0.000424153 0.000197405 0)
(-0.000605913 0.000237046 0)
(-0.000816904 0.000274505 0)
(-0.00105547 0.000309408 0)
(-0.00131968 0.000341524 0)
(-0.00160747 0.000370698 0)
(-0.00191664 0.000396876 0)
(-0.00224493 0.000420044 0)
(-0.00259007 0.000440214 0)
(-0.0029498 0.000457435 0)
(-0.00332186 0.000471779 0)
(-0.00370408 0.000483322 0)
(-0.00409431 0.000492154 0)
(-0.00449046 0.000498376 0)
(-0.00489054 0.000502091 0)
(-0.00529261 0.000503404 0)
(-0.00569481 0.000502427 0)
(-0.00609538 0.000499267 0)
(-0.00649262 0.000494031 0)
(-0.00688492 0.000486829 0)
(-0.00727076 0.000477767 0)
(-0.00764868 0.000466947 0)
(-0.00801733 0.000454472 0)
(-0.0083754 0.000440441 0)
(-0.0087217 0.000424948 0)
(-0.00905508 0.000408088 0)
(-0.00937449 0.000389949 0)
(-0.00967891 0.000370622 0)
(-0.00996745 0.000350195 0)
(-0.0102392 0.000328748 0)
(-0.0104935 0.00030636 0)
(-0.0107294 0.000283109 0)
(-0.0109465 0.000259071 0)
(-0.011144 0.00023432 0)
(-0.0113214 0.000208926 0)
(-0.0114783 0.000182961 0)
(-0.0116141 0.000156497 0)
(-0.0117286 0.000129594 0)
(-0.0118214 0.000102321 0)
(-0.0118922 7.4748e-05 0)
(-0.0119408 4.694e-05 0)
(-0.0119671 1.89666e-05 0)
(-0.0119709 -9.10509e-06 0)
(-0.0119522 -3.72121e-05 0)
(-0.0119111 -6.52846e-05 0)
(-0.0118475 -9.32489e-05 0)
(-0.0117616 -0.000121035 0)
(-0.0116536 -0.00014857 0)
(-0.0115236 -0.000175777 0)
(-0.0113721 -0.000202579 0)
(-0.0111994 -0.000228895 0)
(-0.0110058 -0.000254639 0)
(-0.0107919 -0.000279723 0)
(-0.0105583 -0.000304062 0)
(-0.0103056 -0.000327565 0)
(-0.0100345 -0.000350134 0)
(-0.00974583 -0.000371672 0)
(-0.00944041 -0.000392083 0)
(-0.00911922 -0.000411263 0)
(-0.00878329 -0.000429105 0)
(-0.00843372 -0.000445502 0)
(-0.00807171 -0.000460349 0)
(-0.00769855 -0.000473536 0)
(-0.00731561 -0.000484953 0)
(-0.00692436 -0.00049449 0)
(-0.00652632 -0.000502033 0)
(-0.00612313 -0.000507469 0)
(-0.00571652 -0.000510689 0)
(-0.00530826 -0.000511585 0)
(-0.00490025 -0.000510051 0)
(-0.00449446 -0.000505982 0)
(-0.00409291 -0.000499276 0)
(-0.00369771 -0.000489836 0)
(-0.00331101 -0.000477575 0)
(-0.00293506 -0.000462417 0)
(-0.00257209 -0.000444296 0)
(-0.00222442 -0.000423167 0)
(-0.00189434 -0.000399005 0)
(-0.00158414 -0.000371813 0)
(-0.00129607 -0.00034163 0)
(-0.00103232 -0.000308545 0)
(-0.000794931 -0.000272714 0)
(-0.000585768 -0.000234384 0)
(-0.000406411 -0.000193942 0)
(-0.000258045 -0.000151967 0)
(-0.000141293 -0.000109327 0)
(-5.59965e-05 -6.73126e-05 0)
(-9.23491e-07 -2.78415e-05 0)
(2.65678e-05 6.23625e-06 0)
(3.10069e-05 3.0753e-05 0)
(2.01604e-05 3.97342e-05 0)
(6.08099e-06 2.46749e-05 0)
(5.35559e-06 -3.71899e-05 0)
(1.26565e-05 -4.8182e-05 0)
(7.64547e-06 -1.99982e-05 0)
(-2.16389e-05 3.00842e-05 0)
(-8.2636e-05 9.41689e-05 0)
(-0.000179693 0.000166773 0)
(-0.000315463 0.00024366 0)
(-0.000491135 0.000321686 0)
(-0.000706706 0.000398622 0)
(-0.000961366 0.000472859 0)
(-0.00125359 0.000543285 0)
(-0.00158138 0.000609153 0)
(-0.00194239 0.000669945 0)
(-0.00233402 0.000725348 0)
(-0.0027535 0.000775198 0)
(-0.00319798 0.000819412 0)
(-0.00366453 0.000857996 0)
(-0.00415023 0.00089101 0)
(-0.00465218 0.000918555 0)
(-0.00516751 0.00094076 0)
(-0.00569341 0.000957789 0)
(-0.00622713 0.000969807 0)
(-0.00676604 0.000977001 0)
(-0.00730755 0.000979568 0)
(-0.00784922 0.000977704 0)
(-0.00838867 0.000971611 0)
(-0.00892365 0.000961494 0)
(-0.00945199 0.000947557 0)
(-0.00997164 0.000929997 0)
(-0.0104807 0.000909013 0)
(-0.0109772 0.000884801 0)
(-0.0114596 0.000857552 0)
(-0.0119261 0.00082745 0)
(-0.0123753 0.000794673 0)
(-0.0128056 0.000759402 0)
(-0.0132158 0.000721805 0)
(-0.0136046 0.000682049 0)
(-0.0139709 0.000640296 0)
(-0.0143135 0.000596702 0)
(-0.0146315 0.000551421 0)
(-0.0149239 0.000504598 0)
(-0.0151901 0.000456377 0)
(-0.0154292 0.000406902 0)
(-0.0156405 0.000356309 0)
(-0.0158235 0.000304734 0)
(-0.0159777 0.00025231 0)
(-0.0161026 0.000199166 0)
(-0.0161979 0.000145437 0)
(-0.0162633 9.12538e-05 0)
(-0.0162986 3.67473e-05 0)
(-0.0163036 -1.79515e-05 0)
(-0.0162783 -7.27087e-05 0)
(-0.0162226 -0.00012739 0)
(-0.0161367 -0.000181855 0)
(-0.0160208 -0.000235963 0)
(-0.015875 -0.000289572 0)
(-0.0156997 -0.000342536 0)
(-0.0154953 -0.000394696 0)
(-0.0152624 -0.000445894 0)
(-0.0150014 -0.00049597 0)
(-0.0147132 -0.000544756 0)
(-0.0143983 -0.000592077 0)
(-0.0140578 -0.000637753 0)
(-0.0136926 -0.000681604 0)
(-0.0133037 -0.000723443 0)
(-0.0128924 -0.000763074 0)
(-0.0124599 -0.000800301 0)
(-0.0120076 -0.00083492 0)
(-0.0115369 -0.000866725 0)
(-0.0110496 -0.000895509 0)
(-0.0105474 -0.000921061 0)
(-0.010032 -0.000943171 0)
(-0.00950547 -0.000961626 0)
(-0.00896985 -0.000976209 0)
(-0.00842733 -0.000986711 0)
(-0.00788019 -0.000992924 0)
(-0.00733083 -0.000994643 0)
(-0.00678176 -0.000991669 0)
(-0.00623558 -0.000983808 0)
(-0.00569499 -0.000970879 0)
(-0.00516276 -0.000952709 0)
(-0.00464173 -0.000929147 0)
(-0.00413483 -0.000900067 0)
(-0.003645 -0.000865371 0)
(-0.00317521 -0.000824996 0)
(-0.00272844 -0.000778922 0)
(-0.00230761 -0.000727189 0)
(-0.0019156 -0.000669916 0)
(-0.00155514 -0.000607321 0)
(-0.00122877 -0.000539759 0)
(-0.000938762 -0.000467764 0)
(-0.000687002 -0.000392124 0)
(-0.00047486 -0.000313983 0)
(-0.000302999 -0.00023497 0)
(-0.000171154 -0.000157407 0)
(-7.78498e-05 -8.45855e-05 0)
(-2.0089e-05 -2.11545e-05 0)
(7.06479e-06 2.64421e-05 0)
(1.14508e-05 4.93724e-05 0)
(4.5872e-06 3.48535e-05 0)
(2.67811e-06 -4.20063e-05 0)
(-9.25941e-07 -4.30379e-05 0)
(-2.68873e-05 8.34049e-06 0)
(-8.51191e-05 9.02681e-05 0)
(-0.000182471 0.000192016 0)
(-0.000323342 0.000305935 0)
(-0.000510396 0.000426082 0)
(-0.000744744 0.000548013 0)
(-0.00102637 0.000668393 0)
(-0.0013543 0.000784812 0)
(-0.0017268 0.000895548 0)
(-0.00214161 0.000999367 0)
(-0.00259603 0.00109543 0)
(-0.00308705 0.0011832 0)
(-0.00361144 0.00126232 0)
(-0.00416585 0.00133265 0)
(-0.00474681 0.00139412 0)
(-0.00535085 0.0014468 0)
(-0.00597448 0.00149082 0)
(-0.00661427 0.00152634 0)
(-0.00726681 0.0015536 0)
(-0.0079288 0.00157285 0)
(-0.00859701 0.00158436 0)
(-0.00926831 0.00158845 0)
(-0.0099397 0.0015854 0)
(-0.0106083 0.00157553 0)
(-0.0112713 0.00155917 0)
(-0.011926 0.00153663 0)
(-0.01257 0.00150822 0)
(-0.0132008 0.00147427 0)
(-0.0138162 0.00143508 0)
(-0.014414 0.00139095 0)
(-0.0149922 0.00134219 0)
(-0.0155488 0.00128908 0)
(-0.0160822 0.00123192 0)
(-0.0165906 0.00117098 0)
(-0.0170725 0.00110651 0)
(-0.0175265 0.0010388 0)
(-0.0179511 0.000968084 0)
(-0.0183453 0.00089462 0)
(-0.0187078 0.000818647 0)
(-0.0190377 0.000740397 0)
(-0.019334 0.000660103 0)
(-0.0195959 0.000577991 0)
(-0.0198227 0.000494278 0)
(-0.0200137 0.000409183 0)
(-0.0201684 0.000322922 0)
(-0.0202864 0.000235712 0)
(-0.0203673 0.000147768 0)
(-0.0204108 5.93016e-05 0)
(-0.0204168 -2.94744e-05 0)
(-0.0203852 -0.000118337 0)
(-0.020316 -0.000207064 0)
(-0.0202093 -0.000295432 0)
(-0.0200653 -0.000383213 0)
(-0.0198844 -0.000470169 0)
(-0.0196669 -0.000556056 0)
(-0.0194134 -0.000640629 0)
(-0.0191245 -0.00072363 0)
(-0.0188009 -0.000804792 0)
(-0.0184435 -0.000883845 0)
(-0.0180532 -0.000960509 0)
(-0.0176311 -0.00103449 0)
(-0.0171784 -0.0011055 0)
(-0.0166965 -0.00117324 0)
(-0.0161868 -0.00123738 0)
(-0.015651 -0.00129762 0)
(-0.0150906 -0.00135362 0)
(-0.0145076 -0.00140506 0)
(-0.0139041 -0.0014516 0)
(-0.013282 -0.0014929 0)
(-0.0126437 -0.00152863 0)
(-0.0119916 -0.00155845 0)
(-0.0113283 -0.00158202 0)
(-0.0106564 -0.001599 0)
(-0.00997871 -0.00160907 0)
(-0.00929822 -0.0016119 0)
(-0.00861797 -0.00160718 0)
(-0.00794113 -0.00159463 0)
(-0.007271 -0.00157395 0)
(-0.00661092 -0.0015449 0)
(-0.00596435 -0.00150726 0)
(-0.00533481 -0.00146086 0)
(-0.00472583 -0.00140556 0)
(-0.00414097 -0.0013413 0)
(-0.00358376 -0.00126808 0)
(-0.00305768 -0.00118603 0)
(-0.00256608 -0.00109538 0)
(-0.00211216 -0.000996526 0)
(-0.00169885 -0.000890101 0)
(-0.00132875 -0.000777008 0)
(-0.00100399 -0.000658538 0)
(-0.000726119 -0.000536495 0)
(-0.000495874 -0.000413377 0)
(-0.000313019 -0.000292616 0)
(-0.000176082 -0.000178915 0)
(-8.2071e-05 -7.86731e-05 0)
(-2.61266e-05 -4.66229e-07 0)
(-1.16176e-06 4.42718e-05 0)
(2.31571e-06 3.9107e-05 0)
(-2.10306e-07 -3.88808e-05 0)
(-1.63528e-05 -1.91073e-05 0)
(-6.6689e-05 6.40725e-05 0)
(-0.000157965 0.000185625 0)
(-0.00029582 0.000332369 0)
(-0.000484296 0.000494683 0)
(-0.00072573 0.000665058 0)
(-0.00102107 0.00083769 0)
(-0.00137008 0.0010082 0)
(-0.00177158 0.00117333 0)
(-0.00222365 0.00133065 0)
(-0.00272376 0.00147842 0)
(-0.00326889 0.00161542 0)
(-0.0038557 0.0017408 0)
(-0.00448057 0.00185403 0)
(-0.0051397 0.00195482 0)
(-0.00582921 0.00204304 0)
(-0.00654513 0.00211873 0)
(-0.00728349 0.00218202 0)
(-0.00804034 0.00223314 0)
(-0.00881178 0.00227236 0)
(-0.009594 0.00230004 0)
(-0.0103833 0.00231655 0)
(-0.0111759 0.0023223 0)
(-0.0119685 0.0023177 0)
(-0.0127577 0.0023032 0)
(-0.0135401 0.00227926 0)
(-0.0143128 0.00224631 0)
(-0.0150727 0.00220482 0)
(-0.015817 0.00215524 0)
(-0.0165431 0.002098 0)
(-0.0172484 0.00203355 0)
(-0.0179306 0.00196233 0)
(-0.0185874 0.00188474 0)
(-0.0192168 0.00180121 0)
(-0.0198166 0.00171214 0)
(-0.0203852 0.00161792 0)
(-0.0209208 0.00151892 0)
(-0.0214219 0.00141554 0)
(-0.021887 0.00130811 0)
(-0.0223147 0.001197 0)
(-0.0227039 0.00108256 0)
(-0.0230534 0.000965122 0)
(-0.0233624 0.000845012 0)
(-0.0236299 0.000722556 0)
(-0.0238551 0.000598077 0)
(-0.0240376 0.000471894 0)
(-0.0241766 0.000344321 0)
(-0.0242719 0.000215674 0)
(-0.0243231 8.62695e-05 0)
(-0.0243299 -4.35761e-05 0)
(-0.0242924 -0.000173543 0)
(-0.0242105 -0.000303303 0)
(-0.0240844 -0.000432523 0)
(-0.0239143 -0.000560869 0)
(-0.0237006 -0.000687993 0)
(-0.0234437 -0.00081354 0)
(-0.0231444 -0.000937144 0)
(-0.0228033 -0.00105843 0)
(-0.0224214 -0.00117701 0)
(-0.0219995 -0.00129249 0)
(-0.021539 -0.00140446 0)
(-0.0210409 -0.0015125 0)
(-0.0205069 -0.00161618 0)
(-0.0199383 -0.00171505 0)
(-0.0193371 -0.00180866 0)
(-0.018705 -0.00189656 0)
(-0.0180441 -0.00197827 0)
(-0.0173565 -0.0020533 0)
(-0.0166446 -0.00212119 0)
(-0.015911 -0.00218144 0)
(-0.0151582 -0.00223356 0)
(-0.0143891 -0.00227708 0)
(-0.0136067 -0.00231149 0)
(-0.0128142 -0.00233633 0)
(-0.0120147 -0.00235113 0)
(-0.0112118 -0.00235543 0)
(-0.010409 -0.0023488 0)
(-0.00960988 -0.00233082 0)
(-0.00881838 -0.00230113 0)
(-0.00803834 -0.00225939 0)
(-0.00727373 -0.0022053 0)
(-0.00652858 -0.00213864 0)
(-0.00580697 -0.00205926 0)
(-0.00511293 -0.00196712 0)
(-0.00445048 -0.00186227 0)
(-0.00382355 -0.00174493 0)
(-0.00323591 -0.00161549 0)
(-0.00269116 -0.00147461 0)
(-0.00219254 -0.00132322 0)
(-0.00174295 -0.00116266 0)
(-0.00134477 -0.000994794 0)
(-0.000999713 -0.000822136 0)
(-0.000708709 -0.00064809 0)
(-0.000471682 -0.000477205 0)
(-0.000287381 -0.000315536 0)
(-0.000153119 -0.000171098 0)
(-6.4489e-05 -5.43477e-05 0)
(-1.57247e-05 2.1095e-05 0)
(-2.59754e-07 3.60461e-05 0)
(-3.04832e-06 -2.74221e-05 0)
(-3.23726e-05 2.53069e-05 0)
(-0.000108771 0.00014988 0)
(-0.000235445 0.000319252 0)
(-0.000416357 0.000518322 0)
(-0.000654841 0.000735857 0)
(-0.000952759 0.000962857 0)
(-0.00131062 0.00119233 0)
(-0.00172787 0.00141887 0)
(-0.00220309 0.00163836 0)
(-0.00273409 0.00184769 0)
(-0.00331804 0.00204456 0)
(-0.00395166 0.00222732 0)
(-0.00463129 0.00239481 0)
(-0.00535295 0.00254625 0)
(-0.0061125 0.00268121 0)
(-0.00690564 0.00279946 0)
(-0.007728 0.00290099 0)
(-0.00857518 0.00298592 0)
(-0.00944279 0.00305453 0)
(-0.0103265 0.00310715 0)
(-0.011222 0.00314421 0)
(-0.0121252 0.00316619 0)
(-0.0130319 0.0031736 0)
(-0.0139383 0.00316702 0)
(-0.0148406 0.003147 0)
(-0.015735 0.00311415 0)
(-0.0166181 0.00306906 0)
(-0.0174865 0.00301234 0)
(-0.018337 0.00294459 0)
(-0.0191667 0.00286641 0)
(-0.0199726 0.00277838 0)
(-0.020752 0.0026811 0)
(-0.0215024 0.00257513 0)
(-0.0222214 0.00246103 0)
(-0.0229067 0.00233936 0)
(-0.0235563 0.00221064 0)
(-0.0241682 0.00207539 0)
(-0.0247406 0.00193411 0)
(-0.0252718 0.00178732 0)
(-0.0257604 0.00163548 0)
(-0.0262049 0.00147908 0)
(-0.0266042 0.00131856 0)
(-0.0269571 0.0011544 0)
(-0.0272625 0.000987022 0)
(-0.0275198 0.000816876 0)
(-0.027728 0.0006444 0)
(-0.0278867 0.000470029 0)
(-0.0279954 0.000294192 0)
(-0.0280537 0.000117323 0)
(-0.0280613 -6.01397e-05 0)
(-0.0280182 -0.000237754 0)
(-0.0279244 -0.000415072 0)
(-0.0277801 -0.000591641 0)
(-0.0275856 -0.000766998 0)
(-0.0273413 -0.000940668 0)
(-0.0270477 -0.00111216 0)
(-0.0267056 -0.00128098 0)
(-0.0263158 -0.00144661 0)
(-0.0258793 -0.00160853 0)
(-0.0253974 -0.0017662 0)
(-0.0248711 -0.00191905 0)
(-0.0243022 -0.00206651 0)
(-0.0236921 -0.002208 0)
(-0.0230427 -0.00234292 0)
(-0.0223559 -0.00247065 0)
(-0.0216339 -0.00259057 0)
(-0.020879 -0.00270203 0)
(-0.0200937 -0.00280439 0)
(-0.0192806 -0.002897 0)
(-0.0184427 -0.00297921 0)
(-0.0175828 -0.00305036 0)
(-0.0167043 -0.00310979 0)
(-0.0158105 -0.00315686 0)
(-0.0149049 -0.00319092 0)
(-0.0139912 -0.00321136 0)
(-0.0130734 -0.00321757 0)
(-0.0121554 -0.003209 0)
(-0.0112413 -0.0031851 0)
(-0.0103355 -0.00314539 0)
(-0.00944217 -0.00308945 0)
(-0.00856589 -0.00301692 0)
(-0.00771111 -0.00292754 0)
(-0.00688233 -0.00282115 0)
(-0.00608404 -0.00269772 0)
(-0.00532067 -0.00255741 0)
(-0.00459654 -0.00240054 0)
(-0.00391582 -0.00222772 0)
(-0.0032824 -0.00203987 0)
(-0.00269986 -0.00183827 0)
(-0.00217138 -0.00162476 0)
(-0.00169957 -0.00140176 0)
(-0.00128643 -0.00117255 0)
(-0.000933106 -0.00094141 0)
(-0.000639853 -0.000713953 0)
(-0.000405827 -0.000497477 0)
(-0.000228879 -0.000301411 0)
(-0.000105323 -0.000137786 0)
(-3.10661e-05 -2.19187e-05 0)
(-2.89679e-06 2.51114e-05 0)
(-5.76417e-06 -7.64402e-06 0)
(-4.82946e-05 9.08799e-05 0)
(-0.000151389 0.000267103 0)
(-0.000314543 0.000492853 0)
(-0.000539795 0.00075173 0)
(-0.000829637 0.00103111 0)
(-0.0011852 0.00132084 0)
(-0.00160643 0.00161282 0)
(-0.00209235 0.0019007 0)
(-0.00264119 0.00217956 0)
(-0.00325042 0.00244562 0)
(-0.00391693 0.00269603 0)
(-0.00463715 0.0029287 0)
(-0.00540709 0.00314212 0)
(-0.00622247 0.00333527 0)
(-0.0070788 0.00350753 0)
(-0.00797144 0.00365856 0)
(-0.00889564 0.00378829 0)
(-0.00984663 0.00389683 0)
(-0.0108196 0.00398447 0)
(-0.0118099 0.00405161 0)
(-0.0128128 0.00409876 0)
(-0.0138238 0.00412649 0)
(-0.0148383 0.00413545 0)
(-0.0158521 0.00412633 0)
(-0.0168609 0.00409986 0)
(-0.0178607 0.00405677 0)
(-0.0188477 0.00399783 0)
(-0.0198182 0.00392381 0)
(-0.0207685 0.00383547 0)
(-0.0216955 0.00373358 0)
(-0.0225958 0.00361889 0)
(-0.0234665 0.00349217 0)
(-0.0243047 0.00335414 0)
(-0.0251077 0.00320553 0)
(-0.0258732 0.00304704 0)
(-0.0265986 0.00287937 0)
(-0.027282 0.0027032 0)
(-0.0279212 0.00251917 0)
(-0.0285145 0.00232794 0)
(-0.0290601 0.00213013 0)
(-0.0295564 0.00192636 0)
(-0.0300022 0.00171724 0)
(-0.0303962 0.00150335 0)
(-0.0307372 0.00128527 0)
(-0.0310244 0.00106359 0)
(-0.0312568 0.000838874 0)
(-0.0314339 0.000611688 0)
(-0.0315551 0.000382597 0)
(-0.03162 0.00015217 0)
(-0.0316284 -7.90194e-05 0)
(-0.0315801 -0.000310393 0)
(-0.0314752 -0.000541369 0)
(-0.0313139 -0.000771355 0)
(-0.0310965 -0.000999743 0)
(-0.0308234 -0.00122591 0)
(-0.0304955 -0.00144923 0)
(-0.0301133 -0.00166904 0)
(-0.0296779 -0.00188468 0)
(-0.0291904 -0.00209547 0)
(-0.0286521 -0.0023007 0)
(-0.0280644 -0.00249964 0)
(-0.027429 -0.00269155 0)
(-0.0267477 -0.00287568 0)
(-0.0260224 -0.00305124 0)
(-0.0252555 -0.00321744 0)
(-0.0244493 -0.00337346 0)
(-0.0236062 -0.00351849 0)
(-0.0227292 -0.0036517 0)
(-0.0218212 -0.00377224 0)
(-0.0208853 -0.00387927 0)
(-0.0199248 -0.00397196 0)
(-0.0189434 -0.00404945 0)
(-0.0179447 -0.00411093 0)
(-0.0169327 -0.00415559 0)
(-0.0159115 -0.00418263 0)
(-0.0148852 -0.0041913 0)
(-0.0138584 -0.0041809 0)
(-0.0128356 -0.00415076 0)
(-0.0118214 -0.00410029 0)
(-0.0108206 -0.00402896 0)
(-0.009838 -0.00393638 0)
(-0.0088786 -0.00382223 0)
(-0.00794726 -0.00368637 0)
(-0.00704886 -0.00352881 0)
(-0.00618818 -0.00334979 0)
(-0.00536993 -0.0031498 0)
(-0.00459858 -0.00292967 0)
(-0.00387836 -0.00269059 0)
(-0.00321316 -0.00243426 0)
(-0.00260643 -0.00216297 0)
(-0.00206109 -0.00187976 0)
(-0.00157942 -0.00158862 0)
(-0.00116294 -0.00129466 0)
(-0.000812331 -0.00100449 0)
(-0.000527303 -0.000726485 0)
(-0.000306421 -0.000471261 0)
(-0.000146896 -0.00025209 0)
(-4.6491e-05 -8.55234e-05 0)
(-5.46812e-06 6.17935e-06 0)
(-8.30616e-06 2.02408e-05 0)
(-6.37985e-05 0.000177607 0)
(-0.00019351 0.000416088 0)
(-0.000393324 0.00070714 0)
(-0.000663337 0.00103339 0)
(-0.00100502 0.00138127 0)
(-0.00141865 0.00173965 0)
(-0.00190352 0.0020995 0)
(-0.00245811 0.00245365 0)
(-0.0030802 0.00279644 0)
(-0.00376691 0.00312345 0)
(-0.00451478 0.00343132 0)
(-0.00531991 0.0037175 0)
(-0.00617801 0.00398015 0)
(-0.0070845 0.004218 0)
(-0.00803455 0.00443021 0)
(-0.0090232 0.00461633 0)
(-0.0100454 0.00477622 0)
(-0.0110959 0.00490996 0)
(-0.0121698 0.00501786 0)
(-0.0132619 0.00510037 0)
(-0.0143671 0.00515808 0)
(-0.0154805 0.00519167 0)
(-0.0165974 0.00520191 0)
(-0.017713 0.00518962 0)
(-0.0188228 0.00515569 0)
(-0.0199224 0.00510102 0)
(-0.0210076 0.00502654 0)
(-0.0220745 0.00493319 0)
(-0.0231191 0.00482192 0)
(-0.0241377 0.00469366 0)
(-0.0251271 0.00454938 0)
(-0.0260837 0.00438999 0)
(-0.0270046 0.00421641 0)
(-0.0278868 0.00402955 0)
(-0.0287277 0.00383028 0)
(-0.0295246 0.00361948 0)
(-0.0302752 0.00339797 0)
(-0.0309773 0.0031666 0)
(-0.0316288 0.00292617 0)
(-0.032228 0.00267747 0)
(-0.0327731 0.00242127 0)
(-0.0332627 0.00215833 0)
(-0.0336953 0.0018894 0)
(-0.0340697 0.00161521 0)
(-0.034385 0.00133648 0)
(-0.0346402 0.00105394 0)
(-0.0348345 0.000768302 0)
(-0.0349675 0.000480274 0)
(-0.0350386 0.000190579 0)
(-0.0350477 -0.000100064 0)
(-0.0349945 -0.00039093 0)
(-0.0348792 -0.000681281 0)
(-0.0347019 -0.000970368 0)
(-0.0344631 -0.00125743 0)
(-0.0341631 -0.00154168 0)
(-0.0338028 -0.00182233 0)
(-0.033383 -0.00209856 0)
(-0.0329048 -0.00236952 0)
(-0.0323694 -0.00263437 0)
(-0.0317781 -0.00289221 0)
(-0.0311327 -0.00314215 0)
(-0.0304348 -0.00338324 0)
(-0.0296865 -0.00361454 0)
(-0.02889 -0.00383507 0)
(-0.0280477 -0.00404385 0)
(-0.0271621 -0.00423986 0)
(-0.0262361 -0.00442207 0)
(-0.0252727 -0.00458947 0)
(-0.0242751 -0.00474099 0)
(-0.0232468 -0.0048756 0)
(-0.0221914 -0.00499225 0)
(-0.0211128 -0.0050899 0)
(-0.020015 -0.00516755 0)
(-0.0189023 -0.00522419 0)
(-0.0177791 -0.00525886 0)
(-0.01665 -0.00527064 0)
(-0.0155199 -0.00525868 0)
(-0.0143935 -0.00522218 0)
(-0.013276 -0.00516042 0)
(-0.0121725 -0.00507282 0)
(-0.0110883 -0.00495889 0)
(-0.0100285 -0.0048183 0)
(-0.00899843 -0.00465092 0)
(-0.00800337 -0.00445682 0)
(-0.00704842 -0.00423635 0)
(-0.00613862 -0.00399016 0)
(-0.00527876 -0.0037193 0)
(-0.0044734 -0.0034253 0)
(-0.00372671 -0.00311022 0)
(-0.00304247 -0.00277684 0)
(-0.00242393 -0.00242878 0)
(-0.00187374 -0.00207068 0)
(-0.00139387 -0.00170848 0)
(-0.000985492 -0.00134959 0)
(-0.000649017 -0.00100334 0)
(-0.000383828 -0.000681301 0)
(-0.00018813 -0.000397663 0)
(-6.16025e-05 -0.000169808 0)
(-7.91528e-06 -2.06215e-05 0)
(-1.0687e-05 5.59087e-05 0)
(-7.87138e-05 0.000285068 0)
(-0.000234522 0.000596618 0)
(-0.000470635 0.000962013 0)
(-0.000785173 0.00136338 0)
(-0.00117853 0.00178645 0)
(-0.0016501 0.00221934 0)
(-0.00219841 0.00265228 0)
(-0.00282131 0.00307739 0)
(-0.00351609 0.00348836 0)
(-0.00427941 0.0038802 0)
(-0.00510747 0.00424905 0)
(-0.00599601 0.00459195 0)
(-0.0069404 0.00490672 0)
(-0.00793574 0.00519183 0)
(-0.00897692 0.00544625 0)
(-0.0100586 0.0056694 0)
(-0.0111755 0.00586106 0)
(-0.0123221 0.00602129 0)
(-0.0134929 0.00615039 0)
(-0.0146827 0.00624889 0)
(-0.0158859 0.00631743 0)
(-0.0170973 0.0063568 0)
(-0.0183119 0.00636792 0)
(-0.0195246 0.00635173 0)
(-0.0207305 0.00630928 0)
(-0.021925 0.00624164 0)
(-0.0231036 0.00614993 0)
(-0.0242619 0.00603525 0)
(-0.0253959 0.00589876 0)
(-0.0265016 0.00574159 0)
(-0.0275752 0.00556487 0)
(-0.0286132 0.00536973 0)
(-0.0296124 0.00515728 0)
(-0.0305695 0.00492861 0)
(-0.0314816 0.00468479 0)
(-0.032346 0.00442686 0)
(-0.0331601 0.00415587 0)
(-0.0339216 0.00387282 0)
(-0.0346282 0.00357869 0)
(-0.035278 0.00327445 0)
(-0.0358691 0.00296103 0)
(-0.0363999 0.00263938 0)
(-0.036869 0.0023104 0)
(-0.037275 0.00197499 0)
(-0.0376168 0.00163403 0)
(-0.0378934 0.00128842 0)
(-0.0381041 0.000939017 0)
(-0.0382482 0.000586709 0)
(-0.0383253 0.000232369 0)
(-0.0383351 -0.00012312 0)
(-0.0382774 -0.000478865 0)
(-0.0381523 -0.000833966 0)
(-0.03796 -0.00118751 0)
(-0.0377009 -0.00153855 0)
(-0.0373757 -0.00188615 0)
(-0.0369849 -0.00222932 0)
(-0.0365297 -0.00256707 0)
(-0.0360111 -0.00289837 0)
(-0.0354305 -0.00322218 0)
(-0.0347893 -0.00353741 0)
(-0.0340894 -0.00384296 0)
(-0.0333326 -0.0041377 0)
(-0.0325211 -0.00442047 0)
(-0.0316572 -0.0046901 0)
(-0.0307436 -0.00494536 0)
(-0.0297831 -0.00518504 0)
(-0.0287786 -0.0054079 0)
(-0.0277334 -0.00561269 0)
(-0.026651 -0.00579813 0)
(-0.0255352 -0.00596298 0)
(-0.0243897 -0.00610597 0)
(-0.0232188 -0.00622586 0)
(-0.0220268 -0.00632143 0)
(-0.0208183 -0.00639149 0)
(-0.019598 -0.00643489 0)
(-0.0183708 -0.00645053 0)
(-0.0171419 -0.00643742 0)
(-0.0159166 -0.0063946 0)
(-0.0147001 -0.00632127 0)
(-0.013498 -0.00621673 0)
(-0.0123158 -0.00608045 0)
(-0.0111591 -0.00591207 0)
(-0.0100336 -0.00571148 0)
(-0.00894482 -0.00547882 0)
(-0.00789816 -0.00521453 0)
(-0.006899 -0.00491946 0)
(-0.00595247 -0.0045949 0)
(-0.00506343 -0.00424265 0)
(-0.00423639 -0.00386519 0)
(-0.00347546 -0.00346575 0)
(-0.00278429 -0.00304848 0)
(-0.00216594 -0.00261866 0)
(-0.00162288 -0.00218289 0)
(-0.0011569 -0.00174935 0)
(-0.000769143 -0.00132811 0)
(-0.000459891 -0.000931473 0)
(-0.000228388 -0.000574294 0)
(-7.6194e-05 -0.000274449 0)
(-1.02233e-05 -5.50299e-05 0)
(-1.29244e-05 9.90076e-05 0)
(-9.29678e-05 0.000412671 0)
(-0.000274143 0.000808034 0)
(-0.000545796 0.00125693 0)
(-0.000904182 0.00174125 0)
(-0.00134863 0.00224625 0)
(-0.0018776 0.00275951 0)
(-0.00248877 0.00327069 0)
(-0.00317936 0.00377133 0)
(-0.00394606 0.00425454 0)
(-0.00478509 0.00471484 0)
(-0.00569219 0.00514792 0)
(-0.00666274 0.00555044 0)
(-0.00769177 0.00591991 0)
(-0.00877404 0.00625453 0)
(-0.00990412 0.00655311 0)
(-0.0110764 0.00681493 0)
(-0.0122852 0.00703969 0)
(-0.0135248 0.00722742 0)
(-0.0147894 0.00737844 0)
(-0.0160734 0.00749331 0)
(-0.017371 0.00757277 0)
(-0.0186766 0.00761771 0)
(-0.019985 0.00762916 0)
(-0.0212907 0.00760825 0)
(-0.0225887 0.00755615 0)
(-0.0238739 0.00747412 0)
(-0.0251416 0.00736347 0)
(-0.0263873 0.00722549 0)
(-0.0276064 0.00706154 0)
(-0.0287949 0.00687295 0)
(-0.0299488 0.00666106 0)
(-0.0310642 0.00642719 0)
(-0.0321377 0.00617267 0)
(-0.033166 0.00589878 0)
(-0.0341458 0.0056068 0)
(-0.0350743 0.00529797 0)
(-0.0359486 0.00497353 0)
(-0.0367664 0.00463468 0)
(-0.0375253 0.00428258 0)
(-0.038223 0.00391839 0)
(-0.0388578 0.00354324 0)
(-0.0394278 0.00315823 0)
(-0.0399314 0.00276446 0)
(-0.0403674 0.00236301 0)
(-0.0407343 0.00195493 0)
(-0.0410314 0.00154128 0)
(-0.0412576 0.00112311 0)
(-0.0414123 0.000701467 0)
(-0.0414951 0.000277409 0)
(-0.0415055 -0.000148011 0)
(-0.0414436 -0.000573728 0)
(-0.0413093 -0.000998661 0)
(-0.0411029 -0.00142171 0)
(-0.0408248 -0.00184176 0)
(-0.0404757 -0.00225767 0)
(-0.0400562 -0.00266827 0)
(-0.0395675 -0.00307238 0)