/*--------------------------------*- C++ -*----------------------------------*\
| =========                 |                                                 |
| \\      /  F ield         | OpenFOAM: The Open Source CFD Toolbox           |
|  \\    /   O peration     | Version:  2212                                  |
|   \\  /    A nd           | Website:  www.openfoam.com                      |
|    \\/     M anipulation  |                                                 |
\*---------------------------------------------------------------------------*/
FoamFile
{
    version     2.0;
    format      ascii;
    arch        "LSB;label=32;scalar=64";
    class       volVectorField;
    location    "0.0225";
    object      U_0;
}
// * * * * * * * * * * * * * * * * * * * * * * * * * * * * * * * * * * * * * //

dimensions      [0 1 -1 0 0 0 0];

internalField   nonuniform List<vector> 
10000
(
(1.80727e-06 -3.89411e-06 0)
(1.22917e-05 -7.21084e-06 0)
(2.47279e-05 -6.26876e-06 0)
(3.48939e-05 -4.41307e-06 0)
(3.79209e-05 -1.89269e-06 0)
(3.3307e-05 8.6172e-07 0)
(2.04793e-05 3.64295e-06 0)
(-6.33256e-07 6.34022e-06 0)
(-2.98189e-05 8.89033e-06 0)
(-6.66999e-05 1.12618e-05 0)
(-0.000110803 1.34443e-05 0)
(-0.000161603 1.5437e-05 0)
(-0.000218539 1.72384e-05 0)
(-0.000281034 1.8848e-05 0)
(-0.000348511 2.02716e-05 0)
(-0.000420398 2.15167e-05 0)
(-0.000496131 2.25899e-05 0)
(-0.000575161 2.34941e-05 0)
(-0.000656952 2.42341e-05 0)
(-0.00074099 2.48181e-05 0)
(-0.000826776 2.52546e-05 0)
(-0.000913836 2.55562e-05 0)
(-0.00100172 2.57295e-05 0)
(-0.00108998 2.57772e-05 0)
(-0.00117823 2.57078e-05 0)
(-0.00126606 2.55267e-05 0)
(-0.0013531 2.52387e-05 0)
(-0.00143901 2.48527e-05 0)
(-0.00152345 2.43749e-05 0)
(-0.00160611 2.38077e-05 0)
(-0.0016867 2.31567e-05 0)
(-0.00176494 2.24282e-05 0)
(-0.00184057 2.1626e-05 0)
(-0.00191334 2.07561e-05 0)
(-0.00198302 1.9825e-05 0)
(-0.00204941 1.88354e-05 0)
(-0.00211231 1.77883e-05 0)
(-0.00217153 1.66879e-05 0)
(-0.00222691 1.55412e-05 0)
(-0.00227829 1.43529e-05 0)
(-0.00232553 1.31261e-05 0)
(-0.0023685 1.18656e-05 0)
(-0.0024071 1.05764e-05 0)
(-0.00244122 9.26191e-06 0)
(-0.00247077 7.92349e-06 0)
(-0.00249568 6.56373e-06 0)
(-0.00251588 5.18742e-06 0)
(-0.00253132 3.79864e-06 0)
(-0.00254195 2.39917e-06 0)
(-0.00254774 9.90587e-07 0)
(-0.00254867 -4.23785e-07 0)
(-0.00254472 -1.83881e-06 0)
(-0.0025359 -3.25008e-06 0)
(-0.00252222 -4.65612e-06 0)
(-0.00250369 -6.0565e-06 0)
(-0.00248036 -7.44913e-06 0)
(-0.00245226 -8.82952e-06 0)
(-0.00241945 -1.01916e-05 0)
(-0.00238202 -1.15303e-05 0)
(-0.00234003 -1.28426e-05 0)
(-0.0022936 -1.4126e-05 0)
(-0.00224283 -1.5376e-05 0)
(-0.00218787 -1.65864e-05 0)
(-0.00212886 -1.77507e-05 0)
(-0.00206597 -1.88634e-05 0)
(-0.00199937 -1.992e-05 0)
(-0.00192928 -2.0916e-05 0)
(-0.00185592 -2.18459e-05 0)
(-0.00177952 -2.27035e-05 0)
(-0.00170034 -2.34822e-05 0)
(-0.00161866 -2.41757e-05 0)
(-0.00153479 -2.47779e-05 0)
(-0.00144904 -2.52834e-05 0)
(-0.00136174 -2.56875e-05 0)
(-0.00127326 -2.59849e-05 0)
(-0.00118396 -2.61703e-05 0)
(-0.00109426 -2.62375e-05 0)
(-0.00100455 -2.618e-05 0)
(-0.000915274 -2.59902e-05 0)
(-0.000826898 -2.5661e-05 0)
(-0.000739897 -2.51849e-05 0)
(-0.000654772 -2.45542e-05 0)
(-0.00057204 -2.37616e-05 0)
(-0.000492236 -2.2801e-05 0)
(-0.000415908 -2.16678e-05 0)
(-0.000343615 -2.03579e-05 0)
(-0.000275928 -1.88671e-05 0)
(-0.000213418 -1.71921e-05 0)
(-0.000156658 -1.53302e-05 0)
(-0.000106211 -1.32807e-05 0)
(-6.26208e-05 -1.10454e-05 0)
(-2.63924e-05 -8.63191e-06 0)
(2.03247e-06 -6.0579e-06 0)
(2.23185e-05 -3.3581e-06 0)
(3.43068e-05 -5.99904e-07 0)
(3.8129e-05 2.08602e-06 0)
(3.43796e-05 4.45116e-06 0)
(2.4499e-05 6.01569e-06 0)
(1.19183e-05 5.87055e-06 0)
(2.78628e-06 2.78675e-06 0)
(4.52976e-06 -1.17028e-05 0)
(1.97995e-05 -2.29191e-05 0)
(3.74482e-05 -1.95919e-05 0)
(4.5684e-05 -9.8973e-06 0)
(3.80881e-05 3.57791e-06 0)
(1.15974e-05 1.88767e-05 0)
(-3.54552e-05 3.4825e-05 0)
(-0.000103641 5.07034e-05 0)
(-0.000192775 6.60712e-05 0)
(-0.000302163 8.06538e-05 0)
(-0.000430789 9.42895e-05 0)
(-0.000577419 0.000106884 0)
(-0.000740684 0.000118387 0)
(-0.000919129 0.00012877 0)
(-0.00111126 0.00013803 0)
(-0.00131557 0.000146179 0)
(-0.00153056 0.000153237 0)
(-0.00175474 0.000159234 0)
(-0.00198666 0.000164195 0)
(-0.00222491 0.000168156 0)
(-0.00246811 0.000171159 0)
(-0.00271495 0.000173241 0)
(-0.00296415 0.000174449 0)
(-0.00321451 0.000174823 0)
(-0.00346485 0.000174401 0)
(-0.00371408 0.000173223 0)
(-0.00396114 0.000171331 0)
(-0.00420503 0.000168763 0)
(-0.0044448 0.000165558 0)
(-0.00467958 0.00016175 0)
(-0.00490851 0.000157374 0)
(-0.0051308 0.000152465 0)
(-0.00534571 0.000147052 0)
(-0.00555253 0.000141169 0)
(-0.00575063 0.000134851 0)
(-0.00593939 0.000128128 0)
(-0.00611823 0.000121029 0)
(-0.00628666 0.000113582 0)
(-0.00644418 0.000105814 0)
(-0.00659035 9.77531e-05 0)
(-0.00672476 8.94269e-05 0)
(-0.00684707 8.08624e-05 0)
(-0.00695692 7.20868e-05 0)
(-0.00705404 6.31234e-05 0)
(-0.00713815 5.3994e-05 0)
(-0.00720904 4.4721e-05 0)
(-0.00726652 3.53282e-05 0)
(-0.00731041 2.58382e-05 0)
(-0.00734059 1.62709e-05 0)
(-0.00735697 6.64624e-06 0)
(-0.00735948 -3.01317e-06 0)
(-0.00734809 -1.26829e-05 0)
(-0.0073228 -2.2339e-05 0)
(-0.00728364 -3.19611e-05 0)
(-0.00723069 -4.15293e-05 0)
(-0.00716404 -5.1021e-05 0)
(-0.00708383 -6.04099e-05 0)
(-0.00699024 -6.96674e-05 0)
(-0.00688349 -7.87638e-05 0)
(-0.00676382 -8.76716e-05 0)
(-0.00663154 -9.63637e-05 0)
(-0.006487 -0.00010481 0)
(-0.00633056 -0.000112978 0)
(-0.00616268 -0.000120831 0)
(-0.00598382 -0.000128335 0)
(-0.00579451 -0.000135453 0)
(-0.00559533 -0.000142151 0)
(-0.00538692 -0.000148393 0)
(-0.00516996 -0.00015414 0)
(-0.00494518 -0.000159354 0)
(-0.00471338 -0.000163996 0)
(-0.0044754 -0.000168026 0)
(-0.00423215 -0.000171406 0)
(-0.00398457 -0.000174099 0)
(-0.00373368 -0.000176066 0)
(-0.00348055 -0.00017727 0)
(-0.0032263 -0.00017767 0)
(-0.00297211 -0.000177224 0)
(-0.0027192 -0.000175892 0)
(-0.00246885 -0.000173632 0)
(-0.00222241 -0.000170408 0)
(-0.00198124 -0.000166182 0)
(-0.00174678 -0.00016092 0)
(-0.00152048 -0.000154594 0)
(-0.00130382 -0.000147178 0)
(-0.00109832 -0.000138657 0)
(-0.000905485 -0.000129021 0)
(-0.000726823 -0.000118269 0)
(-0.000563809 -0.000106417 0)
(-0.000417863 -9.34997e-05 0)
(-0.000290305 -7.95832e-05 0)
(-0.000182304 -6.47788e-05 0)
(-9.47947e-05 -4.92671e-05 0)
(-2.83601e-05 -3.33373e-05 0)
(1.69389e-05 -1.74554e-05 0)
(4.18166e-05 -2.37506e-06 0)
(4.80818e-05 1.06813e-05 0)
(3.91645e-05 1.97289e-05 0)
(2.15865e-05 2.15905e-05 0)
(5.86178e-06 1.19068e-05 0)
(5.58081e-06 -2.40212e-05 0)
(1.86803e-05 -3.90164e-05 0)
(2.76664e-05 -2.86333e-05 0)
(2.08729e-05 -2.87337e-06 0)
(-9.54972e-06 3.20865e-05 0)
(-6.78993e-05 7.20447e-05 0)
(-0.000156601 0.000114166 0)
(-0.000276665 0.000156572 0)
(-0.000428043 0.000198025 0)
(-0.000609926 0.000237712 0)
(-0.00082098 0.000275098 0)
(-0.00105951 0.000309847 0)
(-0.00132355 0.000341748 0)
(-0.001611 0.000370681 0)
(-0.00191964 0.000396593 0)
(-0.00224721 0.00041948 0)
(-0.00259143 0.000439369 0)
(-0.00295002 0.000456316 0)
(-0.00332077 0.00047039 0)
(-0.00370146 0.000481672 0)
(-0.00408998 0.000490259 0)
(-0.00448426 0.000496255 0)
(-0.00488229 0.000499761 0)
(-0.00528216 0.000500889 0)
(-0.00568205 0.000499751 0)
(-0.00608017 0.000496451 0)
(-0.00647487 0.000491101 0)
(-0.00686455 0.000483811 0)
(-0.00724771 0.000474685 0)
(-0.00762291 0.000463826 0)
(-0.0079888 0.000451333 0)
(-0.00834411 0.000437305 0)
(-0.00868766 0.00042183 0)
(-0.00901833 0.000405005 0)
(-0.00933506 0.000386922 0)
(-0.00963689 0.00036767 0)
(-0.0099229 0.000347333 0)
(-0.0101923 0.000325993 0)
(-0.0104442 0.000303732 0)
(-0.010678 0.000280626 0)
(-0.010893 0.00025675 0)
(-0.0110887 0.00023218 0)
(-0.0112644 0.00020699 0)
(-0.0114198 0.000181248 0)
(-0.0115544 0.000155022 0)
(-0.0116677 0.000128377 0)
(-0.0117596 0.000101379 0)
(-0.0118298 7.40929e-05 0)
(-0.011878 4.65821e-05 0)
(-0.011904 1.89094e-05 0)
(-0.0119079 -8.86009e-06 0)
(-0.0118895 -3.66602e-05 0)
(-0.0118488 -6.44245e-05 0)
(-0.011786 -9.20868e-05 0)
(-0.011701 -0.00011958 0)
(-0.0115941 -0.000146836 0)
(-0.0114656 -0.000173778 0)
(-0.0113156 -0.00020033 0)
(-0.0111447 -0.000226411 0)
(-0.0109531 -0.000251938 0)
(-0.0107413 -0.000276829 0)
(-0.01051 -0.000300997 0)
(-0.0102597 -0.00032435 0)
(-0.0099912 -0.000346793 0)
(-0.00970519 -0.000368228 0)
(-0.00940255 -0.000388555 0)
(-0.0090842 -0.000407671 0)
(-0.00875117 -0.000425473 0)
(-0.00840453 -0.000441855 0)
(-0.00804547 -0.000456709 0)
(-0.00767526 -0.000469924 0)
(-0.00729524 -0.000481392 0)
(-0.00690684 -0.000491002 0)
(-0.00651158 -0.000498644 0)
(-0.00611109 -0.00050421 0)
(-0.00570705 -0.000507588 0)
(-0.00530125 -0.000508668 0)
(-0.00489555 -0.000507341 0)
(-0.00449189 -0.000503497 0)
(-0.0040923 -0.000497034 0)
(-0.00369885 -0.000487853 0)
(-0.00331371 -0.000475865 0)
(-0.00293908 -0.00046099 0)
(-0.00257722 -0.000443162 0)
(-0.00223041 -0.00042233 0)
(-0.00190095 -0.000398466 0)
(-0.00159114 -0.000371568 0)
(-0.00130324 -0.000341672 0)
(-0.00103943 -0.000308859 0)
(-0.00080178 -0.000273278 0)
(-0.000592166 -0.000235173 0)
(-0.000412196 -0.000194921 0)
(-0.000263086 -0.000153094 0)
(-0.0001455 -0.000110545 0)
(-5.93251e-05 -6.85545e-05 0)
(-3.37581e-06 -2.90292e-05 0)
(2.49406e-05 5.18737e-06 0)
(3.01006e-05 2.9925e-05 0)
(1.9809e-05 3.91881e-05 0)
(6.02084e-06 2.44857e-05 0)
(4.19327e-06 -3.2848e-05 0)
(9.81205e-06 -4.65134e-05 0)
(2.90448e-06 -2.16435e-05 0)
(-2.74376e-05 2.77458e-05 0)
(-8.8954e-05 9.24695e-05 0)
(-0.00018635 0.000165989 0)
(-0.000322372 0.000243635 0)
(-0.000498234 0.000322159 0)
(-0.00071396 0.000399312 0)
(-0.000968671 0.000473544 0)
(-0.00126081 0.000543793 0)
(-0.00158835 0.000609346 0)
(-0.00194891 0.000669744 0)
(-0.00233985 0.0007247 0)
(-0.0027584 0.000774059 0)
(-0.00320169 0.000817766 0)
(-0.00366679 0.000855836 0)
(-0.00415077 0.000888338 0)
(-0.00465075 0.000915385 0)
(-0.00516384 0.000937115 0)
(-0.00568726 0.000953687 0)
(-0.00621828 0.000965281 0)
(-0.00675427 0.000972089 0)
(-0.00729268 0.000974306 0)
(-0.00783106 0.000972133 0)
(-0.00836708 0.000965778 0)
(-0.00889849 0.000955442 0)
(-0.00942317 0.000941329 0)
(-0.00993907 0.000923643 0)
(-0.0104443 0.00090258 0)
(-0.010937 0.000878332 0)
(-0.0114156 0.000851088 0)
(-0.0118783 0.000821033 0)
(-0.0123236 0.000788346 0)
(-0.0127503 0.0007532 0)
(-0.0131569 0.000715769 0)
(-0.0135422 0.000676218 0)
(-0.0139051 0.000634709 0)
(-0.0142445 0.000591396 0)
(-0.0145595 0.00054643 0)
(-0.0148492 0.000499959 0)
(-0.0151128 0.000452125 0)
(-0.0153496 0.000403069 0)
(-0.0155589 0.000352927 0)
(-0.0157401 0.000301833 0)
(-0.0158928 0.000249916 0)
(-0.0160166 0.000197305 0)
(-0.0161109 0.000144124 0)
(-0.0161757 9.05032e-05 0)
(-0.0162107 3.65683e-05 0)
(-0.0162157 -1.75519e-05 0)
(-0.0161907 -7.17287e-05 0)
(-0.0161357 -0.000125833 0)
(-0.0160507 -0.000179731 0)
(-0.015936 -0.000233287 0)
(-0.0157918 -0.000286361 0)
(-0.0156183 -0.000338808 0)
(-0.015416 -0.000390479 0)
(-0.0151855 -0.000441218 0)
(-0.0149271 -0.000490867 0)
(-0.0146417 -0.000539259 0)
(-0.01433 -0.000586224 0)
(-0.0139927 -0.000631587 0)
(-0.013631 -0.000675166 0)
(-0.0132457 -0.000716774 0)
(-0.0128381 -0.000756218 0)
(-0.0124095 -0.000793302 0)
(-0.0119611 -0.000827825 0)
(-0.0114944 -0.000859583 0)
(-0.0110112 -0.000888367 0)
(-0.0105129 -0.000913969 0)
(-0.0100015 -0.000936177 0)
(-0.00947888 -0.000954778 0)
(-0.00894708 -0.00096956 0)
(-0.00840824 -0.000980312 0)
(-0.00786465 -0.000986824 0)
(-0.00731866 -0.00098889 0)
(-0.00677277 -0.000986306 0)
(-0.00622956 -0.000978875 0)
(-0.00569168 -0.000966411 0)
(-0.00516191 -0.00094874 0)
(-0.00464308 -0.000925706 0)
(-0.00413807 -0.000897176 0)
(-0.00364984 -0.000863044 0)
(-0.00318134 -0.00082324 0)
(-0.00273554 -0.000777739 0)
(-0.00231538 -0.000726573 0)
(-0.00192374 -0.00066985 0)
(-0.00156335 -0.000607779 0)
(-0.00123679 -0.000540699 0)
(-0.000946338 -0.000469133 0)
(-0.000693925 -0.000393857 0)
(-0.000480954 -0.000315993 0)
(-0.000308136 -0.000237156 0)
(-0.000175261 -0.000159648 0)
(-8.09096e-05 -8.67454e-05 0)
(-2.21443e-05 -2.30884e-05 0)
(5.90548e-06 2.48752e-05 0)
(1.09939e-05 4.83016e-05 0)
(4.50242e-06 3.44409e-05 0)
(1.9595e-06 -3.63896e-05 0)
(-2.97534e-06 -3.9146e-05 0)
(-3.09402e-05 8.46106e-06 0)
(-9.06933e-05 8.91344e-05 0)
(-0.000189083 0.000191108 0)
(-0.000330713 0.000305689 0)
(-0.000518291 0.000426448 0)
(-0.000753001 0.000548728 0)
(-0.00103481 0.000669189 0)
(-0.00136273 0.000785445 0)
(-0.00173502 0.000895809 0)
(-0.00214937 0.000999099 0)
(-0.00260305 0.00109452 0)
(-0.00309304 0.00118156 0)
(-0.0036161 0.00125991 0)
(-0.00416884 0.00132943 0)
(-0.00474782 0.0013901 0)
(-0.00534955 0.00144198 0)
(-0.00597055 0.0014852 0)
(-0.00660741 0.00151997 0)
(-0.00725672 0.00154652 0)
(-0.00791521 0.0015651 0)
(-0.00857966 0.001576 0)
(-0.00924697 0.00157953 0)
(-0.00991416 0.001576 0)
(-0.0105783 0.00156571 0)
(-0.0112368 0.001549 0)
(-0.0118869 0.00152618 0)
(-0.0125261 0.00149757 0)
(-0.0131521 0.00146349 0)
(-0.0137626 0.00142424 0)
(-0.0143556 0.00138014 0)
(-0.0149289 0.00133146 0)
(-0.0154808 0.00127852 0)
(-0.0160096 0.00122158 0)
(-0.0165134 0.00116092 0)
(-0.0169909 0.00109682 0)
(-0.0174407 0.00102953 0)
(-0.0178614 0.000959294 0)
(-0.0182518 0.000886372 0)
(-0.0186108 0.000810996 0)
(-0.0189375 0.000733398 0)
(-0.0192309 0.000653805 0)
(-0.0194902 0.00057244 0)
(-0.0197148 0.00048952 0)
(-0.0199039 0.000405256 0)
(-0.0200571 0.000319859 0)
(-0.020174 0.000233537 0)
(-0.0202541 0.000146497 0)
(-0.0202972 5.89505e-05 0)
(-0.0203032 -2.88942e-05 0)
(-0.020272 -0.000116825 0)
(-0.0202035 -0.000204629 0)
(-0.020098 -0.000292087 0)
(-0.0199556 -0.000378977 0)
(-0.0197765 -0.000465066 0)
(-0.0195613 -0.000550121 0)
(-0.0193104 -0.000633897 0)
(-0.0190245 -0.000716145 0)
(-0.0187041 -0.000796604 0)
(-0.0183503 -0.000875008 0)
(-0.0179638 -0.00095108 0)
(-0.0175458 -0.00102454 0)
(-0.0170975 -0.00109508 0)
(-0.0166201 -0.00116242 0)
(-0.0161151 -0.00122624 0)
(-0.015584 -0.00128623 0)
(-0.0150286 -0.00134205 0)
(-0.0144506 -0.0013934 0)
(-0.0138521 -0.00143993 0)
(-0.013235 -0.0014813 0)
(-0.0126018 -0.00151719 0)
(-0.0119546 -0.00154724 0)
(-0.0112961 -0.00157112 0)
(-0.0106288 -0.0015885 0)
(-0.00995564 -0.00159904 0)
(-0.00927944 -0.00160242 0)
(-0.00860324 -0.00159832 0)
(-0.0079302 -0.00158645 0)
(-0.00726356 -0.00156652 0)
(-0.00660667 -0.00153827 0)
(-0.00596296 -0.00150148 0)
(-0.00533591 -0.00145595 0)
(-0.00472907 -0.00140155 0)
(-0.00414597 -0.0013382 0)
(-0.00359016 -0.00126591 0)
(-0.00306509 -0.00118476 0)
(-0.00257414 -0.00109498 0)
(-0.00212052 -0.000996966 0)
(-0.00170719 -0.000891312 0)
(-0.00133676 -0.000778907 0)
(-0.00101142 -0.000661019 0)
(-0.000732731 -0.000539427 0)
(-0.00050151 -0.000416603 0)
(-0.000317571 -0.000295956 0)
(-0.000179506 -0.000182166 0)
(-8.43908e-05 -8.16212e-05 0)
(-2.74434e-05 -2.89554e-06 0)
(-1.68342e-06 4.25812e-05 0)
(2.21724e-06 3.84287e-05 0)
(-6.11628e-07 -3.24365e-05 0)
(-1.77087e-05 -1.34256e-05 0)
(-6.98246e-05 6.59656e-05 0)
(-0.000162736 0.000185926 0)
(-0.000301854 0.000332542 0)
(-0.000491289 0.000495233 0)
(-0.000733422 0.000665959 0)
(-0.00102919 0.000838721 0)
(-0.00137836 0.00100909 0)
(-0.00177976 0.00117379 0)
(-0.00223143 0.00133047 0)
(-0.00273083 0.00147743 0)
(-0.00327491 0.00161347 0)
(-0.00386031 0.00173779 0)
(-0.0044834 0.0018499 0)
(-0.00514038 0.00194953 0)
(-0.00582735 0.00203659 0)
(-0.00654035 0.00211112 0)
(-0.00727543 0.00217329 0)
(-0.00802863 0.00222332 0)
(-0.00879609 0.00226153 0)
(-0.00957401 0.00228826 0)
(-0.0103587 0.00230389 0)
(-0.0111465 0.00230884 0)
(-0.011934 0.00230355 0)
(-0.0127178 0.00228845 0)
(-0.0134948 0.00226401 0)
(-0.0142618 0.00223067 0)
(-0.015016 0.00218889 0)
(-0.0157545 0.00213913 0)
(-0.0164748 0.00208182 0)
(-0.0171743 0.00201741 0)
(-0.0178507 0.00194633 0)
(-0.0185018 0.00186899 0)
(-0.0191256 0.00178581 0)
(-0.01972 0.00169718 0)
(-0.0202834 0.00160351 0)
(-0.020814 0.00150515 0)
(-0.0213103 0.00140249 0)
(-0.0217708 0.00129589 0)
(-0.0221944 0.00118568 0)
(-0.0225798 0.00107221 0)
(-0.0229259 0.000955813 0)
(-0.0232317 0.000836812 0)
(-0.0234965 0.000715527 0)
(-0.0237196 0.000592271 0)
(-0.0239002 0.000467353 0)
(-0.0240379 0.000341081 0)
(-0.0241322 0.000213762 0)
(-0.0241829 8.57022e-05 0)
(-0.0241897 -4.27884e-05 0)
(-0.0241527 -0.000171398 0)
(-0.0240717 -0.000299809 0)
(-0.0239469 -0.000427701 0)
(-0.0237787 -0.000554743 0)
(-0.0235672 -0.0006806 0)
(-0.0233131 -0.000804924 0)
(-0.0230169 -0.000927357 0)
(-0.0226793 -0.00104753 0)
(-0.0223013 -0.00116508 0)
(-0.0218837 -0.00127959 0)
(-0.0214277 -0.00139068 0)
(-0.0209345 -0.00149793 0)
(-0.0204056 -0.00160091 0)
(-0.0198425 -0.00169918 0)
(-0.0192468 -0.00179231 0)
(-0.0186204 -0.00187982 0)
(-0.0179654 -0.00196126 0)
(-0.0172838 -0.00203614 0)
(-0.0165779 -0.00210399 0)
(-0.0158503 -0.00216433 0)
(-0.0151035 -0.00221666 0)
(-0.0143403 -0.0022605 0)
(-0.0135637 -0.00229536 0)
(-0.0127768 -0.00232077 0)
(-0.0119828 -0.00233624 0)
(-0.011185 -0.00234133 0)
(-0.0103871 -0.00233559 0)
(-0.00959268 -0.0023186 0)
(-0.00880548 -0.00228998 0)
(-0.00802937 -0.00224938 0)
(-0.00726831 -0.0021965 0)
(-0.00652632 -0.00213111 0)
(-0.00580742 -0.00205303 0)
(-0.00511568 -0.0019622 0)
(-0.0044551 -0.00185867 0)
(-0.0038296 -0.00174263 0)
(-0.00324299 -0.00161446 0)
(-0.00269884 -0.00147478 0)
(-0.00220045 -0.0013245 0)
(-0.00175074 -0.00116494 0)
(-0.00135213 -0.000997919 0)
(-0.00100637 -0.000825928 0)
(-0.000714459 -0.000652334 0)
(-0.000476377 -0.000481656 0)
(-0.000290947 -0.000319921 0)
(-0.000155556 -0.000175122 0)
(-6.58763e-05 -5.77034e-05 0)
(-1.62738e-05 1.87379e-05 0)
(-3.61266e-07 3.50854e-05 0)
(-3.25922e-06 -2.04959e-05 0)
(-3.32066e-05 3.23682e-05 0)
(-0.000111092 0.000153377 0)
(-0.000239303 0.000321007 0)
(-0.000421482 0.00051969 0)
(-0.000660973 0.000737282 0)
(-0.00095959 0.000964343 0)
(-0.00131783 0.00119365 0)
(-0.00173515 0.00141974 0)
(-0.00221009 0.00163849 0)
(-0.00274044 0.00184683 0)
(-0.00332338 0.00204252 0)
(-0.00395558 0.00222395 0)
(-0.00463337 0.00238998 0)
(-0.00535277 0.00253991 0)
(-0.00610962 0.0026733 0)
(-0.00689964 0.00278998 0)
(-0.00771844 0.00288995 0)
(-0.00856164 0.00297338 0)
(-0.00942488 0.00304054 0)
(-0.0103038 0.00309178 0)
(-0.0111943 0.00312756 0)
(-0.012092 0.00314837 0)
(-0.012993 0.00315473 0)
(-0.0138934 0.0031472 0)
(-0.0147894 0.00312639 0)
(-0.0156774 0.00309287 0)
(-0.0165539 0.00304726 0)
(-0.0174156 0.00299016 0)
(-0.0182595 0.00292219 0)
(-0.0190823 0.00284392 0)
(-0.0198815 0.00275597 0)
(-0.0206542 0.0026589 0)
(-0.021398 0.00255329 0)
(-0.0221105 0.00243969 0)
(-0.0227896 0.00231864 0)
(-0.0234331 0.00219069 0)
(-0.0240392 0.00205634 0)
(-0.024606 0.00191609 0)
(-0.0251321 0.00177043 0)
(-0.0256159 0.00161984 0)
(-0.026056 0.00146479 0)
(-0.0264512 0.00130572 0)
(-0.0268005 0.00114309 0)
(-0.0271029 0.000977326 0)
(-0.0273575 0.000808862 0)
(-0.0275637 0.000638124 0)
(-0.0277208 0.000465535 0)
(-0.0278284 0.000291518 0)
(-0.0278861 0.000116494 0)
(-0.0278937 -5.91117e-05 0)
(-0.0278511 -0.000234869 0)
(-0.0277584 -0.000410344 0)
(-0.0276157 -0.000585093 0)
(-0.0274233 -0.000758663 0)
(-0.0271816 -0.000930593 0)
(-0.0268911 -0.00110041 0)
(-0.0265526 -0.00126762 0)
(-0.0261669 -0.00143173 0)
(-0.0257349 -0.00159221 0)
(-0.0252578 -0.00174854 0)
(-0.0247369 -0.00190017 0)
(-0.0241735 -0.00204653 0)
(-0.0235694 -0.00218705 0)
(-0.0229262 -0.00232113 0)
(-0.0222459 -0.00244817 0)
(-0.0215306 -0.00256754 0)
(-0.0207825 -0.00267862 0)
(-0.0200041 -0.00278076 0)
(-0.019198 -0.00287331 0)
(-0.018367 -0.00295561 0)
(-0.0175141 -0.00302702 0)
(-0.0166425 -0.00308688 0)
(-0.0157554 -0.00313453 0)
(-0.0148564 -0.00316935 0)
(-0.0139491 -0.00319069 0)
(-0.0130374 -0.00319796 0)
(-0.0121252 -0.00319057 0)
(-0.0112166 -0.00316799 0)
(-0.0103158 -0.00312973 0)
(-0.00942728 -0.00307533 0)
(-0.00855529 -0.00300443 0)
(-0.00770434 -0.00291674 0)
(-0.00687892 -0.0028121 0)
(-0.00608352 -0.00269045 0)
(-0.00532256 -0.00255191 0)
(-0.00460036 -0.0023968 0)
(-0.00392109 -0.00222569 0)
(-0.00328866 -0.00203945 0)
(-0.00270669 -0.00183936 0)
(-0.00217837 -0.0016272 0)
(-0.00170637 -0.00140536 0)
(-0.00129271 -0.00117707 0)
(-0.00093863 -0.000946584 0)
(-0.000644428 -0.000719466 0)
(-0.000409343 -0.000502979 0)
(-0.000231303 -0.00030652 0)
(-0.000106708 -0.000142087 0)
(-3.16117e-05 -2.4963e-05 0)
(-2.99372e-06 2.38655e-05 0)
(-5.85392e-06 -4.57873e-07 0)
(-4.87806e-05 9.89625e-05 0)
(-0.000153044 0.000271953 0)
(-0.000317524 0.000495952 0)
(-0.000543938 0.000754214 0)
(-0.000834679 0.00103338 0)
(-0.00119082 0.00132283 0)
(-0.00161229 0.0016143 0)
(-0.00209808 0.00190137 0)
(-0.00264637 0.00217911 0)
(-0.00325464 0.00244378 0)
(-0.00391976 0.00269259 0)
(-0.00463812 0.00292348 0)
(-0.00540574 0.003135 0)
(-0.00621832 0.00332618 0)
(-0.00707137 0.00349641 0)
(-0.00796024 0.00364542 0)
(-0.00888021 0.00377315 0)
(-0.00982651 0.00387975 0)
(-0.0107944 0.00396553 0)
(-0.0117791 0.00403091 0)
(-0.0127761 0.00407642 0)
(-0.0137807 0.00410265 0)
(-0.0147886 0.00411026 0)
(-0.0157955 0.00409995 0)
(-0.0167972 0.00407246 0)
(-0.0177897 0.00402853 0)
(-0.0187692 0.00396894 0)
(-0.019732 0.00389444 0)
(-0.0206747 0.00380583 0)
(-0.0215939 0.00370385 0)
(-0.0224865 0.00358928 0)
(-0.0233496 0.00346286 0)
(-0.0241803 0.00332532 0)
(-0.024976 0.00317738 0)
(-0.0257343 0.00301974 0)
(-0.026453 0.0028531 0)
(-0.0271297 0.00267812 0)
(-0.0277627 0.00249545 0)
(-0.0283501 0.00230572 0)
(-0.0288903 0.00210957 0)
(-0.0293817 0.00190758 0)
(-0.0298229 0.00170036 0)
(-0.0302129 0.00148849 0)
(-0.0305504 0.00127253 0)
(-0.0308346 0.00105305 0)
(-0.0310646 0.000830611 0)
(-0.0312399 0.00060576 0)
(-0.0313598 0.000379051 0)
(-0.0314241 0.000151038 0)
(-0.0314324 -7.77232e-05 0)
(-0.0313847 -0.000306671 0)
(-0.031281 -0.000535236 0)
(-0.0311215 -0.000762838 0)
(-0.0309065 -0.000988887 0)
(-0.0306364 -0.00121278 0)
(-0.0303119 -0.0014339 0)
(-0.0299338 -0.0016516 0)
(-0.029503 -0.00186524 0)
(-0.0290206 -0.00207414 0)
(-0.0284878 -0.00227761 0)
(-0.0279061 -0.00247494 0)
(-0.0272771 -0.0026654 0)
(-0.0266025 -0.00284824 0)
(-0.0258843 -0.00302269 0)
(-0.0251247 -0.00318796 0)
(-0.024326 -0.00334326 0)
(-0.0234907 -0.00348776 0)
(-0.0226215 -0.00362065 0)
(-0.0217214 -0.00374108 0)
(-0.0207934 -0.00384822 0)
(-0.0198409 -0.00394122 0)
(-0.0188673 -0.00401924 0)
(-0.0178763 -0.00408146 0)
(-0.0168719 -0.00412706 0)
(-0.0158579 -0.00415525 0)
(-0.0148387 -0.00416527 0)
(-0.0138187 -0.00415639 0)
(-0.0128022 -0.00412794 0)
(-0.0117939 -0.00407931 0)
(-0.0107986 -0.00400996 0)
(-0.00982113 -0.00391946 0)
(-0.0088663 -0.00380749 0)
(-0.00793901 -0.00367387 0)
(-0.00704414 -0.00351859 0)
(-0.00618648 -0.00334185 0)
(-0.0053707 -0.00314413 0)
(-0.00460131 -0.00292619 0)
(-0.00388254 -0.0026892 0)
(-0.00321831 -0.00243481 0)
(-0.0026121 -0.00216528 0)
(-0.00206687 -0.00188359 0)
(-0.00158496 -0.00159368 0)
(-0.00116794 -0.00130062 0)
(-0.000816553 -0.00101096 0)
(-0.0005306 -0.000733029 0)
(-0.000308721 -0.000477407 0)
(-0.000148221 -0.000257316 0)
(-4.70153e-05 -8.92503e-05 0)
(-5.56225e-06 4.65037e-06 0)
(-8.33351e-06 2.75399e-05 0)
(-6.40397e-05 0.000186415 0)
(-0.000194625 0.000422047 0)
(-0.00039552 0.000711351 0)
(-0.000666481 0.00103682 0)
(-0.00100886 0.0013842 0)
(-0.00142286 0.00174196 0)
(-0.00190771 0.00210091 0)
(-0.00246188 0.00245384 0)
(-0.00308309 0.00279507 0)
(-0.00376844 0.00312025 0)
(-0.00451447 0.00342603 0)
(-0.00531725 0.00370995 0)
(-0.00617249 0.0039702 0)
(-0.00707558 0.00420556 0)
(-0.0080217 0.00441525 0)
(-0.00900591 0.00459885 0)
(-0.0100231 0.00475625 0)
(-0.0110683 0.00488759 0)
(-0.0121362 0.00499319 0)
(-0.0132219 0.00507352 0)
(-0.0143203 0.0051292 0)
(-0.0154266 0.00516094 0)
(-0.0165359 0.00516951 0)
(-0.0176437 0.00515576 0)
(-0.0187454 0.00512058 0)
(-0.0198367 0.00506488 0)
(-0.0209135 0.00498961 0)
(-0.0219718 0.0048957 0)
(-0.0230078 0.00478411 0)
(-0.0240178 0.00465578 0)
(-0.0249985 0.00451166 0)
(-0.0259467 0.00435268 0)
(-0.0268592 0.00417975 0)
(-0.0277332 0.00399376 0)
(-0.0285661 0.00379559 0)
(-0.0293554 0.0035861 0)
(-0.0300987 0.00336613 0)
(-0.0307938 0.00313649 0)
(-0.0314388 0.00289798 0)
(-0.032032 0.00265138 0)
(-0.0325715 0.00239745 0)
(-0.033056 0.00213693 0)
(-0.0334841 0.00187056 0)
(-0.0338547 0.00159905 0)
(-0.0341666 0.00132311 0)
(-0.0344191 0.00104345 0)
(-0.0346115 0.000760765 0)
(-0.0347431 0.000475749 0)
(-0.0348135 0.000189102 0)
(-0.0348225 -9.84749e-05 0)
(-0.03477 -0.000386273 0)
(-0.034656 -0.000673575 0)
(-0.0344807 -0.00095965 0)
(-0.0342445 -0.00124376 0)
(-0.0339478 -0.00152513 0)
(-0.0335914 -0.001803 0)
(-0.0331762 -0.00207655 0)
(-0.032703 -0.00234498 0)
(-0.0321732 -0.00260743 0)
(-0.0315881 -0.00286305 0)
(-0.0309493 -0.00311093 0)
(-0.0302585 -0.00335017 0)
(-0.0295177 -0.00357982 0)
(-0.028729 -0.00379893 0)
(-0.0278948 -0.00400652 0)
(-0.0270177 -0.00420158 0)
(-0.0261003 -0.00438311 0)
(-0.0251456 -0.00455007 0)
(-0.0241569 -0.00470142 0)
(-0.0231375 -0.00483612 0)
(-0.022091 -0.00495314 0)
(-0.0210212 -0.00505143 0)
(-0.0199321 -0.00512997 0)
(-0.0188279 -0.00518777 0)
(-0.017713 -0.00522385 0)
(-0.0165919 -0.00523728 0)
(-0.0154694 -0.00522719 0)
(-0.0143503 -0.00519277 0)
(-0.0132396 -0.00513329 0)
(-0.0121425 -0.00504813 0)
(-0.0110641 -0.00493678 0)
(-0.0100097 -0.00479889 0)
(-0.00898442 -0.00463428 0)
(-0.0079936 -0.00444301 0)
(-0.00704232 -0.00422538 0)
(-0.00613561 -0.00398199 0)
(-0.00527828 -0.00371387 0)
(-0.00447489 -0.00342247 0)
(-0.00372964 -0.00310982 0)
(-0.00304635 -0.00277865 0)
(-0.00242831 -0.00243252 0)
(-0.0018782 -0.00207601 0)
(-0.00139806 -0.00171499 0)
(-0.000989154 -0.00135683 0)
(-0.000651946 -0.00101079 0)
(-0.00038591 -0.000688377 0)
(-0.000189353 -0.000403743 0)
(-6.2098e-05 -0.00017418 0)
(-8.01278e-06 -2.24254e-05 0)
(-1.06721e-05 6.32239e-05 0)
(-7.87726e-05 0.000294374 0)
(-0.000235203 0.000603405 0)
(-0.000472111 0.000967097 0)
(-0.000787322 0.00136751 0)
(-0.00118111 0.00178979 0)
(-0.00165276 0.00222169 0)
(-0.00220071 0.00265331 0)
(-0.00282282 0.00307675 0)
(-0.0035163 0.00348568 0)
(-0.00427781 0.00387518 0)
(-0.00510351 0.00424141 0)
(-0.00598914 0.00458151 0)
(-0.00693005 0.00489334 0)
(-0.00792135 0.00517541 0)
(-0.00895791 0.00542676 0)
(-0.0100345 0.00564686 0)
(-0.0111456 0.00583551 0)
(-0.0122859 0.00599283 0)
(-0.01345 0.00611916 0)
(-0.0146325 0.00621503 0)
(-0.0158281 0.00628113 0)
(-0.0170314 0.00631828 0)
(-0.0182376 0.0063274 0)
(-0.0194415 0.00630946 0)
(-0.0206384 0.00626552 0)
(-0.0218237 0.00619667 0)
(-0.0229929 0.00610401 0)
(-0.0241417 0.0059887 0)
(-0.0252661 0.00585185 0)
(-0.0263622 0.00569463 0)
(-0.0274263 0.00551815 0)
(-0.0284549 0.00532354 0)
(-0.0294448 0.00511191 0)
(-0.0303929 0.00488434 0)
(-0.0312963 0.0046419 0)
(-0.0321522 0.00438562 0)
(-0.0329583 0.00411654 0)
(-0.0337121 0.00383563 0)
(-0.0344115 0.00354389 0)
(-0.0350546 0.00324224 0)
(-0.0356396 0.00293164 0)
(-0.0361649 0.00261297 0)
(-0.036629 0.00228715 0)
(-0.0370307 0.00195504 0)
(-0.0373689 0.00161753 0)
(-0.0376426 0.00127546 0)
(-0.0378511 0.000929699 0)
(-0.0379937 0.000581095 0)
(-0.03807 0.000230505 0)
(-0.0380797 -0.00012121 0)
(-0.0380227 -0.000473182 0)
(-0.037899 -0.000824533 0)
(-0.0377089 -0.00117437 0)
(-0.0374527 -0.00152178 0)
(-0.0371311 -0.00186583 0)
(-0.0367446 -0.00220557 0)
(-0.0362943 -0.00254003 0)
(-0.0357813 -0.0028682 0)
(-0.0352069 -0.00318905 0)
(-0.0345725 -0.00350152 0)
(-0.0338798 -0.00380454 0)
(-0.0331308 -0.00409698 0)
(-0.0323275 -0.00437771 0)
(-0.0314723 -0.00464556 0)
(-0.0305677 -0.00489933 0)
(-0.0296164 -0.00513782 0)
(-0.0286214 -0.0053598 0)
(-0.0275859 -0.00556401 0)
(-0.0265133 -0.00574921 0)
(-0.0254073 -0.00591414 0)
(-0.0242717 -0.00605754 0)
(-0.0231106 -0.00617816 0)
(-0.0219283 -0.00627478 0)
(-0.0207292 -0.00634621 0)
(-0.0195182 -0.00639128 0)
(-0.0183 -0.00640889 0)
(-0.0170797 -0.00639802 0)
(-0.0158625 -0.0063577 0)
(-0.0146537 -0.0062871 0)
(-0.0134589 -0.0061855 0)
(-0.0122834 -0.00605232 0)
(-0.011133 -0.0058872 0)
(-0.010013 -0.00568996 0)
(-0.0089292 -0.00546071 0)
(-0.00788693 -0.00519985 0)
(-0.00689154 -0.00490818 0)
(-0.00594816 -0.00458693 0)
(-0.00506167 -0.00423785 0)
(-0.00423661 -0.00386336 0)
(-0.00347713 -0.00346663 0)
(-0.00278689 -0.00305174 0)
(-0.00216902 -0.00262391 0)
(-0.00162604 -0.00218966 0)
(-0.00115981 -0.0017571 0)
(-0.000771572 -0.00133624 0)
(-0.000461674 -0.000939318 0)
(-0.00022947 -0.00058111 0)
(-7.66522e-05 -0.000279392 0)
(-1.0324e-05 -5.7092e-05 0)
(-1.2866e-05 0.000106261 0)
(-9.28806e-05 0.000422251 0)
(-0.000274433 0.000815395 0)
(-0.000546596 0.00126261 0)
(-0.000905354 0.00174578 0)
(-0.0013499 0.00224967 0)
(-0.00187858 0.00276155 0)
(-0.00248901 0.00327097 0)
(-0.00317835 0.00376942 0)
(-0.00394328 0.00425007 0)
(-0.00477996 0.00470747 0)
(-0.00568413 0.00513737 0)
(-0.00665114 0.0055365 0)
(-0.00767603 0.00590243 0)
(-0.00875356 0.00623343 0)
(-0.00987829 0.00652836 0)
(-0.0110446 0.00678655 0)
(-0.0122469 0.00700775 0)
(-0.0134794 0.00719204 0)
(-0.0147364 0.00733978 0)
(-0.0160122 0.00745156 0)
(-0.0173012 0.00752815 0)
(-0.0185979 0.00757048 0)
(-0.0198969 0.00757959 0)
(-0.0211929 0.00755662 0)
(-0.0224809 0.00750278 0)
(-0.0237559 0.00741935 0)
(-0.0250132 0.00730762 0)
(-0.0262484 0.00716892 0)
(-0.027457 0.00700459 0)
(-0.028635 0.00681598 0)
(-0.0297784 0.00660442 0)
(-0.0308836 0.00637123 0)
(-0.031947 0.00611773 0)
(-0.0329654 0.0058452 0)
(-0.0339356 0.00555492 0)
(-0.0348549 0.00524811 0)
(-0.0357205 0.00492599 0)
(-0.0365299 0.00458974 0)
(-0.0372809 0.00424053 0)
(-0.0379714 0.0038795 0)
(-0.0385995 0.00350774 0)
(-0.0391634 0.00312634 0)
(-0.0396617 0.00273639 0)
(-0.0400929 0.00233892 0)
(-0.0404559 0.00193499 0)
(-0.0407497 0.00152562 0)
(-0.0409735 0.00111183 0)
(-0.0411266 0.000694654 0)
(-0.0412085 0.000275113 0)
(-0.0412189 -0.000145764 0)
(-0.0411577 -0.000566936 0)
(-0.041025 -0.000987349 0)
(-0.0408209 -0.00140594 0)
(-0.040546 -0.0018216 0)
(-0.0402007 -0.00223324 0)
(-0.0397859 -0.00263971 0)
(-0.0393026 -0.00303984 0)
(-0.0387519 -0.00343244 0)