/*--------------------------------*- C++ -*----------------------------------*\
| =========                 |                                                 |
| \\      /  F ield         | OpenFOAM: The Open Source CFD Toolbox           |
|  \\    /   O peration     | Version:  2212                                  |
|   \\  /    A nd           | Website:  www.openfoam.com                      |
|    \\/     M anipulation  |                                                 |
\*---------------------------------------------------------------------------*/
FoamFile
{
    version     2.0;
    format      ascii;
    arch        "LSB;label=32;scalar=64";
    class       volScalarField;
    location    "0.0835";
    object      p;
}
// * * * * * * * * * * * * * * * * * * * * * * * * * * * * * * * * * * * * * //

dimensions      [0 2 -2 0 0 0 0];

internalField   nonuniform List<scalar> 
10000
(
1.716e-08
9.29842e-05
-0.000125977
-0.000700883
-0.00158327
-0.00271796
-0.00404912
-0.00552319
-0.00709179
-0.008712
-0.0103462
-0.0119615
-0.0135293
-0.015025
-0.0164272
-0.0177173
-0.0188796
-0.0199007
-0.0207692
-0.0214758
-0.0220127
-0.0223741
-0.0225552
-0.0225528
-0.022365
-0.0219906
-0.0214299
-0.0206839
-0.0197545
-0.0186444
-0.0173571
-0.0158967
-0.0142681
-0.0124767
-0.0105286
-0.00843023
-0.00618855
-0.00381095
-0.0013053
0.00132017
0.00405678
0.00689555
0.00982716
0.012842
0.0159301
0.0190813
0.0222853
0.0255316
0.0288094
0.0321078
0.0354159
0.0387227
0.0420168
0.0452872
0.0485228
0.0517122
0.0548444
0.0579084
0.0608933
0.0637883
0.0665832
0.0692676
0.0718317
0.074266
0.0765614
0.0787094
0.0807016
0.0825307
0.0841897
0.0856723
0.086973
0.0880872
0.0890111
0.0897417
0.0902772
0.0906167
0.0907606
0.0907105
0.0904694
0.0900417
0.0894332
0.0886514
0.0877054
0.0866063
0.085367
0.0840028
0.0825312
0.0809724
0.0793497
0.0776892
0.0760206
0.0743775
0.072798
0.071325
0.070006
0.068893
0.0680388
0.0674941
0.0673009
0.0674081
-9.17611e-05
1.54518e-06
-0.000210922
-0.00072422
-0.00148862
-0.00246538
-0.00361361
-0.00489091
-0.00625711
-0.00767537
-0.00911237
-0.0105384
-0.011927
-0.0132551
-0.0145023
-0.0156509
-0.0166856
-0.0175933
-0.0183627
-0.0189846
-0.019451
-0.0197558
-0.0198941
-0.0198625
-0.0196585
-0.0192809
-0.0187294
-0.0180046
-0.017108
-0.016042
-0.0148094
-0.0134141
-0.0118605
-0.0101534
-0.00829844
-0.00630167
-0.00416953
-0.00190893
0.000472745
0.00296777
0.00556798
0.00826487
0.0110496
0.0139132
0.016846
0.0198387
0.0228812
0.0259636
0.0290757
0.0322072
0.0353476
0.0384866
0.0416135
0.0447177
0.0477885
0.0508155
0.0537881
0.0566959
0.0595286
0.0622762
0.0649287
0.0674768
0.069911
0.0722225
0.0744029
0.0764441
0.0783386
0.0800794
0.0816601
0.0830751
0.0843194
0.0853889
0.0862802
0.0869909
0.0875195
0.0878656
0.0880298
0.0880142
0.0878219
0.0874575
0.0869271
0.0862379
0.0853991
0.0844216
0.083318
0.082103
0.0807936
0.079409
0.077971
0.0765039
0.0750351
0.0735948
0.0722168
0.0709376
0.0697967
0.0688349
0.0680907
0.0675996
0.0674075
0.0675152
0.000128036
0.000215836
3.49523e-06
-0.000478271
-0.00117569
-0.00205658
-0.00308778
-0.004234
-0.00546098
-0.00673668
-0.00803158
-0.00931879
-0.0105741
-0.011776
-0.0129055
-0.0139456
-0.0148819
-0.0157014
-0.0163935
-0.0169487
-0.0173594
-0.0176195
-0.0177238
-0.0176689
-0.0174521
-0.017072
-0.016528
-0.0158204
-0.0149504
-0.01392
-0.0127319
-0.0113895
-0.00989672
-0.00825827
-0.00647925
-0.0045653
-0.00252254
-0.000357459
0.00192297
0.00431142
0.00680015
0.00938108
0.0120458
0.0147856
0.0175915
0.0204544
0.0233649
0.0263133
0.02929
0.0322852
0.0352888
0.0382908
0.0412811
0.0442497
0.0471864
0.0500811
0.0529237
0.0557043
0.0584133
0.061041
0.063578
0.0660154
0.0683443
0.0705565
0.0726438
0.0745987
0.0764141
0.0780836
0.0796012
0.0809617
0.0821606
0.0831941
0.0840593
0.0847539
0.0852769
0.0856279
0.0858081
0.0858196
0.0856656
0.0853508
0.0848812
0.0842641
0.0835085
0.0826247
0.0816251
0.0805238
0.0793371
0.078083
0.0767818
0.0754562
0.0741311
0.0728339
0.0715945
0.0704448
0.0694183
0.068549
0.0678683
0.0674061
0.0672147
0.067323
0.000703144
0.000731146
0.000487139
4.48125e-06
-0.000667182
-0.00149876
-0.00246137
-0.00352457
-0.00465863
-0.00583542
-0.00702866
-0.00821417
-0.0093699
-0.0104761
-0.0115149
-0.0124706
-0.0133294
-0.0140792
-0.0147094
-0.0152112
-0.0155771
-0.0158008
-0.0158777
-0.0158039
-0.0155769
-0.015195
-0.0146576
-0.0139647
-0.0131173
-0.0121172
-0.0109667
-0.00966913
-0.00822808
-0.0066479
-0.00493341
-0.00308991
-0.00112316
0.000960637
0.00315486
0.00545252
0.00784624
0.0103283
0.0128907
0.015525
0.0182228
0.0209751
0.023773
0.0266074
0.0294688
0.0323478
0.0352349
0.0381205
0.0409948
0.0438481
0.0466709
0.0494532
0.0521856
0.0548586
0.0574629
0.0599891
0.0624285
0.0647724
0.0670125
0.0691409
0.0711498
0.0730321
0.0747811
0.0763907
0.0778554
0.0791702
0.080331
0.0813343
0.0821773
0.0828582
0.083376
0.0837308
0.0839236
0.0839566
0.0838332
0.083558
0.0831369
0.082577
0.0818869
0.0810767
0.0801582
0.0791449
0.0780519
0.0768963
0.075697
0.0744746
0.0732521
0.0720542
0.0709074
0.06984
0.0688809
0.0680599
0.0674044
0.0669422
0.0667232
0.0667808
0.00158668
0.00149922
0.00118776
0.000676293
2.10954e-06
-0.000808847
-0.00173122
-0.00273887
-0.00380607
-0.00490824
-0.00602222
-0.00712642
-0.00820095
-0.00922772
-0.0101904
-0.0110745
-0.011867
-0.0125565
-0.0131331
-0.0135882
-0.0139148
-0.0141069
-0.0141596
-0.0140695
-0.0138338
-0.0134509
-0.01292
-0.012241
-0.0114148
-0.0104429
-0.00932762
-0.00807172
-0.00667877
-0.00515278
-0.0034983
-0.00172033
0.000175674
0.00218382
0.0042978
0.00651095
0.0088162
0.0112062
0.0136733
0.0162094
0.0188064
0.0214558
0.0241489
0.0268771
0.0296312
0.0324023
0.0351811
0.0379585
0.040725
0.0434713
0.0461883
0.0488665
0.0514968
0.05407
0.0565773
0.0590098
0.0613589
0.0636165
0.0657747
0.0678257
0.0697623
0.0715777
0.0732655
0.07482
0.0762359
0.0775087
0.0786343
0.0796097
0.0804322
0.0811001
0.0816127
0.08197
0.0821734
0.082225
0.0821282
0.0818874
0.0815083
0.0809978
0.080364
0.0796168
0.0787673
0.0778281
0.0768134
0.075739
0.0746222
0.0734822
0.0723394
0.0712163
0.0701363
0.069124
0.0682049
0.0674046
0.0667476
0.0662589
0.0659776
0.0659294
0.00272677
0.00248389
0.00207525
0.00151002
0.00080826
-7.35186e-06
-0.000914495
-0.00189097
-0.00291476
-0.00396448
-0.00501983
-0.00606172
-0.00707239
-0.00803549
-0.00893618
-0.00976108
-0.0104982
-0.011137
-0.0116681
-0.0120835
-0.0123766
-0.0125415
-0.0125737
-0.0124699
-0.0122272
-0.0118442
-0.0113198
-0.0106541
-0.00984778
-0.00890217
-0.00781936
-0.00660204
-0.0052535
-0.00377754
-0.00217843
-0.000460957
0.00136974
0.00330805
0.00534793
0.00748303
0.00970662
0.0120116
0.0143906
0.0168361
0.01934
0.0218944
0.0244909
0.0271211
0.0297763
0.0324479
0.0351269
0.0378046
0.0404719
0.0431199
0.0457396
0.0483222
0.0508587
0.0533403
0.0557586
0.0581051
0.0603716
0.0625503
0.0646334
0.0666138
0.0684843
0.0702386
0.0718706
0.0733748
0.0747463
0.0759806
0.0770741
0.0780237
0.0788271
0.0794827
0.0799899
0.0803488
0.0805607
0.0806278
0.0805534
0.0803416
0.079998
0.0795291
0.0789427
0.078248
0.0774555
0.076577
0.0756257
0.0746159
0.0735637
0.0724863
0.0714024
0.0703317
0.069295
0.0683139
0.0674102
0.0666061
0.0659233
0.0653839
0.065011
0.0648168
0.00407181
0.00364757
0.00311924
0.00247919
0.00172817
0.000885699
-2.85297e-05
-0.000995861
-0.00199761
-0.00301535
-0.00403139
-0.00502898
-0.00599236
-0.00690692
-0.00775927
-0.00853724
-0.00922987
-0.00982741
-0.0103213
-0.0107041
-0.0109694
-0.0111119
-0.0111274
-0.0110125
-0.0107647
-0.0103824
-0.0098648
-0.00921174
-0.00842388
-0.0075025
-0.00644955
-0.00526755
-0.00395961
-0.00252935
-0.000980777
0.000681539
0.00245264
0.00432722
0.00629951
0.00836341
0.0105125
0.0127399
0.0150386
0.0174013
0.0198205
0.0222883
0.0247967
0.0273376
0.0299028
0.0324838
0.0350721
0.0376591
0.0402362
0.0427949
0.0453263
0.0478221
0.0502735
0.0526723
0.05501
0.0572788
0.0594706
0.0615779
0.0635934
0.06551
0.0673211
0.0690203
0.070602
0.072061
0.0733923
0.0745919
0.0756563
0.0765825
0.0773684
0.0780124
0.0785139
0.0788732
0.0790916
0.0791712
0.0791149
0.0789269
0.0786122
0.0781771
0.0776291
0.0769766
0.0762294
0.0753985
0.0744959
0.0735349
0.07253
0.0714968
0.0704519
0.069413
0.0683982
0.0674263
0.0665161
0.0656863
0.0649564
0.0643456
0.0638587
0.0634918
0.00557318
0.00495186
0.00428771
0.00355624
0.00273827
0.00185053
0.00091048
-6.64264e-05
-0.00106453
-0.0020681
-0.0030618
-0.00403105
-0.004962
-0.00584168
-0.00665815
-0.00740041
-0.00805856
-0.00862373
-0.00908808
-0.00944474
-0.00968784
-0.00981249
-0.00981472
-0.00969143
-0.00944027
-0.00905972
-0.00854901
-0.00790805
-0.00713744
-0.0062384
-0.00521283
-0.00406312
-0.00279218
-0.00140347
9.9118e-05
0.00171128
0.00342828
0.00524498
0.00715587
0.0091551
0.0112365
0.0133935
0.0156193
0.017907
0.0202492
0.0226384
0.0250669
0.027527
0.0300106
0.0325095
0.0350156
0.0375207
0.0400163
0.0424942
0.0449461
0.0473635
0.0497383
0.0520623
0.0543277
0.0565265
0.0586513
0.0606946
0.0626493
0.0645088
0.0662665
0.0679165
0.0694532
0.0708716
0.072167
0.0733355
0.0743737
0.0752787
0.0760484
0.0766814
0.0771772
0.0775359
0.0777588
0.0778478
0.0778058
0.0776364
0.0773446
0.0769362
0.0764181
0.0757983
0.0750857
0.0742903
0.0734233
0.0724967
0.0715237
0.0705183
0.0694951
0.0684699
0.0674584
0.0664769
0.0655414
0.0646678
0.0638732
0.0631743
0.0625571
0.0620012
0.00718758
0.00636076
0.00555
0.00471456
0.00381564
0.00286767
0.00188626
0.000884011
-0.000126115
-0.0011308
-0.00211694
-0.00307189
-0.00398359
-0.00484062
-0.0056324
-0.00634915
-0.00698196
-0.00752285
-0.00796474
-0.00830138
-0.00852744
-0.00863846
-0.00863077
-0.00850155
-0.00824871
-0.00787083
-0.00736721
-0.00673784
-0.00598334
-0.00510492
-0.00410437
-0.00298401
-0.00174667
-0.000395654
0.00106533
0.00263213
0.0043002
0.00606461
0.00792003
0.00986084
0.0118811
0.0139745
0.0161346
0.0183545
0.0206272
0.0229456
0.0253021
0.0276893
0.0300994
0.0325245
0.0349567
0.0373881
0.0398105
0.042216
0.0445964
0.0469437
0.0492498
0.0515071
0.0537077
0.0558441
0.057909
0.0598952
0.061796
0.0636046
0.0653149
0.0669211
0.0684178
0.0698001
0.0710636
0.0722044
0.0732192
0.0741051
0.0748601
0.0754828
0.0759726
0.0763299
0.0765555
0.0766513
0.0766197
0.0764644
0.0761899
0.0758016
0.0753059
0.07471
0.0740221
0.0732515
0.0724082
0.0715033
0.0705485
0.0695563
0.0685397
0.0675124
0.0664883
0.0654813
0.0645049
0.0635723
0.0626989
0.0618993
0.0611406
0.0603867
0.00887746
0.00784166
0.00687759
0.00592905
0.00493838
0.00391818
0.00288264
0.00184186
0.000806407
-0.000212569
-0.00120395
-0.00215691
-0.00306099
-0.00390628
-0.00468343
-0.00538386
-0.00599965
-0.00652368
-0.0069496
-0.00727187
-0.00748564
-0.00758691
-0.00757243
-0.00743963
-0.00718664
-0.00681224
-0.0063159
-0.00569767
-0.00495818
-0.00409866
-0.0031209
-0.00202714
-0.000820108
0.000496989
0.00192058
0.00344663
0.00507077
0.00678825
0.00859393
0.0104824
0.0124478
0.0144843
0.0165854
0.0187446
0.0209552
0.0232102
0.0255023
0.0278244
0.0301688
0.032528
0.0348943
0.03726
0.0396173
0.0419583
0.0442752
0.0465601
0.0488054
0.0510035
0.0531469
0.0552281
0.0572401
0.059176
0.0610292
0.0627931
0.0644617
0.0660294
0.0674909
0.0688416
0.0700771
0.0711935
0.0721874
0.0730563
0.073798
0.0744112
0.0748952
0.0752501
0.0754768
0.0755768
0.0755525
0.0754071
0.0751449
0.0747706
0.0742902
0.0737102
0.0730382
0.0722826
0.0714526
0.0705579
0.0696091
0.0686174
0.0675941
0.0665512
0.0655008
0.0644548
0.0634246
0.0624207
0.0614576
0.0605478
0.0596405
0.0586845
0.0106105
0.0093655
0.00824442
0.0071764
0.00608584
0.00498399
0.00388395
0.00279369
0.00172167
0.000677164
-0.000330518
-0.00129218
-0.00219888
-0.00304205
-0.00381357
-0.0045059
-0.00511216
-0.00562605
-0.00604193
-0.00635491
-0.00656076
-0.0066559
-0.00663744
-0.00650316
-0.00625147
-0.00588134
-0.00539237
-0.00478473
-0.00405917
-0.00321691
-0.00225975
-0.00118988
-9.99103e-06
0.00127682
0.00266708
0.00415686
0.00574192
0.00741768
0.00917917
0.0110211
0.0129379
0.0149238
0.0169726
0.019078
0.0212335
0.0234323
0.0256674
0.0279318
0.0302182
0.0325192
0.0348274
0.0371352
0.039435
0.0417193
0.0439804
0.0462106
0.0484026
0.0505489
0.0526421
0.0546753
0.0566412
0.0585334
0.0603451
0.0620702
0.0637026
0.0652369
0.0666682
0.0679915
0.0692027
0.0702979
0.0712737
0.0721277
0.0728576
0.0734621
0.0739403
0.0742923
0.0745187
0.0746208
0.0746008
0.0744615
0.0742069
0.0738412
0.0733698
0.0727987
0.0721347
0.0713854
0.070559
0.0696645
0.0687111
0.0677085
0.066667
0.0655969
0.0645086
0.0634124
0.0623175
0.0612327
0.0601712
0.0591447
0.0580846
0.0569257
0.0123588
0.0109065
0.00962685
0.00843516
0.0072387
0.00604788
0.00487506
0.00372634
0.00260839
0.00152882
0.000495371
-0.000484269
-0.0014025
-0.00225199
-0.0030258
-0.00371742
-0.0043208
-0.00483052
-0.00524172
-0.00555008
-0.0057519
-0.00584411
-0.00582425
-0.00569041
-0.00544125
-0.005076
-0.00459443
-0.00399684
-0.00328408
-0.00245744
-0.00151872
-0.000470106
0.00068576
0.00194582
0.00330668
0.00476453
0.00631525
0.00795436
0.00967702
0.0114781
0.0133522
0.0152937
0.0172967
0.019355
0.0214622
0.0236119
0.0257972
0.0280112
0.0302469
0.0324972
0.0347547
0.0370121
0.0392621
0.0414971
0.0437099
0.0458929
0.0480389
0.0501405
0.0521907
0.0541825
0.056109
0.0579637
0.0597401
0.061432
0.0630338
0.0645399
0.0659454
0.0672456
0.0684362
0.0695133
0.0704739
0.0713151
0.0720348
0.0726315
0.0731042
0.0734528
0.0736778
0.0737802
0.0737618
0.0736254
0.0733742
0.0730123
0.0725443
0.0719756
0.0713125
0.0705618
0.0697309
0.0688275
0.06786
0.0668369
0.0657672
0.0646599
0.0635239
0.0623681
0.0611999
0.0600264
0.0588603
0.0577123
0.0564974
0.055137
0.0140983
0.0124419
0.0110035
0.00968557
0.00837898
0.00709362
0.00584145
0.00462701
0.00345537
0.00233271
0.00126542
0.000259884
-0.000677591
-0.00154082
-0.00232385
-0.00302116
-0.00362761
-0.00413854
-0.00454976
-0.00485759
-0.0050589
-0.00515107
-0.00513204
-0.00500026
-0.00475469
-0.0043948
-0.00392052
-0.00333236
-0.00263125
-0.00181857
-0.000896123
0.000133855
0.00126873
0.0025055
0.00384083
0.00527101
0.00679198
0.00839936
0.0100884
0.0118542
0.0136915
0.0155947
0.0175581
0.0195757
0.0216414
0.0237487
0.0258911
0.0280619
0.0302542
0.0324609
0.0346751
0.0368895
0.0390969
0.0412901
0.0434618
0.0456047
0.0477117
0.0497757
0.0517897
0.0537468
0.0556403
0.0574638
0.0592107
0.0608753
0.0624516
0.0639345
0.0653188
0.0666
0.0677737
0.0688362
0.0697841
0.0706148
0.071326
0.071916
0.0723836
0.0727286
0.0729513
0.0730525
0.0730337
0.0728972
0.0726459
0.0722834
0.0718138
0.0712421
0.0705737
0.0698148
0.0689718
0.0680518
0.0670619
0.0660099
0.0649034
0.0637504
0.0625587
0.0613354
0.0600869
0.0588188
0.0575433
0.0562708
0.0549006
0.0533414
0.0158083
0.0139515
0.0123554
0.0109097
0.00949003
0.00810596
0.00676929
0.00548323
0.00425156
0.00307919
0.00197126
0.000932992
-3.03202e-05
-0.000913616
-0.00171193
-0.00242059
-0.00303527
-0.00355207
-0.00396749
-0.00427843
-0.00448228
-0.0045769
-0.00456066
-0.00443233
-0.00419117
-0.00383691
-0.00336973
-0.00279026
-0.00209956
-0.0012991
-0.000390796
0.000623134
0.00174005
0.00295697
0.00427058
0.00567723
0.00717295
0.00875344
0.0104141
0.0121499
0.013956
0.0158268
0.0177568
0.0197401
0.0217707
0.0238423
0.0259487
0.0280831
0.0302389
0.0324092
0.0345871
0.0367657
0.0389377
0.0410962
0.0432339
0.0453438
0.0474188
0.049452
0.0514365
0.0533655
0.0552323
0.0570305
0.058754
0.0603967
0.061953
0.0634175
0.0647852
0.0660515
0.0672121
0.0682632
0.0692013
0.0700238
0.0707282
0.0713126
0.0717759
0.0721174
0.0723372
0.072436
0.072415
0.072276
0.0720215
0.0716547
0.0711793
0.0705996
0.0699204
0.0691473
0.0682858
0.0673423
0.0663231
0.0652348
0.0640844
0.0628785
0.061624
0.0603271
0.0589926
0.0576251
0.0562368
0.0548379
0.053313
0.0515584
0.0174705
0.0154174
0.013665
0.0120912
0.0105565
0.00907066
0.0076455
0.00628318
0.00498627
0.00375863
0.00260441
0.00152773
0.000532878
-0.000375959
-0.00119474
-0.00191961
-0.00254703
-0.00307378
-0.00349698
-0.00381415
-0.00402319
-0.00412241
-0.00411055
-0.00398677
-0.00375063
-0.00340213
-0.00294165
-0.00236999
-0.00168839
-0.000898415
-2.03579e-06
0.000998467
0.00210044
0.00330088
0.00459654
0.00598378
0.00745867
0.00901698
0.0106542
0.0123654
0.0141458
0.0159901
0.0178926
0.0198478
0.0218496
0.0238922
0.0259691
0.0280739
0.0302001
0.0323409
0.0344896
0.0366393
0.0387829
0.0409137
0.0430244
0.0451081
0.047158
0.0491671
0.0511286
0.0530359
0.0548822
0.0566613
0.058367
0.0599934
0.0615348
0.0629858
0.0643415
0.0655971
0.0667484
0.0677913
0.0687227
0.0695394
0.0702388
0.0708191
0.0712788
0.0716171
0.071834
0.0719296
0.0719049
0.0717613
0.0715011
0.0711269
0.0706419
0.07005
0.0693554
0.0685628
0.0676773
0.0667044
0.0656497
0.064519
0.0633184
0.0620538
0.0607309
0.0593549
0.05793
0.0564594
0.0549559
0.0534297
0.0517511
0.0498047
0.0190689
0.0168238
0.014917
0.013215
0.0115642
0.00997442
0.00845772
0.00701537
0.00564906
0.00436166
0.00315639
0.00203651
0.00100538
6.63663e-05
-0.000777334
-0.0015226
-0.00216658
-0.00270675
-0.00314085
-0.00346692
-0.00368334
-0.00378889
-0.00378273
-0.00366434
-0.00343358
-0.00309073
-0.0026364
-0.00207159
-0.00139765
-0.000616293
0.000270409
0.00126011
0.00235014
0.00353752
0.00481897
0.00619084
0.00764926
0.00919005
0.0108088
0.0125007
0.0142609
0.0160842
0.0179651
0.0198982
0.0218777
0.0238975
0.0259515
0.0280333
0.0301366
0.0322547
0.0343809
0.0365086
0.0386308
0.0407406
0.0428312
0.0448956
0.0469271
0.0489187
0.0508637
0.0527555
0.0545875
0.0563534
0.0580472
0.0596628
0.0611945
0.0626369
0.063985
0.0652342
0.0663799
0.0674183
0.0683458
0.0691592
0.0698558
0.0704336
0.0708908
0.0712266
0.0714405
0.0715325
0.071503
0.0713534
0.0710853
0.0707011
0.0702035
0.0695958
0.0688816
0.0680651
0.0671509
0.0661435
0.0650482
0.0638699
0.0626139
0.0612854
0.0598893
0.0584301
0.056911
0.0553348
0.0537144
0.0520604
0.0502294
0.0480951
0.0205894
0.0181562
0.0160972
0.0142674
0.0124999
0.0108046
0.00919418
0.00766895
0.00622985
0.004879
0.00361882
0.00245176
0.00138036
0.000407248
-0.000465059
-0.00123422
-0.00189805
-0.00245459
-0.00290215
-0.0032393
-0.00346493
-0.00357824
-0.00357872
-0.00346626
-0.00324102
-0.00290353
-0.00245463
-0.0018955
-0.0012277
-0.00045304
0.000426296
0.0014079
0.00248907
0.00366676
0.00493769
0.00629822
0.0077445
0.00927242
0.0108776
0.0125552
0.0143006
0.0161085
0.0179737
0.0198907
0.0218539
0.0238572
0.0258946
0.02796
0.030047
0.0321491
0.0342597
0.0363721
0.0384795
0.0405752
0.0426524
0.0447043
0.0467239
0.0487045
0.0506394
0.052522
0.0543458
0.0561046
0.057792
0.0594022
0.0609295
0.0623682
0.0637135
0.0649605
0.0661047
0.0671419
0.0680686
0.0688815
0.0695776
0.0701547
0.0706109
0.070945
0.0711563
0.0712445
0.0712097
0.0710529
0.0707754
0.070379
0.0698662
0.0692397
0.0685025
0.0676585
0.0667113
0.0656654
0.064525
0.0632946
0.0619789
0.0605822
0.059109
0.0575631
0.055947
0.054263
0.0525246
0.0507427
0.0487609
0.046442
0.0220191
0.0194018
0.0171925
0.0152358
0.0133513
0.0115497
0.00984375
0.00823343
0.00671891
0.00530166
0.00398337
0.00276583
0.00165091
0.000640493
-0.000263578
-0.00105957
-0.0017459
-0.00232121
-0.00278436
-0.0031344
-0.00337065
-0.00349273
-0.00350054
-0.00339429
-0.00317446
-0.0028418
-0.00239741
-0.00184269
-0.00117937
-0.000409386
0.000465
0.00144128
0.00251666
0.00368806
0.00495218
0.00630541
0.00774391
0.00926354
0.0108599
0.0125284
0.0142642
0.0160623
0.0179175
0.0198243
0.0217772
0.0237702
0.0257975
0.0278528
0.0299301
0.0320227
0.0341242
0.036228
0.0383274
0.0404158
0.0424862
0.044532
0.0465464
0.0485224
0.0504536
0.0523333
0.0541551
0.0559125
0.0575993
0.0592097
0.0607376
0.0621777
0.0635248
0.064774
0.0659206
0.0669605
0.0678897
0.0687049
0.069403
0.0699814
0.0704382
0.0707718
0.0709812
0.0710659
0.0710256
0.0708608
0.0705727
0.0701627
0.0696326
0.0689848
0.0682219
0.0673471
0.0663638
0.0652757
0.0640866
0.0628004
0.0614212
0.0599529
0.0583993
0.0567637
0.0550483
0.053255
0.0513977
0.049488
0.0473568
0.0448564
0.0233469
0.0205487
0.0181913
0.0161084
0.0141071
0.0121984
0.0103958
0.00869875
0.00710673
0.00562071
0.00424181
0.00297117
0.00181002
0.000759644
-0.000178711
-0.0010039
-0.00171493
-0.00231097
-0.00279137
-0.00315566
-0.00340358
-0.00353515
-0.00355066
-0.00345063
-0.00323581
-0.00290727
-0.00246632
-0.00191459
-0.00125393
-0.000486448
0.000385483
0.00135924
0.00243196
0.00360052
0.00486161
0.00621159
0.00764658
0.00916247
0.0107549
0.0124192
0.0141508
0.0159446
0.0177954
0.0196978
0.0216463
0.0236352
0.0256585
0.0277103
0.0297841
0.0318738
0.0339728
0.0360747
0.0381727
0.0402603
0.0423306
0.044377
0.0463925
0.0483705
0.0503043
0.0521873
0.054013
0.055775
0.057467
0.059083
0.060617
0.0620634
0.0634171
0.064673
0.0658262
0.0668725
0.0678077
0.0686283
0.0693311
0.0699132
0.0703725
0.0707071
0.0709156
0.0709973
0.0709516
0.0707786
0.0704792
0.0700543
0.0695054
0.0688345
0.0680436
0.0671356
0.0661134
0.0649802
0.0637394
0.0623943
0.0609486
0.0594056
0.0577689
0.0560414
0.0542248
0.0523208
0.050344
0.0483067
0.0460274
0.0433482
0.0245623
0.0215863
0.0190824
0.0168742
0.0147563
0.0127403
0.0108403
0.00905516
0.00738409
0.00582749
0.00438594
0.00306008
0.00185058
0.000758155
-0.000216499
-0.00107279
-0.00181025
-0.00242851
-0.00292741
-0.00330693
-0.00356722
-0.00370869
-0.00373195
-0.00363785
-0.00342747
-0.00310212
-0.00266336
-0.00211297
-0.00145302
-0.000685768
0.00018628
0.00116041
0.00223368
0.00340294
0.00466479
0.00601556
0.00745135
0.00896805
0.0105613
0.0122266
0.0139591
0.015754
0.017606
0.0195098
0.02146
0.0234508
0.0254764
0.0275307
0.0296076
0.0317008
0.0338038
0.0359103
0.0380135
0.0401069
0.0421837
0.0442371
0.0462603
0.0482466
0.0501894
0.0520819
0.0539177
0.0556902
0.0573931
0.0590202
0.0605657
0.0620236
0.0633888
0.0646559
0.0658201
0.0668767
0.0678216
0.068651
0.0693614
0.0699498
0.0704137
0.070751
0.07096
0.0710396
0.070989
0.0708081
0.0704971
0.0700567
0.069488
0.0687924
0.067972
0.0670288
0.0659655
0.0647849
0.0634897
0.0620832
0.0605684
0.0589484
0.0572263
0.0554049
0.0534857
0.0514699
0.049373
0.0472082
0.0447818
0.041926
0.0256555
0.0225043
0.0198558
0.0175231
0.015289
0.0131655
0.0111674
0.00929334
0.00754201
0.00591341
0.00440767
0.00302495
0.00176543
0.000629316
-0.000383208
-0.00127205
-0.0020372
-0.00267877
-0.00319705
-0.00359242
-0.00386544
-0.00401687
-0.00404766
-0.00395899
-0.00375221
-0.00342891
-0.00299085
-0.00244003
-0.0017787
-0.00100928
-0.000134413
0.000843102
0.00192024
0.00309375
0.00436019
0.00571582
0.00715675
0.00867885
0.0102778
0.011949
0.0136877
0.015489
0.0173478
0.0192588
0.0212165
0.0232153
0.0252492
0.0273124
0.0293987
0.0315018
0.0336154
0.0357329
0.0378479
0.0399536
0.0420434
0.0441104
0.0461478
0.0481488
0.0501069
0.0520152
0.0538671
0.0556561
0.0573757
0.0590198
0.0605821
0.0620568
0.0634384
0.0647216
0.0659011
0.0669723
0.0679308
0.0687725
0.0694937
0.0700912
0.0705622
0.0709042
0.0711155
0.0711943
0.0711398
0.0709513
0.0706288
0.0701727
0.0695836
0.0688626
0.0680113
0.0670315
0.0659254
0.0646954
0.063344
0.0618739
0.0602879
0.0585889
0.0567796
0.0548627
0.0528395
0.050711
0.0484936
0.0462012
0.0436285
0.0405977
0.0266177
0.0232935
0.0205016
0.0180453
0.0156952
0.0134642
0.0113678
0.00940415
0.00757167
0.00587
0.00429892
0.0028581
0.00154732
0.00036629
-0.000685247
-0.00160765
-0.00240138
-0.003067
-0.00360517
-0.00401667
-0.00430244
-0.0044636
-0.00450143
-0.00441741
-0.00421317
-0.00389054
-0.00345152
-0.00289832
-0.00223337
-0.00145924
-0.000578718
0.000405301
0.00148968
0.00267108
0.00394598
0.00531062
0.00676106
0.00829317
0.00990258
0.0115847
0.0133348
0.015148
0.0170192
0.018943
0.0209141
0.0229268
0.0249753
0.0270536
0.0291555
0.031275
0.0334055
0.0355407
0.0376739
0.0397985
0.0419077
0.0439948
0.0460529
0.0480752
0.0500549
0.0519852
0.0538595
0.055671
0.0574133
0.0590799
0.0606647
0.0621616
0.0635648
0.0648689
0.0660685
0.0671587
0.0681348
0.0689925
0.0697281
0.0703378
0.0708186
0.0711678
0.0713832
0.071463
0.0714058
0.0712108
0.0708774
0.0704057
0.069796
0.0690492
0.0681662
0.0671488
0.0659986
0.0647178
0.0633086
0.0617732
0.0601144
0.0583347
0.0564367
0.054423
0.0522945
0.0500524
0.0477139
0.0452939
0.0425753
0.0393706
0.0274402
0.0239448
0.0210107
0.0184315
0.0159658
0.0136274
0.0114323
0.00937866
0.00746442
0.00568895
0.00405166
0.00255186
0.0011889
-3.78773e-05
-0.0011292
-0.00208584
-0.00290868
-0.00359868
-0.0041569
-0.00458448
-0.00488274
-0.00505312
-0.00509722
-0.00501682
-0.00481381
-0.00449026
-0.00404843
-0.00349073
-0.00281976
-0.00203824
-0.00114909
-0.000155359
0.000939719
0.00213271
0.00342003
0.00479789
0.00626228
0.00780903
0.00943373
0.0111318
0.0128986
0.014729
0.0166181
0.0185606
0.0205509
0.0225835
0.0246525
0.0267521
0.0288761
0.0310182
0.0331722
0.0353314
0.0374894
0.0396394
0.0417747
0.0438885
0.0459737
0.0480237
0.0500315
0.0519902
0.0538931
0.0557333
0.0575042
0.0591994
0.0608123
0.0623368
0.063767
0.0650971
0.0663216
0.0674354
0.0684334
0.0693114
0.0700649
0.0706902
0.0711838
0.071543
0.071765
0.0718478
0.0717896
0.0715892
0.0712459
0.0707593
0.0701293
0.0693565
0.0684416
0.0673859
0.0661908
0.0648582
0.0633899
0.0617881
0.0600551
0.0581934
0.0562053
0.0540934
0.0518586
0.049502
0.0470418
0.0444939
0.0416295
0.0382514
0.0281149
0.0244497
0.0213743
0.0186726
0.0160917
0.0136459
0.0113521
0.00920813
0.0072117
0.00536192
0.00365784
0.00209848
0.000682796
-0.000590264
-0.00172182
-0.00271303
-0.00356516
-0.00427957
-0.00485767
-0.00530099
-0.00561116
-0.00578996
-0.0058393
-0.00576123
-0.00555792
-0.00523169
-0.00478501
-0.00422049
-0.00354092
-0.00274917
-0.00184833
-0.000841561
0.00026778
0.00147617
0.00277997
0.00417529
0.00565809
0.00722414
0.00886902
0.0105881
0.0123767
0.0142299
0.0161425
0.0181092
0.0201246
0.0221831
0.0242789
0.026406
0.0285582
0.0307294
0.0329132
0.0351031
0.0372924
0.0394744
0.0416423
0.0437893
0.0459084
0.0479925
0.0500349
0.0520285
0.0539662
0.0558414
0.0576471
0.0593767
0.0610236
0.0625815
0.0640441
0.0654055
0.0666601
0.0678022
0.0688269
0.0697292
0.0705047
0.0711493
0.0716593
0.0720313
0.0722627
0.0723508
0.0722937
0.0720898
0.0717378
0.0712372
0.0705876
0.0697892
0.0688424
0.0677482
0.0665078
0.0651226
0.0635945
0.0619252
0.060117
0.0581721
0.0560929
0.0538817
0.0515396
0.0490676
0.046485
0.0438086
0.0407981
0.0372465
0.028634
0.0247998
0.0215838
0.01876
0.0160641
0.013511
0.0111183
0.0088839
0.00680503
0.00488061
0.00310944
0.00149018
2.1477e-05
-0.00129809
-0.00247001
-0.00349581
-0.00437711
-0.00511564
-0.00571318
-0.00617159
-0.00649283
-0.00667898
-0.00673226
-0.00665501
-0.00644964
-0.00611874
-0.00566496
-0.00509113
-0.00440022
-0.00359528
-0.00267954
-0.00165629
-0.000529002
0.00069871
0.0020231
0.00344021
0.00494595
0.00653603
0.00820601
0.00995125
0.011767
0.0136483
0.0155899
0.0175867
0.0196331
0.0217234
0.023852
0.0260128
0.0281997
0.0304063
0.0326264
0.0348534
0.0370805
0.0393012
0.0415084
0.0436953
0.0458547
0.0479797
0.0500632
0.0520981
0.0540773
0.0559938
0.0578405
0.0596108
0.0612977
0.0628947
0.0643954
0.0657937
0.0670835
0.0682592
0.0693153
0.0702466
0.0710484
0.0717163
0.0722463
0.0726347
0.0728785
0.0729747
0.072921
0.0727155
0.0723567
0.0718435
0.0711754
0.0703521
0.0693739
0.0682414
0.0669555
0.0655175
0.0639289
0.0621915
0.0603072
0.0582782
0.0561068
0.0537954
0.051345
0.0487566
0.0460508
0.0432452
0.0400879
0.0363622
0.0289897
0.024987
0.0216306
0.0186851
0.0158742
0.0132139
0.0107224
0.00839738
0.00623595
0.00423674
0.00239834
0.000719101
-0.000802667
-0.00216871
-0.00338083
-0.00444095
-0.00535102
-0.00611311
-0.00672935
-0.00720192
-0.0075331
-0.00772529
-0.00778098
-0.00770279
-0.0074934
-0.0071556
-0.00669229
-0.00610648
-0.00540135
-0.0045801
-0.0036461
-0.0026028
-0.00145377
-0.000202737
0.00114645
0.00258977
0.00412305
0.00574197
0.00744202
0.00921854
0.0110667
0.0129816
0.0149579
0.0169904
0.0190737
0.0212019
0.0233694
0.0255702
0.027798
0.0300466
0.0323094
0.0345801
0.0368517
0.0391176
0.0413708
0.0436042
0.0458108
0.0479833
0.0501147
0.0521975
0.0542246
0.0561889
0.0580832
0.0599003
0.0616334
0.0632756
0.0648204
0.0662612
0.0675919
0.0688064
0.069899
0.0708642
0.071697
0.0723925
0.0729465
0.073355
0.0736146
0.0737221
0.0736746
0.07347
0.0731064
0.0725825
0.0718973
0.0710503
0.0700414
0.0688711
0.06754
0.0660492
0.0643999
0.0625939
0.0606328
0.0585189
0.0562545
0.0538419
0.0512822
0.0485765
0.0457464
0.0428105
0.0395054
0.0356044
0.0291742
0.0250032
0.0215066
0.0184393
0.0155136
0.0127459
0.0101556
0.00774
0.00549598
0.00342201
0.00151642
-0.000222705
-0.00179735
-0.00320957
-0.00446151
-0.00555541
-0.00649359
-0.00727842
-0.00791235
-0.00839789
-0.00873763
-0.00893428
-0.00899062
-0.00890951
-0.00869388
-0.00834677
-0.0078713
-0.00727068
-0.00654825
-0.0057074
-0.00475166
-0.00368459
-0.00250992
-0.00123146
0.000146834
0.00162086
0.00318637
0.00483898
0.00657414
0.00838714
0.0102731
0.012227
0.0142437
0.0163178
0.0184438
0.020616
0.0228286
0.0250756
0.0273507
0.0296476
0.0319598
0.0342807
0.0366035
0.0389214
0.0412273
0.0435141
0.0457745
0.0480013
0.0501872
0.0523248
0.0544066
0.0564254
0.0583737
0.0602442
0.0620299
0.0637236
0.0653185
0.066808
0.0681853
0.0694443
0.0705787
0.071583
0.0724515
0.0731794
0.0737618
0.0741946
0.0744739
0.074596
0.074558
0.074357
0.0739912
0.0734586
0.0727582
0.071889
0.0708507
0.0696434
0.0682677
0.0667243
0.0650144
0.0631395
0.0611013
0.0589019
0.0565436
0.0540289
0.0513588
0.0485347
0.0455791
0.0425116
0.0390572
0.0349792
0.0291798
0.0248403
0.0212035
0.0180142
0.0149735
0.0120986
0.0094094
0.00690317
0.00457663
0.00242803
0.000455443
-0.00134328
-0.00297041
-0.00442831
-0.00571944
-0.00684636
-0.00781172
-0.00861819
-0.00926855
-0.00976563
-0.0101123
-0.0103116
-0.0103666
-0.0102803
-0.0100561
-0.00969703
-0.00920657
-0.00858811
-0.00784515
-0.00698127
-0.00600013
-0.00490546
-0.0037011
-0.00239099
-0.000979182
0.00053014
0.00213266
0.00382391
0.00559927
0.00745399
0.00938314
0.0113817
0.0134444
0.0155659
0.0177406
0.0199629
0.0222268
0.0245263
0.0268551
0.0292068
0.0315749
0.0339528
0.0363335
0.0387101
0.0410755
0.0434225
0.0457437
0.0480318
0.0502792
0.0524783
0.0546217
0.0567017
0.0587108
0.0606415
0.0624863
0.0642381
0.0658895
0.0674338
0.0688638
0.0701731
0.0713551
0.0724039
0.0733136
0.0740788
0.0746945
0.075156
0.075459