/*--------------------------------*- C++ -*----------------------------------*\
| =========                 |                                                 |
| \\      /  F ield         | OpenFOAM: The Open Source CFD Toolbox           |
|  \\    /   O peration     | Version:  2212                                  |
|   \\  /    A nd           | Website:  www.openfoam.com                      |
|    \\/     M anipulation  |                                                 |
\*---------------------------------------------------------------------------*/
FoamFile
{
    version     2.0;
    format      ascii;
    arch        "LSB;label=32;scalar=64";
    class       surfaceScalarField;
    location    "0.0835";
    object      phi;
}
// * * * * * * * * * * * * * * * * * * * * * * * * * * * * * * * * * * * * * //

dimensions      [0 3 -1 0 0 0 0];

oriented        oriented;

internalField   nonuniform List<scalar> 
19800
(
7.02234e-11
-7.02318e-11
2.41148e-10
-1.70931e-10
4.2935e-10
-1.88202e-10
5.77003e-10
-1.47654e-10
6.51006e-10
-7.40014e-11
6.33105e-10
1.79072e-11
5.14142e-10
1.18955e-10
2.90765e-10
2.2338e-10
-3.67441e-11
3.27504e-10
-4.65717e-10
4.28965e-10
-9.91942e-10
5.26217e-10
-1.61017e-09
6.18226e-10
-2.31447e-09
7.04307e-10
-3.09847e-09
7.84007e-10
-3.95552e-09
8.5705e-10
-4.8788e-09
9.23276e-10
-5.86142e-09
9.82619e-10
-6.8965e-09
1.03507e-09
-7.97717e-09
1.08068e-09
-9.0967e-09
1.11951e-09
-1.02484e-08
1.1517e-09
-1.14258e-08
1.17738e-09
-1.26225e-08
1.1967e-09
-1.38323e-08
1.20982e-09
-1.50492e-08
1.21693e-09
-1.62674e-08
1.21821e-09
-1.74813e-08
1.21387e-09
-1.86854e-08
1.20409e-09
-1.98745e-08
1.18909e-09
-2.10436e-08
1.16907e-09
-2.21878e-08
1.14424e-09
-2.33026e-08
1.11481e-09
-2.43836e-08
1.08099e-09
-2.54266e-08
1.04301e-09
-2.64277e-08
1.00107e-09
-2.73831e-08
9.55397e-10
-2.82893e-08
9.06195e-10
-2.91429e-08
8.53681e-10
-2.9941e-08
7.98073e-10
-3.06806e-08
7.39591e-10
-3.13591e-08
6.7845e-10
-3.1974e-08
6.14878e-10
-3.2523e-08
5.49095e-10
-3.30044e-08
4.81322e-10
-3.34161e-08
4.11791e-10
-3.37569e-08
3.40733e-10
-3.40253e-08
2.68378e-10
-3.42202e-08
1.94967e-10
-3.4341e-08
1.20735e-10
-3.43869e-08
4.59229e-11
-3.43577e-08
-2.9221e-11
-3.42532e-08
-1.04449e-10
-3.40737e-08
-1.79508e-10
-3.38196e-08
-2.5413e-10
-3.34915e-08
-3.28055e-10
-3.30905e-08
-4.01027e-10
-3.26177e-08
-4.72776e-10
-3.20747e-08
-5.43032e-10
-3.14631e-08
-6.11528e-10
-3.07852e-08
-6.77984e-10
-3.00431e-08
-7.4211e-10
-2.92394e-08
-8.03631e-10
-2.83772e-08
-8.62274e-10
-2.74594e-08
-9.17755e-10
-2.64896e-08
-9.69796e-10
-2.54715e-08
-1.01813e-09
-2.4409e-08
-1.06249e-09
-2.33064e-08
-1.10259e-09
-2.21682e-08
-1.13816e-09
-2.09993e-08
-1.16894e-09
-1.98046e-08
-1.19469e-09
-1.85895e-08
-1.21515e-09
-1.73594e-08
-1.2301e-09
-1.612e-08
-1.23932e-09
-1.48775e-08
-1.24258e-09
-1.36378e-08
-1.2397e-09
-1.24073e-08
-1.23048e-09
-1.11925e-08
-1.21479e-09
-1e-08
-1.19247e-09
-8.83662e-09
-1.16341e-09
-7.70912e-09
-1.1275e-09
-6.62442e-09
-1.08469e-09
-5.58948e-09
-1.03495e-09
-4.61121e-09
-9.78277e-10
-3.69648e-09
-9.14729e-10
-2.85204e-09
-8.44429e-10
-2.08446e-09
-7.67571e-10
-1.40002e-09
-6.8444e-10
-8.04587e-10
-5.95441e-10
-3.03438e-10
-5.01152e-10
9.89561e-11
-4.02392e-10
3.99281e-10
-3.00326e-10
5.95908e-10
-1.96632e-10
6.89697e-10
-9.37943e-11
6.8527e-10
4.42696e-12
5.93081e-10
9.21946e-11
4.32625e-10
1.60458e-10
2.37945e-10
1.94675e-10
6.68732e-11
1.71065e-10
6.6874e-11
1.70972e-10
-2.41199e-10
4.69832e-10
-4.69782e-10
7.56363e-10
-4.74737e-10
9.29078e-10
-3.20377e-10
9.1747e-10
-6.24086e-11
6.76386e-10
2.58994e-10
1.79467e-10
6.15867e-10
-5.86086e-10
9.88931e-10
-1.6235e-09
1.36493e-09
-2.92921e-09
1.73468e-09
-4.4948e-09
2.09183e-09
-6.30848e-09
2.4319e-09
-8.35598e-09
2.7518e-09
-1.06214e-08
3.04939e-09
-1.30875e-08
3.32321e-09
-1.57366e-08
3.57234e-09
-1.85502e-08
3.79624e-09
-2.15098e-08
3.99467e-09
-2.45967e-08
4.1676e-09
-2.77924e-08
4.3152e-09
-3.10785e-08
4.43776e-09
-3.44368e-08
4.53569e-09
-3.78496e-08
4.6095e-09
-4.12995e-08
4.65975e-09
-4.47696e-08
4.68705e-09
-4.82435e-08
4.69208e-09
-5.17052e-08
4.67553e-09
-5.51392e-08
4.63813e-09
-5.85308e-08
4.58064e-09
-6.18655e-08
4.50382e-09
-6.51297e-08
4.40845e-09
-6.83102e-08
4.29534e-09
-7.13945e-08
4.1653e-09
-7.43707e-08
4.01913e-09
-7.72273e-08
3.85767e-09
-7.99536e-08
3.68173e-09
-8.25396e-08
3.49215e-09
-8.49756e-08
3.28975e-09
-8.72529e-08
3.07537e-09
-8.93632e-08
2.84987e-09
-9.12988e-08
2.61408e-09
-9.30528e-08
2.36887e-09
-9.46189e-08
2.11512e-09
-9.59912e-08
1.85369e-09
-9.71649e-08
1.58548e-09
-9.81356e-08
1.31138e-09
-9.88995e-08
1.03229e-09
-9.94537e-08
7.49136e-10
-9.97958e-08
4.62844e-10
-9.99242e-08
1.74356e-10
-9.9838e-08
-1.15373e-10
-9.95371e-08
-4.05361e-10
-9.9022e-08
-6.94628e-10
-9.82939e-08
-9.82182e-10
-9.7355e-08
-1.267e-09
-9.6208e-08
-1.54806e-09
-9.48564e-08
-1.82434e-09
-9.33047e-08
-2.09479e-09
-9.15579e-08
-2.35835e-09
-8.96219e-08
-2.61396e-09
-8.75034e-08
-2.86056e-09
-8.521e-08
-3.09707e-09
-8.27498e-08
-3.32241e-09
-8.01321e-08
-3.53553e-09
-7.73665e-08
-3.73537e-09
-7.44638e-08
-3.92086e-09
-7.14353e-08
-4.09097e-09
-6.82932e-08
-4.24468e-09
-6.50504e-08
-4.38098e-09
-6.17204e-08
-4.49887e-09
-5.83177e-08
-4.59741e-09
-5.48572e-08
-4.6757e-09
-5.13544e-08
-4.73286e-09
-4.78257e-08
-4.76806e-09
-4.42877e-08
-4.78053e-09
-4.07578e-08
-4.76957e-09
-3.72538e-08
-4.73453e-09
-3.37937e-08
-4.67484e-09
-3.03962e-08
-4.59003e-09
-2.70799e-08
-4.47972e-09
-2.38637e-08
-4.34364e-09
-2.07668e-08
-4.18163e-09
-1.7808e-08
-3.99371e-09
-1.50062e-08
-3.78003e-09
-1.238e-08
-3.54101e-09
-9.94714e-09
-3.27727e-09
-7.72493e-09
-2.9898e-09
-5.72941e-09
-2.67996e-09
-3.97519e-09
-2.34966e-09
-2.47484e-09
-2.0015e-09
-1.23819e-09
-1.63905e-09
-2.71347e-10
-1.26718e-09
4.24688e-10
-8.9267e-10
8.55921e-10
-5.25021e-10
1.03806e-09
-1.77707e-10
1.00026e-09
1.29992e-10
7.90182e-10
3.70534e-10
4.79931e-10
5.04915e-10
1.70972e-10
4.80026e-10
2.37849e-10
1.88897e-10
-4.30101e-10
4.76944e-10
-7.57824e-10
6.91716e-10
-6.89507e-10
7.10989e-10
-3.39643e-10
4.46194e-10
2.0238e-10
-1.63068e-10
8.68254e-10
-1.15461e-09
1.6074e-09
-2.54877e-09
2.38307e-09
-4.35256e-09
3.16871e-09
-6.56302e-09
3.94514e-09
-9.16967e-09
4.69848e-09
-1.21565e-08
5.4187e-09
-1.55033e-08
6.09859e-09
-1.91869e-08
6.73302e-09
-2.3182e-08
7.31834e-09
-2.74618e-08
7.85214e-09
-3.19985e-08
8.33285e-09
-3.67634e-08
8.75962e-09
-4.17279e-08
9.13213e-09
-4.68632e-08
9.45048e-09
-5.21406e-08
9.7151e-09
-5.75316e-08
9.9267e-09
-6.30083e-08
1.00862e-08
-6.85433e-08
1.01948e-08
-7.41098e-08
1.02536e-08
-7.96817e-08
1.0264e-08
-8.52337e-08
1.02275e-08
-9.07411e-08
1.01455e-08
-9.61802e-08
1.00198e-08
-1.01528e-07
9.85184e-09
-1.06763e-07
9.64337e-09
-1.11864e-07
9.3961e-09
-1.1681e-07
9.11176e-09
-1.21583e-07
8.79211e-09
-1.26165e-07
8.43894e-09
-1.30537e-07
8.05404e-09
-1.34684e-07
7.63922e-09
-1.38591e-07
7.19631e-09
-1.42242e-07
6.72714e-09
-1.45626e-07
6.23357e-09
-1.48729e-07
5.71748e-09
-1.51541e-07
5.18073e-09
-1.54051e-07
4.62526e-09
-1.56251e-07
4.05299e-09
-1.58131e-07
3.46586e-09
-1.59686e-07
2.86586e-09
-1.60908e-07
2.25498e-09
-1.61794e-07
1.63522e-09
-1.6234e-07
1.00864e-09
-1.62543e-07
3.7733e-10
-1.62402e-07
-2.56626e-10
-1.61916e-07
-8.91086e-10
-1.61087e-07
-1.52388e-09
-1.59916e-07
-2.15281e-09
-1.58408e-07
-2.77569e-09
-1.56565e-07
-3.39025e-09
-1.54395e-07
-3.99424e-09
-1.51905e-07
-4.58537e-09
-1.49102e-07
-5.16134e-09
-1.45996e-07
-5.71982e-09
-1.42598e-07
-6.25847e-09
-1.3892e-07
-6.77499e-09
-1.34976e-07
-7.26702e-09
-1.30779e-07
-7.73226e-09
-1.26346e-07
-8.16839e-09
-1.21694e-07
-8.57313e-09
-1.1684e-07
-8.94424e-09
-1.11806e-07
-9.27948e-09
-1.0661e-07
-9.5767e-09
-1.01275e-07
-9.83379e-09
-9.58236e-08
-1.00487e-08
-9.02798e-08
-1.02195e-08
-8.46683e-08
-1.03443e-08
-7.90149e-08
-1.04214e-08
-7.33462e-08
-1.04492e-08
-6.76896e-08
-1.04262e-08
-6.20731e-08
-1.0351e-08
-5.65254e-08
-1.02226e-08
-5.10756e-08
-1.00399e-08
-4.5753e-08
-9.80231e-09
-4.05873e-08
-9.50932e-09
-3.56081e-08
-9.1608e-09
-3.08449e-08
-8.75694e-09
-2.63266e-08
-8.29834e-09
-2.20814e-08
-7.78611e-09
-1.81368e-08
-7.22193e-09
-1.45183e-08
-6.60824e-09
-1.12499e-08
-5.94839e-09
-8.35265e-09
-5.24693e-09
-5.84422e-09
-4.50993e-09
-3.73775e-09
-3.74552e-09
-2.04037e-09
-2.96455e-09
-7.51391e-10
-2.18165e-09
1.40138e-10
-1.41655e-09
6.58545e-10
-6.96112e-10
8.45465e-10
-5.69248e-11
7.64621e-10
4.5138e-10
5.06881e-10
7.62653e-10
1.95157e-10
7.91754e-10
4.33008e-10
1.50018e-10
-5.80123e-10
3.27554e-10
-9.35355e-10
3.50674e-10
-7.1263e-10
8.90738e-11
-7.80429e-11
-5.52942e-10
8.44394e-10
-1.64262e-09
1.95794e-09
-3.22369e-09
3.18847e-09
-5.32082e-09
4.48021e-09
-7.9435e-09
5.79139e-09
-1.10892e-08
7.09088e-09
-1.47462e-08
8.35545e-09
-1.88953e-08
9.56784e-09
-2.35121e-08
1.07153e-08
-2.85676e-08
1.17885e-08
-3.403e-08
1.27808e-08
-3.98651e-08
1.36873e-08
-4.60373e-08
1.4505e-08
-5.25095e-08
1.52318e-08
-5.92444e-08
1.5867e-08
-6.62042e-08
1.64103e-08
-7.33512e-08
1.68621e-08
-8.0648e-08
1.72235e-08
-8.80575e-08
1.74957e-08
-9.55432e-08
1.76805e-08
-1.0307e-07
1.778e-08
-1.10602e-07
1.77961e-08
-1.18106e-07
1.77314e-08
-1.25549e-07
1.75884e-08
-1.32899e-07
1.73697e-08
-1.40125e-07
1.70781e-08
-1.47198e-07
1.67164e-08
-1.54089e-07
1.62876e-08
-1.60772e-07
1.57945e-08
-1.6722e-07
1.52402e-08
-1.73409e-07
1.46278e-08
-1.79315e-07
1.39604e-08
-1.84917e-07
1.32411e-08
-1.90194e-07
1.2473e-08
-1.95126e-07
1.16594e-08
-1.99696e-07
1.08034e-08
-2.03887e-07
9.90832e-09
-2.07684e-07
8.97746e-09
-2.11072e-07
8.01411e-09
-2.14041e-07
7.02164e-09
-2.16579e-07
6.00343e-09
-2.18676e-07
4.96293e-09
-2.20324e-07
3.90359e-09
-2.21518e-07
2.82896e-09
-2.22252e-07
1.74258e-09
-2.22523e-07
6.48059e-10
-2.22328e-07
-4.50924e-10
-2.21669e-07
-1.55067e-09
-2.20545e-07
-2.64742e-09
-2.18961e-07
-3.73736e-09
-2.1692e-07
-4.81664e-09
-2.14429e-07
-5.88138e-09
-2.11495e-07
-6.92767e-09
-2.08129e-07
-7.95153e-09
-2.04341e-07
-8.94898e-09
-2.00145e-07
-9.916e-09
-1.95555e-07
-1.08486e-08
-1.90587e-07
-1.17427e-08
-1.8526e-07
-1.25943e-08
-1.79593e-07
-1.33994e-08
-1.73607e-07
-1.41541e-08
-1.67326e-07
-1.48544e-08
-1.60774e-07
-1.54965e-08
-1.53977e-07
-1.60765e-08
-1.46963e-07
-1.65908e-08
-1.39761e-07
-1.70357e-08
-1.32401e-07
-1.74079e-08
-1.24917e-07
-1.7704e-08
-1.17341e-07
-1.79208e-08
-1.09706e-07
-1.80555e-08
-1.0205e-07
-1.81054e-08
-9.44087e-08
-1.80679e-08
-8.68187e-08
-1.7941e-08
-7.93186e-08
-1.77227e-08
-7.19467e-08
-1.74117e-08
-6.47421e-08
-1.70069e-08
-5.77437e-08
-1.65077e-08
-5.09904e-08
-1.59141e-08
-4.45206e-08
-1.52267e-08
-3.83722e-08
-1.44468e-08
-3.25817e-08
-1.35767e-08
-2.7184e-08
-1.26196e-08
-2.2212e-08
-1.15802e-08
-1.76957e-08
-1.04647e-08
-1.36612e-08
-9.28138e-09
-1.01302e-08
-8.04099e-09
-7.11792e-09
-6.75775e-09
-4.63223e-09
-5.45024e-09
-2.67109e-09
-4.14279e-09
-1.22026e-09
-2.86738e-09
-2.50237e-10
-1.66613e-09
2.8731e-10
-5.94468e-10
4.63771e-10
2.74919e-10
3.78099e-10
8.4832e-10
1.62651e-10
1.0072e-09
5.95658e-10
7.88555e-11
-6.58979e-10
7.67525e-11
-9.33251e-10
-1.78885e-10
-4.56986e-10
-8.15676e-10
5.58748e-10
-1.92872e-09
1.95744e-09
-3.58604e-09
3.61526e-09
-5.83273e-09
5.43516e-09
-8.69477e-09
7.34223e-09
-1.21823e-08
9.27889e-09
-1.62924e-08
1.1201e-08
-2.10119e-08
1.30749e-08
-2.63191e-08
1.4875e-08
-3.21858e-08
1.6582e-08
-3.85786e-08
1.81813e-08
-4.54602e-08
1.96624e-08
-5.27903e-08
2.10174e-08
-6.05265e-08
2.22411e-08
-6.86247e-08
2.33301e-08
-7.70401e-08
2.42824e-08
-8.57271e-08
2.50973e-08
-9.464e-08
2.57751e-08
-1.03734e-07
2.6317e-08
-1.12962e-07
2.67246e-08
-1.22282e-07
2.70004e-08
-1.31649e-07
2.7147e-08
-1.41021e-07
2.71677e-08
-1.50355e-07
2.70658e-08
-1.59612e-07
2.68451e-08
-1.68752e-07
2.65094e-08
-1.77736e-07
2.60628e-08
-1.8653e-07
2.55097e-08
-1.95096e-07
2.48543e-08
-2.03403e-07
2.41011e-08
-2.11417e-07
2.32546e-08
-2.19109e-07
2.23195e-08
-2.26449e-07
2.13005e-08
-2.3341e-07
2.02022e-08
-2.39967e-07
1.90296e-08
-2.46095e-07
1.77875e-08
-2.51772e-07
1.64808e-08
-2.56979e-07
1.51144e-08
-2.61694e-07
1.36934e-08
-2.65903e-07
1.22229e-08
-2.6959e-07
1.07079e-08
-2.7274e-07
9.15376e-09
-2.75343e-07
7.56563e-09
-2.77388e-07
5.94884e-09
-2.78868e-07
4.3088e-09
-2.79776e-07
2.65096e-09
-2.80109e-07
9.80831e-10
-2.79864e-07
-6.9598e-10
-2.79041e-07
-2.3738e-09
-2.77641e-07
-4.04688e-09
-2.75669e-07
-5.70943e-09
-2.7313e-07
-7.35556e-09
-2.70032e-07
-8.97934e-09
-2.66385e-07
-1.05748e-08
-2.62201e-07
-1.21359e-08
-2.57493e-07
-1.36565e-08
-2.52279e-07
-1.51307e-08
-2.46575e-07
-1.65521e-08
-2.40403e-07
-1.79149e-08
-2.33784e-07
-1.92127e-08
-2.26744e-07
-2.04397e-08
-2.19309e-07
-2.15897e-08
-2.11506e-07
-2.26569e-08
-2.03367e-07
-2.36354e-08
-1.94924e-07
-2.45195e-08
-1.86211e-07
-2.53037e-08
-1.77264e-07
-2.59824e-08
-1.68122e-07
-2.65507e-08
-1.58822e-07
-2.70034e-08
-1.49407e-07
-2.73361e-08
-1.39918e-07
-2.75442e-08
-1.304e-07
-2.76239e-08
-1.20896e-07
-2.75716e-08
-1.11453e-07
-2.73842e-08
-1.02116e-07
-2.7059e-08
-9.29341e-08
-2.65941e-08
-8.39529e-08
-2.59881e-08
-7.52202e-08
-2.52404e-08
-6.67831e-08
-2.43513e-08
-5.86877e-08
-2.3322e-08
-5.09796e-08
-2.2155e-08
-4.37022e-08
-2.0854e-08
-3.68971e-08
-1.94246e-08
-3.06032e-08
-1.78742e-08
-2.48554e-08
-1.62125e-08
-1.96842e-08
-1.44526e-08
-1.51143e-08
-1.26109e-08
-1.11632e-08
-1.07089e-08
-7.83936e-09
-8.77405e-09
-5.1406e-09
-6.84155e-09
-3.05136e-09
-4.95662e-09
-1.54016e-09
-3.17732e-09
-5.56522e-10
-1.57811e-09
-2.73868e-11
-2.5422e-10
1.46787e-10
6.74141e-10
9.73086e-11
1.05668e-09
6.92966e-10
-1.01315e-11
-6.48844e-10
-2.36597e-10
-7.06782e-10
-8.31448e-10
1.37868e-10
-1.91142e-09
1.63872e-09
-3.56503e-09
3.61104e-09
-5.85636e-09
5.90658e-09
-8.82825e-09
8.40705e-09
-1.25052e-08
1.10192e-08
-1.6896e-08
1.36697e-08
-2.19964e-08
1.63014e-08
-2.77911e-08
1.88696e-08
-3.42558e-08
2.13398e-08
-4.1359e-08
2.36852e-08
-4.90632e-08
2.58856e-08
-5.73265e-08
2.79256e-08
-6.61033e-08
2.97942e-08
-7.53453e-08
3.14831e-08
-8.50024e-08
3.29872e-08
-9.50231e-08
3.43031e-08
-1.05355e-07
3.54294e-08
-1.15946e-07
3.63659e-08
-1.26743e-07
3.71139e-08
-1.37694e-07
3.76754e-08
-1.48747e-07
3.80533e-08
-1.59851e-07
3.82512e-08
-1.70956e-07
3.82733e-08
-1.82015e-07
3.8124e-08
-1.92978e-07
3.78085e-08
-2.03801e-07
3.7332e-08
-2.14438e-07
3.67002e-08
-2.24847e-07
3.59188e-08
-2.34987e-07
3.49939e-08
-2.44817e-07
3.39317e-08
-2.54301e-07
3.27384e-08
-2.63402e-07
3.14205e-08
-2.72087e-07
2.99847e-08
-2.80322e-07
2.84375e-08
-2.88078e-07
2.67856e-08
-2.95326e-07
2.5036e-08
-3.02041e-07
2.31955e-08
-3.08198e-07
2.12711e-08
-3.13774e-07
1.92699e-08
-3.1875e-07
1.7199e-08
-3.23108e-07
1.50656e-08
-3.26831e-07
1.28772e-08
-3.29907e-07
1.0641e-08
-3.32323e-07
8.3647e-09
-3.3407e-07
6.05576e-09
-3.3514e-07
3.72189e-09
-3.35531e-07
1.37092e-09
-3.35237e-07
-9.8928e-10
-3.3426e-07
-3.35072e-09
-3.32602e-07
-5.70531e-09
-3.30266e-07
-8.04487e-09
-3.27261e-07
-1.03611e-08
-3.23594e-07
-1.26458e-08
-3.19279e-07
-1.48904e-08
-3.14328e-07
-1.70865e-08
-3.08759e-07
-1.92255e-08
-3.02591e-07
-2.1299e-08
-2.95845e-07
-2.32983e-08
-2.88545e-07
-2.52149e-08
-2.80717e-07
-2.70403e-08
-2.72391e-07
-2.87659e-08
-2.63597e-07
-3.03835e-08
-2.54369e-07
-3.18847e-08
-2.44744e-07
-3.32613e-08
-2.34757e-07
-3.45056e-08
-2.24451e-07
-3.56096e-08
-2.13868e-07
-3.65661e-08
-2.03051e-07
-3.73677e-08
-1.92047e-07
-3.80077e-08
-1.80903e-07
-3.84797e-08
-1.69669e-07
-3.87778e-08
-1.58397e-07
-3.88965e-08
-1.47137e-07
-3.88311e-08
-1.35944e-07
-3.85773e-08
-1.24871e-07
-3.81319e-08
-1.13973e-07
-3.74922e-08
-1.03305e-07
-3.66566e-08
-9.29205e-08
-3.56248e-08
-8.28745e-08
-3.43973e-08
-7.32201e-08
-3.29764e-08
-6.40091e-08
-3.13659e-08
-5.52915e-08
-2.95716e-08
-4.71145e-08
-2.76016e-08
-3.95219e-08
-2.54668e-08
-3.25533e-08
-2.31812e-08
-2.62429e-08
-2.0763e-08
-2.06183e-08
-1.82355e-08
-1.56992e-08
-1.5628e-08
-1.14958e-08
-1.29775e-08
-8.00671e-09
-1.03306e-08
-5.21713e-09
-7.7462e-09
-3.09639e-09
-5.29806e-09
-1.59551e-09
-3.079e-09
-6.4438e-10
-1.20535e-09
-1.48778e-10
1.78536e-10
1.34777e-11
8.94415e-10
7.06446e-10
-1.08307e-10
-5.40534e-10
-5.86252e-10
-2.28842e-10
-1.56001e-09
1.11164e-09
-3.13012e-09
3.20882e-09
-5.37408e-09
5.85501e-09
-8.34842e-09
8.88093e-09
-1.20907e-08
1.21493e-08
-1.66215e-08
1.555e-08
-2.19466e-08
1.89948e-08
-2.80589e-08
2.24138e-08
-3.49405e-08
2.57512e-08
-4.25639e-08
2.89632e-08
-5.08943e-08
3.20156e-08
-5.98904e-08
3.48817e-08
-6.95059e-08
3.75412e-08
-7.96906e-08
3.99788e-08
-9.03911e-08
4.21836e-08
-1.01552e-07
4.41479e-08
-1.13115e-07
4.58667e-08
-1.25024e-07
4.73376e-08
-1.37218e-07
4.856e-08
-1.49639e-07
4.95349e-08
-1.62228e-07
5.02645e-08
-1.74927e-07
5.07524e-08
-1.87679e-07
5.1003e-08
-2.00427e-07
5.10213e-08
-2.13116e-07
5.08133e-08
-2.25693e-07
5.03853e-08
-2.38105e-07
4.97441e-08
-2.50302e-07
4.88971e-08
-2.62235e-07
4.78517e-08
-2.73857e-07
4.66159e-08
-2.85123e-07
4.51978e-08
-2.9599e-07
4.36056e-08
-3.06417e-07
4.18479e-08
-3.16366e-07
3.99334e-08
-3.25799e-07
3.78708e-08
-3.34683e-07
3.56692e-08
-3.42984e-07
3.33375e-08
-3.50674e-07
3.08849e-08
-3.57723e-07
2.83208e-08
-3.64108e-07
2.56545e-08
-3.69805e-07
2.28956e-08
-3.74793e-07
2.00537e-08
-3.79054e-07
1.71385e-08
-3.82573e-07
1.41601e-08
-3.85337e-07
1.11282e-08
-3.87334e-07
8.05318e-09
-3.88557e-07
4.94517e-09
-3.89001e-07
1.81457e-09
-3.88662e-07
-1.3281e-09
-3.87541e-07
-4.4722e-09
-3.85639e-07
-7.60697e-09
-3.82962e-07
-1.07215e-08
-3.79519e-07
-1.38049e-08
-3.75318e-07
-1.6846e-08
-3.70375e-07
-1.98336e-08
-3.64705e-07
-2.27564e-08
-3.58328e-07
-2.56033e-08
-3.51264e-07
-2.83628e-08
-3.43539e-07
-3.10235e-08
-3.35179e-07
-3.35742e-08
-3.26216e-07
-3.60036e-08
-3.16681e-07
-3.83005e-08
-3.06611e-07
-4.04537e-08
-2.96043e-07
-4.24524e-08
-2.85019e-07
-4.42859e-08
-2.73581e-07
-4.59437e-08
-2.61775e-07
-4.74156e-08
-2.49649e-07
-4.86919e-08
-2.37253e-07
-4.97631e-08
-2.24641e-07
-5.06205e-08
-2.11865e-07
-5.12557e-08
-1.98981e-07
-5.16609e-08
-1.86049e-07
-5.18293e-08
-1.73125e-07
-5.17548e-08
-1.6027e-07
-5.14319e-08
-1.47546e-07
-5.08566e-08
-1.35012e-07
-5.00258e-08
-1.22731e-07
-4.89377e-08
-1.10764e-07
-4.7592e-08
-9.91708e-08
-4.59902e-08
-8.80117e-08
-4.41355e-08
-7.7344e-08
-4.20336e-08
-6.72232e-08
-3.96924e-08
-5.77016e-08
-3.71233e-08
-4.88276e-08
-3.43407e-08
-4.06449e-08
-3.13638e-08
-3.31914e-08
-2.82165e-08
-2.64978e-08
-2.49291e-08
-2.05866e-08
-2.15392e-08
-1.54701e-08
-1.80939e-08
-1.11495e-08
-1.46512e-08
-7.61245e-09
-1.12833e-08
-4.8314e-09
-8.07909e-09
-2.76191e-09
-5.14849e-09
-1.34042e-09
-2.62685e-09
-4.82368e-10
-6.79515e-10
-8.01503e-11
4.92194e-10
6.263e-10
-2.10443e-10
-3.30086e-10
-9.54829e-10
5.15534e-10
-2.33182e-09
2.48863e-09
-4.42271e-09
5.2997e-09
-7.29103e-09
8.72334e-09
-1.0983e-08
1.25729e-08
-1.55286e-08
1.66949e-08
-2.09424e-08
2.09638e-08
-2.72256e-08
2.5278e-08
-3.43671e-08
2.95552e-08
-4.23451e-08
3.37292e-08
-5.11289e-08
3.7747e-08
-6.06797e-08
4.15664e-08
-7.09526e-08
4.51545e-08
-8.18971e-08
4.84856e-08
-9.34585e-08
5.15403e-08
-1.05579e-07
5.43039e-08
-1.18197e-07
5.67665e-08
-1.31252e-07
5.89212e-08
-1.44679e-07
6.07642e-08
-1.58413e-07
6.22944e-08
-1.7239e-07
6.35124e-08
-1.86547e-07
6.44206e-08
-2.00817e-07
6.50231e-08
-2.15139e-07
6.53251e-08
-2.29451e-07
6.53326e-08
-2.4369e-07
6.50529e-08
-2.57799e-07
6.44938e-08
-2.71719e-07
6.36638e-08
-2.85393e-07
6.25719e-08
-2.98769e-07
6.12275e-08
-3.11794e-07
5.96407e-08
-3.24418e-07
5.78215e-08
-3.36593e-07
5.57804e-08
-3.48273e-07
5.35283e-08
-3.59416e-07
5.10762e-08
-3.6998e-07
4.84352e-08
-3.79928e-07
4.56166e-08
-3.89222e-07
4.26321e-08
-3.97831e-07
3.94934e-08
-4.05722e-07
3.62123e-08
-4.12869e-07
3.28008e-08
-4.19244e-07
2.92711e-08
-4.24826e-07
2.56356e-08
-4.29594e-07
2.19067e-08
-4.33531e-07
1.8097e-08
-4.36622e-07
1.42193e-08
-4.38856e-07
1.02867e-08
-4.40223e-07
6.3121e-09
-4.40717e-07
2.3089e-09
-4.40336e-07
-1.70949e-09
-4.39078e-07
-5.72947e-09
-4.36948e-07
-9.73731e-09
-4.33951e-07
-1.37191e-08
-4.30095e-07
-1.76608e-08
-4.25392e-07
-2.15483e-08
-4.19859e-07
-2.53673e-08
-4.13512e-07
-2.91035e-08
-4.06372e-07
-3.27424e-08
-3.98465e-07
-3.62698e-08
-3.89818e-07
-3.9671e-08
-3.8046e-07
-4.29317e-08
-3.70427e-07
-4.60376e-08
-3.59753e-07
-4.89744e-08
-3.48478e-07
-5.17281e-08
-3.36646e-07
-5.42849e-08
-3.24301e-07
-5.66312e-08
-3.1149e-07
-5.87537e-08
-2.98266e-07
-6.06398e-08
-2.84681e-07
-6.22769e-08
-2.70791e-07
-6.36535e-08
-2.56653e-07
-6.47582e-08
-2.42328e-07
-6.55808e-08
-2.27877e-07
-6.61116e-08
-2.13365e-07
-6.6342e-08
-1.98855e-07
-6.62645e-08
-1.84414e-07
-6.58727e-08
-1.70109e-07
-6.51615e-08
-1.56008e-07
-6.41274e-08
-1.42177e-07
-6.27685e-08
-1.28684e-07
-6.10849e-08
-1.15595e-07
-5.90789e-08
-1.02976e-07
-5.67551e-08
-9.08883e-08
-5.41209e-08
-7.93936e-08
-5.11871e-08
-6.85485e-08
-4.79683e-08
-5.8406e-08
-4.44833e-08
-4.90137e-08
-4.07561e-08
-4.04132e-08
-3.68171e-08
-3.26386e-08
-3.27036e-08
-2.57158e-08
-2.84621e-08
-1.96604e-08
-2.41492e-08
-1.44771e-08
-1.98345e-08
-1.01578e-08
-1.56027e-08
-6.68008e-09
-1.15568e-08
-4.00644e-09
-7.82213e-09
-2.08251e-09
-4.55078e-09
-8.36415e-10
-1.92561e-09
-1.78232e-10
-1.65986e-10
4.48071e-10
-3.13434e-10
-1.66415e-11
-1.33108e-09
1.53318e-09
-3.12448e-09
4.28204e-09
-5.75444e-09
7.92966e-09
-9.26875e-09
1.22376e-08
-1.37015e-08
1.70057e-08
-1.9073e-08
2.20664e-08
-2.53905e-08
2.72813e-08
-3.2649e-08
3.25365e-08
-4.08323e-08
3.77385e-08
-4.9914e-08
4.2811e-08
-5.98592e-08
4.76922e-08
-7.06252e-08
5.23324e-08
-8.21628e-08
5.66921e-08
-9.44175e-08
6.07404e-08
-1.0733e-07
6.44531e-08
-1.20839e-07
6.78125e-08
-1.34878e-07
7.08054e-08
-1.4938e-07
7.34233e-08
-1.64277e-07
7.56609e-08
-1.79498e-07
7.75161e-08
-1.94975e-07
7.89893e-08
-2.10638e-07
8.0083e-08
-2.26416e-07
8.08017e-08
-2.42242e-07
8.11512e-08
-2.58049e-07
8.11389e-08
-2.73769e-07
8.07733e-08
-2.89339e-07
8.00635e-08
-3.04695e-07
7.902e-08
-3.19777e-07
7.76535e-08
-3.34525e-07
7.59757e-08
-3.48882e-07
7.39984e-08
-3.62795e-07
7.17343e-08
-3.76211e-07
6.91961e-08
-3.8908e-07
6.63972e-08
-4.01355e-07
6.33509e-08
-4.1299e-07
6.00711e-08
-4.23946e-07
5.65718e-08
-4.34181e-07
5.28673e-08
-4.43659e-07
4.8972e-08
-4.52348e-07
4.49006e-08
-4.60215e-07
4.0668e-08
-4.67233e-07
3.62892e-08
-4.73377e-07
3.17795e-08
-4.78624e-07
2.71544e-08
-4.82957e-07
2.24295e-08
-4.86358e-07
1.76206e-08
-4.88815e-07
1.27439e-08
-4.90319e-07
7.81546e-09
-4.90862e-07
2.85186e-09
-4.90441e-07
-2.1303e-09
-4.89056e-07
-7.11419e-09
-4.86711e-07
-1.20828e-08
-4.83411e-07
-1.70189e-08
-4.79166e-07
-2.19052e-08
-4.73991e-07
-2.67242e-08
-4.679e-07
-3.14582e-08
-4.60914e-07
-3.60896e-08
-4.53055e-07
-4.06005e-08
-4.44352e-07
-4.49732e-08
-4.34833e-07
-4.91899e-08
-4.24532e-07
-5.32327e-08
-4.13486e-07
-5.70841e-08
-4.01733e-07
-6.07265e-08
-3.89319e-07
-6.41427e-08
-3.76288e-07
-6.73156e-08
-3.62691e-07
-7.02286e-08
-3.48579e-07
-7.28656e-08
-3.34008e-07
-7.52107e-08
-3.19036e-07
-7.72491e-08
-3.03723e-07
-7.89661e-08
-2.88133e-07
-8.03484e-08
-2.7233e-07
-8.13833e-08
-2.56383e-07
-8.20592e-08
-2.40359e-07
-8.23657e-08
-2.2433e-07
-8.22938e-08
-2.08367e-07
-8.18359e-08
-1.92542e-07
-8.09861e-08
-1.76929e-07
-7.97405e-08
-1.616e-07
-7.80971e-08
-1.46629e-07
-7.60565e-08
-1.32086e-07
-7.36217e-08
-1.18042e-07
-7.07991e-08
-1.04565e-07
-6.75982e-08
-9.17193e-08
-6.40325e-08
-7.95674e-08
-6.01202e-08
-6.81661e-08
-5.58846e-08
-5.75672e-08
-5.1355e-08
-4.78161e-08
-4.65681e-08
-3.89512e-08
-4.15686e-08
-3.10019e-08
-3.64114e-08
-2.39883e-08
-3.11628e-08
-1.79198e-08
-2.5903e-08
-1.27938e-08
-2.07287e-08
-8.59481e-09
-1.57557e-08
-5.29392e-09
-1.1123e-08
-2.84791e-09
-6.9968e-09
-1.1994e-09
-3.57412e-09
-2.77551e-10
-1.08783e-09
1.7052e-10
-4.15459e-10
3.98814e-10
-1.70782e-09
2.82554e-09
-3.92299e-09
6.49723e-09
-7.10116e-09
1.11078e-08
-1.12735e-08
1.641e-08
-1.64608e-08
2.21929e-08
-2.26725e-08
2.82781e-08
-2.99072e-08
3.4516e-08
-3.81525e-08
4.07819e-08
-4.7386e-08
4.6972e-08
-5.75762e-08
5.30011e-08
-6.8683e-08
5.8799e-08
-8.06594e-08
6.43087e-08
-9.34517e-08
6.94845e-08
-1.07001e-07
7.429e-08
-1.21245e-07
7.86967e-08
-1.36116e-07
8.26832e-08
-1.51544e-07
8.62336e-08
-1.67458e-07
8.93372e-08
-1.83784e-07
9.19872e-08
-2.00449e-07
9.41807e-08
-2.17377e-07
9.59175e-08
-2.34494e-07
9.72002e-08
-2.51726e-07
9.80338e-08
-2.69e-07
9.84248e-08
-2.86242e-07
9.83817e-08
-3.03383e-07
9.79142e-08
-3.20353e-07
9.70333e-08
-3.37084e-07
9.5751e-08
-3.53511e-07
9.40802e-08
-3.6957e-07
9.20345e-08
-3.85199e-07
8.96283e-08
-4.00342e-07
8.68765e-08
-4.1494e-07
8.37944e-08
-4.28941e-07
8.03978e-08
-4.42293e-07
7.67031e-08
-4.54948e-07
7.27266e-08
-4.66862e-07
6.84854e-08
-4.77991e-07
6.39966e-08
-4.88297e-07
5.92775e-08
-4.97742e-07
5.4346e-08
-5.06294e-07
4.922e-08
-5.13923e-07
4.39176e-08
-5.206e-07
3.84573e-08
-5.26304e-07
3.28578e-08
-5.31012e-07
2.7138e-08
-5.34709e-07
2.1317e-08
-5.37379e-07
1.54143e-08
-5.39013e-07
9.44936e-09
-5.39603e-07
3.44219e-09
-5.39147e-07
-2.58716e-09
-5.37642e-07
-8.61835e-09
-5.35094e-07
-1.46308e-08
-5.31509e-07
-2.06039e-08
-5.26898e-07
-2.65165e-08
-5.21274e-07
-3.23477e-08
-5.14657e-07
-3.80762e-08
-5.07066e-07
-4.36806e-08
-4.98527e-07
-4.91394e-08
-4.89068e-07
-5.44314e-08
-4.78723e-07
-5.9535e-08
-4.67527e-07
-6.44289e-08
-4.55519e-07
-6.90918e-08
-4.42743e-07
-7.35027e-08
-4.29245e-07
-7.7641e-08
-4.15074e-07
-8.14861e-08
-4.00285e-07
-8.50182e-08
-3.84932e-07
-8.82179e-08
-3.69077e-07
-9.10663e-08
-3.5278e-07
-9.35455e-08
-3.36108e-07
-9.56384e-08
-3.19128e-07
-9.73288e-08
-3.01909e-07
-9.86017e-08
-2.84525e-07
-9.94435e-08
-2.67049e-07
-9.98418e-08
-2.49557e-07
-9.97862e-08
-2.32125e-07
-9.92678e-08
-2.14831e-07
-9.82799e-08
-1.97753e-07
-9.68181e-08
-1.8097e-07
-9.48804e-08
-1.64558e-07
-9.24679e-08
-1.48596e-07
-8.95847e-08
-1.33156e-07
-8.62387e-08
-1.18312e-07
-8.24417e-08
-1.04135e-07
-7.82102e-08
-9.06888e-08
-7.35661e-08
-7.80362e-08
-6.85372e-08
-6.6233e-08
-6.31583e-08
-5.53289e-08
-5.74722e-08
-4.53665e-08
-5.1531e-08
-3.63801e-08
-4.53978e-08
-2.83949e-08
-3.91481e-08
-2.14258e-08
-3.28721e-08
-1.5477e-08
-2.66774e-08
-1.05414e-08
-2.06913e-08
-6.59975e-09
-1.50647e-08
-3.62124e-09
-9.97532e-09
-1.56391e-09
-5.63145e-09
-3.76202e-10
-2.27554e-09
-2.05682e-10
-5.15497e-10
9.14311e-10
-2.08059e-09
4.39062e-09
-4.71752e-09
9.13415e-09
-8.44642e-09
1.48367e-08
-1.32817e-08
2.12453e-08
-1.92302e-08
2.81414e-08
-2.62897e-08
3.53377e-08
-3.44491e-08
4.26754e-08
-4.36878e-08
5.00206e-08
-5.39764e-08
5.72607e-08
-6.52772e-08
6.43019e-08
-7.75447e-08
7.10665e-08
-9.07269e-08
7.74909e-08
-1.04765e-07
8.35231e-08
-1.19597e-07
8.91216e-08
-1.35154e-07
9.42539e-08
-1.51366e-07
9.88946e-08
-1.68157e-07
1.03025e-07
-1.85453e-07
1.06633e-07
-2.03176e-07
1.0971e-07
-2.21246e-07
1.12251e-07
-2.39585e-07
1.14256e-07
-2.58113e-07
1.15729e-07
-2.76753e-07
1.16673e-07
-2.95426e-07
1.17097e-07
-3.14055e-07
1.17011e-07
-3.32565e-07
1.16424e-07
-3.50882e-07
1.15351e-07
-3.68934e-07
1.13804e-07
-3.86653e-07
1.11798e-07
-4.03969e-07
1.09351e-07
-4.20818e-07
1.06478e-07
-4.37138e-07
1.03196e-07
-4.52868e-07
9.95243e-08
-4.67951e-07
9.54809e-08
-4.82333e-07
9.10851e-08
-4.95962e-07
8.63562e-08
-5.08791e-07
8.13142e-08
-5.20774e-07
7.59794e-08
-5.31869e-07
7.03723e-08
-5.42037e-07
6.4514e-08
-5.51242e-07
5.84255e-08
-5.59453e-07
5.21286e-08
-5.66641e-07
4.56449e-08
-5.72779e-07
3.89965e-08
-5.77847e-07
3.2206e-08
-5.81826e-07
2.52959e-08
-5.84701e-07
1.82892e-08
-5.86461e-07
1.12092e-08
-5.87098e-07
4.07937e-09
-5.86609e-07
-3.07647e-09
-5.84993e-07
-1.02343e-08
-5.82254e-07
-1.73697e-08
-5.784e-07
-2.44582e-08
-5.73441e-07
-3.14751e-08
-5.67393e-07
-3.83954e-08
-5.60276e-07
-4.5194e-08
-5.5211e-07
-5.18457e-08
-5.42925e-07
-5.83251e-08
-5.32749e-07
-6.4607e-08
-5.21618e-07
-7.06661e-08
-5.0957e-07
-7.64772e-08
-4.96646e-07
-8.20152e-08
-4.82894e-07
-8.72555e-08
-4.68361e-07
-9.21735e-08
-4.53102e-07
-9.67453e-08
-4.37173e-07
-1.00948e-07
-4.20633e-07
-1.04757e-07
-4.03547e-07
-1.08152e-07
-3.8598e-07
-1.11112e-07
-3.68003e-07
-1.13616e-07
-3.49686e-07
-1.15646e-07
-3.31104e-07
-1.17183e-07
-3.12334e-07
-1.18213e-07
-2.93455e-07
-1.18721e-07
-2.74547e-07
-1.18694e-07
-2.55691e-07
-1.18124e-07
-2.3697e-07
-1.17001e-07
-2.18466e-07
-1.15321e-07
-2.00264e-07
-1.13083e-07
-1.82444e-07
-1.10288e-07
-1.65088e-07
-1.0694e-07
-1.48276e-07
-1.03051e-07
-1.32085e-07
-9.86326e-08
-1.1659e-07
-9.37058e-08
-1.0186e-07
-8.82959e-08
-8.79617e-08
-8.24352e-08
-7.49561e-08
-7.61639e-08
-6.28973e-08
-6.95309e-08
-5.18328e-08
-6.25955e-08
-4.18022e-08
-5.54284e-08
-3.28365e-08
-4.81138e-08
-2.49573e-08
-4.07513e-08
-1.81765e-08
-3.34582e-08
-1.24959e-08
-2.6372e-08
-7.90714e-09
-1.96534e-08
-4.39238e-09
-1.34901e-08
-1.9253e-09
-8.09853e-09
-4.73087e-10
-3.72775e-09
-6.78768e-10
-6.13001e-10
1.52732e-09
-2.44674e-09
6.22436e-09
-5.50183e-09
1.21893e-08
-9.7794e-09
1.91143e-08
-1.52774e-08
2.67432e-08
-2.19883e-08
3.48523e-08
-2.98981e-08
4.32474e-08
-3.8985e-08
5.17624e-08
-4.92197e-08
6.02553e-08
-6.0565e-08
6.8606e-08
-7.29765e-08
7.67133e-08
-8.64027e-08
8.44927e-08
-1.00786e-07
9.18741e-08
-1.16063e-07
9.88002e-08
-1.32166e-07
1.05224e-07
-1.49022e-07
1.1111e-07
-1.66557e-07
1.16429e-07
-1.8469e-07
1.21159e-07
-2.03344e-07
1.25286e-07
-2.22434e-07
1.288e-07
-2.41878e-07
1.31695e-07
-2.61594e-07
1.33972e-07
-2.81497e-07
1.35632e-07
-3.01505e-07
1.36681e-07
-3.21536e-07
1.37128e-07
-3.41509e-07
1.36983e-07
-3.61344e-07
1.36259e-07
-3.80964e-07
1.3497e-07
-4.00293e-07
1.33132e-07
-4.19257e-07
1.30762e-07
-4.37784e-07
1.27878e-07
-4.55807e-07
1.245e-07
-4.73259e-07
1.20648e-07
-4.90076e-07
1.16342e-07
-5.06199e-07
1.11604e-07
-5.21569e-07
1.06456e-07
-5.36133e-07
1.0092e-07
-5.4984e-07
9.50208e-08
-5.62641e-07
8.87806e-08
-5.74493e-07
8.22237e-08
-5.85353e-07
7.53744e-08
-5.95185e-07
6.82575e-08
-6.03954e-07
6.08979e-08
-6.1163e-07
5.33211e-08
-6.18187e-07
4.55528e-08
-6.236e-07
3.76191e-08
-6.27851e-07
2.95465e-08
-6.30923e-07
2.13616e-08
-6.32805e-07
1.30915e-08
-6.33489e-07
4.76357e-09
-6.32971e-07
-3.59441e-09
-6.31251e-07
-1.19545e-08
-6.28333e-07
-2.02883e-08
-6.24223e-07
-2.85674e-08
-6.18936e-07
-3.67629e-08
-6.12485e-07
-4.48459e-08
-6.04892e-07
-5.27871e-08
-5.9618e-07
-6.05572e-08
-5.86379e-07