/*--------------------------------*- C++ -*----------------------------------*\
| =========                 |                                                 |
| \\      /  F ield         | OpenFOAM: The Open Source CFD Toolbox           |
|  \\    /   O peration     | Version:  2212                                  |
|   \\  /    A nd           | Website:  www.openfoam.com                      |
|    \\/     M anipulation  |                                                 |
\*---------------------------------------------------------------------------*/
FoamFile
{
    version     2.0;
    format      ascii;
    arch        "LSB;label=32;scalar=64";
    class       surfaceScalarField;
    location    "0.0835";
    object      phi_0;
}
// * * * * * * * * * * * * * * * * * * * * * * * * * * * * * * * * * * * * * //

dimensions      [0 3 -1 0 0 0 0];

oriented        oriented;

internalField   nonuniform List<scalar> 
19800
(
7.0199e-11
-7.00768e-11
2.40944e-10
-1.70752e-10
4.28973e-10
-1.88028e-10
5.76491e-10
-1.47516e-10
6.50401e-10
-7.39155e-11
6.3246e-10
1.79401e-11
5.13527e-10
1.18927e-10
2.9024e-10
2.23282e-10
-3.71088e-11
3.27342e-10
-4.6586e-10
4.28747e-10
-9.91808e-10
5.25945e-10
-1.60971e-09
6.17903e-10
-2.31364e-09
7.03932e-10
-3.09723e-09
7.83592e-10
-3.95383e-09
8.56602e-10
-4.87664e-09
9.228e-10
-5.85874e-09
9.8211e-10
-6.89326e-09
1.03453e-09
-7.97336e-09
1.08009e-09
-9.09226e-09
1.1189e-09
-1.02433e-08
1.15106e-09
-1.14201e-08
1.17671e-09
-1.26161e-08
1.19601e-09
-1.38252e-08
1.20913e-09
-1.50414e-08
1.21623e-09
-1.62589e-08
1.21751e-09
-1.74721e-08
1.21317e-09
-1.86755e-08
1.2034e-09
-1.98639e-08
1.1884e-09
-2.10323e-08
1.1684e-09
-2.21759e-08
1.14359e-09
-2.32901e-08
1.11418e-09
-2.43705e-08
1.08039e-09
-2.54129e-08
1.04243e-09
-2.64134e-08
1.00051e-09
-2.73683e-08
9.54859e-10
-2.82739e-08
9.05681e-10
-2.91271e-08
8.5319e-10
-2.99247e-08
7.97608e-10
-3.06639e-08
7.39153e-10
-3.13419e-08
6.78044e-10
-3.19564e-08
6.14509e-10
-3.25052e-08
5.48768e-10
-3.29863e-08
4.81043e-10
-3.33978e-08
4.11563e-10
-3.37384e-08
3.40551e-10
-3.40066e-08
2.6824e-10
-3.42015e-08
1.9487e-10
-3.43221e-08
1.2068e-10
-3.43681e-08
4.59121e-11
-3.43389e-08
-2.91837e-11
-3.42345e-08
-1.0436e-10
-3.40552e-08
-1.79367e-10
-3.38012e-08
-2.53945e-10
-3.34734e-08
-3.27835e-10
-3.30726e-08
-4.00773e-10
-3.26001e-08
-4.72488e-10
-3.20574e-08
-5.42707e-10
-3.14462e-08
-6.11158e-10
-3.07687e-08
-6.77566e-10
-3.0027e-08
-7.41655e-10
-2.92239e-08
-8.03149e-10
-2.83621e-08
-8.61769e-10
-2.74449e-08
-9.17231e-10
-2.64756e-08
-9.69256e-10
-2.54581e-08
-1.01757e-09
-2.43962e-08
-1.06189e-09
-2.32942e-08
-1.10195e-09
-2.21567e-08
-1.13749e-09
-2.09885e-08
-1.16826e-09
-1.97945e-08
-1.19399e-09
-1.858e-08
-1.21445e-09
-1.73506e-08
-1.22939e-09
-1.6112e-08
-1.2386e-09
-1.48702e-08
-1.24187e-09
-1.36312e-08
-1.239e-09
-1.24014e-08
-1.22981e-09
-1.11872e-08
-1.21415e-09
-9.99535e-09
-1.19186e-09
-8.83254e-09
-1.16282e-09
-7.70561e-09
-1.12693e-09
-6.62146e-09
-1.08415e-09
-5.58702e-09
-1.03443e-09
-4.60922e-09
-9.77802e-10
-3.69492e-09
-9.143e-10
-2.85087e-09
-8.44046e-10
-2.08363e-09
-7.67237e-10
-1.39948e-09
-6.84151e-10
-8.0429e-10
-5.9519e-10
-3.03351e-10
-5.00936e-10
9.88682e-11
-4.02213e-10
3.9906e-10
-3.00192e-10
5.95593e-10
-1.96545e-10
6.89333e-10
-9.37511e-11
6.84908e-10
4.42669e-12
5.92767e-10
9.21518e-11
4.32399e-10
1.60376e-10
2.37823e-10
1.94571e-10
6.68379e-11
1.70976e-10
6.68407e-11
1.70808e-10
-2.40885e-10
4.69391e-10
-4.69329e-10
7.55666e-10
-4.74309e-10
9.28194e-10
-3.2004e-10
9.16496e-10
-6.22256e-11
6.75442e-10
2.58993e-10
1.78711e-10
6.15659e-10
-5.865e-10
9.88496e-10
-1.62342e-09
1.36426e-09
-2.92847e-09
1.7338e-09
-4.49326e-09
2.09074e-09
-6.30597e-09
2.43062e-09
-8.35237e-09
2.75034e-09
-1.06165e-08
3.04775e-09
-1.30813e-08
3.32142e-09
-1.5729e-08
3.5704e-09
-1.8541e-08
3.79417e-09
-2.1499e-08
3.99247e-09
-2.45842e-08
4.16528e-09
-2.77781e-08
4.31278e-09
-3.10622e-08
4.43525e-09
-3.44186e-08
4.53311e-09
-3.78295e-08
4.60686e-09
-4.12774e-08
4.65706e-09
-4.47455e-08
4.68434e-09
-4.82174e-08
4.68935e-09
-5.1677e-08
4.67281e-09
-5.5109e-08
4.63543e-09
-5.84986e-08
4.57796e-09
-6.18314e-08
4.50119e-09
-6.50937e-08
4.40589e-09
-6.82724e-08
4.29286e-09
-7.13549e-08
4.1629e-09
-7.43292e-08
4.01682e-09
-7.71842e-08
3.85545e-09
-7.99089e-08
3.6796e-09
-8.24934e-08
3.49011e-09
-8.4928e-08
3.28782e-09
-8.7204e-08
3.07356e-09
-8.9313e-08
2.84819e-09
-9.12475e-08
2.61255e-09
-9.30005e-08
2.36749e-09
-9.45656e-08
2.1139e-09
-9.59372e-08
1.85264e-09
-9.71102e-08
1.58459e-09
-9.80803e-08
1.31066e-09
-9.88439e-08
1.03175e-09
-9.93978e-08
7.48773e-10
-9.97397e-08
4.62663e-10
-9.98682e-08
1.74358e-10
-9.97822e-08
-1.15191e-10
-9.94815e-08
-4.05006e-10
-9.89668e-08
-6.94101e-10
-9.82393e-08
-9.81482e-10
-9.7301e-08
-1.26614e-09
-9.61547e-08
-1.54704e-09
-9.4804e-08
-1.82315e-09
-9.32533e-08
-2.09345e-09
-9.15076e-08
-2.35686e-09
-8.95729e-08
-2.61232e-09
-8.74557e-08
-2.85879e-09
-8.51637e-08
-3.09517e-09
-8.27051e-08
-3.32039e-09
-8.00889e-08
-3.5334e-09
-7.7325e-08
-3.73314e-09
-7.4424e-08
-3.91854e-09
-7.13974e-08
-4.08856e-09
-6.82571e-08
-4.24218e-09
-6.50162e-08
-4.37839e-09
-6.16883e-08
-4.49622e-09
-5.82876e-08
-4.59472e-09
-5.4829e-08
-4.67297e-09
-5.13283e-08
-4.73012e-09
-4.78016e-08
-4.76532e-09
-4.42656e-08
-4.77781e-09
-4.07378e-08
-4.76689e-09
-3.72357e-08
-4.73191e-09
-3.37775e-08
-4.6723e-09
-3.03818e-08
-4.58758e-09
-2.70672e-08
-4.47736e-09
-2.38528e-08
-4.34138e-09
-2.07574e-08
-4.17948e-09
-1.78002e-08
-3.99167e-09
-1.49999e-08
-3.77813e-09
-1.23749e-08
-3.53926e-09
-9.94324e-09
-3.2757e-09
-7.72208e-09
-2.98841e-09
-5.72749e-09
-2.67875e-09
-3.97406e-09
-2.34862e-09
-2.47436e-09
-2.00063e-09
-1.23823e-09
-1.63835e-09
-2.71768e-10
-1.26665e-09
4.24024e-10
-8.92326e-10
8.5514e-10
-5.24856e-10
1.03729e-09
-1.77709e-10
9.99597e-10
1.29844e-10
7.89695e-10
3.70275e-10
4.79657e-10
5.04604e-10
1.70879e-10
4.79754e-10
2.37726e-10
1.88726e-10
-4.2961e-10
4.76493e-10
-7.57094e-10
6.91025e-10
-6.88851e-10
7.1017e-10
-3.39182e-10
4.45405e-10
2.0254e-10
-1.63653e-10
8.68039e-10
-1.15477e-09
1.60677e-09
-2.54827e-09
2.38199e-09
-4.35118e-09
3.16716e-09
-6.56051e-09
3.94313e-09
-9.1658e-09
4.69602e-09
-1.2151e-08
5.41582e-09
-1.5496e-08
6.09532e-09
-1.91776e-08
6.72936e-09
-2.31705e-08
7.31434e-09
-2.74479e-08
7.84781e-09
-3.1982e-08
8.32822e-09
-3.67442e-08
8.75471e-09
-4.17059e-08
9.12698e-09
-4.68382e-08
9.4451e-09
-5.21125e-08
9.70954e-09
-5.75004e-08
9.921e-09
-6.29739e-08
1.00804e-08
-6.85057e-08
1.01889e-08
-7.4069e-08
1.02476e-08
-7.96376e-08
1.0258e-08
-8.51863e-08
1.02215e-08
-9.06905e-08
1.01396e-08
-9.61264e-08
1.00139e-08
-1.01471e-07
9.84604e-09
-1.06703e-07
9.6377e-09
-1.11801e-07
9.39058e-09
-1.16744e-07
9.10641e-09
-1.21514e-07
8.78696e-09
-1.26093e-07
8.434e-09
-1.30463e-07
8.04932e-09
-1.34607e-07
7.63474e-09
-1.38512e-07
7.19208e-09
-1.42161e-07
6.72318e-09
-1.45543e-07
6.22991e-09
-1.48645e-07
5.71413e-09
-1.51455e-07
5.17773e-09
-1.53963e-07
4.6226e-09
-1.56161e-07
4.05069e-09
-1.58041e-07
3.46394e-09
-1.59594e-07
2.86431e-09
-1.60817e-07
2.2538e-09
-1.61702e-07
1.63444e-09
-1.62248e-07
1.00826e-09
-1.62451e-07
3.77343e-10
-1.6231e-07
-2.56213e-10
-1.61824e-07
-8.90282e-10
-1.60996e-07
-1.52269e-09
-1.59826e-07
-2.15126e-09
-1.58318e-07
-2.77376e-09
-1.56478e-07
-3.38797e-09
-1.54309e-07
-3.9916e-09
-1.5182e-07
-4.58238e-09
-1.49019e-07
-5.15801e-09
-1.45915e-07
-5.71616e-09
-1.42519e-07
-6.25452e-09
-1.38844e-07
-6.77075e-09
-1.34902e-07
-7.26252e-09
-1.30708e-07
-7.72751e-09
-1.26277e-07
-8.16341e-09
-1.21628e-07
-8.56794e-09
-1.16778e-07
-8.93885e-09
-1.11746e-07
-9.27392e-09
-1.06553e-07
-9.57099e-09
-1.01222e-07
-9.82795e-09
-9.57735e-08
-1.00428e-08
-9.0233e-08
-1.02135e-08
-8.46248e-08
-1.03383e-08
-7.89746e-08
-1.04154e-08
-7.33092e-08
-1.04433e-08
-6.76558e-08
-1.04203e-08
-6.20424e-08
-1.03452e-08
-5.64978e-08
-1.02169e-08
-5.1051e-08
-1.00344e-08
-4.57313e-08
-9.79704e-09
-4.05684e-08
-9.50428e-09
-3.55919e-08
-9.156e-09
-3.08311e-08
-8.75241e-09
-2.63151e-08
-8.29411e-09
-2.20722e-08
-7.78221e-09
-1.81295e-08
-7.21838e-09
-1.45128e-08
-6.60506e-09
-1.1246e-08
-5.94561e-09
-8.35004e-09
-5.24454e-09
-5.84274e-09
-4.50795e-09
-3.73717e-09
-3.74393e-09
-2.04046e-09
-2.96336e-09
-7.51936e-10
-2.18085e-09
1.39343e-10
-1.41613e-09
6.57686e-10
-6.96044e-10
8.44688e-10
-5.71558e-11
7.64033e-10
4.5093e-10
5.06539e-10
7.621e-10
1.95037e-10
7.91259e-10
4.32765e-10
1.49867e-10
-5.79481e-10
3.27188e-10
-9.34403e-10
3.50162e-10
-7.11831e-10
8.8568e-11
-7.75946e-11
-5.53234e-10
8.4434e-10
-1.64246e-09
1.95727e-09
-3.2228e-09
3.1871e-09
-5.3189e-09
4.47809e-09
-7.94024e-09
5.78851e-09
-1.10843e-08
7.08723e-09
-1.47394e-08
8.35104e-09
-1.88862e-08
9.56271e-09
-2.35004e-08
1.07095e-08
-2.85531e-08
1.17821e-08
-3.40125e-08
1.27737e-08
-3.98443e-08
1.36797e-08
-4.60129e-08
1.44968e-08
-5.24814e-08
1.52232e-08
-5.92124e-08
1.5858e-08
-6.61682e-08
1.64009e-08
-7.33111e-08
1.68524e-08
-8.06036e-08
1.72135e-08
-8.80087e-08
1.74855e-08
-9.54901e-08
1.76702e-08
-1.03012e-07
1.77695e-08
-1.1054e-07
1.77857e-08
-1.18039e-07
1.7721e-08
-1.25478e-07
1.7578e-08
-1.32823e-07
1.73595e-08
-1.40045e-07
1.7068e-08
-1.47114e-07
1.67065e-08
-1.54001e-07
1.62779e-08
-1.6068e-07
1.57851e-08
-1.67124e-07
1.52312e-08
-1.7331e-07
1.46192e-08
-1.79212e-07
1.39522e-08
-1.84811e-07
1.32333e-08
-1.90084e-07
1.24656e-08
-1.95014e-07
1.16525e-08
-1.99581e-07
1.0797e-08
-2.03769e-07
9.90252e-09
-2.07564e-07
8.97225e-09
-2.10951e-07
8.0095e-09
-2.13918e-07
7.01766e-09
-2.16454e-07
6.0001e-09
-2.1855e-07
4.96025e-09
-2.20198e-07
3.90158e-09
-2.21391e-07
2.82762e-09
-2.22124e-07
1.74192e-09
-2.22395e-07
6.48092e-10
-2.22201e-07
-4.50204e-10
-2.21542e-07
-1.54926e-09
-2.2042e-07
-2.64534e-09
-2.18836e-07
-3.73462e-09
-2.16797e-07
-4.81326e-09
-2.14307e-07
-5.87737e-09
-2.11376e-07
-6.92304e-09
-2.08012e-07
-7.94629e-09
-2.04227e-07
-8.94315e-09
-2.00033e-07
-9.90961e-09
-1.95446e-07
-1.08417e-08
-1.90482e-07
-1.17353e-08
-1.85158e-07
-1.25864e-08
-1.79494e-07
-1.33911e-08
-1.73512e-07
-1.41454e-08
-1.67235e-07
-1.48453e-08
-1.60687e-07
-1.5487e-08
-1.53894e-07
-1.60668e-08
-1.46884e-07
-1.65808e-08
-1.39686e-07
-1.70256e-08
-1.32332e-07
-1.73976e-08
-1.24851e-07
-1.76936e-08
-1.17279e-07
-1.79104e-08
-1.0965e-07
-1.80451e-08
-1.01998e-07
-1.8095e-08
-9.43608e-08
-1.80576e-08
-8.67751e-08
-1.79309e-08
-7.92792e-08
-1.77129e-08
-7.19114e-08
-1.74022e-08
-6.47108e-08
-1.69977e-08
-5.77162e-08
-1.64989e-08
-5.09665e-08
-1.59057e-08
-4.45002e-08
-1.52187e-08
-3.8355e-08
-1.44393e-08
-3.25674e-08
-1.35698e-08
-2.71725e-08
-1.26133e-08
-2.2203e-08
-1.15746e-08
-1.76889e-08
-1.04597e-08
-1.36563e-08
-9.27707e-09
-1.01269e-08
-8.03737e-09
-7.11599e-09
-6.75483e-09
-4.63134e-09
-5.44801e-09
-2.67095e-09
-4.14124e-09
-1.2206e-09
-2.86648e-09
-2.50822e-10
-1.66581e-09
2.86685e-10
-5.94652e-10
4.63252e-10
2.74363e-10
3.7778e-10
8.47573e-10
1.62537e-10
1.0065e-09
5.953e-10
7.87442e-11
-6.5823e-10
7.65269e-11
-9.3218e-10
-1.79108e-10
-4.56188e-10
-8.15695e-10
5.58991e-10
-1.92827e-09
1.95692e-09
-3.58482e-09
3.61381e-09
-5.83042e-09
5.43269e-09
-8.691e-09
7.33866e-09
-1.21767e-08
9.27418e-09
-1.62846e-08
1.11952e-08
-2.10015e-08
1.3068e-08
-2.63058e-08
1.4867e-08
-3.21693e-08
1.65729e-08
-3.85585e-08
1.81713e-08
-4.54362e-08
1.96514e-08
-5.27621e-08
2.10056e-08
-6.04938e-08
2.22285e-08
-6.85874e-08
2.33168e-08
-7.69979e-08
2.42684e-08
-8.56798e-08
2.50828e-08
-9.45876e-08
2.57602e-08
-1.03676e-07
2.63016e-08
-1.12899e-07
2.6709e-08
-1.22213e-07
2.69846e-08
-1.31575e-07
2.71311e-08
-1.40941e-07
2.71517e-08
-1.5027e-07
2.70498e-08
-1.59521e-07
2.68292e-08
-1.68655e-07
2.64937e-08
-1.77634e-07
2.60474e-08
-1.86422e-07
2.54945e-08
-1.94984e-07
2.48395e-08
-2.03286e-07
2.40868e-08
-2.11295e-07
2.32408e-08
-2.18982e-07
2.23062e-08
-2.26318e-07
2.12878e-08
-2.33275e-07
2.01903e-08
-2.39828e-07
1.90184e-08
-2.45952e-07
1.7777e-08
-2.51626e-07
1.64711e-08
-2.56829e-07
1.51056e-08
-2.61543e-07
1.36855e-08
-2.65749e-07
1.22159e-08
-2.69433e-07
1.07019e-08
-2.72582e-07
9.14868e-09
-2.75183e-07
7.56155e-09
-2.77227e-07
5.94579e-09
-2.78706e-07
4.30678e-09
-2.79614e-07
2.64998e-09
-2.79947e-07
9.809e-10
-2.79703e-07
-6.94866e-10
-2.7888e-07
-2.37164e-09
-2.77482e-07
-4.0437e-09
-2.75511e-07
-5.70522e-09
-2.72974e-07
-7.35036e-09
-2.69878e-07
-8.97316e-09
-2.66234e-07
-1.05677e-08
-2.62052e-07
-1.21278e-08
-2.57348e-07
-1.36476e-08
-2.52137e-07
-1.51208e-08
-2.46437e-07
-1.65415e-08
-2.40269e-07
-1.79035e-08
-2.33654e-07
-1.92006e-08
-2.26619e-07
-2.04269e-08
-2.19188e-07
-2.15763e-08
-2.1139e-07
-2.2643e-08
-2.03256e-07
-2.3621e-08
-1.94818e-07
-2.45046e-08
-1.86111e-07
-2.52884e-08
-1.77169e-07
-2.59669e-08
-1.68032e-07
-2.65349e-08
-1.58738e-07
-2.69875e-08
-1.49328e-07
-2.73201e-08
-1.39845e-07
-2.75282e-08
-1.30332e-07
-2.76081e-08
-1.20834e-07
-2.75559e-08
-1.11396e-07
-2.73687e-08
-1.02065e-07
-2.70439e-08
-9.28877e-08
-2.65794e-08
-8.39116e-08
-2.59739e-08
-7.51837e-08
-2.52267e-08
-6.67511e-08
-2.43383e-08
-5.86601e-08
-2.33097e-08
-5.0956e-08
-2.21434e-08
-4.36824e-08
-2.08434e-08
-3.68809e-08
-1.94148e-08
-3.05901e-08
-1.78653e-08
-2.48451e-08
-1.62047e-08
-1.96765e-08
-1.44457e-08
-1.51087e-08
-1.26051e-08
-1.11594e-08
-1.07042e-08
-7.837e-09
-8.77038e-09
-5.13935e-09
-6.83889e-09
-3.0509e-09
-4.95493e-09
-1.5402e-09
-3.17651e-09
-5.56794e-10
-1.57805e-09
-2.77077e-11
-2.54729e-10
1.46558e-10
6.73306e-10
9.72213e-11
1.05584e-09
6.92519e-10
-1.019e-11
-6.48042e-10
-2.36644e-10
-7.05725e-10
-8.31302e-10
1.3847e-10
-1.91082e-09
1.63851e-09
-3.56366e-09
3.60976e-09
-5.85387e-09
5.90402e-09
-8.82424e-09
8.40306e-09
-1.24992e-08
1.10137e-08
-1.68877e-08
1.36627e-08
-2.19854e-08
1.62928e-08
-2.77769e-08
1.88595e-08
-3.4238e-08
2.13281e-08
-4.13372e-08
2.36721e-08
-4.9037e-08
2.58712e-08
-5.72956e-08
2.791e-08
-6.60673e-08
2.97773e-08
-7.5304e-08
3.14652e-08
-8.49555e-08
3.29683e-08
-9.49704e-08
3.42833e-08
-1.05296e-07
3.54088e-08
-1.15881e-07
3.63448e-08
-1.26672e-07
3.70922e-08
-1.37616e-07
3.76533e-08
-1.48662e-07
3.80309e-08
-1.5976e-07
3.82287e-08
-1.70859e-07
3.82506e-08
-1.81911e-07
3.81014e-08
-1.92867e-07
3.77861e-08
-2.03684e-07
3.73098e-08
-2.14315e-07
3.66783e-08
-2.24717e-07
3.58974e-08
-2.34851e-07
3.4973e-08
-2.44676e-07
3.39114e-08
-2.54154e-07
3.27189e-08
-2.63249e-07
3.14018e-08
-2.71928e-07
2.99668e-08
-2.80159e-07
2.84206e-08
-2.8791e-07
2.67697e-08
-2.95154e-07
2.50212e-08
-3.01865e-07
2.31818e-08
-3.08018e-07
2.12586e-08
-3.13591e-07
1.92587e-08
-3.18564e-07
1.71891e-08
-3.2292e-07
1.50571e-08
-3.26641e-07
1.28701e-08
-3.29715e-07
1.06353e-08
-3.32129e-07
8.36042e-09
-3.33876e-07
6.05293e-09
-3.34946e-07
3.72054e-09
-3.35336e-07
1.37104e-09
-3.35043e-07
-9.87689e-10
-3.34067e-07
-3.34766e-09
-3.3241e-07
-5.7008e-09
-3.30077e-07
-8.03892e-09
-3.27073e-07
-1.03538e-08
-3.23409e-07
-1.26371e-08
-3.19097e-07
-1.48803e-08
-3.14149e-07
-1.70751e-08
-3.08584e-07
-1.92129e-08
-3.0242e-07
-2.12851e-08
-2.95678e-07
-2.32833e-08
-2.88383e-07
-2.51988e-08
-2.8056e-07
-2.70231e-08
-2.72239e-07
-2.87478e-08
-2.63451e-07
-3.03645e-08
-2.54229e-07
-3.18649e-08
-2.44609e-07
-3.32409e-08
-2.34629e-07
-3.44845e-08
-2.2433e-07
-3.55881e-08
-2.13752e-07
-3.65441e-08
-2.02942e-07
-3.73454e-08
-1.91944e-07
-3.79852e-08
-1.80807e-07
-3.84571e-08
-1.6958e-07
-3.87552e-08
-1.58314e-07
-3.88741e-08
-1.47061e-07
-3.88089e-08
-1.35874e-07
-3.85555e-08
-1.24808e-07
-3.81105e-08
-1.13916e-07
-3.74714e-08
-1.03253e-07
-3.66365e-08
-9.28746e-08
-3.56054e-08
-8.2834e-08
-3.43788e-08
-7.31848e-08
-3.29589e-08
-6.39788e-08
-3.13495e-08
-5.52658e-08
-2.95564e-08
-4.7093e-08
-2.75876e-08
-3.95043e-08
-2.5454e-08
-3.25392e-08
-2.31698e-08
-2.62318e-08
-2.07531e-08
-2.06099e-08
-1.8227e-08
-1.56931e-08
-1.5621e-08
-1.14916e-08
-1.29719e-08
-8.00405e-09
-1.03265e-08
-5.21562e-09
-7.74336e-09
-3.09568e-09
-5.29644e-09
-1.59529e-09
-3.07843e-09
-6.44411e-10
-1.20561e-09
-1.48872e-10
1.77766e-10
1.34279e-11
8.93533e-10
7.05947e-10
-1.08301e-10
-5.39738e-10
-5.86084e-10
-2.27945e-10
-1.55943e-09
1.11183e-09
-3.1288e-09
3.20787e-09
-5.37165e-09
5.85261e-09
-8.34447e-09
8.87684e-09
-1.20848e-08
1.21434e-08
-1.66131e-08
1.5542e-08
-2.19354e-08
1.89849e-08
-2.80444e-08
2.24018e-08
-3.49221e-08
2.57372e-08
-4.25413e-08
2.89473e-08
-5.08669e-08
3.19978e-08
-5.98579e-08
3.48621e-08
-6.94679e-08
3.752e-08
-7.96467e-08
3.99561e-08
-9.0341e-08
4.21595e-08
-1.01495e-07
4.41225e-08
-1.13052e-07
4.58402e-08
-1.24953e-07
4.73101e-08
-1.3714e-07
4.85317e-08
-1.49554e-07
4.95058e-08
-1.62135e-07
5.0235e-08
-1.74827e-07
5.07225e-08
-1.87571e-07
5.09728e-08
-2.00312e-07
5.09911e-08
-2.12993e-07
5.07831e-08
-2.25563e-07
5.03553e-08
-2.37967e-07
4.97145e-08
-2.50157e-07
4.88679e-08
-2.62082e-07
4.78231e-08
-2.73697e-07
4.6588e-08
-2.84957e-07
4.51708e-08
-2.95817e-07
4.35796e-08
-3.06239e-07
4.1823e-08
-3.16181e-07
3.99096e-08
-3.25609e-07
3.78483e-08
-3.34487e-07
3.5648e-08
-3.42784e-07
3.33177e-08
-3.50469e-07
3.08667e-08
-3.57514e-07
2.83042e-08
-3.63895e-07
2.56396e-08
-3.69589e-07
2.28824e-08
-3.74574e-07
2.00423e-08
-3.78833e-07
1.7129e-08
-3.8235e-07
1.41524e-08
-3.85112e-07
1.11225e-08
-3.87108e-07
8.04943e-09
-3.88331e-07
4.94338e-09
-3.88775e-07
1.81475e-09
-3.88437e-07
-1.32596e-09
-3.87316e-07
-4.4681e-09
-3.85416e-07
-7.60093e-09
-3.82742e-07
-1.07136e-08
-3.793e-07
-1.3795e-08
-3.75103e-07
-1.68343e-08
-3.70163e-07
-1.98201e-08
-3.64497e-07
-2.27412e-08
-3.58124e-07
-2.55864e-08
-3.51065e-07
-2.83442e-08
-3.43344e-07
-3.10035e-08
-3.3499e-07
-3.35527e-08
-3.26033e-07
-3.59808e-08
-3.16504e-07
-3.82763e-08
-3.0644e-07
-4.04284e-08
-2.95879e-07
-4.24261e-08
-2.84861e-07
-4.42586e-08
-2.7343e-07
-4.59156e-08
-2.61632e-07
-4.73868e-08
-2.49513e-07
-4.86626e-08
-2.37125e-07
-4.97334e-08
-2.2452e-07
-5.05905e-08
-2.11751e-07
-5.12255e-08
-1.98876e-07
-5.16308e-08
-1.85951e-07
-5.17994e-08
-1.73034e-07
-5.17251e-08
-1.60187e-07
-5.14027e-08
-1.4747e-07
-5.0828e-08
-1.34943e-07
-4.99979e-08
-1.22669e-07
-4.89107e-08
-1.10708e-07
-4.7566e-08
-9.91216e-08
-4.59654e-08
-8.79685e-08
-4.4112e-08
-7.73066e-08
-4.20114e-08
-6.71911e-08
-3.96718e-08
-5.76745e-08
-3.71043e-08
-4.88051e-08
-3.43235e-08
-4.06265e-08
-3.13483e-08
-3.31767e-08
-2.82029e-08
-2.64864e-08
-2.49174e-08
-2.0578e-08
-2.15294e-08
-1.54639e-08
-1.80859e-08
-1.11453e-08
-1.46451e-08
-7.6097e-09
-1.12789e-08
-4.82981e-09
-8.07633e-09
-2.7611e-09
-5.14713e-09
-1.3401e-09
-2.62661e-09
-4.82296e-10
-6.80037e-10
-8.01553e-11
4.91392e-10
6.25795e-10
-2.10372e-10
-3.29361e-10
-9.54434e-10
5.16112e-10
-2.33077e-09
2.48816e-09
-4.42061e-09
5.29771e-09
-7.28746e-09
8.71946e-09
-1.09775e-08
1.25669e-08
-1.55206e-08
1.66865e-08
-2.09315e-08
2.09529e-08
-2.72113e-08
2.52646e-08
-3.43488e-08
2.95393e-08
-4.23224e-08
3.37108e-08
-5.11012e-08
3.77261e-08
-6.06466e-08
4.15432e-08
-7.09136e-08
4.51291e-08
-8.18517e-08
4.84581e-08
-9.34065e-08
5.15108e-08
-1.0552e-07
5.42728e-08
-1.18131e-07
5.67337e-08
-1.31178e-07
5.8887e-08
-1.44597e-07
6.07289e-08
-1.58323e-07
6.2258e-08
-1.72292e-07
6.34751e-08
-1.8644e-07
6.43827e-08
-2.00702e-07
6.49847e-08
-2.15016e-07
6.52864e-08
-2.29318e-07
6.52938e-08
-2.4355e-07
6.50142e-08
-2.5765e-07
6.44554e-08
-2.71561e-07
6.36258e-08
-2.85228e-07
6.25345e-08
-2.98595e-07
6.11909e-08
-3.11612e-07
5.9605e-08
-3.24229e-07
5.77869e-08
-3.36396e-07
5.57471e-08
-3.48069e-07
5.34964e-08
-3.59206e-07
5.10457e-08
-3.69764e-07
4.84063e-08
-3.79705e-07
4.55895e-08
-3.88994e-07
4.26069e-08
-3.97598e-07
3.94702e-08
-4.05485e-07
3.61911e-08
-4.12627e-07
3.27818e-08
-4.18999e-07
2.92544e-08
-4.24578e-07
2.56211e-08
-4.29343e-07
2.18946e-08
-4.33278e-07
1.80873e-08
-4.36368e-07
1.42121e-08
-4.386e-07
1.02819e-08
-4.39967e-07
6.30984e-09
-4.40461e-07
2.30915e-09
-4.4008e-07
-1.70672e-09
-4.38824e-07
-5.7242e-09
-4.36695e-07
-9.72955e-09
-4.337e-07
-1.37089e-08
-4.29847e-07
-1.76482e-08
-4.25148e-07
-2.15333e-08
-4.19618e-07
-2.535e-08
-4.13275e-07
-2.9084e-08
-4.06141e-07
-3.27208e-08
-3.98239e-07
-3.6246e-08
-3.89597e-07
-3.96453e-08
-3.80246e-07
-4.29041e-08
-3.70218e-07
-4.60083e-08
-3.59551e-07
-4.89435e-08
-3.48284e-07
-5.16957e-08
-3.36459e-07
-5.42512e-08
-3.24121e-07
-5.65963e-08
-3.11319e-07
-5.87178e-08
-2.98103e-07
-6.0603e-08
-2.84526e-07
-6.22394e-08
-2.70644e-07
-6.36154e-08
-2.56515e-07
-6.47198e-08
-2.42198e-07
-6.55422e-08
-2.27756e-07
-6.6073e-08
-2.13252e-07
-6.63036e-08
-1.9875e-07
-6.62265e-08
-1.84318e-07
-6.58352e-08
-1.70021e-07
-6.51248e-08
-1.55927e-07
-6.40916e-08
-1.42104e-07
-6.27338e-08
-1.28619e-07
-6.10515e-08
-1.15537e-07
-5.90469e-08
-1.02924e-07
-5.67247e-08
-9.08436e-08
-5.40923e-08
-7.9355e-08
-5.11604e-08
-6.85157e-08
-4.79436e-08
-5.83784e-08
-4.44607e-08
-4.89909e-08
-4.07358e-08
-4.03947e-08
-3.67991e-08
-3.2624e-08
-3.26881e-08
-2.57045e-08
-2.84489e-08
-1.9652e-08
-2.41384e-08
-1.44711e-08
-1.9826e-08
-1.01537e-08
-1.55963e-08
-6.67751e-09
-1.15525e-08
-4.00497e-09
-7.81966e-09
-2.08179e-09
-4.54979e-09
-8.36158e-10
-1.92568e-09
-1.78187e-10
-1.66576e-10
4.4761e-10
-3.13294e-10
-1.60612e-11
-1.33045e-09
1.53326e-09
-3.12295e-09
4.28067e-09
-5.75154e-09
7.92631e-09
-9.26399e-09
1.22319e-08
-1.36943e-08
1.69972e-08
-1.90629e-08
2.20551e-08
-2.5377e-08
2.7267e-08
-3.26315e-08
3.25191e-08
-4.08101e-08
3.7718e-08
-4.98868e-08
4.27874e-08
-5.98263e-08
4.76656e-08
-7.05861e-08
5.2303e-08
-8.21171e-08
5.66601e-08
-9.43648e-08
6.07058e-08
-1.0727e-07
6.44162e-08
-1.20771e-07
6.77734e-08
-1.34802e-07
7.07645e-08
-1.49295e-07
7.33806e-08
-1.64183e-07
7.56168e-08
-1.79396e-07
7.74707e-08
-1.94864e-07
7.89429e-08
-2.10517e-07
8.00358e-08
-2.26286e-07
8.07539e-08
-2.42103e-07
8.11031e-08
-2.579e-07
8.10907e-08
-2.73611e-07
8.07252e-08
-2.89171e-07
8.00158e-08
-3.04518e-07
7.89728e-08
-3.19591e-07
7.76071e-08
-3.3433e-07
7.59302e-08
-3.48679e-07
7.39541e-08
-3.62584e-07
7.16914e-08
-3.75991e-07
6.91548e-08
-3.88852e-07
6.63575e-08
-4.0112e-07
6.33131e-08
-4.12749e-07
6.00353e-08
-4.23697e-07
5.65382e-08
-4.33927e-07
5.2836e-08
-4.434e-07
4.89432e-08
-4.52083e-07
4.48744e-08
-4.59945e-07
4.06444e-08
-4.6696e-07
3.62684e-08
-4.731e-07
3.17616e-08
-4.78345e-07
2.71394e-08
-4.82675e-07
2.24175e-08
-4.86074e-07
1.76116e-08
-4.88531e-07
1.2738e-08
-4.90033e-07
7.81268e-09
-4.90576e-07
2.8522e-09
-4.90156e-07
-2.12684e-09
-4.88773e-07
-7.10762e-09
-4.86429e-07
-1.20731e-08
-4.83132e-07
-1.70062e-08
-4.78891e-07
-2.18895e-08
-4.73718e-07
-2.67056e-08
-4.67632e-07
-3.14367e-08
-4.6065e-07
-3.60653e-08
-4.52797e-07
-4.05736e-08
-4.441e-07
-4.49438e-08
-4.34587e-07
-4.9158e-08
-4.24293e-07
-5.31985e-08
-4.13253e-07
-5.70477e-08
-4.01508e-07
-6.06881e-08
-3.89102e-07
-6.41025e-08
-3.76079e-07
-6.72737e-08
-3.6249e-07
-7.01853e-08
-3.48387e-07
-7.2821e-08
-3.33825e-07
-7.51651e-08
-3.18862e-07
-7.72025e-08
-3.03558e-07
-7.89189e-08
-2.87977e-07
-8.03007e-08
-2.72184e-07
-8.13354e-08
-2.56246e-07
-8.20113e-08
-2.40231e-07
-8.2318e-08
-2.24211e-07
-8.22465e-08
-2.08257e-07
-8.17893e-08
-1.92442e-07
-8.09404e-08
-1.76837e-07
-7.96959e-08
-1.61517e-07
-7.80539e-08
-1.46554e-07
-7.60148e-08
-1.32019e-07
-7.35818e-08
-1.17983e-07
-7.07611e-08
-1.04513e-07
-6.75623e-08
-9.16742e-08
-6.3999e-08
-7.95286e-08
-6.00892e-08
-6.81332e-08
-5.58561e-08
-5.75398e-08
-5.13293e-08
-4.77937e-08
-4.65452e-08
-3.89331e-08
-4.15486e-08
-3.09878e-08
-3.63943e-08
-2.39776e-08
-3.11486e-08
-1.79119e-08
-2.58916e-08
-1.27883e-08
-2.072e-08
-8.59121e-09
-1.57495e-08
-5.29176e-09
-1.11191e-08
-2.84678e-09
-6.99478e-09
-1.19894e-09
-3.57352e-09
-2.7745e-10
-1.08807e-09
1.70156e-10
-4.15252e-10
3.9919e-10
-1.70695e-09
2.82496e-09
-3.92096e-09
6.49469e-09
-7.09743e-09
1.11028e-08
-1.12675e-08
1.6402e-08
-1.64519e-08
2.21817e-08
-2.26603e-08
2.82634e-08
-2.98909e-08
3.44977e-08
-3.81317e-08
4.07598e-08
-4.736e-08
4.69463e-08
-5.75444e-08
5.29718e-08
-6.86449e-08
5.87662e-08
-8.06144e-08
6.42725e-08
-9.33994e-08
6.94451e-08
-1.06941e-07
7.42476e-08
-1.21177e-07
7.86516e-08
-1.36039e-07
8.26355e-08
-1.51458e-07
8.61837e-08
-1.67362e-07
8.92852e-08
-1.83679e-07
9.19335e-08
-2.00334e-07
9.41255e-08
-2.17252e-07
9.58611e-08
-2.34359e-07
9.71429e-08
-2.51581e-07
9.79758e-08
-2.68845e-07
9.83664e-08
-2.86077e-07
9.83232e-08
-3.03208e-07
9.78559e-08
-3.20167e-07
9.69754e-08
-3.36888e-07
9.56938e-08
-3.53305e-07
9.4024e-08
-3.69354e-07
9.19795e-08
-3.84975e-07
8.95747e-08
-4.00108e-07
8.68245e-08
-4.14698e-07
8.37443e-08
-4.2869e-07
8.03498e-08
-4.42034e-07
7.66573e-08
-4.54682e-07
7.26834e-08
-4.66589e-07
6.84448e-08
-4.77712e-07
6.39588e-08
-4.88011e-07
5.92427e-08
-4.97451e-07
5.43143e-08
-5.05998e-07
4.91915e-08
-5.13622e-07
4.38925e-08
-5.20296e-07
3.84357e-08
-5.25997e-07
3.28397e-08
-5.30703e-07
2.71235e-08
-5.34397e-07
2.13062e-08
-5.37067e-07
1.54072e-08
-5.387e-07
9.44605e-09
-5.3929e-07
3.44265e-09
-5.38834e-07
-2.58293e-09
-5.37332e-07
-8.61037e-09
-5.34786e-07
-1.46191e-08
-5.31203e-07
-2.05885e-08
-5.26595e-07
-2.64975e-08
-5.20976e-07
-3.23252e-08
-5.14362e-07
-3.80502e-08
-5.06776e-07
-4.36512e-08
-4.98243e-07
-4.91069e-08
-4.88791e-07
-5.43957e-08
-4.78453e-07
-5.94964e-08
-4.67264e-07
-6.43875e-08
-4.55264e-07
-6.90478e-08
-4.42496e-07
-7.34563e-08
-4.29006e-07
-7.75923e-08
-4.14844e-07
-8.14355e-08
-4.00063e-07
-8.49658e-08
-3.84721e-07
-8.81639e-08
-3.68875e-07
-9.1011e-08
-3.52588e-07
-9.34891e-08
-3.35926e-07
-9.55812e-08
-3.18955e-07
-9.7271e-08
-3.01747e-07
-9.85437e-08
-2.84373e-07
-9.93854e-08
-2.66907e-07
-9.9784e-08
-2.49425e-07
-9.97289e-08
-2.32003e-07
-9.92113e-08
-2.14719e-07
-9.82244e-08
-1.97651e-07
-9.67639e-08
-1.80877e-07
-9.48278e-08
-1.64474e-07
-9.24172e-08
-1.4852e-07
-8.95361e-08
-1.33089e-07
-8.61923e-08
-1.18253e-07
-8.23979e-08
-1.04083e-07
-7.81692e-08
-9.06442e-08
-7.3528e-08
-7.79982e-08
-6.85022e-08
-6.6201e-08
-6.31265e-08
-5.53025e-08
-5.74437e-08
-4.53451e-08
-5.1506e-08
-3.63631e-08
-4.53762e-08
-2.83818e-08
-3.913e-08
-2.1416e-08
-3.28574e-08
-1.54701e-08
-2.66659e-08
-1.05367e-08
-2.06829e-08
-6.59688e-09
-1.5059e-08
-3.61969e-09
-9.97199e-09
-1.56325e-09
-5.62996e-09
-3.76044e-10
-2.27527e-09
-2.05891e-10
-5.15225e-10
9.1442e-10
-2.07949e-09
4.38921e-09
-4.71499e-09
9.13019e-09
-8.44187e-09
1.48296e-08
-1.32745e-08
2.12346e-08
-1.92197e-08
2.81268e-08
-2.62753e-08
3.5319e-08
-3.44302e-08
4.26525e-08
-4.36637e-08
4.99933e-08
-5.39465e-08
5.72291e-08
-6.52409e-08
6.42661e-08
-7.75014e-08
7.10267e-08
-9.0676e-08
7.74471e-08
-1.04707e-07
8.34756e-08
-1.1953e-07
8.90707e-08
-1.35078e-07
9.41997e-08
-1.5128e-07
9.88376e-08
-1.68062e-07
1.02966e-07
-1.85348e-07
1.06571e-07
-2.0306e-07
1.09646e-07
-2.21119e-07
1.12185e-07
-2.39447e-07
1.14189e-07
-2.57965e-07
1.15661e-07
-2.76594e-07
1.16604e-07
-2.95255e-07
1.17028e-07
-3.13873e-07
1.16941e-07
-3.32372e-07
1.16355e-07
-3.50679e-07
1.15282e-07
-3.68721e-07
1.13736e-07
-3.86428e-07
1.11732e-07
-4.03734e-07
1.09285e-07
-4.20574e-07
1.06414e-07
-4.36883e-07
1.03134e-07
-4.52604e-07
9.94648e-08
-4.67678e-07
9.5424e-08
-4.82052e-07
9.10308e-08
-4.95673e-07
8.63049e-08
-5.08495e-07
8.12661e-08
-5.2047e-07
7.59346e-08
-5.31559e-07
7.03311e-08
-5.41721e-07
6.44764e-08
-5.50921e-07
5.83918e-08
-5.59127e-07
5.20988e-08
-5.66311e-07
4.56192e-08
-5.72446e-07
3.89751e-08
-5.77512e-07
3.21888e-08
-5.81489e-07
2.52831e-08
-5.84362e-07
1.82809e-08
-5.86121e-07
1.12053e-08
-5.86759e-07
4.07996e-09
-5.8627e-07
-3.07141e-09
-5.84656e-07
-1.02248e-08
-5.81919e-07
-1.73558e-08
-5.78068e-07
-2.444e-08
-5.73113e-07
-3.14526e-08
-5.67069e-07
-3.83686e-08
-5.59956e-07
-4.51631e-08
-5.51797e-07
-5.18108e-08
-5.42617e-07
-5.82864e-08
-5.32448e-07
-6.45647e-08
-5.21324e-07
-7.06203e-08
-5.09284e-07
-7.64281e-08
-4.96368e-07
-8.1963e-08
-4.82624e-07
-8.72004e-08
-4.68101e-07
-9.21158e-08
-4.52851e-07
-9.66852e-08
-4.36932e-07
-1.00885e-07
-4.20402e-07
-1.04693e-07
-4.03326e-07
-1.08087e-07
-3.8577e-07
-1.11045e-07
-3.67803e-07
-1.13548e-07
-3.49497e-07
-1.15577e-07
-3.30926e-07
-1.17115e-07
-3.12167e-07
-1.18144e-07
-2.93299e-07
-1.18652e-07
-2.74401e-07
-1.18626e-07
-2.55556e-07
-1.18056e-07
-2.36846e-07
-1.16935e-07
-2.18353e-07
-1.15257e-07
-2.0016e-07
-1.1302e-07
-1.8235e-07
-1.10227e-07
-1.65004e-07
-1.06882e-07
-1.48201e-07
-1.02995e-07
-1.32019e-07
-9.85801e-08
-1.16531e-07
-9.36566e-08
-1.01809e-07
-8.82501e-08
-8.79185e-08
-8.2393e-08
-7.49195e-08
-7.61254e-08
-6.28669e-08
-6.94964e-08
-5.18079e-08
-6.25649e-08
-4.17823e-08
-5.54018e-08
-3.2821e-08
-4.80913e-08
-2.49456e-08
-4.07328e-08
-1.81681e-08
-3.34435e-08
-1.24902e-08
-2.63608e-08
-7.90356e-09
-1.96456e-08
-4.39041e-09
-1.34851e-08
-1.92444e-09
-8.09594e-09
-4.72873e-10
-3.72684e-09
-6.78765e-10
-6.12673e-10
1.5271e-09
-2.44541e-09
6.22194e-09
-5.49883e-09
1.21836e-08
-9.77404e-09
1.91048e-08
-1.5269e-08
2.67295e-08
-2.19762e-08
3.4834e-08
-2.98815e-08
4.32244e-08
-3.89634e-08
5.17343e-08
-4.91923e-08
6.02223e-08
-6.05313e-08
6.85681e-08
-7.29357e-08
7.66706e-08
-8.63542e-08
8.44453e-08
-1.00729e-07
9.18222e-08
-1.15998e-07
9.8744e-08
-1.32091e-07
1.05164e-07
-1.48938e-07
1.11046e-07
-1.66462e-07
1.16362e-07
-1.84586e-07
1.21089e-07
-2.03228e-07
1.25213e-07
-2.22307e-07
1.28725e-07
-2.4174e-07
1.31618e-07
-2.61444e-07
1.33893e-07
-2.81336e-07
1.35552e-07
-3.01333e-07
1.36601e-07
-3.21352e-07
1.37047e-07
-3.41313e-07
1.36902e-07
-3.61136e-07
1.36178e-07
-3.80744e-07
1.3489e-07
-4.00062e-07
1.33053e-07
-4.19014e-07
1.30684e-07
-4.37531e-07
1.27802e-07
-4.55543e-07
1.24426e-07
-4.72985e-07
1.20576e-07
-4.89792e-07
1.16272e-07
-5.05905e-07
1.11537e-07
-5.21267e-07
1.06392e-07
-5.35822e-07
1.0086e-07
-5.49521e-07
9.49646e-08
-5.62315e-07
8.87284e-08
-5.74159e-07
8.21756e-08
-5.85013e-07
7.53306e-08
-5.9484e-07
6.82182e-08
-6.03604e-07
6.08633e-08
-6.11276e-07
5.32913e-08
-6.17829e-07
4.55279e-08
-6.23239e-07
3.75992e-08
-6.27488e-07
2.95317e-08
-6.30559e-07
2.13519e-08
-6.32441e-07
1.3087e-08
-6.33125e-07
4.76431e-09
-6.32608e-07
-3.58846e-09
-6.30889e-07
-1.19433e-08
-6.27973e-07
-2.0272e-08
-6.23867e-07
-2.8546e-08
-6.18583e-07
-3.67366e-08
-6.12137e-07
-4.48146e-08
-6.04549e-07
-5.27511e-08
-5.95843e-07
-6.05166e-08
-5.86048e-07
-6.80818e-08