/*--------------------------------*- C++ -*----------------------------------*\
| =========                 |                                                 |
| \\      /  F ield         | OpenFOAM: The Open Source CFD Toolbox           |
|  \\    /   O peration     | Version:  2212                                  |
|   \\  /    A nd           | Website:  www.openfoam.com                      |
|    \\/     M anipulation  |                                                 |
\*---------------------------------------------------------------------------*/
FoamFile
{
    version     2.0;
    format      ascii;
    arch        "LSB;label=32;scalar=64";
    class       surfaceScalarField;
    location    "0.012";
    object      phi;
}
// * * * * * * * * * * * * * * * * * * * * * * * * * * * * * * * * * * * * * //

dimensions      [0 3 -1 0 0 0 0];

oriented        oriented;

internalField   nonuniform List<scalar> 
19800
(
6.38081e-11
-6.37315e-11
1.40385e-10
-7.65702e-11
1.61811e-10
-2.14346e-11
1.23236e-10
3.857e-11
1.85108e-11
1.04728e-10
-1.5866e-10
1.77173e-10
-4.1053e-10
2.51864e-10
-7.35969e-10
3.25448e-10
-1.13123e-09
3.95261e-10
-1.59105e-09
4.5983e-10
-2.10944e-09
5.18388e-10
-2.68005e-09
5.70619e-10
-3.29657e-09
6.16524e-10
-3.95264e-09
6.56068e-10
-4.64207e-09
6.89438e-10
-5.35911e-09
7.17053e-10
-6.09824e-09
7.39146e-10
-6.85441e-09
7.5617e-10
-7.62281e-09
7.68397e-10
-8.39885e-09
7.76029e-10
-9.17826e-09
7.79392e-10
-9.95721e-09
7.78947e-10
-1.07322e-08
7.74951e-10
-1.14999e-08
7.67755e-10
-1.22576e-08
7.57661e-10
-1.30024e-08
7.44848e-10
-1.37319e-08
7.295e-10
-1.44438e-08
7.11897e-10
-1.51361e-08
6.92266e-10
-1.58068e-08
6.70724e-10
-1.64543e-08
6.47444e-10
-1.70769e-08
6.22599e-10
-1.76732e-08
5.9635e-10
-1.8242e-08
5.68798e-10
-1.87821e-08
5.40043e-10
-1.92923e-08
5.10266e-10
-1.97719e-08
4.79557e-10
-2.02199e-08
4.47977e-10
-2.06355e-08
4.15588e-10
-2.10179e-08
3.82444e-10
-2.13665e-08
3.48632e-10
-2.16807e-08
3.14197e-10
-2.196e-08
2.79222e-10
-2.22038e-08
2.43839e-10
-2.24119e-08
2.08092e-10
-2.25839e-08
1.71977e-10
-2.27194e-08
1.35509e-10
-2.28181e-08
9.87516e-11
-2.28799e-08
6.18103e-11
-2.29047e-08
2.4756e-11
-2.28923e-08
-1.23684e-11
-2.28428e-08
-4.95295e-11
-2.27561e-08
-8.67112e-11
-2.26322e-08
-1.23854e-10
-2.24714e-08
-1.60866e-10
-2.22737e-08
-1.97704e-10
-2.20393e-08
-2.34346e-10
-2.17686e-08
-2.70709e-10
-2.14619e-08
-3.0668e-10
-2.11197e-08
-3.42201e-10
-2.07425e-08
-3.77246e-10
-2.03308e-08
-4.11726e-10
-1.98853e-08
-4.45503e-10
-1.94068e-08
-4.78488e-10
-1.88962e-08
-5.10615e-10
-1.83544e-08
-5.41781e-10
-1.77825e-08
-5.71877e-10
-1.71817e-08
-6.00807e-10
-1.65533e-08
-6.28426e-10
-1.58988e-08
-6.54536e-10
-1.52198e-08
-6.78985e-10
-1.45181e-08
-7.01672e-10
-1.37957e-08
-7.2244e-10
-1.30546e-08
-7.41029e-10
-1.22975e-08
-7.57169e-10
-1.15268e-08
-7.7067e-10
-1.07454e-08
-7.81358e-10
-9.95643e-09
-7.88991e-10
-9.16316e-09
-7.93272e-10
-8.36926e-09
-7.93905e-10
-7.57868e-09
-7.90585e-10
-6.79573e-09
-7.82956e-10
-6.02508e-09
-7.70649e-10
-5.27173e-09
-7.53347e-10
-4.54095e-09
-7.30777e-10
-3.83832e-09
-7.02631e-10
-3.16976e-09
-6.68558e-10
-2.54154e-09
-6.28225e-10
-1.96016e-09
-5.81387e-10
-1.43232e-09
-5.27843e-10
-9.64907e-10
-4.67415e-10
-5.64829e-10
-4.0008e-10
-2.38699e-10
-3.26129e-10
7.64442e-12
-2.46342e-10
1.69966e-10
-1.6232e-10
2.4682e-10
-7.68546e-11
2.42212e-10
4.60778e-12
1.70409e-10
7.18101e-11
6.61017e-11
1.04311e-10
6.61035e-11
1.25983e-10
-1.89706e-10
2.37036e-10
-1.87635e-10
2.12116e-10
3.50565e-12
1.7162e-11
2.33512e-10
-3.65646e-10
4.8754e-10
-9.4613e-10
7.57647e-10
-1.72607e-09
1.03181e-09
-2.70055e-09
1.29992e-09
-3.8598e-09
1.55452e-09
-5.19093e-09
1.79097e-09
-6.6788e-09
2.00627e-09
-8.30738e-09
2.19921e-09
-1.00602e-08
2.36937e-09
-1.19209e-08
2.51672e-09
-1.38734e-08
2.64194e-09
-1.59022e-08
2.74586e-09
-1.79925e-08
2.82944e-09
-2.01303e-08
2.89396e-09
-2.23023e-08
2.94041e-09
-2.44961e-08
2.96992e-09
-2.67004e-08
2.98367e-09
-2.89043e-08
2.98287e-09
-3.1098e-08
2.9686e-09
-3.32723e-08
2.94204e-09
-3.54188e-08
2.90415e-09
-3.75297e-08
2.85576e-09
-3.95979e-08
2.79775e-09
-4.1617e-08
2.73099e-09
-4.3581e-08
2.65624e-09
-4.54844e-08
2.57412e-09
-4.73223e-08
2.48532e-09
-4.90901e-08
2.39044e-09
-5.07838e-08
2.28999e-09
-5.23994e-08
2.18448e-09
-5.39338e-08
2.07438e-09
-5.53837e-08
1.96016e-09
-5.67463e-08
1.84219e-09
-5.80191e-08
1.72079e-09
-5.91998e-08
1.59627e-09
-6.02863e-08
1.46894e-09
-6.12767e-08
1.33907e-09
-6.21695e-08
1.20692e-09
-6.2963e-08
1.07276e-09
-6.3656e-08
9.36868e-10
-6.42474e-08
7.9946e-10
-6.47361e-08
6.60719e-10
-6.51214e-08
5.20797e-10
-6.54025e-08
3.79881e-10
-6.5579e-08
2.38262e-10
-6.56504e-08
9.61588e-11
-6.56165e-08
-4.63197e-11
-6.5477e-08
-1.88987e-10
-6.52321e-08
-3.31604e-10
-6.4882e-08
-4.73989e-10
-6.44269e-08
-6.15946e-10
-6.38674e-08
-7.5723e-10
-6.32041e-08
-8.9762e-10
-6.24379e-08
-1.0369e-09
-6.15698e-08
-1.1748e-09
-6.0601e-08
-1.311e-09
-5.9533e-08
-1.44526e-09
-5.83675e-08
-1.57728e-09
-5.71063e-08
-1.7067e-09
-5.57517e-08
-1.83311e-09
-5.43061e-08
-1.95614e-09
-5.27724e-08
-2.07547e-09
-5.11537e-08
-2.19062e-09
-4.94534e-08
-2.30108e-09
-4.76755e-08
-2.40632e-09
-4.58243e-08
-2.50579e-09
-4.39044e-08
-2.59893e-09
-4.19209e-08
-2.68509e-09
-3.98798e-08
-2.76361e-09
-3.77871e-08
-2.83373e-09
-3.56496e-08
-2.89465e-09
-3.34747e-08
-2.94551e-09
-3.12707e-08
-2.98541e-09
-2.90463e-08
-3.01344e-09
-2.68109e-08
-3.02862e-09
-2.45749e-08
-3.02988e-09
-2.23495e-08
-3.01604e-09
-2.01465e-08
-2.98594e-09
-1.79787e-08
-2.93842e-09
-1.58597e-08
-2.87237e-09
-1.38038e-08
-2.78665e-09
-1.18263e-08
-2.68011e-09
-9.94317e-09
-2.55172e-09
-8.17082e-09
-2.40058e-09
-6.52623e-09
-2.22598e-09
-5.02658e-09
-2.0275e-09
-3.68885e-09
-1.80514e-09
-2.52927e-09
-1.55966e-09
-1.56243e-09
-1.29298e-09
-8.00021e-10
-1.00875e-09
-2.48878e-10
-7.13458e-10
9.22887e-11
-4.1802e-10
2.37632e-10
-1.40731e-10
2.21061e-10
8.83776e-11
1.05104e-10
2.20254e-10
1.7122e-10
1.19288e-10
-3.09003e-10
1.72099e-10
-2.40422e-10
1.43612e-11
1.61238e-10
-4.09175e-10
6.57051e-10
-1.12526e-09
1.20363e-09
-2.14504e-09
1.77743e-09
-3.46844e-09
2.35521e-09
-5.08672e-09
2.9182e-09
-6.9851e-09
3.45293e-09
-9.14435e-09
3.95021e-09
-1.15425e-08
4.40446e-09
-1.4156e-08
4.81268e-09
-1.69603e-08
5.17366e-09
-1.99309e-08
5.48734e-09
-2.30436e-08
5.75471e-09
-2.62751e-08
5.97729e-09
-2.96026e-08
6.157e-09
-3.30047e-08
6.29597e-09
-3.64608e-08
6.39654e-09
-3.99518e-08
6.46091e-09
-4.34596e-08
6.49152e-09
-4.69675e-08
6.49073e-09
-5.04598e-08
6.46088e-09
-5.3922e-08
6.40422e-09
-5.73407e-08
6.32281e-09
-6.07035e-08
6.21858e-09
-6.39991e-08
6.0934e-09
-6.72172e-08
5.94902e-09
-7.0348e-08
5.78706e-09
-7.33829e-08
5.60901e-09
-7.63138e-08
5.41628e-09
-7.91336e-08
5.21017e-09
-8.18354e-08
4.99182e-09
-8.44132e-08
4.76232e-09
-8.68616e-08
4.52273e-09
-8.91754e-08
4.27399e-09
-9.13502e-08
4.01695e-09
-9.33817e-08
3.75237e-09
-9.52664e-08
3.48094e-09
-9.70008e-08
3.20335e-09
-9.8582e-08
2.92022e-09
-1.00007e-07
2.6321e-09
-1.01274e-07
2.33963e-09
-1.02381e-07
2.04335e-09
-1.03325e-07
1.74371e-09
-1.04105e-07
1.44114e-09
-1.0472e-07
1.13608e-09
-1.0517e-07
8.2897e-10
-1.05452e-07
5.20268e-10
-1.05566e-07
2.10428e-10
-1.05512e-07
-1.00141e-10
-1.0529e-07
-4.11055e-10
-1.049e-07
-7.21893e-10
-1.04341e-07
-1.03218e-09
-1.03616e-07
-1.34143e-09
-1.02724e-07
-1.6492e-09
-1.01667e-07
-1.95503e-09
-1.00445e-07
-2.25832e-09
-9.90615e-08
-2.55849e-09
-9.75175e-08
-2.85502e-09
-9.58155e-08
-3.1473e-09
-9.39582e-08
-3.43456e-09
-9.19489e-08
-3.71605e-09
-8.97909e-08
-3.99103e-09
-8.74884e-08
-4.25867e-09
-8.50459e-08
-4.51802e-09
-8.24684e-08
-4.7681e-09
-7.97615e-08
-5.00794e-09
-7.69315e-08
-5.23637e-09
-7.39852e-08
-5.45211e-09
-7.09302e-08
-5.65387e-09
-6.77749e-08
-5.84037e-09
-6.45284e-08
-6.01013e-09
-6.12007e-08
-6.16149e-09
-5.78026e-08
-6.29269e-09
-5.43462e-08
-6.40196e-09
-5.08441e-08
-6.48742e-09
-4.73105e-08
-6.54704e-09
-4.37605e-08
-6.57866e-09
-4.02103e-08
-6.58006e-09
-3.66774e-08
-6.54894e-09
-3.31804e-08
-6.48294e-09
-2.97392e-08
-6.37966e-09
-2.63748e-08
-6.23677e-09
-2.31094e-08
-6.05201e-09
-1.99663e-08
-5.82325e-09
-1.69695e-08
-5.54853e-09
-1.41438e-08
-5.22624e-09
-1.15145e-08
-4.85532e-09
-9.10649e-09
-4.43548e-09
-6.94415e-09
-3.96749e-09
-5.05008e-09
-3.45374e-09
-3.44395e-09
-2.8991e-09
-2.14064e-09
-2.31206e-09
-1.1476e-09
-1.70651e-09
-4.61154e-10
-1.10447e-09
-6.15714e-11
-5.40299e-10
9.29586e-11
-6.61543e-11
7.39106e-11
2.39311e-10
2.45128e-10
4.78282e-11
-3.56841e-10
-4.81335e-11
-1.44472e-10
-4.25007e-10
5.38116e-10
-1.14725e-09
1.37927e-09
-2.24657e-09
2.30294e-09
-3.73536e-09
3.26621e-09
-5.61229e-09
4.23214e-09
-7.86605e-09
5.17196e-09
-1.0478e-08
6.06489e-09
-1.34244e-08
6.89665e-09
-1.6678e-08
7.65807e-09
-2.02094e-08
8.34402e-09
-2.39878e-08
8.95209e-09
-2.79824e-08
9.48193e-09
-3.21624e-08
9.93467e-09
-3.64976e-08
1.03125e-08
-4.09588e-08
1.06182e-08
-4.55181e-08
1.08553e-08
-5.0149e-08
1.10274e-08
-5.48262e-08
1.11381e-08
-5.95261e-08
1.11914e-08
-6.42264e-08
1.1191e-08
-6.89064e-08
1.11409e-08
-7.35467e-08
1.10446e-08
-7.81295e-08
1.09056e-08
-8.26382e-08
1.07273e-08
-8.70577e-08
1.05129e-08
-9.13738e-08
1.02652e-08
-9.55738e-08
9.987e-09
-9.96457e-08
9.68095e-09
-1.03579e-07
9.34939e-09
-1.07363e-07
8.99455e-09
-1.1099e-07
8.61847e-09
-1.14451e-07
8.22301e-09
-1.17738e-07
7.80997e-09
-1.20845e-07
7.38095e-09
-1.23765e-07
6.9374e-09
-1.26494e-07
6.48075e-09
-1.29025e-07
6.01221e-09
-1.31354e-07
5.53292e-09
-1.33478e-07
5.04404e-09
-1.35393e-07
4.54654e-09
-1.37094e-07
4.04141e-09
-1.38581e-07
3.5296e-09
-1.39849e-07
3.01194e-09
-1.40897e-07
2.48924e-09
-1.41723e-07
1.96225e-09
-1.42326e-07
1.43175e-09
-1.42704e-07
8.98543e-10
-1.42857e-07
3.63327e-10
-1.42784e-07
-1.73211e-10
-1.42485e-07
-7.1025e-10
-1.4196e-07
-1.247e-09
-1.41209e-07
-1.78276e-09
-1.40234e-07
-2.31677e-09
-1.39035e-07
-2.8481e-09
-1.37614e-07
-3.3759e-09
-1.35973e-07
-3.89931e-09
-1.34114e-07
-4.41731e-09
-1.32041e-07
-4.92882e-09
-1.29755e-07
-5.43279e-09
-1.27262e-07
-5.92809e-09
-1.24564e-07
-6.41339e-09
-1.21668e-07
-6.88728e-09
-1.18578e-07
-7.34832e-09
-1.15301e-07
-7.79499e-09
-1.11844e-07
-8.2256e-09
-1.08213e-07
-8.63831e-09
-1.04419e-07
-9.03113e-09
-1.00469e-07
-9.40201e-09
-9.63739e-08
-9.74875e-09
-9.21453e-08
-1.0069e-08
-8.77953e-08
-1.03601e-08
-8.33375e-08
-1.06193e-08
-7.87864e-08
-1.08438e-08
-7.41579e-08
-1.10305e-08
-6.94692e-08
-1.11761e-08
-6.47391e-08
-1.12771e-08
-5.99877e-08
-1.13301e-08
-5.52363e-08
-1.13314e-08
-5.05082e-08
-1.12771e-08
-4.58278e-08
-1.11633e-08
-4.12212e-08
-1.09863e-08
-3.67156e-08
-1.07423e-08
-3.23399e-08
-1.04277e-08
-2.8124e-08
-1.00392e-08
-2.40987e-08
-9.57388e-09
-2.02953e-08
-9.02963e-09
-1.67453e-08
-8.40525e-09
-1.34799e-08
-7.70092e-09
-1.05287e-08
-6.91872e-09
-7.91889e-09
-6.06353e-09
-5.67372e-09
-5.14427e-09
-3.81028e-09
-4.1755e-09
-2.33696e-09
-3.17984e-09
-1.24992e-09
-2.1915e-09
-5.28906e-10
-1.26132e-09
-1.32438e-10
-4.62616e-10
7.98336e-12
9.88918e-11
2.53103e-10
-4.59985e-11
-3.10842e-10
-3.40631e-10
1.5016e-10
-9.92945e-10
1.19043e-09
-2.06393e-09
2.45025e-09
-3.5845e-09
3.8235e-09
-5.56583e-09
5.24753e-09
-8.00478e-09
6.6711e-09
-1.08877e-08
8.05488e-09
-1.41929e-08
9.37014e-09
-1.78931e-08
1.05969e-08
-2.1957e-08
1.17219e-08
-2.63504e-08
1.27374e-08
-3.10379e-08
1.36396e-08
-3.59833e-08
1.44273e-08
-4.11504e-08
1.51018e-08
-4.65039e-08
1.56659e-08
-5.20089e-08
1.61233e-08
-5.76322e-08
1.64786e-08
-6.33417e-08
1.67369e-08
-6.91073e-08
1.69036e-08
-7.49002e-08
1.69843e-08
-8.06935e-08
1.69844e-08
-8.6462e-08
1.69094e-08
-9.21821e-08
1.67646e-08
-9.78319e-08
1.65554e-08
-1.03391e-07
1.62865e-08
-1.08841e-07
1.59626e-08
-1.14164e-07
1.55883e-08
-1.19344e-07
1.51675e-08
-1.24368e-07
1.47042e-08
-1.2922e-07
1.4202e-08
-1.3389e-07
1.36642e-08
-1.38366e-07
1.3094e-08
-1.42637e-07
1.24942e-08
-1.46694e-07
1.18675e-08
-1.5053e-07
1.12163e-08
-1.54135e-07
1.05429e-08
-1.57504e-07
9.84926e-09
-1.60629e-07
9.13749e-09
-1.63505e-07
8.40932e-09
-1.66128e-07
7.66641e-09
-1.68491e-07
6.91035e-09
-1.70593e-07
6.14264e-09
-1.72428e-07
5.36465e-09
-1.73993e-07
4.57764e-09
-1.75287e-07
3.78291e-09
-1.76307e-07
2.98173e-09
-1.7705e-07
2.17522e-09
-1.77516e-07
1.36451e-09
-1.77703e-07
5.508e-10
-1.77612e-07
-2.64805e-10
-1.77241e-07
-1.08119e-09
-1.76591e-07
-1.89715e-09
-1.75662e-07
-2.71143e-09
-1.74456e-07
-3.52286e-09
-1.72974e-07
-4.33022e-09
-1.71218e-07
-5.13215e-09
-1.6919e-07
-5.92715e-09
-1.66893e-07
-6.71376e-09
-1.64332e-07
-7.49047e-09
-1.61509e-07
-8.2556e-09
-1.5843e-07
-9.00726e-09
-1.551e-07
-9.74352e-09
-1.51525e-07
-1.04624e-08
-1.47711e-07
-1.11616e-08
-1.43667e-07
-1.18388e-08
-1.39402e-07
-1.24914e-08
-1.34923e-07
-1.31166e-08
-1.30243e-07
-1.37115e-08
-1.25372e-07
-1.42729e-08
-1.20323e-07
-1.47975e-08
-1.15111e-07
-1.52817e-08
-1.09749e-07
-1.57216e-08
-1.04255e-07
-1.6113e-08
-9.86476e-08
-1.64516e-08
-9.29453e-08
-1.67328e-08
-8.71696e-08
-1.69518e-08
-8.13432e-08
-1.71035e-08
-7.54906e-08
-1.71827e-08
-6.96381e-08
-1.71838e-08
-6.38137e-08
-1.71015e-08
-5.80468e-08
-1.69302e-08
-5.23687e-08
-1.66644e-08
-4.68124e-08
-1.62987e-08
-4.14118e-08
-1.58282e-08
-3.62026e-08
-1.52485e-08
-3.12208e-08
-1.45557e-08
-2.65032e-08
-1.37472e-08
-2.20863e-08
-1.28221e-08
-1.80059e-08
-1.17813e-08
-1.42958e-08
-1.06288e-08
-1.09868e-08
-9.37255e-09
-8.10503e-09
-8.02607e-09
-5.66993e-09
-6.6106e-09
-3.69192e-09
-5.15783e-09
-2.16945e-09
-3.71397e-09
-1.08577e-09
-2.34501e-09
-4.05714e-10
-1.14267e-09
-7.21576e-11
-2.34672e-10
1.80946e-10
-1.41754e-10
-1.6909e-10
-6.53537e-10
6.61926e-10
-1.60953e-09
2.14642e-09
-3.05767e-09
3.89838e-09
-5.02234e-09
5.78816e-09
-7.51043e-09
7.73563e-09
-1.05155e-08
9.67617e-09
-1.40208e-08
1.15602e-08
-1.80017e-08
1.3351e-08
-2.24277e-08
1.50228e-08
-2.72639e-08
1.65581e-08
-3.24725e-08
1.79461e-08
-3.80142e-08
1.91812e-08
-4.38484e-08
2.02615e-08
-4.99346e-08
2.11881e-08
-5.62328e-08
2.19641e-08
-6.27038e-08
2.25943e-08
-6.93098e-08
2.30846e-08
-7.60142e-08
2.34414e-08
-8.27824e-08
2.36718e-08
-8.95813e-08
2.37832e-08
-9.638e-08
2.3783e-08
-1.03149e-07
2.36785e-08
-1.09862e-07
2.3477e-08
-1.16492e-07
2.31855e-08
-1.23016e-07
2.28106e-08
-1.29412e-07
2.23589e-08
-1.3566e-07
2.18364e-08
-1.41742e-07
2.12488e-08
-1.47639e-07
2.06016e-08
-1.53337e-07
1.98996e-08
-1.5882e-07
1.91476e-08
-1.64076e-07
1.83498e-08
-1.69092e-07
1.75104e-08
-1.73858e-07
1.66331e-08
-1.78362e-07
1.57212e-08
-1.82598e-07
1.4778e-08
-1.86555e-07
1.38063e-08
-1.90226e-07
1.2809e-08
-1.93605e-07
1.17885e-08
-1.96686e-07
1.07472e-08
-1.99463e-07
9.68732e-09
-2.01931e-07
8.61097e-09
-2.04087e-07
7.52012e-09
-2.05926e-07
6.4166e-09
-2.07445e-07
5.30215e-09
-2.08642e-07
4.17855e-09
-2.09514e-07
3.04751e-09
-2.1006e-07
1.91065e-09
-2.10279e-07
7.69515e-10
-2.1017e-07
-3.74268e-10
-2.09732e-07
-1.51896e-09
-2.08966e-07
-2.66294e-09
-2.07873e-07
-3.80461e-09
-2.06453e-07
-4.94219e-09
-2.0471e-07
-6.07379e-09
-2.02645e-07
-7.19754e-09
-2.0026e-07
-8.31154e-09
-1.9756e-07
-9.41365e-09
-1.94549e-07
-1.05016e-08
-1.91232e-07
-1.15731e-08
-1.87613e-07
-1.26255e-08
-1.83701e-07
-1.36562e-08
-1.79501e-07
-1.46623e-08
-1.75022e-07
-1.56406e-08
-1.70273e-07
-1.65878e-08
-1.65264e-07
-1.75004e-08
-1.60006e-07
-1.83744e-08
-1.54512e-07
-1.92058e-08
-1.48795e-07
-1.99901e-08
-1.4287e-07
-2.07227e-08
-1.36753e-07
-2.13985e-08
-1.30462e-07
-2.20121e-08
-1.24017e-07
-2.25579e-08
-1.17439e-07
-2.30297e-08
-1.10751e-07
-2.34214e-08
-1.03976e-07
-2.37263e-08
-9.71424e-08
-2.39373e-08
-9.02776e-08
-2.40475e-08
-8.3412e-08
-2.40494e-08
-7.65779e-08
-2.39357e-08
-6.98091e-08
-2.3699e-08
-6.31416e-08
-2.33319e-08
-5.66125e-08
-2.28277e-08
-5.02608e-08
-2.21799e-08
-4.41264e-08
-2.13829e-08
-3.82499e-08
-2.04321e-08
-3.26724e-08
-1.93247e-08
-2.74346e-08
-1.806e-08
-2.25759e-08
-1.664e-08
-1.81336e-08
-1.5071e-08
-1.41419e-08
-1.33643e-08
-1.06296e-08
-1.15383e-08
-7.61924e-09
-9.62097e-09
-5.12452e-09
-7.65254e-09
-3.14842e-09
-5.69009e-09
-1.68089e-09
-3.81253e-09
-6.97133e-10
-2.12641e-09
-1.56277e-10
-7.75531e-10
2.46776e-11
-2.32644e-10
6.35457e-11
-9.63036e-10
1.39231e-09
-2.23135e-09
3.41473e-09
-4.06762e-09
5.73464e-09
-6.48556e-09
8.20611e-09
-9.48492e-09
1.0735e-08
-1.30541e-08
1.32454e-08
-1.71724e-08
1.56784e-08
-2.18116e-08
1.79903e-08
-2.69379e-08
2.01491e-08
-3.25133e-08
2.21335e-08
-3.84968e-08
2.39296e-08
-4.48454e-08
2.55298e-08
-5.1515e-08
2.69312e-08
-5.84616e-08
2.81346e-08
-6.56412e-08
2.91437e-08
-7.30109e-08
2.9964e-08
-8.05288e-08
3.06025e-08
-8.81548e-08
3.10674e-08
-9.58504e-08
3.13674e-08
-1.03579e-07
3.15117e-08
-1.11306e-07
3.15097e-08
-1.18998e-07
3.13707e-08
-1.26625e-07
3.11041e-08
-1.34158e-07
3.07189e-08
-1.41571e-07
3.02237e-08
-1.48839e-07
2.96269e-08
-1.55939e-07
2.89363e-08
-1.6285e-07
2.81596e-08
-1.69552e-07
2.73036e-08
-1.76027e-07
2.63749e-08
-1.8226e-07
2.53798e-08
-1.88234e-07
2.43239e-08
-1.93936e-07
2.32125e-08
-1.99353e-07
2.20505e-08
-2.04475e-07
2.08426e-08
-2.09289e-07
1.95928e-08
-2.13788e-07
1.83051e-08
-2.17962e-07
1.69832e-08
-2.21804e-07
1.56304e-08
-2.25307e-07
1.42498e-08
-2.28464e-07
1.28445e-08
-2.3127e-07
1.14172e-08
-2.33721e-07
9.97043e-09
-2.35811e-07
8.50676e-09
-2.37537e-07
7.02865e-09
-2.38897e-07
5.53838e-09
-2.39888e-07
4.0381e-09
-2.40507e-07
2.53004e-09
-2.40754e-07
1.01646e-09
-2.40628e-07
-5.00506e-10
-2.40128e-07
-2.01873e-09
-2.39255e-07
-3.53595e-09
-2.3801e-07
-5.04988e-09
-2.36394e-07
-6.55821e-09
-2.34409e-07
-8.05854e-09
-2.32058e-07
-9.54832e-09
-2.29345e-07
-1.10249e-08
-2.26273e-07
-1.24854e-08
-2.22848e-07
-1.3927e-08
-2.19074e-07
-1.53466e-08
-2.14959e-07
-1.67406e-08
-2.1051e-07
-1.81055e-08
-2.05735e-07
-1.94376e-08
-2.00642e-07
-2.07326e-08
-1.95244e-07
-2.19863e-08
-1.89551e-07
-2.31937e-08
-1.83575e-07
-2.43498e-08
-1.77332e-07
-2.54493e-08
-1.70836e-07
-2.64862e-08
-1.64104e-07
-2.74544e-08
-1.57155e-07
-2.83473e-08
-1.50009e-07
-2.91578e-08
-1.42689e-07
-2.98785e-08
-1.35217e-07
-3.05015e-08
-1.2762e-07
-3.10185e-08
-1.19925e-07
-3.1421e-08
-1.12162e-07
-3.17e-08
-1.04363e-07
-3.18464e-08
-9.65621e-08
-3.18507e-08
-8.87943e-08
-3.17035e-08
-8.10976e-08
-3.13956e-08
-7.35118e-08
-3.09178e-08
-6.60779e-08
-3.02616e-08
-5.88388e-08
-2.94191e-08
-5.18381e-08
-2.83836e-08
-4.51204e-08
-2.71499e-08
-3.87302e-08
-2.57149e-08
-3.27117e-08
-2.40785e-08
-2.71076e-08
-2.22441e-08
-2.19586e-08
-2.02201e-08
-1.73016e-08
-1.80213e-08
-1.31692e-08
-1.56708e-08
-9.5872e-09
-1.32029e-08
-6.57421e-09
-1.06655e-08
-4.1394e-09
-8.1249e-09
-2.2817e-09
-5.67022e-09
-9.89092e-10
-3.41903e-09
-2.39017e-10
-1.5256e-09
-2.1434e-10
-3.1659e-10
3.80141e-10
-1.25853e-09
2.33423e-09
-2.83574e-09
4.99194e-09
-5.05869e-09
7.95759e-09
-7.92812e-09
1.10755e-08
-1.14347e-08
1.42415e-08
-1.55601e-08
1.73708e-08
-2.02785e-08
2.03968e-08
-2.55576e-08
2.32694e-08
-3.13601e-08
2.59516e-08
-3.76445e-08
2.8418e-08
-4.43667e-08
3.06518e-08
-5.14807e-08
3.26437e-08
-5.89392e-08
3.43897e-08
-6.6695e-08
3.58904e-08
-7.47009e-08
3.71495e-08
-8.29105e-08
3.81736e-08
-9.12789e-08
3.89709e-08
-9.97626e-08
3.9551e-08
-1.0832e-07
3.99244e-08
-1.1691e-07
4.01024e-08
-1.25497e-07
4.00962e-08
-1.34043e-07
3.99174e-08
-1.42517e-07
3.95774e-08
-1.50885e-07
3.90874e-08
-1.5912e-07
3.84581e-08
-1.67193e-07
3.76999e-08
-1.75079e-07
3.68226e-08
-1.82755e-07
3.58358e-08
-1.902e-07
3.47481e-08
-1.97393e-07
3.35679e-08
-2.04316e-07
3.23029e-08
-2.10952e-07
3.09604e-08
-2.17287e-07
2.95471e-08
-2.23305e-07
2.80691e-08
-2.28995e-07
2.65324e-08
-2.34345e-07
2.49422e-08
-2.39343e-07
2.33035e-08
-2.43981e-07
2.1621e-08
-2.48249e-07
1.98989e-08
-2.52141e-07
1.81414e-08
-2.55649e-07
1.63521e-08
-2.58766e-07
1.45346e-08
-2.61488e-07
1.26924e-08
-2.6381e-07
1.08285e-08
-2.65727e-07
8.94607e-09
-2.67237e-07
7.04807e-09
-2.68336e-07
5.1374e-09
-2.69023e-07
3.21685e-09
-2.69296e-07
1.2892e-09
-2.69153e-07
-6.42718e-10
-2.68596e-07
-2.57606e-09
-2.67624e-07
-4.508e-09
-2.66238e-07
-6.43569e-09
-2.6444e-07
-8.35612e-09
-2.62233e-07
-1.02661e-08
-2.59619e-07
-1.21624e-08
-2.56602e-07
-1.40418e-08
-2.53187e-07
-1.59005e-08
-2.49379e-07
-1.77349e-08
-2.45185e-07
-1.95408e-08
-2.40611e-07
-2.13141e-08
-2.35667e-07
-2.305e-08
-2.3036e-07
-2.47439e-08
-2.24703e-07
-2.63904e-08
-2.18705e-07
-2.79839e-08
-2.1238e-07
-2.95183e-08
-2.05743e-07
-3.09874e-08
-1.98808e-07
-3.23841e-08
-1.91593e-07
-3.37011e-08
-1.84117e-07
-3.49306e-08
-1.764e-07
-3.60642e-08
-1.68465e-07
-3.7093e-08
-1.60336e-07
-3.80078e-08
-1.52038e-07
-3.87986e-08
-1.43602e-07
-3.94552e-08
-1.35056e-07
-3.99669e-08
-1.26433e-07
-4.03224e-08
-1.17769e-07
-4.05106e-08
-1.091e-07
-4.05198e-08
-1.00465e-07
-4.03386e-08
-9.19051e-08
-3.99556e-08
-8.3463e-08
-3.93599e-08
-7.51834e-08
-3.85411e-08
-6.71124e-08
-3.74901e-08
-5.92969e-08
-3.61991e-08
-5.17846e-08
-3.46621e-08
-4.46234e-08
-3.28761e-08
-3.78604e-08
-3.08415e-08
-3.15416e-08
-2.85629e-08
-2.57106e-08
-2.60511e-08
-2.04078e-08
-2.33241e-08
-1.56693e-08
-2.04094e-08
-1.15257e-08
-1.73465e-08
-8.00106e-09
-1.41902e-08
-5.11228e-09
-1.10137e-08
-2.8685e-09
-7.91399e-09
-1.27164e-09
-5.01591e-09
-3.17732e-10
-2.47949e-09
-5.3208e-10
-3.93526e-10
7.73663e-10
-1.53591e-09
3.47662e-09
-3.41127e-09
6.8673e-09
-6.01121e-09
1.05575e-08
-9.32248e-09
1.43868e-08
-1.33255e-08
1.82445e-08
-1.79941e-08
2.20394e-08
-2.32965e-08
2.56993e-08
-2.91957e-08
2.91686e-08
-3.56503e-08
3.24062e-08
-4.26155e-08
3.53831e-08
-5.00437e-08
3.80801e-08
-5.78861e-08
4.0486e-08
-6.60924e-08
4.25961e-08
-7.46125e-08
4.44105e-08
-8.33963e-08
4.59334e-08
-9.23947e-08
4.7172e-08
-1.0156e-07
4.81359e-08
-1.10845e-07
4.88363e-08
-1.20206e-07
4.92853e-08
-1.296e-07
4.94963e-08
-1.38986e-07
4.94827e-08
-1.48327e-07
4.92581e-08
-1.57586e-07
4.88362e-08
-1.66729e-07
4.82305e-08
-1.75725e-07
4.74537e-08
-1.84544e-07
4.65187e-08
-1.93158e-07
4.54372e-08
-2.01543e-07
4.42206e-08
-2.09675e-07
4.28798e-08
-2.17531e-07
4.14248e-08
-2.25094e-07
3.98651e-08
-2.32343e-07
3.82096e-08
-2.39262e-07
3.64665e-08
-2.45837e-07
3.46435e-08
-2.52052e-07
3.27476e-08
-2.57895e-07
3.07855e-08
-2.63355e-07
2.87634e-08
-2.68421e-07
2.6687e-08
-2.73084e-07
2.45616e-08
-2.77335e-07
2.23921e-08
-2.81166e-07
2.01834e-08
-2.84571e-07
1.79397e-08
-2.87544e-07
1.56652e-08
-2.90079e-07
1.33639e-08
-2.92173e-07
1.10397e-08
-2.93821e-07
8.69621e-09
-2.9502e-07
6.337e-09
-2.95769e-07
3.9656e-09
-2.96066e-07
1.58556e-09
-2.95909e-07
-7.99699e-10
-2.95298e-07
-3.18669e-09
-2.94234e-07
-5.57185e-09
-2.92718e-07
-7.95158e-09
-2.90752e-07
-1.03221e-08
-2.88339e-07
-1.26796e-08
-2.85481e-07
-1.50201e-08
-2.82183e-07
-1.73394e-08
-2.78451e-07
-1.96329e-08
-2.7429e-07
-2.18961e-08
-2.69706e-07
-2.4124e-08
-2.64709e-07
-2.63113e-08
-2.59307e-07
-2.84523e-08
-2.5351e-07
-3.05411e-08
-2.47329e-07
-3.25711e-08
-2.40777e-07
-3.45355e-08
-2.33869e-07
-3.64268e-08
-2.26619e-07
-3.82373e-08
-2.19045e-07
-3.99583e-08
-2.11165e-07
-4.15809e-08
-2.03e-07
-4.30956e-08
-1.94572e-07
-4.4492e-08
-1.85906e-07
-4.57594e-08
-1.77027e-07
-4.68864e-08
-1.67965e-07
-4.7861e-08
-1.58749e-07
-4.86709e-08
-1.49413e-07
-4.93029e-08
-1.39992e-07
-4.97438e-08
-1.30523e-07
-4.99799e-08
-1.21045e-07
-4.99975e-08
-1.11601e-07
-4.97829e-08
-1.02234e-07
-4.93227e-08
-9.29894e-08
-4.8604e-08
-8.39157e-08
-4.76149e-08
-7.50612e-08
-4.63446e-08
-6.64761e-08
-4.47843e-08
-5.82107e-08
-4.29275e-08
-5.03158e-08
-4.0771e-08
-4.28416e-08
-3.83157e-08
-3.58369e-08
-3.55676e-08
-2.93487e-08
-3.25393e-08
-2.3421e-08
-2.92518e-08
-1.8094e-08
-2.57364e-08
-1.34034e-08
-2.20371e-08
-9.37997e-09
-1.82136e-08
-6.04883e-09
-1.43448e-08
-3.43e-09
-1.05328e-08
-1.53948e-09
-6.90643e-09
-3.91085e-10
-3.62789e-09
-9.23165e-10
-4.63814e-10
1.23748e-09
-1.79388e-09
4.80669e-09
-3.953e-09
9.02642e-09
-6.9151e-09
1.35196e-08
-1.06533e-08
1.8125e-08
-1.5137e-08
2.27283e-08
-2.03321e-08
2.72345e-08
-2.61999e-08
3.15671e-08
-3.26981e-08
3.56668e-08
-3.97809e-08
3.9489e-08
-4.73997e-08
4.30019e-08
-5.55038e-08
4.61842e-08
-6.4041e-08
4.90233e-08
-7.29585e-08
5.15136e-08
-8.22032e-08
5.36552e-08
-9.17226e-08
5.54527e-08
-1.01465e-07
5.69143e-08
-1.11379e-07
5.80505e-08
-1.21417e-07
5.88743e-08
-1.31532e-07
5.93997e-08
-1.41677e-07
5.96419e-08
-1.51811e-07
5.96167e-08
-1.61893e-07
5.93399e-08
-1.71884e-07
5.88274e-08
-1.81749e-07
5.80951e-08
-1.91453e-07
5.7158e-08
-2.00966e-07
5.60311e-08
-2.10257e-07
5.47286e-08
-2.193e-07
5.32638e-08
-2.2807e-07
5.16495e-08
-2.36543e-07
4.98979e-08
-2.44698e-07
4.80202e-08
-2.52515e-07
4.6027e-08
-2.59977e-07
4.39282e-08
-2.67067e-07
4.17329e-08
-2.73769e-07
3.94498e-08
-2.8007e-07
3.70867e-08
-2.85958e-07
3.46511e-08
-2.9142e-07
3.21498e-08
-2.96448e-07
2.95893e-08
-3.01032e-07
2.69756e-08
-3.05163e-07
2.43144e-08
-3.08834e-07
2.16108e-08
-3.12039e-07
1.88702e-08
-3.14772e-07
1.60972e-08
-3.17029e-07
1.32964e-08
-3.18805e-07
1.04724e-08
-3.20097e-07
7.6294e-09
-3.20904e-07
4.77178e-09
-3.21222e-07
1.90375e-09
-3.21051e-07
-9.70502e-10
-3.20391e-07
-3.84674e-09
-3.19242e-07
-6.72064e-09
-3.17606e-07
-9.58786e-09
-3.15484e-07
-1.24439e-08
-3.1288e-07
-1.52839e-08
-3.09797e-07
-1.81033e-08
-3.06239e-07
-2.08969e-08
-3.02213e-07
-2.36593e-08
-2.97724e-07
-2.63848e-08
-2.9278e-07
-2.90676e-08
-2.87391e-07
-3.17012e-08
-2.81564e-07
-3.42788e-08
-2.75312e-07
-3.67932e-08
-2.68647e-07
-3.92366e-08
-2.61581e-07
-4.16008e-08
-2.54131e-07
-4.38768e-08
-2.46313e-07
-4.60552e-08
-2.38146e-07
-4.81259e-08
-2.29649e-07
-5.00781e-08
-2.20844e-07
-5.19003e-08
-2.11756e-07
-5.35803e-08
-2.0241e-07
-5.51054e-08
-1.92834e-07
-5.64619e-08
-1.83059e-07
-5.76358e-08
-1.73118e-07
-5.86122e-08
-1.63045e-07
-5.93758e-08
-1.52878e-07
-5.99109e-08
-1.42656e-07
-6.02017e-08
-1.32422e-07
-6.0232e-08
-1.22219e-07
-5.99859e-08
-1.12093e-07
-5.94478e-08
-1.02094e-07
-5.8603e-08
-9.22716e-08
-5.74377e-08
-8.26763e-08
-5.59398e-08
-7.33613e-08
-5.40993e-08
-6.43798e-08
-5.1909e-08
-5.57851e-08
-4.93657e-08
-4.76303e-08
-4.64705e-08
-3.99675e-08
-4.32304e-08
-3.28468e-08
-3.966e-08
-2.63162e-08
-3.57824e-08
-2.04207e-08
-3.1632e-08
-1.52015e-08
-2.72563e-08
-1.06963e-08
-2.27188e-08
-6.93894e-09
-1.81021e-08
-3.96047e-09
-1.35113e-08
-1.79035e-09
-9.07653e-09
-4.5881e-10
-4.95944e-09
-1.38197e-09
-5.27993e-10
1.76547e-09
-2.0329e-09
6.31159e-09
-4.45949e-09
1.1453e-08
-7.76618e-09
1.68263e-08
-1.1913e-08
2.22718e-08
-1.6859e-08
2.76743e-08
-2.25611e-08
3.29366e-08
-2.89738e-08
3.79798e-08
-3.60491e-08
4.2742e-08
-4.37363e-08
4.71762e-08
-5.19828e-08
5.12484e-08
-6.07345e-08
5.49359e-08
-6.99361e-08
5.82248e-08
-7.95318e-08
6.11093e-08
-8.94661e-08
6.35894e-08
-9.96837e-08
6.56703e-08
-1.1013e-07
6.7361e-08
-1.20753e-07
6.86736e-08
-1.31502e-07
6.96224e-08
-1.42325e-07
7.02236e-08
-1.53178e-07
7.04943e-08
-1.64014e-07
7.04525e-08
-1.7479e-07
7.01165e-08
-1.85467e-07
6.95045e-08
-1.96007e-07
6.86347e-08
-2.06374e-07
6.75246e-08
-2.16534e-07
6.61914e-08
-2.26457e-07
6.46516e-08
-2.36114e-07
6.29208e-08
-2.45478e-07
6.10139e-08
-2.54525e-07
5.8945e-08
-2.63233e-07
5.67274e-08
-2.71579e-07
5.43733e-08
-2.79545e-07
5.18945e-08
-2.87114e-07
4.93017e-08
-2.94269e-07
4.66049e-08
-3.00996e-07
4.38135e-08
-3.07281e-07
4.09363e-08
-3.13112e-07
3.79813e-08
-3.18479e-07
3.49563e-08
-3.23372e-07
3.18682e-08
-3.27781e-07
2.87238e-08
-3.317e-07
2.55294e-08
-3.35121e-07
2.2291e-08
-3.38038e-07
1.90142e-08
-3.40446e-07
1.57047e-08
-3.42341e-07
1.23676e-08
-3.4372e-07
9.00809e-09
-3.44579e-07
5.63132e-09
-3.44918e-07
2.24231e-09
-3.44735e-07
-1.15398e-09
-3.44029e-07
-4.55252e-09
-3.42801e-07
-7.94821e-09
-3.41053e-07
-1.13358e-08
-3.38787e-07
-1.471e-08
-3.36006e-07
-1.80653e-08
-3.32713e-07
-2.13959e-08
-3.28914e-07
-2.46957e-08
-3.24615e-07
-2.79586e-08
-3.19822e-07
-3.11776e-08
-3.14544e-07
-3.43459e-08
-3.08789e-07
-3.74559e-08
-3.02568e-07
-4.04995e-08
-2.95893e-07
-4.34683e-08
-2.88777e-07
-4.6353e-08
-2.81234e-07
-4.91439e-08
-2.7328e-07
-5.18306e-08
-2.64933e-07
-5.4402e-08
-2.56213e-07
-5.68462e-08
-2.4714e-07
-5.91505e-08
-2.37739e-07
-6.13015e-08
-2.28035e-07
-6.3285e-08
-2.18054e-07
-6.5086e-08
-2.07827e-07
-6.66887e-08
-1.97386e-07
-6.80766e-08
-1.86766e-07
-6.92326e-08
-1.76003e-07
-7.01391e-08
-1.65136e-07
-7.07777e-08
-1.54207e-07
-7.11303e-08
-1.43261e-07
-7.11784e-08
-1.32343e-07
-7.09036e-08
-1.21502e-07
-7.02884e-08
-1.1079e-07
-6.93158e-08
-1.00257e-07
-6.79704e-08
-8.99584e-08
-6.62384e-08
-7.99488e-08
-6.41088e-08
-7.02842e-08
-6.15737e-08
-6.10205e-08
-5.86294e-08
-5.22137e-08
-5.52772e-08
-4.39191e-08
-5.15251e-08
-3.61905e-08
-4.73886e-08
-2.908e-08
-4.28929e-08
-2.26373e-08
-3.80746e-08
-1.691e-08
-3.29836e-08
-1.19426e-08
-2.76861e-08
-7.77806e-09
-2.22667e-08
-4.45775e-09
-1.68316e-08
-2.02382e-09
-1.15105e-08
-5.21207e-10
-6.46205e-09
-1.90317e-09
-5.86692e-10
2.35216e-09
-2.25374e-09
7.97863e-09
-4.93123e-09
1.41305e-08
-8.56384e-09
2.04589e-08
-1.30997e-08
2.68076e-08
-1.84875e-08
3.30621e-08
-2.46759e-08
3.9125e-08
-3.16122e-08
4.49161e-08
-3.92423e-08
5.03721e-08
-4.75105e-08
5.54445e-08
-5.63602e-08
6.0098e-08
-6.57332e-08
6.43089e-08
-7.55713e-08
6.80629e-08
-8.58158e-08
7.13538e-08
-9.64083e-08
7.41819e-08
-1.07291e-07
7.65532e-08
-1.18408e-07
7.84778e-08
-1.29704e-07
7.99692e-08
-1.41125e-07
8.10435e-08
-1.5262e-07
8.17188e-08
-1.6414e-07
8.20144e-08
-1.75638e-07
8.19506e-08
-1.87069e-07
8.15479e-08
-1.98392e-07
8.08271e-08
-2.09566e-07
7.98089e-08
-2.20555e-07
7.85132e-08
-2.31323e-07
7.69595e-08
-2.41838e-07
7.51668e-08
-2.5207e-07
7.3153e-08
-2.61992e-07
7.09351e-08
-2.71576e-07
6.85293e-08
-2.80799e-07
6.59509e-08
-2.8964e-07
6.32141e-08
-2.98078e-07
6.03323e-08
-3.06094e-07
5.7318e-08
-3.13672e-07
5.41828e-08
-3.20796e-07
5.09376e-08
-3.27452e-07
4.75924e-08
-3.33628e-07
4.41569e-08
-3.39311e-07
4.06397e-08
-3.44492e-07
3.70491e-08
-3.49161e-07
3.33929e-08
-3.53311e-07
2.96785e-08
-3.56933e-07
2.59129e-08
-3.60021e-07
2.21027e-08
-3.62571e-07
1.82543e-08
-3.64577e-07
1.43738e-08
-3.66036e-07
1.04674e-08
-3.66946e-07
6.54084e-09
-3.67303e-07
2.60011e-09
-3.67108e-07
-1.34902e-09
-3.6636e-07
-5.30067e-09
-3.6506e-07
-9.24887e-09
-3.63208e-07
-1.31876e-08
-3.60807e-07
-1.71105e-08
-3.57861e-07
-2.10113e-08
-3.54374e-07
-2.48832e-08
-3.5035e-07