/*--------------------------------*- C++ -*----------------------------------*\
| =========                 |                                                 |
| \\      /  F ield         | OpenFOAM: The Open Source CFD Toolbox           |
|  \\    /   O peration     | Version:  2212                                  |
|   \\  /    A nd           | Website:  www.openfoam.com                      |
|    \\/     M anipulation  |                                                 |
\*---------------------------------------------------------------------------*/
FoamFile
{
    version     2.0;
    format      ascii;
    arch        "LSB;label=32;scalar=64";
    class       volVectorField;
    location    "0.012";
    object      U_0;
}
// * * * * * * * * * * * * * * * * * * * * * * * * * * * * * * * * * * * * * //

dimensions      [0 1 -1 0 0 0 0];

internalField   nonuniform List<vector> 
10000
(
(1.02945e-07 -6.63359e-06 0)
(1.30296e-05 -9.76614e-06 0)
(2.24785e-05 -5.69279e-06 0)
(2.87314e-05 -2.59763e-06 0)
(2.44645e-05 6.23205e-07 0)
(1.17106e-05 3.68518e-06 0)
(-9.63156e-06 6.54577e-06 0)
(-3.91544e-05 9.1804e-06 0)
(-7.62647e-05 1.15533e-05 0)
(-0.000120284 1.36471e-05 0)
(-0.000170513 1.54769e-05 0)
(-0.00022625 1.70679e-05 0)
(-0.000286804 1.84384e-05 0)
(-0.000351505 1.95999e-05 0)
(-0.000419719 2.05664e-05 0)
(-0.000490845 2.13515e-05 0)
(-0.000564315 2.19676e-05 0)
(-0.000639596 2.24257e-05 0)
(-0.000716194 2.27412e-05 0)
(-0.000793652 2.29248e-05 0)
(-0.000871543 2.29803e-05 0)
(-0.000949474 2.29205e-05 0)
(-0.00102709 2.2759e-05 0)
(-0.00110405 2.25069e-05 0)
(-0.00118007 2.21794e-05 0)
(-0.00125487 2.1782e-05 0)
(-0.00132821 2.13123e-05 0)
(-0.00139987 2.07766e-05 0)
(-0.00146963 2.01825e-05 0)
(-0.0015373 1.95359e-05 0)
(-0.00160271 1.88455e-05 0)
(-0.0016657 1.81167e-05 0)
(-0.00172613 1.73473e-05 0)
(-0.00178386 1.65365e-05 0)
(-0.00183878 1.56891e-05 0)
(-0.00189077 1.48091e-05 0)
(-0.00193973 1.38996e-05 0)
(-0.00198558 1.29663e-05 0)
(-0.00202822 1.20131e-05 0)
(-0.00206759 1.10393e-05 0)
(-0.00210362 1.00447e-05 0)
(-0.00213626 9.03436e-06 0)
(-0.00216545 8.01696e-06 0)
(-0.00219117 6.99611e-06 0)
(-0.00221339 5.96843e-06 0)
(-0.00223207 4.93108e-06 0)
(-0.00224719 3.88621e-06 0)
(-0.00225873 2.83833e-06 0)
(-0.00226667 1.79034e-06 0)
(-0.002271 7.41953e-07 0)
(-0.00227172 -3.08538e-07 0)
(-0.00226881 -1.36202e-06 0)
(-0.00226228 -2.4181e-06 0)
(-0.00225212 -3.47589e-06 0)
(-0.00223834 -4.53416e-06 0)
(-0.00222094 -5.59059e-06 0)
(-0.00219994 -6.64251e-06 0)
(-0.00217535 -7.68803e-06 0)
(-0.0021472 -8.72618e-06 0)
(-0.00211553 -9.75693e-06 0)
(-0.00208037 -1.07795e-05 0)
(-0.00204176 -1.17903e-05 0)
(-0.00199976 -1.27837e-05 0)
(-0.00195443 -1.37553e-05 0)
(-0.00190585 -1.47022e-05 0)
(-0.0018541 -1.56224e-05 0)
(-0.0017993 -1.65134e-05 0)
(-0.00174154 -1.73699e-05 0)
(-0.00168096 -1.81857e-05 0)
(-0.0016177 -1.89548e-05 0)
(-0.00155191 -1.96732e-05 0)
(-0.00148376 -2.03388e-05 0)
(-0.00141344 -2.09504e-05 0)
(-0.00134114 -2.15062e-05 0)
(-0.00126707 -2.20011e-05 0)
(-0.00119148 -2.24266e-05 0)
(-0.00111461 -2.27727e-05 0)
(-0.00103676 -2.30298e-05 0)
(-0.000958237 -2.31898e-05 0)
(-0.000879388 -2.32453e-05 0)
(-0.000800583 -2.31871e-05 0)
(-0.000722227 -2.30039e-05 0)
(-0.000644755 -2.26833e-05 0)
(-0.000568639 -2.22132e-05 0)
(-0.000494388 -2.15808e-05 0)
(-0.000422549 -2.07725e-05 0)
(-0.000353708 -1.97739e-05 0)
(-0.000288487 -1.85711e-05 0)
(-0.000227541 -1.71507e-05 0)
(-0.00017155 -1.55002e-05 0)
(-0.000121215 -1.36081e-05 0)
(-7.72445e-05 -1.14659e-05 0)
(-4.03356e-05 -9.07119e-06 0)
(-1.11441e-05 -6.43373e-06 0)
(9.77274e-06 -3.58798e-06 0)
(2.20571e-05 -6.18918e-07 0)
(2.57157e-05 2.27761e-06 0)
(2.15115e-05 4.66354e-06 0)
(1.21429e-05 5.60507e-06 0)
(3.35984e-06 3.36994e-06 0)
(1.33225e-06 -1.11895e-05 0)
(1.23594e-05 -2.21712e-05 0)
(2.2178e-05 -1.21218e-05 0)
(1.73233e-05 1.73643e-06 0)
(-7.27263e-06 1.79155e-05 0)
(-5.28716e-05 3.45841e-05 0)
(-0.000119912 5.08398e-05 0)
(-0.000207843 6.61967e-05 0)
(-0.000315516 8.0389e-05 0)
(-0.000441448 9.32647e-05 0)
(-0.000583995 0.000104776 0)
(-0.00074143 0.000114931 0)
(-0.000912004 0.000123769 0)
(-0.00109399 0.000131337 0)
(-0.00128572 0.000137693 0)
(-0.00148557 0.000142901 0)
(-0.00169202 0.000147027 0)
(-0.00190362 0.000150143 0)
(-0.002119 0.000152316 0)
(-0.00233692 0.000153621 0)
(-0.00255617 0.000154119 0)
(-0.00277567 0.000153867 0)
(-0.00299441 0.000152933 0)
(-0.00321146 0.000151379 0)
(-0.00342597 0.000149262 0)
(-0.00363715 0.000146634 0)
(-0.00384429 0.000143534 0)
(-0.00404673 0.000139998 0)
(-0.00424387 0.000136061 0)
(-0.00443517 0.000131759 0)
(-0.00462014 0.000127129 0)
(-0.0047983 0.000122204 0)
(-0.00496924 0.000117006 0)
(-0.0051326 0.000111557 0)
(-0.00528803 0.000105876 0)
(-0.0054352 9.9985e-05 0)
(-0.00557384 9.3902e-05 0)
(-0.00570369 8.76476e-05 0)
(-0.00582453 8.12418e-05 0)
(-0.00593613 7.47006e-05 0)
(-0.00603832 6.80396e-05 0)
(-0.00613094 6.12769e-05 0)
(-0.00621384 5.44308e-05 0)
(-0.00628691 4.75152e-05 0)
(-0.00635002 4.05378e-05 0)
(-0.00640309 3.35052e-05 0)
(-0.00644605 2.64261e-05 0)
(-0.00647883 1.93096e-05 0)
(-0.00650136 1.21637e-05 0)
(-0.00651361 4.99557e-06 0)
(-0.00651556 -2.18697e-06 0)
(-0.00650719 -9.37651e-06 0)
(-0.00648849 -1.6568e-05 0)
(-0.00645946 -2.37567e-05 0)
(-0.00642012 -3.09355e-05 0)
(-0.00637051 -3.80938e-05 0)
(-0.00631068 -4.52176e-05 0)
(-0.0062407 -5.22933e-05 0)
(-0.00616065 -5.93092e-05 0)
(-0.00607062 -6.62553e-05 0)
(-0.00597073 -7.31204e-05 0)
(-0.00586112 -7.9888e-05 0)
(-0.00574198 -8.65366e-05 0)
(-0.00561348 -9.30429e-05 0)
(-0.00547584 -9.93839e-05 0)
(-0.00532931 -0.000105537 0)
(-0.00517418 -0.00011148 0)
(-0.00501077 -0.000117189 0)
(-0.00483942 -0.000122634 0)
(-0.00466054 -0.000127786 0)
(-0.00447457 -0.000132616 0)
(-0.00428196 -0.000137095 0)
(-0.00408326 -0.000141196 0)
(-0.00387902 -0.000144888 0)
(-0.00366987 -0.000148133 0)
(-0.0034565 -0.000150888 0)
(-0.00323966 -0.000153102 0)
(-0.00302015 -0.000154718 0)
(-0.00279888 -0.000155682 0)
(-0.0025768 -0.000155938 0)
(-0.00235497 -0.000155427 0)
(-0.00213451 -0.000154086 0)
(-0.00191664 -0.00015185 0)
(-0.00170267 -0.000148646 0)
(-0.00149399 -0.000144402 0)
(-0.00129208 -0.000139047 0)
(-0.00109851 -0.000132512 0)
(-0.000914903 -0.000124732 0)
(-0.000742974 -0.000115655 0)
(-0.00058446 -0.000105242 0)
(-0.000441113 -9.34746e-05 0)
(-0.000314653 -8.03676e-05 0)
(-0.000206695 -6.59876e-05 0)
(-0.000118653 -5.04938e-05 0)
(-5.1575e-05 -3.42028e-05 0)
(-5.89665e-06 -1.77035e-05 0)
(1.8909e-05 -2.06868e-06 0)
(2.49522e-05 1.07866e-05 0)
(1.7366e-05 1.74579e-05 0)
(5.54575e-06 1.20987e-05 0)
(3.4476e-06 -2.01938e-05 0)
(8.97982e-06 -2.70612e-05 0)
(2.5527e-06 -6.08971e-06 0)
(-2.4985e-05 2.81754e-05 0)
(-8.02377e-05 6.88896e-05 0)
(-0.000165822 0.000111882 0)
(-0.000282575 0.000154581 0)
(-0.000430013 0.000195475 0)
(-0.000606763 0.000233684 0)
(-0.000810887 0.000268711 0)
(-0.00104012 0.00030031 0)
(-0.00129202 0.000328399 0)
(-0.00156406 0.000352992 0)
(-0.0018537 0.000374168 0)
(-0.00215843 0.000392047 0)
(-0.00247583 0.000406775 0)
(-0.00280356 0.000418514 0)
(-0.00313941 0.000427441 0)
(-0.00348127 0.000433739 0)
(-0.00382718 0.000437582 0)
(-0.0041753 0.000439151 0)
(-0.0045239 0.000438616 0)
(-0.00487139 0.000436135 0)
(-0.00521629 0.00043187 0)
(-0.00555727 0.000425978 0)
(-0.00589304 0.000418594 0)
(-0.00622247 0.000409841 0)
(-0.0065445 0.000399835 0)
(-0.00685818 0.00038868 0)
(-0.00716262 0.000376473 0)
(-0.00745701 0.000363313 0)
(-0.00774064 0.000349288 0)
(-0.00801282 0.000334471 0)
(-0.00827296 0.000318933 0)
(-0.0085205 0.00030274 0)
(-0.00875494 0.000285949 0)
(-0.00897583 0.000268614 0)
(-0.00918276 0.000250788 0)
(-0.00937535 0.000232525 0)
(-0.00955328 0.000213871 0)
(-0.00971625 0.000194871 0)
(-0.00986399 0.000175567 0)
(-0.00999626 0.000156001 0)
(-0.0101128 0.000136208 0)
(-0.0102136 0.000116217 0)
(-0.0102983 9.60566e-05 0)
(-0.0103668 7.57528e-05 0)
(-0.0104191 5.53299e-05 0)
(-0.010455 3.48122e-05 0)
(-0.0104745 1.42236e-05 0)
(-0.0104775 -6.41067e-06 0)
(-0.010464 -2.70652e-05 0)
(-0.010434 -4.77173e-05 0)
(-0.0103875 -6.83453e-05 0)
(-0.0103246 -8.89237e-05 0)
(-0.0102453 -0.000109423 0)
(-0.0101496 -0.00012981 0)
(-0.0100378 -0.000150049 0)
(-0.00990995 -0.000170105 0)
(-0.00976622 -0.000189942 0)
(-0.00960682 -0.000209521 0)
(-0.009432 -0.000228798 0)
(-0.00924202 -0.000247722 0)
(-0.00903721 -0.000266234 0)
(-0.00881791 -0.000284274 0)
(-0.00858454 -0.000301779 0)
(-0.00833753 -0.000318681 0)
(-0.0080774 -0.000334911 0)
(-0.00780471 -0.000350393 0)
(-0.00752009 -0.000365047 0)
(-0.00722422 -0.000378788 0)
(-0.00691787 -0.000391529 0)
(-0.00660186 -0.000403178 0)
(-0.00627712 -0.000413633 0)
(-0.00594465 -0.000422785 0)
(-0.00560556 -0.00043051 0)
(-0.00526104 -0.000436672 0)
(-0.00491239 -0.000441127 0)
(-0.00456104 -0.000443721 0)
(-0.0042085 -0.000444298 0)
(-0.00385644 -0.000442697 0)
(-0.00350662 -0.000438747 0)
(-0.00316095 -0.000432275 0)
(-0.00282147 -0.000423101 0)
(-0.00249031 -0.000411045 0)
(-0.00216975 -0.000395931 0)
(-0.00186217 -0.000377599 0)
(-0.00157002 -0.000355908 0)
(-0.00129583 -0.000330752 0)
(-0.00104216 -0.000302075 0)
(-0.00081155 -0.000269896 0)
(-0.000606421 -0.000234337 0)
(-0.000429005 -0.000195686 0)
(-0.000281166 -0.000154488 0)
(-0.000164188 -0.000111693 0)
(-7.84669e-05 -6.88901e-05 0)
(-2.31077e-05 -2.86813e-05 0)
(4.67648e-06 4.7975e-06 0)
(1.06632e-05 2.50288e-05 0)
(4.58973e-06 2.13694e-05 0)
(1.76375e-06 -2.20332e-05 0)
(-2.72337e-06 -1.94248e-05 0)
(-2.96679e-05 2.23201e-05 0)
(-8.62132e-05 8.51317e-05 0)
(-0.00017809 0.000158871 0)
(-0.000308139 0.000236967 0)
(-0.000477241 0.000315047 0)
(-0.000684857 0.000390351 0)
(-0.000929451 0.000461177 0)
(-0.00120878 0.000526512 0)
(-0.00152015 0.000585779 0)
(-0.00186059 0.000638717 0)
(-0.00222699 0.000685269 0)
(-0.00261618 0.000725513 0)
(-0.00302501 0.000759615 0)
(-0.00345039 0.000787813 0)
(-0.00388931 0.000810383 0)
(-0.00433892 0.000827621 0)
(-0.0047965 0.000839851 0)
(-0.00525945 0.000847396 0)
(-0.00572536 0.000850572 0)
(-0.00619196 0.000849698 0)
(-0.00665715 0.000845079 0)
(-0.00711896 0.000837003 0)
(-0.00757558 0.000825751 0)
(-0.00802532 0.000811587 0)
(-0.00846666 0.00079475 0)
(-0.00889817 0.000775464 0)
(-0.00931856 0.000753942 0)
(-0.00972664 0.000730376 0)
(-0.0101213 0.000704942 0)
(-0.0105016 0.000677809 0)
(-0.0108666 0.000649129 0)
(-0.0112156 0.000619043 0)
(-0.0115476 0.000587675 0)
(-0.0118621 0.000555144 0)
(-0.0121585 0.000521559 0)
(-0.0124362 0.000487022 0)
(-0.0126947 0.000451626 0)
(-0.0129335 0.000415464 0)
(-0.0131523 0.000378619 0)
(-0.0133506 0.00034117 0)
(-0.0135282 0.000303189 0)
(-0.0136847 0.000264741 0)
(-0.0138199 0.000225889 0)
(-0.0139336 0.000186692 0)
(-0.0140256 0.000147203 0)
(-0.0140957 0.000107473 0)
(-0.0141439 6.75508e-05 0)
(-0.0141699 2.74882e-05 0)
(-0.0141738 -1.26645e-05 0)
(-0.0141556 -5.28567e-05 0)
(-0.0141151 -9.30379e-05 0)
(-0.0140525 -0.000133158 0)
(-0.0139677 -0.000173161 0)
(-0.013861 -0.00021299 0)
(-0.0137324 -0.000252582 0)
(-0.0135821 -0.000291871 0)
(-0.0134103 -0.000330789 0)
(-0.0132172 -0.000369261 0)
(-0.0130031 -0.000407208 0)
(-0.0127683 -0.000444543 0)
(-0.0125133 -0.000481172 0)
(-0.0122384 -0.000516991 0)
(-0.0119441 -0.000551888 0)
(-0.0116311 -0.000585744 0)
(-0.0112998 -0.000618429 0)
(-0.010951 -0.000649809 0)
(-0.0105854 -0.000679738 0)
(-0.0102039 -0.000708062 0)
(-0.00980746 -0.000734616 0)
(-0.00939701 -0.000759227 0)
(-0.0089737 -0.000781705 0)
(-0.00853878 -0.000801852 0)
(-0.00809361 -0.000819446 0)
(-0.00763965 -0.000834252 0)
(-0.00717852 -0.000846017 0)
(-0.00671195 -0.000854469 0)
(-0.00624184 -0.000859325 0)
(-0.00577021 -0.000860291 0)
(-0.00529925 -0.000857063 0)
(-0.0048313 -0.000849328 0)
(-0.00436886 -0.000836769 0)
(-0.00391459 -0.000819068 0)
(-0.00347126 -0.00079591 0)
(-0.00304182 -0.000767002 0)
(-0.0026293 -0.000732077 0)
(-0.00223684 -0.000690918 0)
(-0.00186761 -0.000643378 0)
(-0.00152481 -0.000589416 0)
(-0.00121155 -0.000529139 0)
(-0.000930787 -0.000462867 0)
(-0.000685164 -0.000391235 0)
(-0.000476863 -0.000315336 0)
(-0.000307348 -0.000236947 0)
(-0.000177072 -0.000158865 0)
(-8.50799e-05 -8.53859e-05 0)
(-2.84939e-05 -2.29276e-05 0)
(-2.05274e-06 1.90212e-05 0)
(2.23353e-06 2.54876e-05 0)
(-6.85993e-07 -1.88639e-05 0)
(-1.74331e-05 5.6038e-06 0)
(-6.85006e-05 7.77011e-05 0)
(-0.000157985 0.000177078 0)
(-0.000290071 0.000291211 0)
(-0.000467279 0.000411498 0)
(-0.000690262 0.00053192 0)
(-0.000958257 0.000648457 0)
(-0.0012695 0.000758509 0)
(-0.00162147 0.000860439 0)
(-0.00201115 0.000953273 0)
(-0.00243516 0.0010365 0)
(-0.00288993 0.00110993 0)
(-0.00337181 0.0011736 0)
(-0.00387711 0.00122773 0)
(-0.00440221 0.0012726 0)
(-0.00494358 0.00130862 0)
(-0.0054978 0.00133623 0)
(-0.00606162 0.00135589 0)
(-0.00663195 0.00136808 0)
(-0.00720586 0.00137331 0)
(-0.00778061 0.00137204 0)
(-0.00835362 0.00136475 0)
(-0.00892252 0.0013519 0)
(-0.00948509 0.00133393 0)
(-0.0100392 0.00131123 0)
(-0.0105831 0.0012842 0)
(-0.011115 0.00125321 0)
(-0.0116332 0.00121857 0)
(-0.0121363 0.00118062 0)
(-0.0126229 0.00113964 0)
(-0.0130919 0.0010959 0)
(-0.0135421 0.00104963 0)
(-0.0139725 0.00100108 0)
(-0.0143821 0.000950439 0)
(-0.0147702 0.00089791 0)
(-0.0151359 0.000843666 0)
(-0.0154785 0.000787873 0)
(-0.0157975 0.000730683 0)
(-0.0160922 0.000672239 0)
(-0.0163622 0.000612674 0)
(-0.016607 0.000552112 0)
(-0.0168261 0.000490669 0)
(-0.0170193 0.000428453 0)
(-0.0171861 0.000365565 0)
(-0.0173264 0.000302099 0)
(-0.0174399 0.000238145 0)
(-0.0175263 0.000173793 0)
(-0.0175856 0.000109127 0)
(-0.0176177 4.42326e-05 0)
(-0.0176223 -2.08062e-05 0)
(-0.0175996 -8.59062e-05 0)
(-0.0175494 -0.000150982 0)
(-0.0174719 -0.000215945 0)
(-0.0173671 -0.000280701 0)
(-0.0172352 -0.000345155 0)
(-0.0170762 -0.000409206 0)
(-0.0168905 -0.000472747 0)
(-0.0166782 -0.000535666 0)
(-0.0164397 -0.000597842 0)
(-0.0161753 -0.000659144 0)
(-0.0158855 -0.000719432 0)
(-0.0155707 -0.000778554 0)
(-0.0152314 -0.000836347 0)
(-0.0148683 -0.000892636 0)
(-0.0144821 -0.00094723 0)
(-0.0140735 -0.000999926 0)
(-0.0136433 -0.00105051 0)
(-0.0131926 -0.00109874 0)
(-0.0127223 -0.00114436 0)
(-0.0122336 -0.00118713 0)
(-0.0117278 -0.00122674 0)
(-0.0112062 -0.00126289 0)
(-0.0106704 -0.00129526 0)
(-0.0101221 -0.00132349 0)
(-0.009563 -0.0013472 0)
(-0.00899516 -0.001366 0)
(-0.0084207 -0.00137945 0)
(-0.00784191 -0.00138712 0)
(-0.00726127 -0.00138855 0)
(-0.00668143 -0.00138326 0)
(-0.00610524 -0.00137078 0)
(-0.00553569 -0.00135062 0)
(-0.00497597 -0.0013223 0)
(-0.00442941 -0.00128536 0)
(-0.00389949 -0.00123939 0)
(-0.00338979 -0.00118402 0)
(-0.002904 -0.00111895 0)
(-0.00244582 -0.00104404 0)
(-0.00201893 -0.000959296 0)
(-0.00162689 -0.00086496 0)
(-0.00127306 -0.000761624 0)
(-0.00096042 -0.000650352 0)
(-0.000691424 -0.000532875 0)
(-0.000467761 -0.00041187 0)
(-0.000290102 -0.000291358 0)
(-0.000157736 -0.000177248 0)
(-6.81589e-05 -7.79869e-05 0)
(-1.7424e-05 -5.54654e-06 0)
(-6.00986e-07 2.18628e-05 0)
(-3.37964e-06 -7.22804e-06 0)
(-3.32257e-05 5.08316e-05 0)
(-0.000110044 0.000162818 0)
(-0.000234418 0.000306765 0)
(-0.000408572 0.000468344 0)
(-0.000634295 0.000637266 0)
(-0.000911756 0.000806092 0)
(-0.00123981 0.00096965 0)
(-0.00161637 0.00112445 0)
(-0.00203864 0.00126822 0)
(-0.00250328 0.00139952 0)
(-0.00300657 0.00151755 0)
(-0.00354458 0.00162197 0)
(-0.00411323 0.00171273 0)
(-0.00470845 0.00179006 0)
(-0.00532614 0.00185432 0)
(-0.00596234 0.00190601 0)
(-0.00661319 0.0019457 0)
(-0.00727498 0.00197404 0)
(-0.00794417 0.00199166 0)
(-0.00861741 0.00199926 0)
(-0.00929155 0.00199749 0)
(-0.00996362 0.00198702 0)
(-0.0106309 0.00196848 0)
(-0.0112907 0.0019425 0)
(-0.0119407 0.00190965 0)
(-0.0125787 0.00187049 0)
(-0.0132026 0.00182554 0)
(-0.0138106 0.00177528 0)
(-0.014401 0.00172016 0)
(-0.0149721 0.00166061 0)
(-0.0155225 0.00159701 0)
(-0.0160509 0.00152972 0)
(-0.0165561 0.00145908 0)
(-0.017037 0.00138538 0)
(-0.0174926 0.0013089 0)
(-0.0179219 0.00122992 0)
(-0.0183243 0.00114866 0)
(-0.0186988 0.00106534 0)
(-0.0190449 0.000980186 0)
(-0.0193619 0.000893373 0)
(-0.0196493 0.000805088 0)
(-0.0199067 0.000715499 0)
(-0.0201334 0.000624763 0)
(-0.0203293 0.00053303 0)
(-0.020494 0.000440439 0)
(-0.0206271 0.000347125 0)
(-0.0207286 0.000253219 0)
(-0.020798 0.000158852 0)
(-0.0208355 6.41509e-05 0)
(-0.0208408 -3.07591e-05 0)
(-0.0208139 -0.000125751 0)
(-0.0207548 -0.000220697 0)
(-0.0206635 -0.000315463 0)
(-0.0205402 -0.000409914 0)
(-0.020385 -0.000503905 0)
(-0.0201982 -0.000597287 0)
(-0.0199798 -0.000689902 0)
(-0.0197303 -0.000781585 0)
(-0.0194501 -0.000872158 0)
(-0.0191395 -0.000961432 0)
(-0.018799 -0.0010492 0)
(-0.0184292 -0.00113525 0)
(-0.0180308 -0.00121934 0)
(-0.0176045 -0.00130121 0)
(-0.0171511 -0.0013806 0)
(-0.0166714 -0.00145721 0)
(-0.0161666 -0.00153072 0)
(-0.0156376 -0.0016008 0)
(-0.0150858 -0.00166708 0)
(-0.0145125 -0.00172917 0)
(-0.0139191 -0.00178666 0)
(-0.0133074 -0.0018391 0)
(-0.0126791 -0.00188601 0)
(-0.0120362 -0.00192689 0)
(-0.0113807 -0.0019612 0)
(-0.010715 -0.00198835 0)
(-0.0100415 -0.00200776 0)
(-0.00936297 -0.00201879 0)
(-0.00868223 -0.0020208 0)
(-0.00800234 -0.00201313 0)
(-0.00732657 -0.00199511 0)
(-0.00665835 -0.00196608 0)
(-0.00600132 -0.00192539 0)
(-0.00535926 -0.00187244 0)
(-0.00473611 -0.00180666 0)
(-0.00413591 -0.00172761 0)
(-0.00356278 -0.00163494 0)
(-0.00302085 -0.0015285 0)
(-0.0025142 -0.0014084 0)
(-0.00204676 -0.00127506 0)
(-0.00162223 -0.00112939 0)
(-0.0012439 -0.00097291 0)
(-0.000914501 -0.000808026 0)
(-0.000636053 -0.000638298 0)
(-0.00040961 -0.000468889 0)
(-0.000234969 -0.000307121 0)
(-0.00011035 -0.000163108 0)
(-3.36027e-05 -5.07023e-05 0)
(-3.48848e-06 9.78916e-06 0)
(-6.07029e-06 1.28186e-05 0)
(-4.90249e-05 0.000116926 0)
(-0.000151934 0.000278715 0)
(-0.000311696 0.000475315 0)
(-0.000528426 0.000691191 0)
(-0.000802919 0.00091477 0)
(-0.00113464 0.00113745 0)
(-0.00152192 0.00135307 0)
(-0.00196226 0.00155733 0)
(-0.00245254 0.00174731 0)
(-0.00298907 0.00192115 0)
(-0.00356784 0.00207774 0)
(-0.00418458 0.00221652 0)
(-0.00483488 0.00233739 0)
(-0.00551429 0.00244055 0)
(-0.00621837 0.00252641 0)
(-0.00694278 0.00259558 0)
(-0.00768327 0.00264877 0)
(-0.00843576 0.00268677 0)
(-0.00919633 0.00271042 0)
(-0.00996128 0.00272059 0)
(-0.0107271 0.00271815 0)
(-0.0114904 0.00270395 0)
(-0.0122482 0.00267885 0)
(-0.0129975 0.00264365 0)
(-0.0137357 0.00259914 0)
(-0.0144603 0.00254604 0)
(-0.015169 0.00248505 0)
(-0.0158595 0.00241683 0)
(-0.0165301 0.00234198 0)
(-0.0171788 0.00226108 0)
(-0.0178041 0.00217465 0)
(-0.0184045 0.00208317 0)
(-0.0189785 0.0019871 0)
(-0.0195249 0.00188684 0)
(-0.0200426 0.00178279 0)
(-0.0205305 0.0016753 0)
(-0.0209877 0.00156469 0)
(-0.0214133 0.00145126 0)
(-0.0218066 0.00133529 0)
(-0.0221669 0.00121706 0)
(-0.0224935 0.0010968 0)
(-0.0227859 0.00097474 0)
(-0.0230436 0.000851099 0)
(-0.0232661 0.000726081 0)
(-0.0234532 0.000599883 0)
(-0.0236044 0.00047269 0)
(-0.0237195 0.000344686 0)
(-0.0237984 0.000216047 0)
(-0.0238408 8.69518e-05 0)
(-0.0238466 -4.2425e-05 0)
(-0.0238158 -0.000171906 0)
(-0.0237484 -0.000301311 0)
(-0.0236445 -0.000430458 0)
(-0.0235042 -0.000559156 0)
(-0.0233276 -0.000687209 0)
(-0.023115 -0.000814412 0)
(-0.0228666 -0.000940546 0)
(-0.0225829 -0.00106538 0)
(-0.0222642 -0.00118868 0)
(-0.021911 -0.00131018 0)
(-0.0215239 -0.0014296 0)
(-0.0211036 -0.00154665 0)
(-0.0206508 -0.00166101 0)
(-0.0201663 -0.00177233 0)
(-0.019651 -0.00188024 0)
(-0.0191061 -0.00198435 0)
(-0.0185325 -0.00208422 0)
(-0.0179317 -0.00217941 0)
(-0.0173049 -0.0022694 0)
(-0.0166538 -0.00235369 0)
(-0.01598 -0.0024317 0)
(-0.0152855 -0.00250283 0)
(-0.0145721 -0.00256643 0)
(-0.0138421 -0.00262183 0)
(-0.013098 -0.00266829 0)
(-0.0123423 -0.00270506 0)
(-0.0115777 -0.00273133 0)
(-0.0108073 -0.00274629 0)
(-0.0100343 -0.00274907 0)
(-0.00926215 -0.00273882 0)
(-0.00849439 -0.00271467 0)
(-0.00773487 -0.00267577 0)
(-0.00698761 -0.00262129 0)
(-0.00625677 -0.00255048 0)
(-0.00554667 -0.00246266 0)
(-0.00486175 -0.00235727 0)
(-0.00420648 -0.00223395 0)
(-0.00358535 -0.00209257 0)
(-0.00300278 -0.00193333 0)
(-0.00246303 -0.00175689 0)
(-0.00197011 -0.00156446 0)
(-0.00152763 -0.00135805 0)
(-0.00113868 -0.0011407 0)
(-0.00080568 -0.000916765 0)
(-0.000530224 -0.000692416 0)
(-0.000312821 -0.000476124 0)
(-0.000152645 -0.000279271 0)
(-4.95843e-05 -0.000116986 0)
(-6.24254e-06 -1.07247e-05 0)
(-8.63063e-06 4.0994e-05 0)
(-6.42703e-05 0.000203675 0)
(-0.000192761 0.000425317 0)
(-0.00038742 0.000682693 0)
(-0.000646238 0.000959593 0)
(-0.000968881 0.00124357 0)
(-0.00135397 0.00152513 0)
(-0.00179918 0.00179731 0)
(-0.00230153 0.00205511 0)
(-0.00285747 0.00229505 0)
(-0.00346301 0.00251485 0)
(-0.0041138 0.00271308 0)
(-0.00480525 0.00288902 0)
(-0.00553267 0.00304246 0)
(-0.00629127 0.00317357 0)
(-0.00707632 0.00328283 0)
(-0.00788314 0.00337092 0)
(-0.00870717 0.0034387 0)
(-0.00954399 0.00348711 0)
(-0.0103894 0.00351719 0)
(-0.0112393 0.00353001 0)
(-0.0120899 0.00352664 0)
(-0.0129377 0.00350816 0)
(-0.0137791 0.00347562 0)
(-0.0146111 0.00343005 0)
(-0.0154307 0.00337244 0)
(-0.0162351 0.00330371 0)
(-0.0170218 0.00322476 0)
(-0.0177885 0.00313642 0)
(-0.018533 0.00303948 0)
(-0.0192533 0.00293466 0)
(-0.0199476 0.00282265 0)
(-0.0206141 0.00270407 0)
(-0.0212515 0.0025795 0)
(-0.0218583 0.00244948 0)
(-0.0224331 0.00231451 0)
(-0.022975 0.00217504 0)
(-0.0234827 0.0020315 0)
(-0.0239554 0.00188428 0)
(-0.0243921 0.00173375 0)
(-0.0247922 0.00158025 0)
(-0.0251549 0.0014241 0)
(-0.0254796 0.0012656 0)
(-0.0257657 0.00110502 0)
(-0.0260128 0.000942635 0)
(-0.0262204 0.000778706 0)
(-0.0263883 0.000613477 0)
(-0.026516 0.000447188 0)
(-0.0266034 0.000280074 0)
(-0.0266503 0.000112367 0)
(-0.0266566 -5.57006e-05 0)
(-0.0266223 -0.000223896 0)
(-0.0265473 -0.000391982 0)
(-0.0264316 -0.000559716 0)
(-0.0262756 -0.00072685 0)
(-0.0260792 -0.000893126 0)
(-0.0258429 -0.00105827 0)
(-0.0255669 -0.00122201 0)
(-0.0252515 -0.00138404 0)
(-0.0248974 -0.00154404 0)
(-0.024505 -0.00170167 0)
(-0.024075 -0.00185658 0)
(-0.0236081 -0.00200838 0)
(-0.0231052 -0.00215666 0)
(-0.0225671 -0.00230097 0)
(-0.0219949 -0.00244083 0)
(-0.0213898 -0.00257573 0)
(-0.0207529 -0.00270512 0)
(-0.0200859 -0.0028284 0)
(-0.0193901 -0.00294494 0)
(-0.0186673 -0.00305405 0)
(-0.0179194 -0.00315502 0)
(-0.0171485 -0.00324706 0)
(-0.0163567 -0.00332934 0)
(-0.0155465 -0.00340099 0)
(-0.0147206 -0.00346109 0)
(-0.0138818 -0.00350866 0)
(-0.0130331 -0.0035427 0)
(-0.0121779 -0.00356216 0)
(-0.0113195 -0.00356598 0)
(-0.0104618 -0.00355309 0)
(-0.00960871 -0.0035224 0)
(-0.00876433 -0.00347288 0)
(-0.007933 -0.00340351 0)
(-0.00711924 -0.00331338 0)
(-0.00632768 -0.0032017 0)
(-0.00556308 -0.00306783 0)
(-0.00483024 -0.00291137 0)
(-0.00413396 -0.00273223 0)
(-0.00347896 -0.00253074 0)
(-0.00286983 -0.00230775 0)
(-0.00231087 -0.00206481 0)
(-0.00180606 -0.00180435 0)
(-0.00135889 -0.00152999 0)
(-0.000972272 -0.0012468 0)
(-0.000648474 -0.000961731 0)
(-0.000388846 -0.000684146 0)
(-0.000193646 -0.000426298 0)
(-6.48537e-05 -0.000204064 0)
(-8.79105e-06 -3.93429e-05 0)
(-1.09845e-05 7.6825e-05 0)
(-7.86482e-05 0.000310309 0)
(-0.000231719 0.00060178 0)
(-0.000460143 0.000928037 0)
(-0.000759864 0.00127262 0)
(-0.0011294 0.00162257 0)
(-0.00156642 0.00196778 0)
(-0.00206789 0.00230066 0)
(-0.00263025 0.00261566 0)
(-0.0032495 0.00290883 0)
(-0.00392126 0.0031775 0)
(-0.00464085 0.00342 0)
(-0.00540339 0.00363542 0)
(-0.00620387 0.00382344 0)
(-0.00703725 0.00398423 0)
(-0.00789849 0.0041183 0)
(-0.00878264 0.00422645 0)
(-0.00968484 0.00430964 0)
(-0.0106004 0.004369 0)
(-0.0115249 0.00440575 0)
(-0.0124539 0.00442116 0)
(-0.0133833 0.00441653 0)
(-0.0143094 0.00439315 0)
(-0.0152284 0.0043523 0)
(-0.0161369 0.00429524 0)
(-0.0170318 0.00422315 0)
(-0.0179101 0.00413721 0)
(-0.0187691 0.00403848 0)
(-0.0196061 0.00392802 0)
(-0.0204189 0.00380678 0)
(-0.0212053 0.00367567 0)
(-0.0219633 0.00353553 0)
(-0.022691 0.00338715 0)
(-0.0233869 0.00323124 0)
(-0.0240494 0.00306849 0)
(-0.024677 0.0028995 0)
(-0.0252686 0.00272487 0)
(-0.0258229 0.0025451 0)
(-0.026339 0.00236071 0)
(-0.0268159 0.00217215 0)
(-0.0272526 0.00197984 0)
(-0.0276486 0.00178418 0)
(-0.0280031 0.00158556 0)
(-0.0283154 0.00138433 0)
(-0.0285851 0.00118082 0)
(-0.0288117 0.000975364 0)
(-0.0289949 0.000768268 0)
(-0.0291342 0.000559839 0)
(-0.0292295 0.000350374 0)
(-0.0292806 0.000140169 0)
(-0.0292873 -7.04818e-05 0)
(-0.0292496 -0.000281284 0)
(-0.0291676 -0.000491938 0)
(-0.0290411 -0.000702137 0)
(-0.0288705 -0.000911565 0)
(-0.028656 -0.0011199 0)
(-0.0283977 -0.00132679 0)
(-0.0280962 -0.00153189 0)
(-0.0277517 -0.00173483 0)
(-0.0273649 -0.00193519 0)
(-0.0269363 -0.00213256 0)
(-0.0264667 -0.0023265 0)
(-0.0259568 -0.0025165 0)
(-0.0254076 -0.00270206 0)
(-0.0248201 -0.00288263 0)
(-0.0241953 -0.0030576 0)
(-0.0235346 -0.00322633 0)
(-0.0228394 -0.00338814 0)
(-0.0221111 -0.00354228 0)
(-0.0213516 -0.00368798 0)
(-0.0205626 -0.00382436 0)
(-0.0197462 -0.00395055 0)
(-0.0189047 -0.00406556 0)
(-0.0180404 -0.00416838 0)
(-0.0171561 -0.00425793 0)
(-0.0162544 -0.00433306 0)
(-0.0153386 -0.0043926 0)
(-0.014412 -0.0044353 0)
(-0.0134779 -0.00445991 0)
(-0.0125403 -0.00446512 0)
(-0.011603 -0.00444964 0)
(-0.0106704 -0.00441219 0)
(-0.00974674 -0.0043515 0)
(-0.00883675 -0.00426641 0)
(-0.00794518 -0.00415583 0)
(-0.00707697 -0.00401884 0)
(-0.00623715 -0.00385474 0)
(-0.00543081 -0.00366311 0)
(-0.00466303 -0.00344388 0)
(-0.00393885 -0.0031975 0)
(-0.00326314 -0.00292501 0)
(-0.00264056 -0.00262825 0)
(-0.00207546 -0.00231005 0)
(-0.00157179 -0.0019745 0)
(-0.00113305 -0.00162723 0)
(-0.000762232 -0.00127582 0)
(-0.000461619 -0.000930238 0)
(-0.000232594 -0.000603258 0)
(-7.917e-05 -0.000311085 0)
(-1.11145e-05 -7.55684e-05 0)
(-1.31108e-05 0.000119766 0)
(-9.20221e-05 0.000435783 0)
(-0.000268384 0.000806797 0)
(-0.000529055 0.00120994 0)
(-0.000868055 0.00162879 0)
(-0.00128278 0.00205019 0)
(-0.00176995 0.00246364 0)
(-0.00232571 0.00286114 0)
(-0.00294591 0.00323673 0)
(-0.00362605 0.00358608 0)
(-0.00436133 0.00390621 0)
(-0.00514671 0.00419522 0)
(-0.00597701 0.00445206 0)
(-0.00684693 0.00467634 0)
(-0.00775115 0.00486821 0)
(-0.00868437 0.00502823 0)
(-0.00964137 0.00515729 0)
(-0.0106171 0.00525649 0)
(-0.0116065 0.00532715 0)
(-0.012605 0.00537065 0)
(-0.0136079 0.00538848 0)
(-0.0146109 0.00538217 0)
(-0.0156099 0.00535323 0)
(-0.0166012 0.00530319 0)
(-0.0175809 0.00523352 0)
(-0.0185458 0.00514565 0)
(-0.0194927 0.00504096 0)
(-0.0204187 0.00492075 0)
(-0.021321 0.00478627 0)
(-0.0221971 0.00463866 0)
(-0.0230447 0.00447904 0)
(-0.0238617 0.0043084 0)
(-0.0246461 0.00412771 0)
(-0.0253961 0.00393784 0)
(-0.0261101 0.00373959 0)
(-0.0267866 0.00353374 0)
(-0.0274242 0.00332097 0)
(-0.0280217 0.00310193 0)
(-0.0285779 0.00287723 0)
(-0.0290918 0.00264742 0)
(-0.0295626 0.00241302 0)
(-0.0299893 0.00217453 0)
(-0.0303713 0.00193241 0)
(-0.0307079 0.00168708 0)
(-0.0309985 0.00143897 0)
(-0.0312427 0.00118848 0)
(-0.03144 0.000935979 0)
(-0.03159 0.00068185 0)
(-0.0316926 0.000426458 0)
(-0.0317475 0.000170166 0)
(-0.0317546 -8.66639e-05 0)
(-0.0317139 -0.000343668 0)
(-0.0316253 -0.000600478 0)
(-0.0314888 -0.00085672 0)
(-0.0313048 -0.001112 0)
(-0.0310734 -0.00136593 0)
(-0.0307949 -0.00161809 0)
(-0.0304697 -0.00186803 0)
(-0.0300983 -0.0021153 0)
(-0.0296813 -0.00235942 0)
(-0.0292193 -0.00259986 0)
(-0.028713 -0.00283607 0)
(-0.0281633 -0.00306748 0)
(-0.0275713 -0.00329344 0)
(-0.026938 -0.00351329 0)
(-0.0262646 -0.00372629 0)
(-0.0255525 -0.00393168 0)
(-0.0248031 -0.00412861 0)
(-0.0240182 -0.00431619 0)
(-0.0231996 -0.00449346 0)
(-0.0223493 -0.00465941 0)
(-0.0214694 -0.00481293 0)
(-0.0205624 -0.00495286 0)
(-0.0196309 -0.00507798 0)
(-0.0186776 -0.00518698 0)
(-0.0177056 -0.00527851 0)
(-0.0167182 -0.00535116 0)
(-0.0157189 -0.00540344 0)
(-0.0147114 -0.00543386 0)
(-0.0136997 -0.00544089 0)
(-0.0126881 -0.00542301 0)
(-0.011681 -0.0053787 0)
(-0.010683 -0.00530652 0)
(-0.00969905 -0.00520509 0)
(-0.00873416 -0.00507318 0)
(-0.00779353 -0.00490975 0)
(-0.00688244 -0.00471401 0)
(-0.00600625 -0.00448551 0)
(-0.00517033 -0.00422421 0)
(-0.00437999 -0.00393066 0)
(-0.00364044 -0.00360606 0)
(-0.00295669 -0.0032525 0)
(-0.00233352 -0.00287313 0)
(-0.00177537 -0.00247241 0)
(-0.00128637 -0.00205641 0)
(-0.000870299 -0.00163313 0)
(-0.000530387 -0.00121292 0)
(-0.00026913 -0.000808778 0)
(-9.24451e-05 -0.000436925 0)
(-1.32176e-05 -0.000118844 0)
(-1.50279e-05 0.000169268 0)
(-0.000104367 0.000578923 0)
(-0.000302602 0.00103884 0)
(-0.000593789 0.00152669 0)
(-0.000970193 0.00202629 0)
(-0.00142814 0.00252451 0)
(-0.00196341 0.00301071 0)
(-0.00257133 0.00347662 0)
(-0.0032471 0.003916 0)
(-0.0039857 0.00432425 0)
(-0.00478188 0.00469818 0)
(-0.00563023 0.0050357 0)
(-0.00652523 0.00533565 0)
(-0.0074613 0.00559759 0)
(-0.00843285 0.00582168 0)
(-0.00943431 0.00600854 0)
(-0.0104602 0.00615916 0)
(-0.0115053 0.0062748 0)
(-0.0125644 0.00635691 0)
(-0.0136324 0.00640711 0)
(-0.0147047 0.0064271 0)
(-0.0157767 0.00641862 0)
(-0.0168441 0.00638343 0)
(-0.0179028 0.00632329 0)
(-0.0189491 0.00623991 0)
(-0.0199794 0.00613497 0)
(-0.0209902 0.00601007 0)
(-0.0219786 0.00586674 0)
(-0.0229417 0.00570644 0)
(-0.0238767 0.00553052 0)
(-0.0247813 0.00534029 0)
(-0.0256532 0.00513694 0)
(-0.0264902 0.00492159 0)
(-0.0272905 0.00469528 0)
(-0.0280524 0.00445899 0)
(-0.0287743 0.00421359 0)
(-0.0294546 0.00395994 0)
(-0.0300921 0.00369879 0)
(-0.0306855 0.00343087 0)
(-0.0312339 0.00315684 0)
(-0.0317361 0.00287732 0)
(-0.0321913 0.0025929 0)
(-0.0325989 0.00230413 0)
(-0.0329579 0.00201154 0)
(-0.0332679 0.00171561 0)
(-0.0335283 0.00141682 0)
(-0.0337388 0.00111565 0)
(-0.0338988 0.000812523 0)
(-0.0340082 0.000507894 0)
(-0.0340666 0.000202195 0)
(-0.0340741 -0.000104139 0)
(-0.0340305 -0.000410672 0)
(-0.0339358 -0.000716962 0)
(-0.0337902 -0.00102256 0)
(-0.0335937 -0.001327 0)
(-0.0333467 -0.0016298 0)