/*--------------------------------*- C++ -*----------------------------------*\
| =========                 |                                                 |
| \\      /  F ield         | OpenFOAM: The Open Source CFD Toolbox           |
|  \\    /   O peration     | Version:  2212                                  |
|   \\  /    A nd           | Website:  www.openfoam.com                      |
|    \\/     M anipulation  |                                                 |
\*---------------------------------------------------------------------------*/
FoamFile
{
    version     2.0;
    format      ascii;
    arch        "LSB;label=32;scalar=64";
    class       volScalarField;
    location    "0.0865";
    object      p;
}
// * * * * * * * * * * * * * * * * * * * * * * * * * * * * * * * * * * * * * //

dimensions      [0 2 -2 0 0 0 0];

internalField   nonuniform List<scalar> 
10000
(
4.19131e-09
9.35753e-05
-0.000125606
-0.000701914
-0.00158684
-0.00272517
-0.00406086
-0.00554004
-0.00711407
-0.00873996
-0.0103801
-0.0120015
-0.0135755
-0.0150774
-0.0164855
-0.0177814
-0.0189491
-0.0199751
-0.0208482
-0.0215589
-0.0220994
-0.0224639
-0.0226477
-0.0226476
-0.0224615
-0.0220886
-0.0215289
-0.0207834
-0.0198541
-0.0187436
-0.0174554
-0.0159936
-0.0143632
-0.0125696
-0.0106187
-0.00851713
-0.00627187
-0.00389041
-0.00138064
0.00124922
0.0039905
0.00683418
0.00977093
0.0127911
0.0158848
0.0190418
0.0222518
0.0255042
0.0287883
0.0320932
0.0354078
0.0387212
0.0420219
0.0452989
0.0485408
0.0517365
0.0548747
0.0579445
0.0609349
0.0638351
0.0666348
0.0693237
0.0718919
0.0743299
0.0766287
0.0787795
0.0807741
0.0826051
0.0842655
0.0857489
0.0870499
0.0881639
0.089087
0.0898163
0.09035
0.0906873
0.0908285
0.0907753
0.0905306
0.0900988
0.0894859
0.0886994
0.0877483
0.0866438
0.0853988
0.0840287
0.0825511
0.0809863
0.0793575
0.0776909
0.0760164
0.0743678
0.0727832
0.0713057
0.069983
0.068867
0.0680108
0.067465
0.0672716
0.0673794
-9.18383e-05
2.05284e-06
-0.000210816
-0.000725581
-0.00149231
-0.00247221
-0.00362432
-0.00490608
-0.0062771
-0.00770042
-0.00914271
-0.0105742
-0.0119684
-0.0133021
-0.0145547
-0.0157086
-0.0167483
-0.0176605
-0.0184342
-0.0190598
-0.0195295
-0.0198372
-0.0199781
-0.0199486
-0.0197464
-0.0193701
-0.0188196
-0.0180954
-0.017199
-0.0161327
-0.0148994
-0.013503
-0.0119477
-0.0102387
-0.00838126
-0.00638163
-0.00424629
-0.00198222
0.000403166
0.00290213
0.00550654
0.00820787
0.0109973
0.0138656
0.0168035
0.0198013
0.0228492
0.0259372
0.0290551
0.0321925
0.0353389
0.038484
0.0416169
0.044727
0.0478038
0.0508365
0.0538146
0.0567276
0.0595653
0.0623176
0.0649745
0.0675265
0.0699645
0.0722794
0.0744627
0.0765065
0.0784031
0.0801456
0.0817275
0.0831431
0.0843876
0.0854568
0.0863474
0.0870568
0.0875837
0.0879276
0.0880893
0.0880707
0.0878751
0.0875069
0.0869723
0.0862788
0.0854353
0.0844528
0.0833441
0.0821238
0.0808089
0.0794188
0.0779753
0.0765028
0.0750287
0.0735835
0.0722009
0.0709178
0.0697736
0.0688092
0.0680632
0.0675711
0.0673788
0.067487
0.000128874
0.000217255
4.41403e-06
-0.000478896
-0.0011786
-0.00206237
-0.00309703
-0.00424723
-0.00547858
-0.00675892
-0.00805866
-0.0093509
-0.0106114
-0.0118185
-0.012953
-0.013998
-0.0149388
-0.0157626
-0.0164585
-0.0170173
-0.0174312
-0.0176939
-0.0178007
-0.0177478
-0.0175327
-0.017154
-0.0166109
-0.0159039
-0.0150342
-0.0140037
-0.012815
-0.0114717
-0.00997751
-0.00833725
-0.00655602
-0.00463951
-0.00259386
-0.000425627
0.00185818
0.00425021
0.00674275
0.00932772
0.0119967
0.0147409
0.0175514
0.020419
0.0233344
0.0262879
0.0292699
0.0322705
0.0352796
0.0382871
0.041283
0.0442571
0.0471992
0.0500991
0.0529468
0.0557323
0.0584459
0.0610778
0.0636189
0.06606
0.0683923
0.0706074
0.0726974
0.0746546
0.076472
0.078143
0.0796616
0.0810227
0.0822217
0.0832549
0.0841192
0.0848126
0.0853339
0.0856829
0.0858607
0.0858693
0.085712
0.0853937
0.0849202
0.084299
0.083539
0.0826506
0.0816463
0.0805402
0.0793484
0.0780892
0.076783
0.0754524
0.0741225
0.0728209
0.0715774
0.070424
0.0693945
0.0685229
0.0678405
0.0673774
0.0671858
0.0672947
0.000705874
0.000734323
0.000489743
5.51382e-06
-0.000668452
-0.00150284
-0.0024687
-0.00353555
-0.00467365
-0.00585476
-0.00705252
-0.00824274
-0.00940329
-0.0105143
-0.0115578
-0.0125181
-0.0133812
-0.0141349
-0.0147688
-0.015274
-0.0156428
-0.0158692
-0.0159483
-0.0158766
-0.0156512
-0.0152707
-0.0147342
-0.014042
-0.0131949
-0.0121947
-0.0110439
-0.00974547
-0.00830321
-0.0067214
-0.00500492
-0.0031591
-0.00118976
0.00089689
0.0030942
0.00539517
0.0077924
0.0102782
0.0128445
0.0154828
0.0181848
0.0209415
0.0237439
0.0265829
0.0294492
0.0323331
0.0352253
0.038116
0.0409954
0.0438538
0.0466816
0.0494688
0.0522059
0.0548834
0.0574918
0.0600221
0.0624652
0.0648125
0.0670557
0.0691868
0.0711981
0.0730825
0.0748332
0.0764441
0.0779097
0.079225
0.0803858
0.0813887
0.082231
0.0829107
0.0834269
0.0837796
0.08397
0.0840002
0.0838738
0.0835952
0.0831705
0.0826067
0.0819125
0.081098
0.080175
0.0791571
0.0780596
0.0768993
0.0756952
0.0744682
0.0732412
0.0720392
0.0708886
0.0698178
0.068856
0.0680328
0.0673758
0.0669126
0.0666933
0.0667514
0.00159225
0.00150487
0.00119264
0.000679593
3.12572e-06
-0.000810631
-0.00173616
-0.00274727
-0.00381825
-0.00492448
-0.00604273
-0.00715135
-0.00823041
-0.00926171
-0.0102289
-0.0111173
-0.0119138
-0.012607
-0.0131871
-0.0136454
-0.0139748
-0.0141694
-0.0142244
-0.0141361
-0.0139021
-0.0135205
-0.0129906
-0.0123124
-0.0114865
-0.0105147
-0.00939906
-0.00814249
-0.00674848
-0.00522107
-0.0035648
-0.00178475
0.000113581
0.00212429
0.00424107
0.00645724
0.00876573
0.0111591
0.0136298
0.0161696
0.0187704
0.0214238
0.0241211
0.0268535
0.0296121
0.0323877
0.0351711
0.0379531
0.0407244
0.0434755
0.046197
0.0488798
0.0515144
0.0540917
0.0566029
0.059039
0.0613916
0.0636523
0.0658132
0.0678667
0.0698055
0.0716228
0.0733121
0.0748678
0.0762845
0.0775576
0.0786832
0.0796581
0.0804798
0.0811466
0.0816576
0.082013
0.082214
0.082263
0.0821632
0.0819192
0.0815366
0.0810224
0.0803848
0.0796335
0.0787798
0.0778363
0.0768173
0.0757385
0.0746174
0.073473
0.0723261
0.0711991
0.0701155
0.0691002
0.0681784
0.067376
0.0667174
0.0662276
0.0659459
0.0658981
0.00273615
0.00249277
0.00208301
0.00151607
0.00081204
-6.3454e-06
-0.000916613
-0.00189647
-0.00292387
-0.00397746
-0.00503687
-0.00608297
-0.00709792
-0.00806531
-0.00897021
-0.00979915
-0.0105401
-0.0111824
-0.0117169
-0.0121353
-0.012431
-0.0125984
-0.0126328
-0.0125308
-0.0122898
-0.0119081
-0.0113848
-0.0107198
-0.00991391
-0.00896841
-0.00788538
-0.00666751
-0.00531807
-0.00384088
-0.00224021
-0.00052088
0.00131191
0.00325253
0.00529494
0.00743278
0.00965933
0.0119674
0.0143497
0.0167986
0.0193061
0.0218641
0.0244644
0.0270985
0.0297577
0.0324334
0.0351167
0.0377986
0.0404702
0.0431225
0.0457465
0.0483331
0.0508736
0.0533591
0.055781
0.0581308
0.0604005
0.062582
0.0646677
0.0666502
0.0685227
0.0702787
0.071912
0.0734172
0.0747893
0.0760239
0.0771172
0.0780664
0.078869
0.0795235
0.0800291
0.0803861
0.0805958
0.0806604
0.0805831
0.0803683
0.0800213
0.0795489
0.0789588
0.0782603
0.0774639
0.0765814
0.0756259
0.0746121
0.0735557
0.0724743
0.0713865
0.0703121
0.0692721
0.068288
0.0673818
0.0665755
0.065891
0.0653504
0.0649769
0.0647826
0.00408572
0.00366038
0.00313049
0.00248848
0.00173509
0.000889848
-2.74981e-05
-0.000998177
-0.00200346
-0.00302494
-0.00404489
-0.00504651
-0.00601398
-0.00693264
-0.007789
-0.00857081
-0.00926709
-0.00986805
-0.0103651
-0.0107507
-0.0110187
-0.0111635
-0.0111811
-0.011068
-0.0108219
-0.010441
-0.00992442
-0.00927215
-0.00848476
-0.00756356
-0.00651047
-0.00532802
-0.00401934
-0.00258802
-0.00103811
0.000625824
0.00239879
0.00427545
0.00625002
0.00831642
0.0104682
0.0126985
0.0150002
0.017366
0.0197884
0.0222595
0.0247714
0.0273159
0.0298847
0.0324694
0.0350615
0.0376524
0.0402335
0.042796
0.0453314
0.0478309
0.050286
0.0526882
0.0550293
0.0573012
0.0594959
0.0616058
0.0636236
0.0655422
0.0673549
0.0690556
0.0706385
0.0720982
0.0734301
0.0746298
0.0756941
0.0766198
0.0774049
0.0780478
0.0785478
0.0789053
0.0791215
0.0791986
0.0791396
0.0789486
0.0786308
0.0781923
0.0776407
0.0769846
0.0762337
0.0753989
0.0744925
0.0735276
0.0725188
0.0714818
0.0704332
0.0693908
0.0683728
0.067398
0.0664852
0.0656533
0.0649216
0.0643093
0.0638214
0.0634541
0.00559205
0.0049691
0.00430299
0.00356924
0.00274869
0.00185809
0.000914906
-6.53609e-05
-0.00106698
-0.00207421
-0.00307171
-0.00404486
-0.00497975
-0.00586336
-0.00668368
-0.00742963
-0.00809128
-0.00865972
-0.0091271
-0.00948654
-0.00973217
-0.00985911
-0.0098634
-0.00974194
-0.0094924
-0.00911322
-0.00860362
-0.00796348
-0.00719339
-0.00629459
-0.00526895
-0.0041189
-0.00284734
-0.00145775
4.59897e-05
0.00165954
0.00337816
0.00519672
0.00710967
0.00911115
0.011195
0.0133546
0.0155832
0.0178737
0.0202188
0.0226111
0.0250427
0.027506
0.0299929
0.0324952
0.0350048
0.0375134
0.0400126
0.042494
0.0449494
0.0473702
0.0497484
0.0520757
0.0543441
0.0565458
0.0586731
0.0607188
0.0626756
0.0645368
0.0662961
0.0679473
0.0694849
0.0709039
0.0721997
0.0733683
0.0744063
0.0753108
0.0760798
0.0767117
0.0772059
0.0775629
0.0777838
0.0778705
0.0778258
0.0776536
0.0773587
0.076947
0.0764255
0.0758022
0.075086
0.074287
0.0734163
0.072486
0.0715093
0.0705002
0.0694736
0.0684449
0.0674303
0.0664459
0.0655079
0.0646319
0.0638353
0.0631347
0.0625162
0.0619594
0.00721174
0.00638273
0.00556963
0.00473161
0.00382987
0.00287888
0.00189425
0.000888611
-0.000125045
-0.00113337
-0.00212324
-0.00308201
-0.00399754
-0.00485836
-0.00565386
-0.00637417
-0.00701035
-0.0075544
-0.00799922
-0.00833855
-0.00856707
-0.00868033
-0.00867468
-0.0085473
-0.00829607
-0.00791958
-0.00741709
-0.00678857
-0.00603464
-0.00515651
-0.00415598
-0.00303538
-0.00179756
-0.000445806
0.00101615
0.00258415
0.00425363
0.00601966
0.00787691
0.00981974
0.0118422
0.013938
0.0161005
0.018323
0.0205985
0.0229196
0.0252789
0.027669
0.030082
0.0325102
0.0349456
0.0373801
0.0398057
0.0422144
0.044598
0.0469484
0.0492576
0.0515178
0.0537213
0.0558603
0.0579276
0.0599159
0.0618185
0.0636287
0.0653404
0.0669476
0.068445
0.0698278
0.0710916
0.0722324
0.0732469
0.0741323
0.0748865
0.0755081
0.0759966
0.0763522
0.0765758
0.0766693
0.0766353
0.0764773
0.0761998
0.0758083
0.0753093
0.0747099
0.0740186
0.0732444
0.0723977
0.0714892
0.0705308
0.0695351
0.0685152
0.0674846
0.0664574
0.0654474
0.0644683
0.0635332
0.0626576
0.061856
0.0610956
0.0603402
0.00890723
0.00786861
0.00690178
0.00595037
0.00495661
0.00393318
0.00289431
0.00185008
0.000811058
-0.000211558
-0.00120664
-0.00216335
-0.0030712
-0.00392019
-0.00470095
-0.00540483
-0.00602388
-0.00655097
-0.00697974
-0.00730463
-0.0075208
-0.00762427
-0.00761181
-0.00748086
-0.0072295
-0.00685652
-0.00636133
-0.00574397
-0.00500508
-0.00414591
-0.00316824
-0.00207434
-0.000866956
0.00045072
0.00187512
0.00340219
0.00502754
0.00674643
0.00855371
0.0104439
0.0124114
0.01445
0.0165533
0.0187149
0.0209279
0.0231853
0.02548
0.0278047
0.0301517
0.0325137
0.0348828
0.0372514
0.0396115
0.0419553
0.0442751
0.0465629
0.048811
0.0510118
0.0531577
0.0552414
0.0572556
0.0591934
0.0610481
0.0628134
0.0644832
0.0660517
0.0675139
0.0688649
0.0701006
0.0712169
0.0722106
0.0730789
0.0738199
0.074432
0.0749146
0.075268
0.0754928
0.0755906
0.0755639
0.0754159
0.0751507
0.0747733
0.0742897
0.0737064
0.0730311
0.072272
0.0714385
0.0705404
0.0695882
0.068593
0.0675664
0.0665203
0.0654668
0.0644178
0.0633847
0.0623781
0.0614125
0.0605005
0.0595911
0.0586329
0.0106461
0.00939761
0.00827331
0.00720212
0.00610822
0.0050029
0.00389936
0.00280554
0.00172991
0.000681735
-0.000329638
-0.00129501
-0.00220541
-0.00305223
-0.00382728
-0.00452298
-0.0051324
-0.00564926
-0.00606792
-0.00638347
-0.00659168
-0.006689
-0.00667255
-0.0065401
-0.00629005
-0.00592136
-0.00543357
-0.00482685
-0.00410193
-0.00326007
-0.00230307
-0.00123316
-5.30268e-05
0.00123422
0.00262512
0.00411575
0.00570185
0.0073788
0.00914166
0.0109852
0.0129037
0.0148915
0.0169423
0.0190498
0.0212075
0.0234085
0.0256459
0.0279126
0.0302013
0.0325047
0.0348154
0.0371258
0.0394281
0.041715
0.0439786
0.0462115
0.048406
0.0505548
0.0526504
0.0546856
0.0566536
0.0585474
0.0603606
0.0620869
0.0637203
0.0652553
0.066687
0.0680107
0.069222
0.070317
0.0712926
0.072146
0.0728752
0.0734786
0.0739555
0.074306
0.0745305
0.0746306
0.0746082
0.0744664
0.0742089
0.0738402
0.0733657
0.0727913
0.0721239
0.0713713
0.0705416
0.0696436
0.0686868
0.0676809
0.0666361
0.0655628
0.0644713
0.063372
0.0622741
0.0611864
0.0601222
0.0590931
0.0580304
0.0568688
0.0124004
0.0109439
0.00966053
0.00846532
0.00726526
0.00607074
0.00489423
0.00374183
0.0026202
0.00153692
0.00049976
-0.000483578
-0.00140548
-0.00225855
-0.00303583
-0.00373075
-0.00433723
-0.00484984
-0.00526375
-0.00557464
-0.0057788
-0.00587318
-0.00585531
-0.0057233
-0.00547579
-0.00511198
-0.00463162
-0.00403499
-0.00332292
-0.00249674
-0.00155826
-0.000509697
0.000646303
0.00190668
0.00326803
0.00472656
0.00627811
0.00791822
0.00964204
0.0114445
0.0133201
0.0152633
0.017268
0.0193282
0.0214373
0.023589
0.0257762
0.0279923
0.0302301
0.0324825
0.0347422
0.0370019
0.0392541
0.0414914
0.0437065
0.0458919
0.0480401
0.0501439
0.0521963
0.05419
0.0561183
0.0579745
0.0597522
0.0614452
0.0630478
0.0645546
0.0659605
0.0672609
0.0684516
0.0695286
0.0704888
0.0713294
0.0720483
0.072644
0.0731154
0.0734625
0.0736857
0.0737861
0.0737655
0.0736266
0.0733726
0.0730077
0.0725366
0.0719648
0.0712984
0.0705444
0.06971
0.0688033
0.0678324
0.066806
0.065733
0.0646224
0.0634833
0.0623242
0.0611529
0.0599763
0.0588071
0.0576562
0.0564383
0.0550747
0.0141459
0.0124846
0.011042
0.00972019
0.0084097
0.00712042
0.00586435
0.00464608
0.00347069
0.00234428
0.00127325
0.000264017
-0.000677107
-0.00154388
-0.00233033
-0.00303087
-0.00364037
-0.00415415
-0.00456803
-0.00487836
-0.00508199
-0.00517632
-0.00515928
-0.00502933
-0.00478543
-0.00442699
-0.00395394
-0.00336677
-0.00266641
-0.00185424
-0.000932118
9.77154e-05
0.00123262
0.00246959
0.00380528
0.00523596
0.00675757
0.00836575
0.0100558
0.0118227
0.0136612
0.0155658
0.0175308
0.01955
0.0216174
0.0237265
0.0258706
0.0280431
0.0302373
0.0324459
0.034662
0.0368784
0.0390878
0.041283
0.0434568
0.0456018
0.0477108
0.0497768
0.0517927
0.0537516
0.0556467
0.0574715
0.0592196
0.0608851
0.0624623
0.0639457
0.0653304
0.0666118
0.0677855
0.0688478
0.0697953
0.0706254
0.0713358
0.0719247
0.0723911
0.0727346
0.0729555
0.0730547
0.0730337
0.0728948
0.0726408
0.0722754
0.0718028
0.0712279
0.0705562
0.0697939
0.0689476
0.0680242
0.0670311
0.0659757
0.0648659
0.0637096
0.0625145
0.061288
0.0600362
0.0587646
0.0574858
0.05621
0.0548365
0.0532735
0.0158617
0.0139995
0.0123987
0.0109487
0.00952485
0.00813663
0.00679589
0.00550584
0.0042703
0.00309414
0.00198245
0.000940484
-2.64717e-05
-0.000913296
-0.00171498
-0.00242683
-0.00304452
-0.00356415
-0.00398221
-0.00429563
-0.00450179
-0.00459856
-0.00458431
-0.00445782
-0.00421832
-0.00386554
-0.00339962
-0.00282118
-0.00213128
-0.00133141
-0.000423496
0.0005902
0.00170705
0.00292404
0.00423788
0.00564487
0.00714105
0.00872212
0.0103835
0.0121202
0.0139273
0.0157994
0.0177307
0.0197154
0.0217474
0.0238206
0.0259284
0.0280644
0.0302218
0.0323937
0.0345734
0.0367536
0.0389274
0.0410877
0.0432273
0.045339
0.0474158
0.0494508
0.051437
0.0533676
0.0552359
0.0570353
0.0587598
0.0604034
0.0619604
0.0634254
0.0647935
0.06606
0.0672205
0.0682713
0.0692091
0.0700309
0.0707344
0.0713178
0.0717797
0.0721197
0.0723379
0.0724347
0.0724115
0.0722701
0.072013
0.0716434
0.071165
0.0705821
0.0698997
0.0691232
0.0682584
0.0673115
0.0662889
0.0651973
0.0640435
0.0628343
0.0615764
0.060276
0.058938
0.0575669
0.056175
0.0547725
0.0532437
0.0514848
0.0175296
0.0154705
0.0137131
0.0121346
0.0105954
0.0091051
0.0076757
0.00630927
0.00500837
0.00377688
0.00261887
0.00153848
0.000539991
-0.000372366
-0.0011945
-0.00192253
-0.00255294
-0.0030825
-0.00350835
-0.003828
-0.00403936
-0.00414073
-0.00413085
-0.00400891
-0.00377447
-0.00342746
-0.00296827
-0.00239769
-0.00171695
-0.000927626
-3.17121e-05
0.00096848
0.00207028
0.00327069
0.00456644
0.00595387
0.00742905
0.00898774
0.0106254
0.0123374
0.0141186
0.0159638
0.0178675
0.0198238
0.0218269
0.0238707
0.0259489
0.0280551
0.0301827
0.0323249
0.034475
0.0366263
0.0387715
0.0409038
0.0430161
0.0451015
0.0471529
0.0491636
0.0511267
0.0530354
0.054883
0.0566632
0.0583699
0.0599971
0.0615392
0.0629907
0.0643466
0.0656024
0.0667536
0.0677963
0.0687271
0.0695431
0.0702417
0.0708209
0.0712793
0.0716161
0.0718312
0.0719249
0.071898
0.0717521
0.0714893
0.0711123
0.0706244
0.0700293
0.0693314
0.0685355
0.0676467
0.0666703
0.0656122
0.0644782
0.0632742
0.0620061
0.0606797
0.0593002
0.0578715
0.0563971
0.0548897
0.0533596
0.0516767
0.0497256
0.0191335
0.0168819
0.0149696
0.0132626
0.011607
0.0100125
0.00849142
0.00704485
0.00567445
0.00438312
0.00317401
0.00205039
0.00101563
7.30962e-05
-0.000773947
-0.00152237
-0.00216934
-0.00271232
-0.00314908
-0.00347765
-0.0036964
-0.00380411
-0.00379995
-0.00368341
-0.00345436
-0.00311304
-0.00266004
-0.00209636
-0.00142334
-0.000642704
0.000243466
0.00123279
0.00232256
0.0035098
0.0047912
0.00616312
0.00762165
0.00916264
0.0107817
0.0124741
0.0142349
0.0160589
0.0179408
0.0198749
0.0218553
0.0238762
0.0259313
0.0280142
0.0301187
0.032238
0.0343656
0.0364946
0.0386182
0.0407293
0.0428213
0.0448872
0.04692
0.0489131
0.0508595
0.0527526
0.0545857
0.0563527
0.0580473
0.0596636
0.0611959
0.0626388
0.0639872
0.0652364
0.066382
0.0674201
0.0683471
0.0691598
0.0698555
0.0704321
0.070888
0.0712223
0.0714345
0.0715245
0.071493
0.071341
0.0710704
0.0706834
0.0701828
0.0695719
0.0688545
0.0680347
0.0671171
0.0661063
0.0650075
0.0638258
0.0625663
0.0612343
0.0598346
0.0583716
0.0568486
0.0552684
0.0536438
0.0519856
0.0501501
0.0480105
0.0206593
0.0182191
0.0161541
0.0143191
0.0125465
0.0108464
0.00923128
0.00770169
0.00625842
0.00490356
0.00363948
0.00246865
0.0013936
0.000416967
-0.000458703
-0.00123104
-0.00189786
-0.00245724
-0.00290747
-0.00324714
-0.00347513
-0.00359061
-0.00359312
-0.00348253
-0.00325902
-0.0029231
-0.00247558
-0.00191764
-0.00125082
-0.000476946
0.000401787
0.00138295
0.00246378
0.00364124
0.004912
0.00627242
0.00771866
0.00924661
0.0108519
0.0125298
0.0142756
0.0160841
0.01795
0.0198678
0.0218318
0.0238359
0.0258742
0.0279406
0.0300286
0.0321317
0.0342435
0.0363571
0.0384657
0.0405626
0.042641
0.0446941
0.0467149
0.0486968
0.050633
0.0525167
0.0543416
0.0561012
0.0577894
0.0594003
0.0609281
0.0623672
0.0637127
0.0649597
0.0661038
0.0671407
0.0680669
0.068879
0.0695742
0.0701501
0.070605
0.0709375
0.0711471
0.0712334
0.0711965
0.0710374
0.0707573
0.0703582
0.0698424
0.0692128
0.0684724
0.067625
0.0666745
0.0656251
0.0644813
0.0632474
0.0619281
0.0605278
0.0590508
0.0575009
0.0558807
0.0541924
0.0524496
0.0506633
0.0486766
0.046352
0.0220942
0.0194692
0.0172537
0.0152914
0.0134016
0.0115949
0.00988413
0.0082693
0.0067505
0.00532917
0.00400693
0.00278557
0.00166698
0.000653022
-0.000254435
-0.00105363
-0.00174298
-0.00232116
-0.00278701
-0.00313959
-0.00337823
-0.00350251
-0.00351237
-0.00340803
-0.00318996
-0.00285892
-0.00241597
-0.0018625
-0.00120022
-0.000431083
0.000442631
0.0014184
0.00249338
0.00366445
0.00492829
0.00628127
0.00771955
0.00923905
0.0108354
0.012504
0.01424
0.0160385
0.0178942
0.0198017
0.0217551
0.0237488
0.0257767
0.0278329
0.029911
0.0320045
0.034107
0.0362119
0.0383124
0.0404017
0.0424733
0.0445202
0.0465356
0.0485128
0.0504451
0.0523258
0.0541484
0.0559066
0.0575942
0.0592051
0.0607335
0.0621739
0.0635211
0.0647703
0.0659168
0.0669563
0.067885
0.0686995
0.0693966
0.0699739
0.0704293
0.0707614
0.0709691
0.0710518
0.0710094
0.0708423
0.0705516
0.0701388
0.0696058
0.0689549
0.0681889
0.0673108
0.0663241
0.0652325
0.0640399
0.0627501
0.0613673
0.0598951
0.0583375
0.0566978
0.0549782
0.0531804
0.0513184
0.0494041
0.0472676
0.0447611
0.0234268
0.0206206
0.0182565
0.0161677
0.0141608
0.0122469
0.0104393
0.00873759
0.00714117
0.00565098
0.00426808
0.00299357
0.0018287
0.000774764
-0.000167001
-0.000995422
-0.00170951
-0.00230845
-0.00279159
-0.00315845
-0.00340877
-0.00354259
-0.00356018
-0.00346209
-0.00324909
-0.00292221
-0.00248277
-0.00193234
-0.00127279
-0.000506218
0.000364975
0.00133815
0.00241038
0.00357853
0.00483922
0.00618882
0.00762345
0.00913904
0.0107313
0.0123956
0.0141272
0.0159212
0.0177724
0.0196752
0.0216242
0.0236135
0.0256374
0.0276897
0.0297643
0.0318548
0.0339547
0.0360574
0.0381564
0.0402449
0.0423161
0.0443634
0.0463799
0.0483588
0.0502936
0.0521775
0.054004
0.0557667
0.0574593
0.0590757
0.0606101
0.0620568
0.0634106
0.0646664
0.0658195
0.0668654
0.0678001
0.06862
0.0693218
0.0699028
0.0703607
0.0706937
0.0709006
0.0709803
0.0709325
0.0707572
0.0704552
0.0700276
0.0694759
0.0688019
0.0680079
0.0670966
0.066071
0.0649342
0.0636898
0.062341
0.0608915
0.0593446
0.0577037
0.0559719
0.054151
0.0522422
0.0502606
0.0482183
0.0459335
0.0432478
0.0246465
0.0216622
0.0191514
0.0169371
0.0148134
0.0127919
0.0108867
0.00909678
0.0074212
0.00586033
0.00441472
0.00308494
0.00187167
0.000775642
-0.000202458
-0.00106202
-0.00180256
-0.00242377
-0.00292544
-0.00330756
-0.00357028
-0.00371403
-0.00373941
-0.0036473
-0.00343877
-0.00311514
-0.00267795
-0.00212895
-0.00147017
-0.000703884
0.000167363
0.00114082
0.00221352
0.00338225
0.0046436
0.00599386
0.00742916
0.00894542
0.0105383
0.0122034
0.0139359
0.0157309
0.017583
0.0194871
0.0214375
0.0234287
0.0254546
0.0275094
0.0295869
0.0316808
0.0337846
0.0358918
0.0379959
0.04009
0.0421676
0.0442218
0.0462458
0.048233
0.0501766
0.0520699
0.0539063
0.0556794
0.0573828
0.0590104
0.0605561
0.0620143
0.0633795
0.0646466
0.0658106
0.0668668
0.0678112
0.0686399
0.0693493
0.0699366
0.0703992
0.0707349
0.0709422
0.0710199
0.0709672
0.0707839
0.0704704
0.0700273
0.0694558
0.0687572
0.0679335
0.0669871
0.0659204
0.0647361
0.0634374
0.062027
0.0605083
0.0588842
0.0571578
0.055332
0.0534081
0.0513874
0.0492855
0.0471155
0.0446833
0.0418206
0.0257438
0.0225839
0.0199282
0.0175892
0.015349
0.0132198
0.0112165
0.00933748
0.00758154
0.00594859
0.00443872
0.00305203
0.0017887
0.000648935
-0.000367077
-0.00125922
-0.0020275
-0.00267204
-0.00319313
-0.00359115
-0.00386663
-0.00402035
-0.0040533
-0.00396665
-0.00376179
-0.00344026
-0.00300384
-0.00245447
-0.00179439
-0.00102601
-0.000152022
0.000824739
0.0019012
0.00307408
0.00433988
0.00569489
0.0071352
0.00865675
0.0102552
0.0119261
0.0136647
0.0154659
0.0173248
0.0192358
0.0211937
0.0231926
0.0252268
0.0272903
0.029377
0.0314807
0.033595
0.0357132
0.0378289
0.0399352
0.0420257
0.0440933
0.0461315
0.0481333
0.050092
0.052001
0.0538535
0.055643
0.057363
0.0590074
0.0605699
0.0620448
0.0634264
0.0647095
0.0658888
0.0669596
0.0679176
0.0687585
0.0694789
0.0700753
0.070545
0.0708855
0.071095
0.071172
0.0711154
0.0709246
0.0705996
0.0701408
0.0695488
0.0688248
0.0679703
0.0669872
0.0658776
0.064644
0.0632889
0.0618149
0.0602249
0.0585216
0.0567079
0.0547865
0.0527584
0.0506248
0.0484021
0.0461044
0.0435256
0.0404876
0.0267095
0.0233764
0.020577
0.0181142
0.0157579
0.0135211
0.0114192
0.00945054
0.00761337
0.00590728
0.004332
0.00288717
0.00157251
0.000387785
-0.000667282
-0.00159304
-0.00238993
-0.00305853
-0.00359954
-0.00401371
-0.00430198
-0.00446546
-0.00450548
-0.00442353
-0.00422126
-0.00390046
-0.00346313
-0.00291146
-0.00224785
-0.00147486
-0.000595301
0.000387867
0.00147146
0.0026521
0.00392624
0.00529013
0.00673987
0.00827132
0.00988017
0.0115619
0.0133117
0.0151247
0.0169958
0.0189196
0.0208907
0.0229034
0.024952
0.0270305
0.0291328
0.0312527
0.0333838
0.0355196
0.0376534
0.0397785
0.0418884
0.043976
0.0460347
0.0480576
0.050038
0.0519689
0.0538436
0.0556555
0.0573981
0.0590651
0.06065
0.0621469
0.0635502
0.0648541
0.0660535
0.0671432
0.0681188
0.0689759
0.0697106
0.0703193
0.0707988
0.0711465
0.0713603
0.0714382
0.0713789
0.0711816
0.0708457
0.0703713
0.0697588
0.0690089
0.0681227
0.0671019
0.0659483
0.0646638
0.0632508
0.0617115
0.0600485
0.0582644
0.0563619
0.0543434
0.0522099
0.0499625
0.0476186
0.045193
0.0424681
0.039256
0.027535
0.0240305
0.0210887
0.0185028
0.0160308
0.0136864
0.0114858
0.009427
0.00750799
0.00572804
0.0040865
0.00258263
0.00121576
-1.47638e-05
-0.00110965
-0.00206968
-0.00289571
-0.00358873
-0.0041498
-0.00458008
-0.00488085
-0.00505358
-0.00509991
-0.00502162
-0.00482062
-0.00449899
-0.00405892
-0.00350282
-0.00283327
-0.00205299
-0.00116493
-0.00017216
0.000922011
0.00211412
0.00340057
0.00477756
0.00624114
0.00778715
0.00941121
0.0111088
0.0128751
0.0147053
0.0165942
0.0185364
0.0205266
0.0225591
0.0246282
0.0267279
0.0288521
0.0309946
0.0331491
0.0353088
0.0374673
0.0396179
0.0417537
0.0438679
0.0459537
0.0480042
0.0500125
0.0519717
0.0538749
0.0557155
0.0574867
0.059182
0.0607951
0.0623196
0.0637497
0.0650797
0.0663039
0.0674173
0.0684148
0.0692921
0.0700448
0.0706691
0.0711615
0.0715192
0.0717396
0.0718205
0.0717603
0.0715576
0.0712118
0.0707224
0.0700896
0.0693138
0.0683957
0.0673366
0.066138
0.0648017
0.0633295
0.0617236
0.0599863
0.0581201
0.0561274
0.0540106
0.0517707
0.0494086
0.0469429
0.0443892
0.0415183
0.0381325
0.0282123
0.0245376
0.0214544
0.0187459
0.0161585
0.0137067
0.0114072
0.00925809
0.00725684
0.00540252
0.00369415
0.00213067
0.000711035
-0.000565805
-0.00170095
-0.00269556
-0.00355092
-0.00426837
-0.00484934
-0.00529537
-0.00560808
-0.00578926
-0.00584086
-0.00576494
-0.00556369
-0.00523944
-0.0047946
-0.00423177
-0.00355371
-0.00276332
-0.00186368
-0.00085802
0.000250277
0.00145767
0.00276048
0.00415485
0.00563674
0.00720197
0.00884612
0.0105646
0.0123527
0.0142055
0.0161177
0.0180842
0.0200994
0.0221577
0.0242533
0.0263805
0.0285329
0.0307044
0.0328886
0.0350789
0.0372687
0.0394511
0.0416195
0.0437669
0.0458864
0.047971
0.0500138
0.0520077
0.0539458
0.0558212
0.0576271
0.0593569
0.0610039
0.0625618
0.0640243
0.0653855
0.0666398
0.0677815
0.0688057
0.0697074
0.0704822
0.0711257
0.0716345
0.0720051
0.0722348
0.0723212
0.072262
0.0720557
0.0717013
0.071198
0.0705456
0.0697441
0.0687941
0.0676965
0.0664526
0.0650637
0.0635315
0.0618581
0.0600455
0.058096
0.056012
0.0537958
0.0514484
0.0489709
0.0463826
0.0437003
0.0406832
0.0371237
0.0287333
0.0248894
0.0216654
0.0188348
0.0161323
0.0135731
0.0111748
0.00893513
0.0068514
0.0049224
0.00314689
0.00152349
5.08069e-05
-0.00127256
-0.00244808
-0.00347729
-0.00436183
-0.00510342
-0.00570385
-0.00616498
-0.00648877
-0.00667733
-0.00673291
-0.00665786
-0.00645461
-0.00612574
-0.00567388
-0.00510184
-0.00441254
-0.00360907
-0.00269467
-0.00167268
-0.000546576
0.000680001
0.0020033
0.00341936
0.00492411
0.00651329
0.00818246
0.00992702
0.0117422
0.0136229
0.0155642
0.0175605
0.0196066
0.0216967
0.0238251
0.0259859
0.0281729
0.0303798
0.0326002
0.0348276
0.0370551
0.0392761
0.0414837
0.0436709
0.0458307
0.0479561
0.0500399
0.052075
0.0540544
0.0559711
0.0578181
0.0595885
0.0612755
0.0628725
0.0643732
0.0657712
0.0670608
0.068236
0.0692916
0.0702223
0.0710234
0.0716903
0.072219
0.072606
0.0728482
0.0729426
0.0728869
0.0726791
0.0723178
0.0718019
0.071131
0.0703047
0.0693233
0.0681874
0.0668979
0.0654561
0.0638635
0.0621218
0.060233
0.0581993
0.056023
0.0537065
0.0512507
0.0486567
0.0459451
0.0431334
0.0399694
0.0362356
0.0290902
0.0250778
0.0217134
0.0187608
0.0159434
0.0132769
0.0107798
0.0084495
0.00628318
0.00427938
0.00243662
0.000753206
-0.000772543
-0.00214238
-0.00335812
-0.00442165
-0.00533495
-0.00610011
-0.00671925
-0.00719456
-0.00752831
-0.00772294
-0.00778096
-0.00770503
-0.00749781
-0.00716211
-0.00670079
-0.00611686
-0.00541345
-0.0045938
-0.00366128
-0.00261937
-0.00147167
-0.000221905
0.00112608
0.00256825
0.00410046
0.0057184
0.00741757
0.00919333
0.0110408
0.0129551
0.0149309
0.016963
0.0190458
0.0211737
0.023341
0.0255417
0.0277696
0.0300183
0.0322815
0.0345525
0.0368245
0.0390907
0.0413442
0.0435779
0.0457847
0.0479575
0.050089
0.052172
0.0541993
0.0561638
0.0580583
0.0598756
0.0616088
0.063251
0.0647957
0.0662364
0.0675667
0.0687808
0.0698729
0.0708375
0.0716694
0.072364
0.0729167
0.0733239
0.0735819
0.0736876
0.0736381
0.0734312
0.0730652
0.0725386
0.0718506
0.0710006
0.0699886
0.0688149
0.0674802
0.0659855
0.0643321
0.0625217
0.0605562
0.0584375
0.0561681
0.0537503
0.0511851
0.0484737
0.0456376
0.0426956
0.0393836
0.0354745
0.0292753
0.0250945
0.0215899
0.0185156
0.0155833
0.0128095
0.0102135
0.00779264
0.00554372
0.00346514
0.00155518
-0.000188123
-0.00176675
-0.00318276
-0.0044383
-0.00553561
-0.00647701
-0.0072649
-0.00790173
-0.00839003
-0.00873238
-0.0089315
-0.00899021
-0.0089114
-0.00869801
-0.00835305
-0.00787965
-0.007281
-0.0065604
-0.00572128
-0.00476715
-0.00370162
-0.0025284
-0.00125133
0.000125652
0.00159844
0.0031628
0.00481437
0.00654858
0.00836073
0.0102459
0.0121992
0.0142153
0.0162888
0.0184144
0.0205862
0.0227986
0.0250454
0.0273205
0.0296176
0.03193
0.0342512
0.0365743
0.0388924
0.0411986
0.0434856
0.0457462
0.0479732
0.0501592
0.0522969
0.0543788
0.0563978
0.0583463
0.0602171
0.0620029
0.0636966
0.0652915
0.0667807
0.0681577
0.0694162
0.0705502
0.0715538
0.0724216
0.0731484
0.0737297
0.0741611
0.0744387
0.0745591
0.074519
0.0743159
0.0739476
0.0734125
0.0727093
0.0718372
0.0707958
0.0695851
0.0682057
0.0666584
0.0649444
0.0630651
0.0610223
0.058818
0.0564547
0.0539347
0.0512591
0.0484291
0.0454674
0.0423938
0.0389324
0.0348462
0.029281
0.0249317
0.0212868
0.0180905
0.0150433
0.0121623
0.00946742
0.00695594
0.0046245
0.00247129
0.000494332
-0.00130855
-0.00293965
-0.00440132
-0.00569604
-0.00682635
-0.00779491
-0.00860444
-0.00925771
-0.00975755
-0.0101069
-0.0103087
-0.0103661
-0.0102822
-0.0100602
-0.00970338
-0.00921505
-0.00859863
-0.00785762
-0.00699557
-0.00601618
-0.00492317
-0.00372039
-0.00241178
-0.00100138
0.000506616
0.00210791
0.00379804
0.00557239
0.0074262
0.00935454
0.0113523
0.0134144
0.0155353
0.0177095
0.0199313
0.0221949
0.0244942
0.026823
0.0291748
0.0315431
0.0339212
0.0363021
0.038679
0.0410446
0.0433917
0.045713
0.0480011
0.0502486
0.0524478
0.0545914
0.0566716
0.0586809
0.0606119
0.0624569
0.0642086
0.06586
0.067404
0.0688338
0.0701426
0.0713242
0.0723723
0.0732813
0.0740455
0.0746599