/*--------------------------------*- C++ -*----------------------------------*\
| =========                 |                                                 |
| \\      /  F ield         | OpenFOAM: The Open Source CFD Toolbox           |
|  \\    /   O peration     | Version:  2212                                  |
|   \\  /    A nd           | Website:  www.openfoam.com                      |
|    \\/     M anipulation  |                                                 |
\*---------------------------------------------------------------------------*/
FoamFile
{
    version     2.0;
    format      ascii;
    arch        "LSB;label=32;scalar=64";
    class       surfaceScalarField;
    location    "0.0865";
    object      phi;
}
// * * * * * * * * * * * * * * * * * * * * * * * * * * * * * * * * * * * * * //

dimensions      [0 3 -1 0 0 0 0];

oriented        oriented;

internalField   nonuniform List<scalar> 
19800
(
7.04118e-11
-7.04171e-11
2.4187e-10
-1.71463e-10
4.30751e-10
-1.88877e-10
5.79024e-10
-1.48275e-10
6.53465e-10
-7.44389e-11
6.35732e-10
1.77418e-11
5.16625e-10
1.19105e-10
2.92773e-10
2.23855e-10
-3.55416e-11
3.2831e-10
-4.65644e-10
4.30098e-10
-9.93322e-10
5.27671e-10
-1.61332e-09
6.19985e-10
-2.31967e-09
7.06356e-10
-3.106e-09
7.86332e-10
-3.96562e-09
8.59631e-10
-4.89172e-09
9.2609e-10
-5.87737e-09
9.85643e-10
-6.91566e-09
1.03829e-09
-7.99971e-09
1.08406e-09
-9.12275e-09
1.12304e-09
-1.02781e-08
1.15534e-09
-1.14592e-08
1.18111e-09
-1.26597e-08
1.20049e-09
-1.38734e-08
1.21367e-09
-1.50942e-08
1.22082e-09
-1.63163e-08
1.22212e-09
-1.75341e-08
1.21777e-09
-1.8742e-08
1.20797e-09
-1.9935e-08
1.19293e-09
-2.11078e-08
1.17286e-09
-2.22558e-08
1.14795e-09
-2.33742e-08
1.11844e-09
-2.44587e-08
1.08452e-09
-2.55052e-08
1.04641e-09
-2.65095e-08
1.00433e-09
-2.7468e-08
9.58502e-10
-2.83771e-08
9.0913e-10
-2.92336e-08
8.56434e-10
-3.00342e-08
8.00637e-10
-3.07762e-08
7.41955e-10
-3.14568e-08
6.80602e-10
-3.20736e-08
6.16805e-10
-3.26243e-08
5.50789e-10
-3.31071e-08
4.82777e-10
-3.35201e-08
4.13008e-10
-3.38618e-08
3.4171e-10
-3.4131e-08
2.69113e-10
-3.43264e-08
1.95455e-10
-3.44474e-08
1.20974e-10
-3.44933e-08
4.59128e-11
-3.44638e-08
-2.948e-11
-3.43589e-08
-1.04958e-10
-3.41786e-08
-1.80267e-10
-3.39235e-08
-2.5514e-10
-3.35941e-08
-3.29317e-10
-3.31916e-08
-4.02537e-10
-3.27171e-08
-4.74528e-10
-3.21721e-08
-5.45016e-10
-3.15583e-08
-6.13736e-10
-3.08779e-08
-6.80406e-10
-3.01332e-08
-7.44737e-10
-2.93267e-08
-8.06453e-10
-2.84615e-08
-8.65278e-10
-2.75405e-08
-9.20926e-10
-2.65674e-08
-9.73115e-10
-2.55458e-08
-1.02158e-09
-2.44798e-08
-1.06605e-09
-2.33735e-08
-1.10625e-09
-2.22316e-08
-1.14189e-09
-2.10589e-08
-1.17274e-09
-1.98604e-08
-1.19853e-09
-1.86413e-08
-1.21903e-09
-1.74073e-08
-1.23399e-09
-1.61641e-08
-1.2432e-09
-1.49177e-08
-1.24645e-09
-1.36742e-08
-1.24352e-09
-1.24399e-08
-1.23425e-09
-1.12214e-08
-1.21847e-09
-1.00254e-08
-1.19605e-09
-8.85854e-09
-1.16686e-09
-7.72774e-09
-1.1308e-09
-6.63992e-09
-1.08782e-09
-5.60204e-09
-1.03788e-09
-4.62105e-09
-9.80996e-10
-3.70383e-09
-9.17223e-10
-2.85714e-09
-8.4668e-10
-2.08758e-09
-7.69561e-10
-1.40143e-09
-6.86154e-10
-8.04573e-10
-5.96868e-10
-3.02291e-10
-5.02284e-10
1.00932e-10
-4.03223e-10
4.01782e-10
-3.00854e-10
5.98637e-10
-1.9686e-10
6.92378e-10
-9.37396e-11
6.87653e-10
4.73196e-12
5.94958e-10
9.27021e-11
4.33866e-10
1.61093e-10
2.38539e-10
1.9532e-10
6.69927e-11
1.7154e-10
6.69943e-11
1.71519e-10
-2.41932e-10
4.71432e-10
-4.71369e-10
7.59124e-10
-4.76564e-10
9.32762e-10
-3.21915e-10
9.21589e-10
-6.3278e-11
6.80278e-10
2.59057e-10
1.82358e-10
6.1702e-10
-5.85039e-10
9.91252e-10
-1.62517e-09
1.36845e-09
-2.93447e-09
1.73941e-09
-4.50451e-09
2.09773e-09
-6.32346e-09
2.43894e-09
-8.37702e-09
2.75992e-09
-1.06492e-08
3.05851e-09
-1.31229e-08
3.33328e-09
-1.57801e-08
3.58329e-09
-1.86024e-08
3.80798e-09
-2.15712e-08
4.00711e-09
-2.46679e-08
4.18066e-09
-2.78736e-08
4.3288e-09
-3.11701e-08
4.45182e-09
-3.45391e-08
4.55013e-09
-3.79628e-08
4.62422e-09
-4.14238e-08
4.67467e-09
-4.49051e-08
4.7021e-09
-4.83901e-08
4.70718e-09
-5.1863e-08
4.69062e-09
-5.53082e-08
4.65313e-09
-5.87107e-08
4.59548e-09
-6.20563e-08
4.51844e-09
-6.53311e-08
4.4228e-09
-6.8522e-08
4.30934e-09
-7.16164e-08
4.17889e-09
-7.46023e-08
4.03225e-09
-7.74682e-08
3.87025e-09
-8.02034e-08
3.69372e-09
-8.27978e-08
3.50349e-09
-8.52417e-08
3.30039e-09
-8.75264e-08
3.08528e-09
-8.96434e-08
2.85899e-09
-9.15852e-08
2.62239e-09
-9.33447e-08
2.37634e-09
-9.49156e-08
2.1217e-09
-9.62922e-08
1.85937e-09
-9.74695e-08
1.59022e-09
-9.84429e-08
1.31518e-09
-9.9209e-08
1.03514e-09
-9.97645e-08
7.51014e-10
-1.00107e-07
4.63751e-10
-1.00236e-07
1.74287e-10
-1.00149e-07
-1.16418e-10
-9.98463e-08
-4.07381e-10
-9.9329e-08
-6.9762e-10
-9.8598e-08
-9.86137e-10
-9.76554e-08
-1.27191e-09
-9.6504e-08
-1.55391e-09
-9.51474e-08
-1.8311e-09
-9.359e-08
-2.10245e-09
-9.18368e-08
-2.36687e-09
-8.98939e-08
-2.62331e-09
-8.7768e-08
-2.8707e-09
-8.54665e-08
-3.10795e-09
-8.29978e-08
-3.33399e-09
-8.0371e-08
-3.54774e-09
-7.75959e-08
-3.74815e-09
-7.46834e-08
-3.93415e-09
-7.16447e-08
-4.10471e-09
-6.84921e-08
-4.25881e-09
-6.52386e-08
-4.39543e-09
-6.18977e-08
-4.51357e-09
-5.8484e-08
-4.6123e-09
-5.50123e-08
-4.69071e-09
-5.14983e-08
-4.74792e-09
-4.79584e-08
-4.7831e-09
-4.44094e-08
-4.79549e-09
-4.08686e-08
-4.78436e-09
-3.73537e-08
-4.74909e-09
-3.38831e-08
-4.68909e-09
-3.04753e-08
-4.60387e-09
-2.71491e-08
-4.49307e-09
-2.39235e-08
-4.35641e-09
-2.08175e-08
-4.19376e-09
-1.78503e-08
-4.00511e-09
-1.50407e-08
-3.79064e-09
-1.24071e-08
-3.55075e-09
-9.9677e-09
-3.2861e-09
-7.7396e-09
-2.99766e-09
-5.73896e-09
-2.6868e-09
-3.98038e-09
-2.35544e-09
-2.47647e-09
-2.00619e-09
-1.23706e-09
-1.64264e-09
-2.68254e-10
-1.26967e-09
4.28963e-10
-8.94088e-10
8.60647e-10
-5.25426e-10
1.04259e-09
-1.77204e-10
1.00406e-09
1.31236e-10
7.92878e-10
3.72267e-10
4.81418e-10
5.06775e-10
1.71444e-10
4.81514e-10
2.38442e-10
1.89557e-10
-4.31489e-10
4.78747e-10
-7.6056e-10
6.94623e-10
-6.92436e-10
7.1453e-10
-3.4181e-10
4.49582e-10
2.0167e-10
-1.60849e-10
8.69485e-10
-1.15472e-09
1.61089e-09
-2.55247e-09
2.38899e-09
-4.36117e-09
3.17714e-09
-6.57786e-09
3.95609e-09
-9.19204e-09
4.71191e-09
-1.21876e-08
5.43454e-09
-1.55445e-08
6.11673e-09
-1.92393e-08
6.7533e-09
-2.32466e-08
7.34065e-09
-2.75396e-08
7.8763e-09
-3.20904e-08
8.35871e-09
-3.68702e-08
8.78699e-09
-4.18504e-08
9.16084e-09
-4.7002e-08
9.48034e-09
-5.22961e-08
9.74594e-09
-5.77043e-08
9.95836e-09
-6.31986e-08
1.01185e-08
-6.87514e-08
1.02275e-08
-7.43359e-08
1.02866e-08
-7.99258e-08
1.02971e-08
-8.54958e-08
1.02606e-08
-9.10211e-08
1.01784e-08
-9.6478e-08
1.00523e-08
-1.01843e-07
9.88389e-09
-1.07095e-07
9.67479e-09
-1.12213e-07
9.42675e-09
-1.17175e-07
9.1415e-09
-1.21964e-07
8.82081e-09
-1.2656e-07
8.46647e-09
-1.30947e-07
8.08028e-09
-1.35107e-07
7.66405e-09
-1.39027e-07
7.21963e-09
-1.4269e-07
6.74885e-09
-1.46085e-07
6.25357e-09
-1.49198e-07
5.73569e-09
-1.52019e-07
5.19709e-09
-1.54537e-07
4.6397e-09
-1.56743e-07
4.06544e-09
-1.58629e-07
3.47629e-09
-1.60188e-07
2.87421e-09
-1.61414e-07
2.26122e-09
-1.62302e-07
1.63934e-09
-1.62849e-07
1.01062e-09
-1.63052e-07
3.7715e-10
-1.6291e-07
-2.5896e-10
-1.62421e-07
-8.95568e-10
-1.61588e-07
-1.5305e-09
-1.60413e-07
-2.16155e-09
-1.58898e-07
-2.78651e-09
-1.57049e-07
-3.40312e-09
-1.54871e-07
-4.00911e-09
-1.52371e-07
-4.60217e-09
-1.49558e-07
-5.18002e-09
-1.46441e-07
-5.7403e-09
-1.43031e-07
-6.28066e-09
-1.39341e-07
-6.79879e-09
-1.35382e-07
-7.29233e-09
-1.31171e-07
-7.75895e-09
-1.26723e-07
-8.19635e-09
-1.22055e-07
-8.60222e-09
-1.17185e-07
-8.97433e-09
-1.12134e-07
-9.31043e-09
-1.06921e-07
-9.60837e-09
-1.01568e-07
-9.86603e-09
-9.6099e-08
-1.00814e-08
-9.05373e-08
-1.02524e-08
-8.49079e-08
-1.03774e-08
-7.92365e-08
-1.04545e-08
-7.355e-08
-1.0482e-08
-6.78757e-08
-1.04586e-08
-6.22418e-08
-1.03829e-08
-5.66771e-08
-1.02538e-08
-5.12108e-08
-1.00702e-08
-4.58723e-08
-9.83159e-09
-4.06913e-08
-9.53738e-09
-3.56976e-08
-9.18748e-09
-3.09206e-08
-8.78207e-09
-2.63894e-08
-8.32178e-09
-2.21325e-08
-7.80772e-09
-1.8177e-08
-7.24158e-09
-1.45488e-08
-6.62582e-09
-1.12718e-08
-5.9638e-09
-8.3672e-09
-5.26009e-09
-5.85262e-09
-4.52078e-09
-3.74122e-09
-3.75403e-09
-2.04013e-09
-2.97075e-09
-7.4863e-10
-2.18559e-09
1.44313e-10
-1.41837e-09
6.63139e-10
-6.9603e-10
8.49644e-10
-5.52707e-11
7.67784e-10
4.54126e-10
5.08736e-10
7.65819e-10
1.95797e-10
7.94453e-10
4.34242e-10
1.50616e-10
-5.82103e-10
3.29054e-10
-9.38993e-10
3.52801e-10
-7.16186e-10
9.10952e-11
-8.01022e-11
-5.52107e-10
8.44873e-10
-1.64431e-09
1.9617e-09
-3.22941e-09
3.19599e-09
-5.33219e-09
4.49178e-09
-7.96221e-09
5.80716e-09
-1.1117e-08
7.11087e-09
-1.47847e-08
8.3796e-09
-1.89462e-08
9.59604e-09
-2.35768e-08
1.07474e-08
-2.86478e-08
1.18243e-08
-3.4127e-08
1.28199e-08
-3.99803e-08
1.37296e-08
-4.61717e-08
1.45501e-08
-5.26643e-08
1.52796e-08
-5.94205e-08
1.5917e-08
-6.64024e-08
1.64623e-08
-7.35722e-08
1.69158e-08
-8.08924e-08
1.72785e-08
-8.83257e-08
1.75518e-08
-9.58356e-08
1.77374e-08
-1.03386e-07
1.78373e-08
-1.10943e-07
1.78537e-08
-1.18471e-07
1.77889e-08
-1.25938e-07
1.76456e-08
-1.33312e-07
1.74263e-08
-1.40562e-07
1.71338e-08
-1.47658e-07
1.6771e-08
-1.54572e-07
1.63407e-08
-1.61277e-07
1.58461e-08
-1.67746e-07
1.529e-08
-1.73955e-07
1.46756e-08
-1.79881e-07
1.40059e-08
-1.85501e-07
1.32841e-08
-1.90795e-07
1.25134e-08
-1.95743e-07
1.1697e-08
-2.00327e-07
1.08381e-08
-2.04532e-07
9.93993e-09
-2.0834e-07
9.00584e-09
-2.1174e-07
8.03916e-09
-2.14718e-07
7.04324e-09
-2.17263e-07
6.02151e-09
-2.19366e-07
4.9774e-09
-2.21019e-07
3.91441e-09
-2.22216e-07
2.83608e-09
-2.22951e-07
1.74596e-09
-2.23222e-07
6.477e-10
-2.23026e-07
-4.5503e-10
-2.22363e-07
-1.55851e-09
-2.21234e-07
-2.65897e-09
-2.19643e-07
-3.75258e-09
-2.17594e-07
-4.83548e-09
-2.15094e-07
-5.90377e-09
-2.12149e-07
-6.95352e-09
-2.08771e-07
-7.98073e-09
-2.04969e-07
-8.98141e-09
-2.00758e-07
-9.95154e-09
-1.96152e-07
-1.08871e-08
-1.91167e-07
-1.1784e-08
-1.85821e-07
-1.26382e-08
-1.80134e-07
-1.34457e-08
-1.74128e-07
-1.42026e-08
-1.67825e-07
-1.49049e-08
-1.61251e-07
-1.55487e-08
-1.54431e-07
-1.61302e-08
-1.47394e-07
-1.66457e-08
-1.40168e-07
-1.70917e-08
-1.32785e-07
-1.74646e-08
-1.25276e-07
-1.77612e-08
-1.17675e-07
-1.79782e-08
-1.10017e-07
-1.81129e-08
-1.02337e-07
-1.81624e-08
-9.46709e-08
-1.81243e-08
-8.70574e-08
-1.79964e-08
-7.95342e-08
-1.7777e-08
-7.214e-08
-1.74645e-08
-6.49137e-08
-1.70579e-08
-5.78945e-08
-1.65566e-08
-5.11214e-08
-1.59606e-08
-4.46329e-08
-1.52706e-08
-3.84668e-08
-1.44878e-08
-3.266e-08
-1.36146e-08
-2.72473e-08
-1.26542e-08
-2.22618e-08
-1.16113e-08
-1.77335e-08
-1.04922e-08
-1.36885e-08
-9.30501e-09
-1.01486e-08
-8.06073e-09
-7.12908e-09
-6.77357e-09
-4.63767e-09
-5.46216e-09
-2.67234e-09
-4.15092e-09
-1.21876e-09
-2.87195e-09
-2.47289e-10
-1.66749e-09
2.90592e-10
-5.93146e-10
4.66534e-10
2.78183e-10
3.79835e-10
8.52514e-10
1.6328e-10
1.011e-09
5.97522e-10
7.92612e-11
-6.61363e-10
7.75772e-11
-9.37306e-10
-1.78214e-10
-4.60386e-10
-8.16186e-10
5.5787e-10
-1.93179e-09
1.96048e-09
-3.59332e-09
3.62321e-09
-5.84604e-09
5.44871e-09
-8.71605e-09
7.36178e-09
-1.22135e-08
9.30464e-09
-1.63357e-08
1.1233e-08
-2.10692e-08
1.31131e-08
-2.63923e-08
1.49192e-08
-3.22769e-08
1.66319e-08
-3.86893e-08
1.82367e-08
-4.55922e-08
1.97228e-08
-5.29452e-08
2.10825e-08
-6.07056e-08
2.23105e-08
-6.88294e-08
2.34034e-08
-7.72715e-08
2.43591e-08
-8.59861e-08
2.51769e-08
-9.49276e-08
2.58573e-08
-1.0405e-07
2.64012e-08
-1.13309e-07
2.68104e-08
-1.22659e-07
2.70874e-08
-1.32056e-07
2.72347e-08
-1.41458e-07
2.72557e-08
-1.50823e-07
2.71537e-08
-1.6011e-07
2.69324e-08
-1.69279e-07
2.65957e-08
-1.78293e-07
2.61479e-08
-1.87115e-07
2.5593e-08
-1.9571e-07
2.49355e-08
-2.04044e-07
2.41798e-08
-2.12085e-07
2.33306e-08
-2.19801e-07
2.23924e-08
-2.27165e-07
2.13699e-08
-2.34149e-07
2.0268e-08
-2.40727e-07
1.90913e-08
-2.46875e-07
1.7845e-08
-2.52571e-07
1.65337e-08
-2.57793e-07
1.51626e-08
-2.62524e-07
1.37367e-08
-2.66746e-07
1.22611e-08
-2.70444e-07
1.07409e-08
-2.73604e-07
9.18133e-09
-2.76214e-07
7.5877e-09
-2.78265e-07
5.96533e-09
-2.79749e-07
4.31962e-09
-2.80659e-07
2.65607e-09
-2.80991e-07
9.8022e-10
-2.80744e-07
-7.02321e-10
-2.79917e-07
-2.38585e-09
-2.78511e-07
-4.0646e-09
-2.76531e-07
-5.73274e-09
-2.73982e-07
-7.38439e-09
-2.70872e-07
-9.01358e-09
-2.67211e-07
-1.06143e-08
-2.63011e-07
-1.21805e-08
-2.58287e-07
-1.37061e-08
-2.53053e-07
-1.51849e-08
-2.4733e-07
-1.66109e-08
-2.41136e-07
-1.79778e-08
-2.34494e-07
-1.92797e-08
-2.2743e-07
-2.05103e-08
-2.19969e-07
-2.16637e-08
-2.1214e-07
-2.27339e-08
-2.03973e-07
-2.37151e-08
-1.95502e-07
-2.46015e-08
-1.8676e-07
-2.53876e-08
-1.77784e-07
-2.60679e-08
-1.68611e-07
-2.66373e-08
-1.59281e-07
-2.70908e-08
-1.49836e-07
-2.74238e-08
-1.40317e-07
-2.76318e-08
-1.30768e-07
-2.7711e-08
-1.21235e-07
-2.76578e-08
-1.11762e-07
-2.7469e-08
-1.02397e-07
-2.7142e-08
-9.31868e-08
-2.66748e-08
-8.41785e-08
-2.60661e-08
-7.54198e-08
-2.53153e-08
-6.69578e-08
-2.44227e-08
-5.88388e-08
-2.33895e-08
-5.11085e-08
-2.22182e-08
-4.38104e-08
-2.09126e-08
-3.69864e-08
-1.94783e-08
-3.06752e-08
-1.79226e-08
-2.49119e-08
-1.62555e-08
-1.97271e-08
-1.44898e-08
-1.51454e-08
-1.26424e-08
-1.11844e-08
-1.07346e-08
-7.85268e-09
-8.79392e-09
-5.14781e-09
-6.8558e-09
-3.05418e-09
-4.96558e-09
-1.54018e-09
-3.18148e-09
-5.5512e-10
-1.57821e-09
-2.568e-11
-2.51261e-10
1.48047e-10
6.78786e-10
9.78123e-11
1.06124e-09
6.95333e-10
-9.99222e-12
-6.51368e-10
-2.36695e-10
-7.106e-10
-8.32707e-10
1.35628e-10
-1.91519e-09
1.64035e-09
-3.57299e-09
3.61829e-09
-5.87047e-09
5.92069e-09
-8.85061e-09
8.42885e-09
-1.2538e-08
1.10492e-08
-1.69416e-08
1.37082e-08
-2.20571e-08
1.63485e-08
-2.78692e-08
1.89252e-08
-3.43535e-08
2.14035e-08
-4.14784e-08
2.37568e-08
-4.92064e-08
2.59647e-08
-5.74954e-08
2.80118e-08
-6.62996e-08
2.98867e-08
-7.55707e-08
3.15816e-08
-8.52583e-08
3.3091e-08
-9.53109e-08
3.44116e-08
-1.05676e-07
3.5542e-08
-1.16301e-07
3.6482e-08
-1.27132e-07
3.72328e-08
-1.38118e-07
3.77965e-08
-1.49207e-07
3.8176e-08
-1.60347e-07
3.83749e-08
-1.71489e-07
3.83973e-08
-1.82583e-07
3.82479e-08
-1.93582e-07
3.79316e-08
-2.0444e-07
3.74537e-08
-2.15113e-07
3.682e-08
-2.25556e-07
3.60362e-08
-2.35728e-07
3.51083e-08
-2.45591e-07
3.40426e-08
-2.55106e-07
3.28453e-08
-2.64237e-07
3.15231e-08
-2.72949e-07
3.00824e-08
-2.81211e-07
2.85299e-08
-2.88992e-07
2.68725e-08
-2.96264e-07
2.51168e-08
-3.03e-07
2.327e-08
-3.09177e-07
2.13389e-08
-3.14771e-07
1.93308e-08
-3.19762e-07
1.72527e-08
-3.24133e-07
1.5112e-08
-3.27868e-07
1.2916e-08
-3.30952e-07
1.06721e-08
-3.33375e-07
8.38784e-09
-3.35126e-07
6.07092e-09
-3.36199e-07
3.72903e-09
-3.36589e-07
1.36998e-09
-3.36293e-07
-9.98291e-10
-3.35311e-07
-3.36777e-09
-3.33645e-07
-5.73034e-09
-3.313e-07
-8.07779e-09
-3.28283e-07
-1.04018e-08
-3.24602e-07
-1.26941e-08
-3.20271e-07
-1.49461e-08
-3.15302e-07
-1.71493e-08
-3.09713e-07
-1.92953e-08
-3.03522e-07
-2.13754e-08
-2.96752e-07
-2.3381e-08
-2.89426e-07
-2.53036e-08
-2.81571e-07
-2.71345e-08
-2.73216e-07
-2.88653e-08
-2.64393e-07
-3.04876e-08
-2.55133e-07
-3.1993e-08
-2.45475e-07
-3.33735e-08
-2.35456e-07
-3.4621e-08
-2.25115e-07
-3.57278e-08
-2.14497e-07
-3.66864e-08
-2.03644e-07
-3.74897e-08
-1.92604e-07
-3.81308e-08
-1.81425e-07
-3.86033e-08
-1.70156e-07
-3.89012e-08
-1.58847e-07
-3.90193e-08
-1.47553e-07
-3.89525e-08
-1.36325e-07
-3.86969e-08
-1.25218e-07
-3.82489e-08
-1.14286e-07
-3.76061e-08
-1.03586e-07
-3.67669e-08
-9.31702e-08
-3.57307e-08
-8.30944e-08
-3.44984e-08
-7.34118e-08
-3.30721e-08
-6.41742e-08
-3.14557e-08
-5.54318e-08
-2.96551e-08
-4.72318e-08
-2.76783e-08
-3.96182e-08
-2.55362e-08
-3.26306e-08
-2.3243e-08
-2.63033e-08
-2.08171e-08
-2.0664e-08
-1.82817e-08
-1.57324e-08
-1.56661e-08
-1.15187e-08
-1.30077e-08
-8.02133e-09
-1.03531e-08
-5.22549e-09
-7.76141e-09
-3.10035e-09
-5.30663e-09
-1.5967e-09
-3.08185e-09
-6.44192e-10
-1.20378e-09
-1.48236e-10
1.8283e-10
1.37824e-11
8.9922e-10
7.09117e-10
-1.08467e-10
-5.42898e-10
-5.87415e-10
-2.31655e-10
-1.5635e-09
1.11172e-09
-3.13763e-09
3.21448e-09
-5.38762e-09
5.86829e-09
-8.37022e-09
8.9033e-09
-1.21231e-08
1.21818e-08
-1.66671e-08
1.55931e-08
-2.20079e-08
1.90491e-08
-2.81385e-08
2.24791e-08
-3.50408e-08
2.58275e-08
-4.26875e-08
2.90502e-08
-5.10435e-08
3.21128e-08
-6.00675e-08
3.49886e-08
-6.9713e-08
3.76572e-08
-7.99296e-08
4.01033e-08
-9.06638e-08
4.23158e-08
-1.0186e-07
4.4287e-08
-1.1346e-07
4.6012e-08
-1.25406e-07
4.74882e-08
-1.3764e-07
4.87151e-08
-1.501e-07
4.96937e-08
-1.6273e-07
5.04262e-08
-1.7547e-07
5.09162e-08
-1.88263e-07
5.1168e-08
-2.01053e-07
5.11868e-08
-2.13783e-07
5.09784e-08
-2.26401e-07
5.05493e-08
-2.38853e-07
4.99063e-08
-2.5109e-07
4.90567e-08
-2.63062e-07
4.8008e-08
-2.74722e-07
4.67682e-08
-2.86025e-07
4.53455e-08
-2.96928e-07
4.3748e-08
-3.07389e-07
4.19845e-08
-3.1737e-07
4.00635e-08
-3.26834e-07
3.79939e-08
-3.35746e-07
3.57847e-08
-3.44074e-07
3.3445e-08
-3.51788e-07
3.0984e-08
-3.5886e-07
2.8411e-08
-3.65265e-07
2.57355e-08
-3.70979e-07
2.2967e-08
-3.75983e-07
2.01153e-08
-3.80257e-07
1.719e-08
-3.83786e-07
1.42013e-08
-3.86557e-07
1.11589e-08
-3.8856e-07
8.07328e-09
-3.89785e-07
4.95456e-09
-3.90228e-07
1.81322e-09
-3.89886e-07
-1.3402e-09
-3.88759e-07
-4.495e-09
-3.86849e-07
-7.64039e-09
-3.84161e-07
-1.07654e-08
-3.80704e-07
-1.38591e-08
-3.76488e-07
-1.69103e-08
-3.71526e-07
-1.99077e-08
-3.65835e-07
-2.28402e-08
-3.59434e-07
-2.56962e-08
-3.52345e-07
-2.84645e-08
-3.44593e-07
-3.11336e-08
-3.36204e-07
-3.36923e-08
-3.27209e-07
-3.61291e-08
-3.17642e-07
-3.84328e-08
-3.07537e-07
-4.05923e-08
-2.96934e-07
-4.25967e-08
-2.85872e-07
-4.44352e-08
-2.74396e-07
-4.60973e-08
-2.6255e-07
-4.75729e-08
-2.50385e-07
-4.88521e-08
-2.37949e-07
-4.99256e-08
-2.25295e-07
-5.07844e-08
-2.12478e-07
-5.14203e-08
-1.99554e-07
-5.18255e-08
-1.8658e-07
-5.1993e-08
-1.73616e-07
-5.19168e-08
-1.60721e-07
-5.15914e-08
-1.47957e-07
-5.10129e-08
-1.35385e-07
-5.0178e-08
-1.23067e-07
-4.9085e-08
-1.11064e-07
-4.77338e-08
-9.9437e-08
-4.61256e-08
-8.82452e-08
-4.42639e-08
-7.75466e-08
-4.21543e-08
-6.73969e-08
-3.98048e-08
-5.78483e-08
-3.72268e-08
-4.89496e-08
-3.44349e-08
-4.07445e-08
-3.14481e-08
-3.32709e-08
-2.82907e-08
-2.65597e-08
-2.4993e-08
-2.06331e-08
-2.15927e-08
-1.55038e-08
-1.8137e-08
-1.11726e-08
-1.46843e-08
-7.62723e-09
-1.13068e-08
-4.83998e-09
-8.09386e-09
-2.7662e-09
-5.15564e-09
-1.34206e-09
-2.62792e-09
-4.827e-10
-6.76535e-10
-8.00904e-11
4.96613e-10
6.29032e-10
-2.10918e-10
-3.31976e-10
-9.57138e-10
5.14567e-10
-2.33772e-09
2.4923e-09
-4.43427e-09
5.31102e-09
-7.31058e-09
8.7446e-09
-1.10131e-08
1.26058e-08
-1.55718e-08
1.67405e-08
-2.10016e-08
2.10229e-08
-2.73035e-08
2.5351e-08
-3.44665e-08
2.96421e-08
-4.24687e-08
3.38298e-08
-5.12794e-08
3.78608e-08
-6.08597e-08
4.16931e-08
-7.11644e-08
4.52934e-08
-8.2143e-08
4.86359e-08
-9.37407e-08
5.1701e-08
-1.05899e-07
5.44743e-08
-1.18558e-07
5.69455e-08
-1.31654e-07
5.91079e-08
-1.45123e-07
6.09577e-08
-1.58901e-07
6.24935e-08
-1.72924e-07
6.3716e-08
-1.87125e-07
6.46279e-08
-2.01442e-07
6.52329e-08
-2.15811e-07
6.55364e-08
-2.30168e-07
6.55445e-08
-2.44454e-07
6.52643e-08
-2.58609e-07
6.47037e-08
-2.72574e-07
6.38713e-08
-2.86293e-07
6.2776e-08
-2.99712e-07
6.14274e-08
-3.12779e-07
5.98354e-08
-3.25444e-07
5.80102e-08
-3.37659e-07
5.59624e-08
-3.49377e-07
5.37028e-08
-3.60556e-07
5.12424e-08
-3.71154e-07
4.85924e-08
-3.81134e-07
4.57642e-08
-3.90458e-07
4.27695e-08
-3.99094e-07
3.962e-08
-4.07011e-07
3.63275e-08
-4.1418e-07
3.29043e-08
-4.20575e-07
2.93624e-08
-4.26174e-07
2.57142e-08
-4.30956e-07
2.19724e-08
-4.34905e-07
1.81495e-08
-4.38004e-07
1.42585e-08
-4.40243e-07
1.03122e-08
-4.41612e-07
6.32397e-09
-4.42106e-07
2.30704e-09
-4.41721e-07
-1.72508e-09
-4.40458e-07
-5.75874e-09
-4.38318e-07
-9.78013e-09
-4.35308e-07
-1.37753e-08
-4.31437e-07
-1.77302e-08
-4.26717e-07
-2.16306e-08
-4.21162e-07
-2.54622e-08
-4.14792e-07
-2.92105e-08
-4.07627e-07
-3.28612e-08
-3.99691e-07
-3.63998e-08
-3.91013e-07
-3.98117e-08
-3.81623e-07
-4.30825e-08
-3.71554e-07
-4.61978e-08
-3.60844e-07
-4.91434e-08
-3.49531e-07
-5.19052e-08
-3.37658e-07
-5.44692e-08
-3.25271e-07
-5.6822e-08
-3.12419e-07
-5.89501e-08
-2.99151e-07
-6.08409e-08
-2.85521e-07
-6.24818e-08
-2.71585e-07
-6.38612e-08
-2.57402e-07
-6.49679e-08
-2.43031e-07
-6.57914e-08
-2.28534e-07
-6.63221e-08
-2.13976e-07
-6.65515e-08
-1.99421e-07
-6.64719e-08
-1.84935e-07
-6.6077e-08
-1.70586e-07
-6.53617e-08
-1.56442e-07
-6.43226e-08
-1.42569e-07
-6.29577e-08
-1.29036e-07
-6.12671e-08
-1.15908e-07
-5.92531e-08
-1.03252e-07
-5.69205e-08
-9.11292e-08
-5.42767e-08
-7.96016e-08
-5.13325e-08
-6.87258e-08
-4.81025e-08
-5.85549e-08
-4.46058e-08
-4.91367e-08
-4.08663e-08
-4.05128e-08
-3.69146e-08
-3.27175e-08
-3.27883e-08
-2.57765e-08
-2.85337e-08
-1.97056e-08
-2.42079e-08
-1.45094e-08
-1.98806e-08
-1.01796e-08
-1.56367e-08
-6.69375e-09
-1.15797e-08
-4.01414e-09
-7.83524e-09
-2.08618e-09
-4.55587e-09
-8.37714e-10
-1.92501e-09
-1.78442e-10
-1.62655e-10
4.50595e-10
-3.14231e-10
-1.77417e-11
-1.33458e-09
1.53492e-09
-3.13289e-09
4.29063e-09
-5.77022e-09
7.94835e-09
-9.29456e-09
1.22689e-08
-1.37401e-08
1.70514e-08
-1.91274e-08
2.21278e-08
-2.54637e-08
2.73592e-08
-3.2744e-08
3.26312e-08
-4.0952e-08
3.78501e-08
-5.00614e-08
4.29392e-08
-6.00371e-08
4.78365e-08
-7.08363e-08
5.24923e-08
-8.24097e-08
5.68668e-08
-9.47026e-08
6.09288e-08
-1.07656e-07
6.46543e-08
-1.21207e-07
6.80253e-08
-1.3529e-07
7.10288e-08
-1.49838e-07
7.3656e-08
-1.64782e-07
7.59017e-08
-1.80053e-07
7.77638e-08
-1.95579e-07
7.92425e-08
-2.11292e-07
8.03405e-08
-2.27121e-07
8.10622e-08
-2.42998e-07
8.14136e-08
-2.58856e-07
8.14018e-08
-2.74627e-07
8.10354e-08
-2.90247e-07
8.03238e-08
-3.05653e-07
7.92772e-08
-3.20783e-07
7.79065e-08
-3.35579e-07
7.62234e-08
-3.49984e-07
7.42397e-08
-3.63942e-07
7.19682e-08
-3.77401e-07
6.94216e-08
-3.90311e-07
6.66133e-08
-4.02626e-07
6.35567e-08
-4.14299e-07
6.02658e-08
-4.25289e-07
5.67545e-08
-4.35557e-07
5.30373e-08
-4.45066e-07
4.91286e-08
-4.53781e-07
4.50432e-08
-4.61673e-07
4.07959e-08
-4.68713e-07
3.6402e-08
-4.74875e-07
3.18767e-08
-4.80138e-07
2.72356e-08
-4.84483e-07
2.24944e-08
-4.87894e-07
1.76689e-08
-4.90357e-07
1.27753e-08
-4.91863e-07
7.83e-09
-4.92405e-07
2.8494e-09
-4.91981e-07
-2.14976e-09
-4.90589e-07
-7.15058e-09
-4.88233e-07
-1.2136e-08
-4.8492e-07
-1.70887e-08
-4.80658e-07
-2.19913e-08
-4.75463e-07
-2.68262e-08
-4.69349e-07
-3.15758e-08
-4.62337e-07
-3.62222e-08
-4.54451e-07
-4.07477e-08
-4.45716e-07
-4.51343e-08
-4.36164e-07
-4.93642e-08
-4.25827e-07
-5.34195e-08
-4.14742e-07
-5.72826e-08
-4.0295e-07
-6.09359e-08
-3.90493e-07
-6.4362e-08
-3.77418e-07
-6.75439e-08
-3.63775e-07
-7.0465e-08
-3.49616e-07
-7.31089e-08
-3.34997e-07
-7.54599e-08
-3.19976e-07
-7.75029e-08
-3.04614e-07
-7.92236e-08
-2.88973e-07
-8.06083e-08
-2.7312e-07
-8.16444e-08
-2.57122e-07
-8.23203e-08
-2.41048e-07
-8.26256e-08
-2.24969e-07
-8.25512e-08
-2.08956e-07
-8.20896e-08
-1.93083e-07
-8.12349e-08
-1.77423e-07
-7.99831e-08
-1.62048e-07
-7.83324e-08
-1.47032e-07
-7.62833e-08
-1.32446e-07
-7.3839e-08
-1.18361e-07
-7.10056e-08
-1.04844e-07
-6.7793e-08
-9.1962e-08
-6.42147e-08
-7.97757e-08
-6.02889e-08
-6.83424e-08
-5.6039e-08
-5.77142e-08
-5.14946e-08
-4.79366e-08
-4.66923e-08
-3.90478e-08
-4.16771e-08
-3.10774e-08
-3.6504e-08
-2.40457e-08
-3.12397e-08
-1.79617e-08
-2.59645e-08
-1.28229e-08
-2.07754e-08
-8.61384e-09
-1.57888e-08
-5.30523e-09
-1.11438e-08
-2.85373e-09
-7.00738e-09
-1.20172e-09
-3.57702e-09
-2.78041e-10
-1.08633e-09
1.72556e-10
-4.16578e-10
3.98832e-10
-1.71252e-09
2.83086e-09
-3.93395e-09
6.51207e-09
-7.12123e-09
1.11356e-08
-1.13057e-08
1.64534e-08
-1.65082e-08
2.22539e-08
-2.27383e-08
2.83579e-08
-2.99946e-08
3.46155e-08
-3.82648e-08
4.09014e-08
-4.75263e-08
4.71116e-08
-5.77475e-08
5.31604e-08
-6.88884e-08
5.89774e-08
-8.09017e-08
6.45056e-08
-9.37337e-08
6.96988e-08
-1.07325e-07
7.45205e-08
-1.21614e-07
7.89424e-08
-1.36531e-07
8.29427e-08
-1.52008e-07
8.65056e-08
-1.67972e-07
8.96202e-08
-1.8435e-07
9.22798e-08
-2.01068e-07
9.44813e-08
-2.1805e-07
9.62247e-08
-2.35222e-07
9.75125e-08
-2.52509e-07
9.83495e-08
-2.69838e-07
9.87425e-08
-2.87136e-07
9.86999e-08
-3.04332e-07
9.82315e-08
-3.21357e-07
9.73482e-08
-3.38141e-07
9.60622e-08
-3.54621e-07
9.43862e-08
-3.70732e-07
9.23341e-08
-3.86412e-07
8.99201e-08
-4.01603e-07
8.71592e-08
-4.16248e-07
8.40669e-08
-4.30294e-07
8.0659e-08
-4.43689e-07
7.69517e-08
-4.56385e-07
7.29618e-08
-4.68337e-07
6.87061e-08
-4.79501e-07
6.42019e-08
-4.89839e-07
5.94667e-08
-4.99314e-07
5.45182e-08
-5.07893e-07
4.93745e-08
-5.15545e-07
4.40538e-08
-5.22243e-07
3.85746e-08
-5.27963e-07
3.29558e-08
-5.32685e-07
2.72162e-08
-5.36391e-07
2.13752e-08
-5.39068e-07
1.54521e-08
-5.40704e-07
9.46675e-09
-5.41294e-07
3.43904e-09
-5.40833e-07
-2.61085e-09
-5.39321e-07
-8.66249e-09
-5.36762e-07
-1.46953e-08
-5.33162e-07
-2.06883e-08
-5.28533e-07
-2.66207e-08
-5.22888e-07
-3.24711e-08
-5.16245e-07
-3.82184e-08
-5.08627e-07
-4.38409e-08
-5.00057e-07
-4.93174e-08
-4.90565e-07
-5.46261e-08
-4.80184e-07
-5.97457e-08
-4.68948e-07
-6.46547e-08
-4.56899e-07
-6.93317e-08
-4.44079e-07
-7.37558e-08
-4.30535e-07
-7.79061e-08
-4.16317e-07
-8.17621e-08
-4.01478e-07
-8.53039e-08
-3.86075e-07
-8.85119e-08
-3.70168e-07
-9.13675e-08
-3.53818e-07
-9.38525e-08
-3.37092e-07
-9.59498e-08
-3.20057e-07
-9.76431e-08
-3.02784e-07
-9.89176e-08
-2.85345e-07
-9.97595e-08
-2.67814e-07
-1.00156e-07
-2.50267e-07
-1.00098e-07
-2.32782e-07
-9.95752e-08
-2.15435e-07
-9.85815e-08
-1.98306e-07
-9.71125e-08
-1.81472e-07
-9.51661e-08
-1.65012e-07
-9.27436e-08
-1.49002e-07
-8.9849e-08
-1.33517e-07
-8.64903e-08
-1.18631e-07
-8.26794e-08
-1.04412e-07
-7.8433e-08
-9.09283e-08
-7.37729e-08
-7.82402e-08
-6.87271e-08
-6.64043e-08
-6.33305e-08
-5.54704e-08
-5.76262e-08
-4.54811e-08
-5.16664e-08
-3.64708e-08
-4.55143e-08
-2.84646e-08
-3.92459e-08
-2.14775e-08
-3.29516e-08
-1.55138e-08
-2.67392e-08
-1.05659e-08
-2.07366e-08
-6.61475e-09
-1.5095e-08
-3.62925e-09
-9.99288e-09
-1.56726e-09
-5.63901e-09
-3.76972e-10
-2.27662e-09
-2.04416e-10
-5.16937e-10
9.15772e-10
-2.08649e-09
4.40039e-09
-4.73101e-09
9.15659e-09
-8.47076e-09
1.48754e-08
-1.33203e-08
2.13029e-08
-1.92863e-08
2.82199e-08
-2.63669e-08
3.54385e-08
-3.45508e-08
4.27994e-08
-4.38173e-08
5.0168e-08
-5.41372e-08
5.74314e-08
-6.54724e-08
6.44956e-08
-7.77775e-08
7.12826e-08
-9.10002e-08
7.77283e-08
-1.05082e-07
8.37807e-08
-1.1996e-07
8.93982e-08
-1.35565e-07
9.4548e-08
-1.51828e-07
9.92048e-08
-1.68672e-07
1.0335e-07
-1.86022e-07
1.0697e-07
-2.038e-07
1.10058e-07
-2.21928e-07
1.12609e-07
-2.40325e-07
1.14622e-07
-2.58912e-07
1.161e-07
-2.77611e-07
1.17048e-07
-2.96343e-07
1.17475e-07
-3.15032e-07
1.17389e-07
-3.33601e-07
1.16801e-07
-3.51977e-07
1.15724e-07
-3.70088e-07
1.14173e-07
-3.87863e-07
1.12161e-07
-4.05234e-07
1.09706e-07
-4.22138e-07
1.06823e-07
-4.38509e-07
1.03531e-07
-4.5429e-07
9.98471e-08
-4.69421e-07
9.57902e-08
-4.83849e-07
9.13796e-08
-4.97522e-07
8.66347e-08
-5.10391e-07
8.15755e-08
-5.22412e-07
7.62225e-08
-5.33541e-07
7.05962e-08
-5.43741e-07
6.47177e-08
-5.52975e-07
5.86083e-08
-5.6121e-07
5.22896e-08
-5.68419e-07
4.57836e-08
-5.74576e-07
3.91123e-08
-5.79658e-07
3.22984e-08
-5.83647e-07
2.53645e-08
-5.86529e-07
1.83338e-08
-5.88292e-07
1.12296e-08
-5.88928e-07
4.07542e-09
-5.88434e-07
-3.10474e-09
-5.8681e-07
-1.02867e-08
-5.84059e-07
-1.74462e-08
-5.80189e-07
-2.45584e-08
-5.75211e-07
-3.15986e-08
-5.69141e-07
-3.85417e-08
-5.61996e-07
-4.53625e-08
-5.53802e-07
-5.20357e-08
-5.44583e-07
-5.85359e-08
-5.34372e-07
-6.48377e-08
-5.23202e-07
-7.09157e-08
-5.11112e-07
-7.67447e-08
-4.98144e-07
-8.22994e-08
-4.84344e-07
-8.75552e-08
-4.69763e-07
-9.24875e-08
-4.54453e-07
-9.70723e-08
-4.38471e-07
-1.01286e-07
-4.21877e-07
-1.05106e-07
-4.04735e-07
-1.08509e-07
-3.87111e-07
-1.11476e-07
-3.69076e-07
-1.13985e-07
-3.507e-07
-1.16019e-07
-3.3206e-07
-1.17558e-07
-3.13231e-07
-1.18588e-07
-2.94293e-07
-1.19094e-07
-2.75327e-07
-1.19065e-07
-2.56413e-07
-1.18489e-07
-2.37635e-07
-1.17359e-07
-2.19076e-07
-1.15672e-07
-2.00819e-07
-1.13423e-07
-1.82946e-07
-1.10616e-07
-1.6554e-07
-1.07256e-07
-1.48679e-07
-1.03351e-07
-1.32441e-07
-9.8917e-08
-1.16902e-07
-9.39728e-08
-1.0213e-07
-8.85443e-08
-8.81932e-08
-8.2664e-08
-7.51516e-08
-7.63721e-08
-6.30598e-08
-6.97179e-08
-5.19654e-08
-6.27608e-08
-4.1908e-08
-5.55717e-08
-3.29186e-08
-4.82352e-08
-2.5019e-08
-4.08512e-08
-1.82208e-08
-3.35373e-08
-1.25259e-08
-2.64315e-08
-7.92584e-09
-1.96951e-08
-4.40259e-09
-1.35161e-08
-1.92968e-09
-8.11191e-09
-4.74134e-10
-3.73217e-09
-6.7855e-10
-6.14757e-10
1.53054e-09
-2.4538e-09
6.23944e-09
-5.51781e-09
1.22206e-08
-9.80795e-09
1.91655e-08
-1.53222e-08
2.68171e-08
-2.2053e-08
3.49508e-08
-2.99864e-08
4.33719e-08
-3.91006e-08
5.19136e-08
-4.93662e-08
6.04335e-08
-6.07459e-08
6.88111e-08
-7.31951e-08
7.69448e-08
-8.66623e-08
8.47497e-08
-1.0109e-07
9.21556e-08
-1.16414e-07
9.91048e-08
-1.32566e-07
1.05551e-07
-1.49475e-07
1.11457e-07
-1.67064e-07
1.16794e-07
-1.85254e-07
1.2154e-07
-2.03965e-07
1.25682e-07
-2.23116e-07
1.29208e-07
-2.42621e-07
1.32114e-07
-2.62399e-07
1.34399e-07
-2.82365e-07
1.36066e-07
-3.02436e-07
1.3712e-07
-3.22531e-07
1.37569e-07
-3.42567e-07
1.37425e-07
-3.62465e-07
1.36699e-07
-3.82147e-07
1.35406e-07
-4.01537e-07
1.33563e-07
-4.20561e-07
1.31185e-07
-4.39148e-07
1.28293e-07
-4.57228e-07
1.24903e-07
-4.74735e-07
1.21038e-07
-4.91606e-07
1.16718e-07
-5.0778e-07
1.11964e-07
-5.23199e-07
1.06799e-07
-5.37809e-07
1.01245e-07
-5.51559e-07
9.53251e-08
-5.644e-07
8.90636e-08
-5.76288e-07
8.24843e-08
-5.87182e-07
7.56116e-08
-5.97044e-07
6.84702e-08
-6.05839e-07
6.10853e-08
-6.13538e-07
5.34825e-08
-6.20113e-07
4.56875e-08
-6.25542e-07
3.77265e-08
-6.29803e-07
2.96262e-08
-6.32883e-07
2.14133e-08
-6.34768e-07
1.31149e-08
-6.35451e-07
4.75873e-09
-6.34929e-07
-3.62757e-09
-6.332e-07
-1.20158e-08
-6.30268e-07
-2.03776e-08
-6.26142e-07
-2.86843e-08
-6.20834e-07
-3.6907e-08
-6.14359e-07
-4.50165e-08
-6.06738e-07
-5.29836e-08
-5.97995e-07
-6.07788e-08
-5.88158e-07