/*--------------------------------*- C++ -*----------------------------------*\
| =========                 |                                                 |
| \\      /  F ield         | OpenFOAM: The Open Source CFD Toolbox           |
|  \\    /   O peration     | Version:  2212                                  |
|   \\  /    A nd           | Website:  www.openfoam.com                      |
|    \\/     M anipulation  |                                                 |
\*---------------------------------------------------------------------------*/
FoamFile
{
    version     2.0;
    format      ascii;
    arch        "LSB;label=32;scalar=64";
    class       volVectorField;
    location    "0.0865";
    object      U_0;
}
// * * * * * * * * * * * * * * * * * * * * * * * * * * * * * * * * * * * * * //

dimensions      [0 1 -1 0 0 0 0];

internalField   nonuniform List<vector> 
10000
(
(2.99868e-06 -2.9899e-06 0)
(1.49027e-05 -7.7035e-06 0)
(3.38678e-05 -8.89899e-06 0)
(5.17131e-05 -7.67875e-06 0)
(6.34251e-05 -5.17864e-06 0)
(6.65732e-05 -2.05603e-06 0)
(5.98938e-05 1.32511e-06 0)
(4.28092e-05 4.7582e-06 0)
(1.51974e-05 8.12615e-06 0)
(-2.27709e-05 1.13614e-05 0)
(-7.07364e-05 1.44249e-05 0)
(-0.000128216 1.72929e-05 0)
(-0.000194641 1.99517e-05 0)
(-0.000269392 2.23939e-05 0)
(-0.000351809 2.46172e-05 0)
(-0.000441216 2.66214e-05 0)
(-0.000536922 2.84076e-05 0)
(-0.000638235 2.99792e-05 0)
(-0.000744465 3.13397e-05 0)
(-0.000854927 3.24943e-05 0)
(-0.00096895 3.34479e-05 0)
(-0.00108587 3.4206e-05 0)
(-0.00120505 3.47744e-05 0)
(-0.00132584 3.51591e-05 0)
(-0.00144765 3.53661e-05 0)
(-0.00156988 3.54017e-05 0)
(-0.00169194 3.5272e-05 0)
(-0.0018133 3.49836e-05 0)
(-0.00193341 3.45433e-05 0)
(-0.00205176 3.39574e-05 0)
(-0.00216785 3.32323e-05 0)
(-0.00228122 3.23744e-05 0)
(-0.00239142 3.13897e-05 0)
(-0.00249801 3.02846e-05 0)
(-0.0026006 2.90652e-05 0)
(-0.00269878 2.77376e-05 0)
(-0.0027922 2.63085e-05 0)
(-0.00288052 2.47834e-05 0)
(-0.0029634 2.31693e-05 0)
(-0.00304056 2.1473e-05 0)
(-0.00311172 1.97003e-05 0)
(-0.00317661 1.78576e-05 0)
(-0.00323502 1.59511e-05 0)
(-0.00328672 1.39869e-05 0)
(-0.00333153 1.1972e-05 0)
(-0.00336929 9.91299e-06 0)
(-0.00339985 7.81587e-06 0)
(-0.00342309 5.68754e-06 0)
(-0.00343893 3.53492e-06 0)
(-0.00344728 1.36489e-06 0)
(-0.00344811 -8.15012e-07 0)
(-0.00344139 -2.99752e-06 0)
(-0.00342713 -5.17593e-06 0)
(-0.00340536 -7.34289e-06 0)
(-0.00337613 -9.49028e-06 0)
(-0.00333953 -1.16104e-05 0)
(-0.00329566 -1.36962e-05 0)
(-0.00324467 -1.57401e-05 0)
(-0.00318672 -1.77342e-05 0)
(-0.003122 -1.96698e-05 0)
(-0.00305072 -2.15388e-05 0)
(-0.00297313 -2.33331e-05 0)
(-0.00288951 -2.50444e-05 0)
(-0.00280016 -2.66644e-05 0)
(-0.00270542 -2.81851e-05 0)
(-0.00260564 -2.95985e-05 0)
(-0.0025012 -3.08964e-05 0)
(-0.00239253 -3.20705e-05 0)
(-0.00228007 -3.31127e-05 0)
(-0.00216427 -3.40151e-05 0)
(-0.00204564 -3.47706e-05 0)
(-0.00192469 -3.5372e-05 0)
(-0.00180196 -3.58123e-05 0)
(-0.00167801 -3.60841e-05 0)
(-0.00155344 -3.61804e-05 0)
(-0.00142885 -3.60947e-05 0)
(-0.00130486 -3.58212e-05 0)
(-0.00118212 -3.53546e-05 0)
(-0.00106129 -3.46905e-05 0)
(-0.000943037 -3.38245e-05 0)
(-0.000828041 -3.27523e-05 0)
(-0.000716994 -3.14698e-05 0)
(-0.000610592 -2.99741e-05 0)
(-0.000509529 -2.82644e-05 0)
(-0.000414499 -2.63412e-05 0)
(-0.000326185 -2.42051e-05 0)
(-0.000245258 -2.18575e-05 0)
(-0.000172363 -1.93022e-05 0)
(-0.000108111 -1.65473e-05 0)
(-5.3068e-05 -1.36047e-05 0)
(-7.72989e-06 -1.04922e-05 0)
(2.75039e-05 -7.23707e-06 0)
(5.23724e-05 -3.88367e-06 0)
(6.68158e-05 -5.05417e-07 0)
(7.10771e-05 2.77422e-06 0)
(6.58642e-05 5.7448e-06 0)
(5.25727e-05 8.04239e-06 0)
(3.37494e-05 9.02006e-06 0)
(1.4459e-05 7.58388e-06 0)
(2.7765e-06 2.77654e-06 0)
(7.70672e-06 -1.48842e-05 0)
(3.12611e-05 -3.12378e-05 0)
(6.28726e-05 -3.33887e-05 0)
(8.81891e-05 -2.55065e-05 0)
(9.77016e-05 -1.14387e-05 0)
(8.59087e-05 6.20777e-06 0)
(4.9426e-05 2.57288e-05 0)
(-1.3616e-05 4.6012e-05 0)
(-0.000103952 6.63276e-05 0)
(-0.000221511 8.61942e-05 0)
(-0.000365655 0.000105289 0)
(-0.000535341 0.000123394 0)
(-0.000729242 0.000140363 0)
(-0.000945831 0.000156098 0)
(-0.00118344 0.000170536 0)
(-0.0014403 0.000183641 0)
(-0.0017146 0.000195394 0)
(-0.00200448 0.000205789 0)
(-0.00230806 0.000214835 0)
(-0.00262348 0.000222544 0)
(-0.00294889 0.000228938 0)
(-0.00328244 0.000234043 0)
(-0.00362234 0.000237886 0)
(-0.00396683 0.000240502 0)
(-0.00431419 0.000241923 0)
(-0.00466273 0.000242188 0)
(-0.00501085 0.000241334 0)
(-0.00535695 0.000239401 0)
(-0.00569952 0.000236428 0)
(-0.00603711 0.000232457 0)
(-0.0063683 0.000227529 0)
(-0.00669174 0.000221686 0)
(-0.00700615 0.00021497 0)
(-0.0073103 0.000207423 0)
(-0.00760301 0.000199088 0)
(-0.00788319 0.000190006 0)
(-0.00814978 0.000180221 0)
(-0.0084018 0.000169776 0)
(-0.00863833 0.000158713 0)
(-0.0088585 0.000147079 0)
(-0.00906152 0.000134916 0)
(-0.00924667 0.000122269 0)
(-0.00941326 0.000109181 0)
(-0.0095607 9.56974e-05 0)
(-0.00968845 8.18639e-05 0)
(-0.00979604 6.7726e-05 0)
(-0.00988306 5.33307e-05 0)
(-0.00994918 3.87245e-05 0)
(-0.00999413 2.39545e-05 0)
(-0.0100177 9.06994e-06 0)
(-0.0100198 -5.87931e-06 0)
(-0.0100003 -2.08437e-05 0)
(-0.00995936 -3.57727e-05 0)
(-0.00989694 -5.06146e-05 0)
(-0.00981325 -6.53175e-05 0)
(-0.00970853 -7.98292e-05 0)
(-0.00958311 -9.40962e-05 0)
(-0.00943737 -0.000108064 0)
(-0.0092718 -0.00012168 0)
(-0.00908694 -0.000134889 0)
(-0.00888343 -0.000147634 0)
(-0.00866198 -0.000159861 0)
(-0.00842338 -0.000171513 0)
(-0.0081685 -0.000182535 0)
(-0.00789829 -0.000192871 0)
(-0.00761378 -0.000202467 0)
(-0.00731608 -0.000211268 0)
(-0.00700636 -0.000219222 0)
(-0.00668589 -0.000226275 0)
(-0.00635599 -0.000232376 0)
(-0.00601806 -0.000237476 0)
(-0.00567358 -0.000241528 0)
(-0.00532408 -0.000244484 0)
(-0.00497115 -0.0002463 0)
(-0.00461645 -0.000246936 0)
(-0.00426169 -0.000246352 0)
(-0.00390862 -0.000244514 0)
(-0.00355906 -0.000241389 0)
(-0.00321484 -0.000236952 0)
(-0.00287783 -0.000231179 0)
(-0.00254992 -0.000224054 0)
(-0.00223302 -0.000215564 0)
(-0.00192903 -0.000205705 0)
(-0.00163986 -0.000194481 0)
(-0.00136737 -0.000181909 0)
(-0.0011134 -0.000168013 0)
(-0.00087972 -0.000152835 0)
(-0.000667997 -0.000136436 0)
(-0.000479781 -0.000118904 0)
(-0.000316451 -0.000100362 0)
(-0.000179147 -8.09817e-05 0)
(-6.86948e-05 -6.1005e-05 0)
(1.45139e-05 -4.07786e-05 0)
(7.06776e-05 -2.08071e-05 0)
(0.000100818 -1.83624e-06 0)
(0.000107096 1.50161e-05 0)
(9.31716e-05 2.80672e-05 0)
(6.47632e-05 3.47771e-05 0)
(3.14793e-05 3.14741e-05 0)
(7.57715e-06 1.44483e-05 0)
(8.92482e-06 -3.3873e-05 0)
(3.35396e-05 -6.28857e-05 0)
(6.17453e-05 -6.1463e-05 0)
(7.63838e-05 -3.84038e-05 0)
(6.59753e-05 -8.94049e-07 0)
(2.33859e-05 4.56991e-05 0)
(-5.61016e-05 9.75116e-05 0)
(-0.000175304 0.000151814 0)
(-0.000335513 0.000206686 0)
(-0.000536862 0.000260775 0)
(-0.000778626 0.000313127 0)
(-0.00105943 0.000363064 0)
(-0.00137744 0.000410108 0)
(-0.00173046 0.000453926 0)
(-0.00211603 0.000494288 0)
(-0.00253152 0.000531045 0)
(-0.0029742 0.000564107 0)
(-0.00344121 0.000593427 0)
(-0.00392969 0.000618996 0)
(-0.00443674 0.000640832 0)
(-0.00495947 0.000658974 0)
(-0.00549503 0.000673478 0)
(-0.00604057 0.000684414 0)
(-0.00659333 0.000691863 0)
(-0.00715058 0.000695914 0)
(-0.00770966 0.000696664 0)
(-0.008268 0.000694214 0)
(-0.00882308 0.000688672 0)
(-0.0093725 0.000680148 0)
(-0.0099139 0.000668754 0)
(-0.010445 0.000654608 0)
(-0.0109638 0.000637825 0)
(-0.011468 0.000618526 0)
(-0.0119558 0.000596829 0)
(-0.0124252 0.000572857 0)
(-0.0128746 0.000546731 0)
(-0.0133021 0.000518575 0)
(-0.0137062 0.000488513 0)
(-0.0140855 0.00045667 0)
(-0.0144386 0.000423171 0)
(-0.0147641 0.000388145 0)
(-0.0150609 0.00035172 0)
(-0.015328 0.000314023 0)
(-0.0155643 0.000275187 0)
(-0.015769 0.000235342 0)
(-0.0159413 0.000194622 0)
(-0.0160807 0.000153161 0)
(-0.0161864 0.000111097 0)
(-0.0162583 6.85678e-05 0)
(-0.0162958 2.57139e-05 0)
(-0.0162988 -1.73214e-05 0)
(-0.0162673 -6.03926e-05 0)
(-0.0162013 -0.000103354 0)
(-0.0161008 -0.000146058 0)
(-0.0159663 -0.000188352 0)
(-0.0157981 -0.000230085 0)
(-0.0155967 -0.000271104 0)
(-0.0153628 -0.000311254 0)
(-0.015097 -0.000350377 0)
(-0.0148004 -0.000388317 0)
(-0.014474 -0.000424914 0)
(-0.0141188 -0.00046001 0)
(-0.0137362 -0.000493446 0)
(-0.0133276 -0.000525062 0)
(-0.0128944 -0.000554701 0)
(-0.0124384 -0.000582207 0)
(-0.0119613 -0.000607425 0)
(-0.011465 -0.000630206 0)
(-0.0109515 -0.0006504 0)
(-0.010423 -0.000667864 0)
(-0.00988157 -0.000682457 0)
(-0.0093297 -0.000694046 0)
(-0.00876979 -0.000702503 0)
(-0.00820438 -0.000707706 0)
(-0.00763609 -0.000709542 0)
(-0.00706763 -0.000707907 0)
(-0.00650179 -0.000702708 0)
(-0.00594141 -0.000693864 0)
(-0.00538939 -0.000681306 0)
(-0.00484866 -0.00066498 0)
(-0.00432219 -0.00064485 0)
(-0.00381296 -0.000620898 0)
(-0.00332392 -0.00059313 0)
(-0.00285801 -0.00056158 0)
(-0.00241811 -0.000526311 0)
(-0.00200701 -0.000487427 0)
(-0.00162737 -0.000445081 0)
(-0.0012817 -0.000399487 0)
(-0.000972266 -0.000350939 0)
(-0.00070103 -0.000299838 0)
(-0.000469568 -0.000246725 0)
(-0.00027893 -0.000192339 0)
(-0.000129489 -0.000137691 0)
(-2.0726e-05 -8.41785e-05 0)
(4.90515e-05 -3.37457e-05 0)
(8.30605e-05 1.08859e-05 0)
(8.63846e-05 4.59224e-05 0)
(6.6441e-05 6.61668e-05 0)
(3.49039e-05 6.47856e-05 0)
(9.03171e-06 3.37423e-05 0)
(7.77194e-06 -5.18589e-05 0)
(2.59649e-05 -8.8481e-05 0)
(3.93663e-05 -7.62434e-05 0)
(3.04877e-05 -2.92722e-05 0)
(-1.2712e-05 4.16981e-05 0)
(-9.81109e-05 0.000128379 0)
(-0.000231093 0.00022452 0)
(-0.000414997 0.000325501 0)
(-0.000651456 0.000427925 0)
(-0.000940751 0.000529304 0)
(-0.00128211 0.000627814 0)
(-0.00167393 0.000722122 0)
(-0.002114 0.000811255 0)
(-0.0025996 0.000894515 0)
(-0.00312768 0.000971403 0)
(-0.00369491 0.00104158 0)
(-0.00429775 0.00110482 0)
(-0.00493256 0.001161 0)
(-0.00559561 0.00121007 0)
(-0.00628312 0.00125201 0)
(-0.0069913 0.0012869 0)
(-0.00771636 0.0013148 0)
(-0.00845459 0.00133583 0)
(-0.00920227 0.00135014 0)
(-0.00995581 0.00135789 0)
(-0.0107117 0.00135924 0)
(-0.0114664 0.00135439 0)
(-0.0122166 0.00134353 0)
(-0.012959 0.00132688 0)
(-0.0136906 0.00130464 0)
(-0.0144083 0.00127704 0)
(-0.0151091 0.0012443 0)
(-0.0157904 0.00120666 0)
(-0.0164493 0.00116433 0)
(-0.0170835 0.00111756 0)
(-0.0176905 0.00106658 0)
(-0.018268 0.00101163 0)
(-0.018814 0.000952964 0)
(-0.0193263 0.000890814 0)
(-0.0198031 0.00082543 0)
(-0.0202427 0.00075706 0)
(-0.0206435 0.000685954 0)
(-0.0210041 0.000612367 0)
(-0.0213231 0.000536554 0)
(-0.0215994 0.000458772 0)
(-0.0218319 0.000379286 0)
(-0.0220198 0.000298358 0)
(-0.0221624 0.000216258 0)
(-0.0222591 0.000133257 0)
(-0.0223094 4.96319e-05 0)
(-0.0223132 -3.4339e-05 0)
(-0.0222703 -0.000118372 0)
(-0.0221807 -0.000202179 0)
(-0.0220447 -0.000285471 0)
(-0.0218627 -0.000367954 0)
(-0.0216352 -0.00044933 0)
(-0.0213629 -0.000529299 0)
(-0.0210466 -0.000607559 0)
(-0.0206875 -0.000683804 0)
(-0.0202868 -0.000757727 0)
(-0.0198457 -0.000829021 0)
(-0.019366 -0.000897376 0)
(-0.0188493 -0.000962485 0)
(-0.0182974 -0.00102404 0)
(-0.0177125 -0.00108174 0)
(-0.0170968 -0.00113527 0)
(-0.0164527 -0.00118435 0)
(-0.0157826 -0.00122868 0)
(-0.0150894 -0.00126797 0)
(-0.0143759 -0.00130196 0)
(-0.013645 -0.00133036 0)
(-0.0129 -0.00135294 0)
(-0.0121441 -0.00136943 0)
(-0.0113806 -0.00137963 0)
(-0.0106131 -0.0013833 0)
(-0.0098453 -0.00138027 0)
(-0.00908078 -0.00137036 0)
(-0.00832335 -0.00135343 0)
(-0.00757687 -0.00132935 0)
(-0.00684521 -0.00129804 0)
(-0.0061323 -0.00125943 0)
(-0.00544204 -0.00121354 0)
(-0.00477831 -0.00116037 0)
(-0.00414494 -0.00110004 0)
(-0.00354566 -0.00103268 0)
(-0.00298409 -0.000958553 0)
(-0.00246362 -0.000877979 0)
(-0.00198743 -0.00079142 0)
(-0.00155835 -0.000699493 0)
(-0.00117879 -0.000603019 0)
(-0.000850657 -0.000503082 0)
(-0.000575136 -0.000401124 0)
(-0.00035257 -0.00029906 0)
(-0.000182211 -0.000199449 0)
(-6.19399e-05 -0.000105715 0)
(1.20644e-05 -2.24518e-05 0)
(4.56283e-05 4.4216e-05 0)
(4.69878e-05 8.62712e-05 0)
(2.85238e-05 9.34834e-05 0)
(8.11722e-06 5.26795e-05 0)
(5.37654e-06 -6.39205e-05 0)
(1.23499e-05 -9.86903e-05 0)
(2.83024e-06 -6.64692e-05 0)
(-3.89713e-05 1.36758e-05 0)
(-0.000124585 0.000127574 0)
(-0.000262002 0.000264106 0)
(-0.000456764 0.000414661 0)
(-0.000712352 0.000572671 0)
(-0.0010305 0.000733159 0)
(-0.00141152 0.000892363 0)
(-0.00185454 0.00104745 0)
(-0.00235776 0.00119629 0)
(-0.00291865 0.00133729 0)
(-0.00353409 0.00146929 0)
(-0.00420051 0.00159142 0)
(-0.00491399 0.00170308 0)
(-0.00567037 0.00180385 0)
(-0.0064653 0.00189348 0)
(-0.00729431 0.00197184 0)
(-0.00815286 0.00203888 0)
(-0.00903637 0.00209465 0)
(-0.00994026 0.00213925 0)
(-0.01086 0.00217284 0)
(-0.011791 0.00219563 0)
(-0.012729 0.00220785 0)
(-0.0136696 0.00220977 0)
(-0.0146085 0.00220167 0)
(-0.0155416 0.00218387 0)
(-0.0164649 0.00215668 0)
(-0.0173745 0.00212045 0)
(-0.0182668 0.00207552 0)
(-0.019138 0.00202226 0)
(-0.0199849 0.00196103 0)
(-0.020804 0.0018922 0)
(-0.0215922 0.00181614 0)
(-0.0223465 0.00173326 0)
(-0.0230642 0.00164392 0)
(-0.0237426 0.00154853 0)
(-0.0243791 0.00144748 0)
(-0.0249716 0.00134117 0)
(-0.0255177 0.00123 0)
(-0.0260156 0.00111438 0)
(-0.0264634 0.000994736 0)
(-0.0268595 0.000871471 0)
(-0.0272026 0.000745012 0)
(-0.0274912 0.000615784 0)
(-0.0277244 0.000484221 0)
(-0.0279012 0.00035076 0)
(-0.028021 0.000215845 0)
(-0.0280832 7.99268e-05 0)
(-0.0280875 -5.654e-05 0)
(-0.0280338 -0.000193095 0)
(-0.0279222 -0.000329269 0)
(-0.0277529 -0.000464591 0)
(-0.0275264 -0.000598581 0)
(-0.0272434 -0.000730758 0)
(-0.0269048 -0.000860634 0)
(-0.0265117 -0.000987715 0)
(-0.0260653 -0.00111151 0)
(-0.0255673 -0.00123152 0)
(-0.0250192 -0.00134724 0)
(-0.0244231 -0.00145818 0)
(-0.0237811 -0.00156384 0)
(-0.0230956 -0.00166372 0)
(-0.022369 -0.00175734 0)
(-0.0216041 -0.0018442 0)
(-0.020804 -0.00192383 0)
(-0.0199717 -0.00199576 0)
(-0.0191106 -0.00205953 0)
(-0.0182243 -0.00211471 0)
(-0.0173163 -0.00216086 0)
(-0.0163907 -0.00219758 0)
(-0.0154513 -0.00222449 0)
(-0.0145025 -0.00224122 0)
(-0.0135485 -0.00224745 0)
(-0.0125937 -0.00224288 0)
(-0.0116427 -0.00222725 0)
(-0.0107001 -0.00220033 0)
(-0.00977062 -0.00216196 0)
(-0.00885894 -0.002112 0)
(-0.00796983 -0.00205041 0)
(-0.00710803 -0.00197719 0)
(-0.00627821 -0.00189242 0)
(-0.00548499 -0.00179629 0)
(-0.00473284 -0.0016891 0)
(-0.00402605 -0.00157127 0)
(-0.00336865 -0.00144338 0)
(-0.00276436 -0.00130623 0)
(-0.00221649 -0.00116086 0)
(-0.00172784 -0.00100861 0)
(-0.00130055 -0.000851259 0)
(-0.000935963 -0.000691082 0)
(-0.000634454 -0.000531047 0)
(-0.000395185 -0.000375012 0)
(-0.000215865 -0.000227991 0)
(-9.24573e-05 -9.65057e-05 0)
(-1.89012e-05 1.10029e-05 0)
(1.32443e-05 8.37653e-05 0)
(1.6023e-05 0.000108215 0)
(5.93174e-06 6.63178e-05 0)
(2.38238e-06 -6.76961e-05 0)
(-4.76941e-06 -8.81097e-05 0)
(-4.26864e-05 -2.5086e-05 0)
(-0.000124071 9.82754e-05 0)
(-0.000259136 0.000264728 0)
(-0.000455494 0.000460545 0)
(-0.000718434 0.000674878 0)
(-0.00105126 0.000899263 0)
(-0.00145558 0.00112713 0)
(-0.00193157 0.00135338 0)
(-0.00247819 0.00157411 0)
(-0.00309342 0.00178629 0)
(-0.00377443 0.00198764 0)
(-0.00451771 0.00217643 0)
(-0.00531927 0.00235136 0)
(-0.00617468 0.0025115 0)
(-0.00707923 0.00265619 0)
(-0.00802797 0.002785 0)
(-0.00901579 0.00289768 0)
(-0.0100375 0.00299413 0)
(-0.0110878 0.00307435 0)
(-0.0121614 0.00313847 0)
(-0.013253 0.00318668 0)
(-0.0143575 0.00321924 0)
(-0.0154696 0.00323647 0)
(-0.0165844 0.00323873 0)
(-0.0176968 0.00322643 0)
(-0.0188021 0.0032 0)
(-0.0198955 0.00315989 0)
(-0.0209726 0.00310659 0)
(-0.0220289 0.0030406 0)
(-0.0230601 0.00296242 0)
(-0.0240624 0.0028726 0)
(-0.0250317 0.00277166 0)
(-0.0259644 0.00266017 0)
(-0.0268569 0.00253866 0)
(-0.027706 0.00240772 0)
(-0.0285084 0.00226791 0)
(-0.0292614 0.00211982 0)
(-0.0299621 0.00196402 0)
(-0.030608 0.00180111 0)
(-0.0311967 0.00163169 0)
(-0.0317262 0.00145636 0)
(-0.0321946 0.00127574 0)
(-0.0326 0.00109045 0)
(-0.0329411 0.000901118 0)
(-0.0332166 0.000708372 0)
(-0.0334254 0.000512859 0)
(-0.0335668 0.000315231 0)
(-0.03364 0.000116146 0)
(-0.0336447 -8.37258e-05 0)
(-0.0335809 -0.000283708 0)
(-0.0334485 -0.000483117 0)
(-0.0332479 -0.000681258 0)
(-0.0329798 -0.000877432 0)
(-0.0326448 -0.00107093 0)
(-0.0322441 -0.00126104 0)
(-0.031779 -0.00144705 0)
(-0.0312509 -0.00162822 0)
(-0.0306618 -0.00180384 0)
(-0.0300135 -0.00197317 0)
(-0.0293085 -0.0021355 0)
(-0.0285492 -0.00229009 0)
(-0.0277384 -0.00243622 0)
(-0.0268791 -0.00257319 0)
(-0.0259746 -0.00270028 0)
(-0.0250283 -0.00281681 0)
(-0.0240439 -0.00292209 0)
(-0.0230254 -0.00301547 0)
(-0.0219769 -0.00309632 0)
(-0.0209028 -0.00316401 0)
(-0.0198076 -0.00321796 0)
(-0.0186959 -0.00325764 0)
(-0.0175728 -0.00328252 0)
(-0.0164432 -0.00329215 0)
(-0.0153123 -0.00328609 0)
(-0.0141853 -0.00326401 0)
(-0.0130678 -0.00322558 0)
(-0.011965 -0.00317059 0)
(-0.0108826 -0.00309888 0)
(-0.00982588 -0.00301041 0)
(-0.00880046 -0.00290521 0)
(-0.00781168 -0.00278346 0)
(-0.00686482 -0.00264546 0)
(-0.00596501 -0.00249169 0)
(-0.00511713 -0.00232281 0)
(-0.00432575 -0.00213972 0)
(-0.00359508 -0.00194363 0)
(-0.00292884 -0.00173606 0)
(-0.00233016 -0.00151901 0)
(-0.00180145 -0.001295 0)
(-0.00134424 -0.00106724 0)
(-0.000959026 -0.000839854 0)
(-0.000645038 -0.000618038 0)
(-0.000400054 -0.000408419 0)
(-0.000220143 -0.000219409 0)
(-9.94148e-05 -6.16558e-05 0)
(-2.97008e-05 5.15078e-05 0)
(-9.50609e-08 0.000103489 0)
(3.11642e-06 7.22264e-05 0)
(-8.63161e-07 -6.19455e-05 0)
(-2.37841e-05 -5.33438e-05 0)
(-9.35693e-05 5.27157e-05 0)
(-0.00021903 0.000230105 0)
(-0.000408502 0.000459007 0)
(-0.000668839 0.000723404 0)
(-0.00100475 0.00101042 0)
(-0.00141908 0.0013098 0)
(-0.00191312 0.00161344 0)
(-0.00248675 0.00191494 0)
(-0.00313866 0.00220926 0)
(-0.00386655 0.00249247 0)
(-0.00466726 0.00276151 0)
(-0.00553693 0.00301405 0)
(-0.00647116 0.0032483 0)
(-0.00746508 0.00346294 0)
(-0.00851346 0.00365703 0)
(-0.00961085 0.00382992 0)
(-0.0107515 0.00398121 0)
(-0.0119298 0.00411071 0)
(-0.0131396 0.00421838 0)
(-0.0143751 0.00430433 0)
(-0.0156305 0.0043688 0)
(-0.0168998 0.00441209 0)
(-0.0181772 0.0044346 0)
(-0.0194571 0.00443681 0)
(-0.0207338 0.00441923 0)
(-0.0220019 0.00438242 0)
(-0.0232561 0.00432701 0)
(-0.0244912 0.00425362 0)
(-0.0257022 0.00416293 0)
(-0.0268843 0.00405562 0)
(-0.028033 0.00393241 0)
(-0.0291437 0.00379403 0)
(-0.0302124 0.00364122 0)
(-0.0312349 0.00347474 0)
(-0.0322076 0.00329536 0)
(-0.0331268 0.00310385 0)
(-0.0339892 0.00290101 0)
(-0.0347916 0.00268764 0)
(-0.0355312 0.00246455 0)
(-0.0362053 0.00223256 0)
(-0.0368115 0.0019925 0)
(-0.0373476 0.00174521 0)
(-0.0378117 0.00149153 0)
(-0.038202 0.00123233 0)
(-0.0385172 0.000968478 0)
(-0.038756 0.000700857 0)
(-0.0389175 0.000430357 0)
(-0.039001 0.000157885 0)
(-0.0390062 -0.000115644 0)
(-0.0389327 -0.000389305 0)
(-0.0387809 -0.00066216 0)
(-0.038551 -0.00093326 0)
(-0.0382437 -0.00120165 0)
(-0.03786 -0.00146636 0)
(-0.037401 -0.00172641 0)
(-0.0368682 -0.00198083 0)
(-0.0362635 -0.00222863 0)
(-0.0355888 -0.00246882 0)
(-0.0348464 -0.00270041 0)
(-0.0340391 -0.00292241 0)
(-0.0331696 -0.00313383 0)
(-0.0322412 -0.00333369 0)
(-0.0312571 -0.00352103 0)
(-0.0302213 -0.0036949 0)
(-0.0291375 -0.00385434 0)
(-0.0280101 -0.00399845 0)
(-0.0268435 -0.00412634 0)
(-0.0256423 -0.00423716 0)
(-0.0244116 -0.00433006 0)
(-0.0231564 -0.00440429 0)
(-0.0218821 -0.0044591 0)
(-0.0205943 -0.00449381 0)
(-0.0192986 -0.00450781 0)
(-0.0180008 -0.00450056 0)
(-0.016707 -0.00447158 0)
(-0.0154232 -0.00442049 0)
(-0.0141555 -0.00434702 0)
(-0.01291 -0.004251 0)
(-0.011693 -0.00413237 0)
(-0.0105105 -0.00399126 0)
(-0.00936864 -0.00382793 0)
(-0.0082732 -0.00364285 0)
(-0.00722991 -0.0034367 0)
(-0.00624417 -0.00321044 0)
(-0.00532106 -0.00296535 0)
(-0.00446522 -0.00270307 0)
(-0.00368075 -0.00242572 0)
(-0.00297113 -0.00213595 0)
(-0.00233906 -0.00183714 0)
(-0.00178631 -0.00153348 0)
(-0.00131361 -0.00123023 0)
(-0.000920412 -0.000933972 0)
(-0.000604782 -0.000652881 0)
(-0.000363164 -0.000397156 0)
(-0.000190158 -0.000179473 0)
(-7.82449e-05 -1.54359e-05 0)
(-1.82174e-05 7.57969e-05 0)
(2.32834e-08 6.90969e-05 0)
(-4.17055e-06 -4.60617e-05 0)
(-4.36835e-05 7.6186e-06 0)
(-0.000147367 0.000170042 0)
(-0.00031975 0.000412961 0)
(-0.000566944 0.000714526 0)
(-0.000894767 0.0010568 0)
(-0.00130709 0.00142513 0)
(-0.0018061 0.00180764 0)
(-0.00239254 0.00219481 0)
(-0.00306589 0.00257894 0)
(-0.00382445 0.00295393 0)
(-0.00466557 0.00331491 0)
(-0.00558573 0.00365805 0)
(-0.00658069 0.00398036 0)
(-0.00764566 0.00427953 0)
(-0.00877533 0.00455384 0)
(-0.00996404 0.00480199 0)
(-0.0112058 0.00502311 0)
(-0.0124945 0.00521662 0)
(-0.0138237 0.0053822 0)
(-0.015187 0.00551977 0)
(-0.016578 0.0056294 0)
(-0.0179901 0.00571136 0)
(-0.0194169 0.005766 0)
(-0.020852 0.0057938 0)
(-0.0222891 0.00579534 0)
(-0.0237221 0.00577126 0)
(-0.0251448 0.00572227 0)
(-0.0265515 0.00564914 0)
(-0.0279364 0.00555269 0)
(-0.029294 0.00543376 0)
(-0.0306189 0.00529323 0)
(-0.0319061 0.00513203 0)
(-0.0331506 0.0049511 0)
(-0.0343477 0.00475138 0)
(-0.0354931 0.00453387 0)
(-0.0365824 0.00429957 0)
(-0.0376117 0.00404947 0)
(-0.0385773 0.00378462 0)
(-0.0394756 0.00350605 0)
(-0.0403036 0.00321482 0)
(-0.0410582 0.002912 0)
(-0.0417366 0.00259867 0)
(-0.0423366 0.00227593 0)
(-0.0428559 0.00194488 0)
(-0.0432926 0.00160664 0)
(-0.0436452 0.00126236 0)
(-0.0439123 0.000913179 0)
(-0.0440928 0.000560269 0)
(-0.0441861 0.000204809 0)
(-0.0441916 -0.000152008 0)
(-0.0441092 -0.000508973 0)
(-0.043939 -0.000864863 0)
(-0.0436815 -0.00121844 0)
(-0.0433375 -0.00156847 0)
(-0.0429078 -0.00191367 0)
(-0.042394 -0.0022528 0)
(-0.0417976 -0.00258456 0)
(-0.0411206 -0.00290768 0)
(-0.0403654 -0.00322087 0)
(-0.0395344 -0.00352285 0)
(-0.0386307 -0.00381233 0)
(-0.0376574 -0.00408803 0)
(-0.0366181 -0.00434869 0)
(-0.0355164 -0.00459306 0)
(-0.0343567 -0.0048199 0)
(-0.0331432 -0.00502799 0)
(-0.0318806 -0.00521617 0)
(-0.030574 -0.00538328 0)
(-0.0292284 -0.00552822 0)
(-0.0278494 -0.00564994 0)
(-0.0264427 -0.00574743 0)
(-0.0250142 -0.00581977 0)
(-0.02357 -0.0058661 0)
(-0.0221163 -0.00588563 0)
(-0.0206597 -0.00587768 0)
(-0.0192067 -0.00584168 0)
(-0.017764 -0.00577715 0)
(-0.0163383 -0.00568377 0)
(-0.0149364 -0.00556137 0)
(-0.0135651 -0.00540991 0)
(-0.0122311 -0.0052296 0)
(-0.0109408 -0.00502082 0)
(-0.00970092 -0.00478422 0)
(-0.00851748 -0.00452075 0)
(-0.00739643 -0.00423169 0)
(-0.0063433 -0.00391871 0)
(-0.00536316 -0.00358396 0)
(-0.00446049 -0.00323017 0)
(-0.00363912 -0.00286072 0)
(-0.00290208 -0.00247984 0)
(-0.00225149 -0.00209271 0)
(-0.0016884 -0.00170576 0)
(-0.00121265 -0.00132686 0)
(-0.000822752 -0.000965668 0)
(-0.00051576 -0.000634023 0)
(-0.000287011 -0.00034639 0)
(-0.000129915 -0.000120307 0)
(-3.73176e-05 2.30146e-05 0)
(-3.1524e-06 5.62649e-05 0)
(-7.44136e-06 -1.98352e-05 0)
(-6.38469e-05 9.57984e-05 0)
(-0.000202448 0.000328689 0)
(-0.000423377 0.000649214 0)
(-0.000730344 0.001034 0)
(-0.00112794 0.00146357 0)
(-0.00161901 0.00192174 0)
(-0.0022049 0.00239525 0)
(-0.00288568 0.00287324 0)
(-0.00366027 0.00334687 0)
(-0.0045265 0.00380897 0)
(-0.00548128 0.00425377 0)
(-0.00652067 0.00467666 0)
(-0.00764006 0.00507401 0)
(-0.00883422 0.00544297 0)
(-0.0100974 0.00578136 0)
(-0.0114236 0.00608756 0)
(-0.0128063 0.0063604 0)
(-0.0142389 0.00659913 0)
(-0.0157145 0.00680328 0)
(-0.0172262 0.0069727 0)
(-0.018767 0.00710743 0)
(-0.0203299 0.00720773 0)
(-0.0219079 0.00727402 0)
(-0.0234942 0.00730686 0)
(-0.0250818 0.00730692 0)
(-0.026664 0.00727498 0)
(-0.0282344 0.0072119 0)
(-0.0297865 0.00711861 0)
(-0.031314 0.00699612 0)
(-0.032811 0.00684547 0)
(-0.0342717 0.00666775 0)
(-0.0356904 0.0064641 0)
(-0.0370619 0.0062357 0)
(-0.0383809 0.00598372 0)
(-0.0396427 0.00570941 0)
(-0.0408425 0.005414 0)
(-0.0419762 0.00509876 0)
(-0.0430395 0.00476499 0)
(-0.0440287 0.00441399 0)
(-0.0449403 0.00404709 0)
(-0.045771 0.00366562 0)
(-0.0465178 0.00327096 0)
(-0.0471782 0.00286447 0)
(-0.0477498 0.00244756 0)
(-0.0482304 0.00202163 0)
(-0.0486183 0.00158812 0)
(-0.0489122 0.00114848 0)
(-0.0491108 0.000704167 0)
(-0.0492133 0.000256669 0)
(-0.0492193 -0.000192509 0)
(-0.0491285 -0.00064185 0)
(-0.0489411 -0.00108981 0)
(-0.0486576 -0.00153485 0)
(-0.0482789 -0.00197539 0)
(-0.047806 -0.00240986 0)
(-0.0472404 -0.00283666 0)
(-0.0465839 -0.00325419 0)
(-0.0458388 -0.00366084 0)
(-0.0450075 -0.00405501 0)
(-0.0440929 -0.00443508 0)
(-0.0430981 -0.00479944 0)
(-0.0420266 -0.00514651 0)
(-0.0408823 -0.00547469 0)
(-0.0396694 -0.00578242 0)
(-0.0383923 -0.00606817 0)
(-0.0370558 -0.00633041 0)
(-0.0356651 -0.00656769 0)
(-0.0342256 -0.00677859 0)
(-0.0327428 -0.00696172 0)
(-0.0312229 -0.00711579 0)
(-0.0296719 -0.00723956 0)
(-0.0280964 -0.00733189 0)
(-0.0265029 -0.00739172 0)
(-0.0248983 -0.0074181 0)
(-0.0232897 -0.0074102 0)
(-0.0216841 -0.00736732 0)
(-0.0200887 -0.00728892 0)
(-0.018511 -0.00717462 0)
(-0.0169581 -0.00702424 0)
(-0.0154375 -0.0068378 0)
(-0.0139563 -0.00661558 0)
(-0.0125217 -0.00635811 0)
(-0.0111405 -0.00606625 0)
(-0.00981962 -0.00574122 0)
(-0.00856527 -0.00538465 0)
(-0.00738344 -0.00499866 0)
(-0.00627963 -0.00458592 0)
(-0.00525872 -0.00414978 0)
(-0.00432494 -0.00369438 0)
(-0.00348171 -0.00322478 0)
(-0.00273155 -0.00274718 0)
(-0.00207593 -0.00226908 0)
(-0.00151523 -0.00179961 0)
(-0.00104857 -0.00134978 0)
(-0.000673766 -0.000932877 0)
(-0.000387082 -0.000564918 0)
(-0.000183049 -0.000265026 0)
(-5.67552e-05 -5.59746e-05 0)
(-6.30517e-06 3.34778e-05 0)
(-1.0626e-05 1.67069e-05 0)
(-8.38991e-05 0.000211557 0)
(-0.000257752 0.000529518 0)
(-0.000527967 0.000940168 0)
(-0.000895795 0.00141906 0)
(-0.00136449 0.0019455 0)
(-0.00193576 0.00250208 0)
(-0.00260995 0.00307431 0)
(-0.00338634 0.00365018 0)
(-0.00426319 0.00421977 0)
(-0.00523776 0.00477495 0)
(-0.00630645 0.0053091 0)
(-0.00746487 0.00581686 0)
(-0.00870794 0.00629393 0)
(-0.01003 0.00673693 0)
(-0.011425 0.00714324 0)
(-0.0128862 0.00751087 0)
(-0.014407 0.00783839 0)
(-0.01598 0.00812481 0)
(-0.0175982 0.00836954 0)
(-0.019254 0.00857232 0)
(-0.02094 0.00873316 0)
(-0.0226488 0.00885232 0)
(-0.0243727 0.00893027 0)
(-0.0261045 0.00896765 0)
(-0.0278368 0.00896522 0)
(-0.0295624 0.00892391 0)
(-0.0312742 0.00884472 0)
(-0.0329655 0.00872878 0)
(-0.0346295 0.00857727 0)
(-0.0362598 0.00839146 0)
(-0.03785 0.00817265 0)
(-0.0393943 0.00792222 0)
(-0.0408867 0.00764158 0)
(-0.0423218 0.00733218 0)
(-0.0436944 0.00699551 0)
(-0.0449995 0.00663308 0)
(-0.0462324 0.00624644 0)
(-0.0473886 0.00583717 0)
(-0.0484642 0.00540685 0)
(-0.0494552 0.0049571 0)
(-0.0503582 0.00448958 0)
(-0.0511701 0.00400593 0)
(-0.0518879 0.00350785 0)
(-0.052509 0.00299704 0)
(-0.0530314 0.00247522 0)
(-0.053453 0.00194416 0)
(-0.0537723 0.00140562 0)
(-0.0539881 0.000861395 0)
(-0.0540996 0.000313302 0)
(-0.0541061 -0.000236821 0)
(-0.0540075 -0.000787116 0)
(-0.0538039 -0.00133571 0)
(-0.053496 -0.00188069 0)
(-0.0530845 -0.00242016 0)
(-0.0525707 -0.00295218 0)
(-0.0519562 -0.00347481 0)
(-0.0512429 -0.0039861 0)
(-0.0504333 -0.00448409 0)
(-0.04953 -0.00496681 0)
(-0.048536 -0.0054323 0)
(-0.0474548 -0.00587861 0)
(-0.0462902 -0.00630379 0)
(-0.0450463 -0.00670592 0)
(-0.0437276 -0.0070831 0)
(-0.0423389 -0.00743346 0)
(-0.0408855 -0.00775517 0)
(-0.0393727 -0.00804646 0)
(-0.0378064 -0.00830559 0)
(-0.0361928 -0.00853092 0)
(-0.0345382 -0.00872087 0)
(-0.0328493 -0.00887396 0)
(-0.031133 -0.00898881 0)
(-0.0293964 -0.00906416 0)
(-0.0276469 -0.00909887 0)
(-0.0258919 -0.00909198 0)
(-0.0241392 -0.00904265 0)
(-0.0223965 -0.00895027 0)
(-0.0206716 -0.00881441 0)
(-0.0189723 -0.00863489 0)
(-0.0173064 -0.00841177 0)
(-0.0156817 -0.00814543 0)
(-0.0141059 -0.00783658 0)
(-0.0125862 -0.00748628 0)
(-0.01113 -0.00709605 0)
(-0.00974386 -0.00666789 0)
(-0.00843436 -0.00620436 0)
(-0.00720737 -0.0057087 0)
(-0.00606821 -0.00518487 0)
(-0.00502153 -0.00463774 0)
(-0.0040712 -0.00407324 0)
(-0.00322022 -0.00349849 0)
(-0.00247062 -0.00292206 0)
(-0.00182337 -0.0023542 0)
(-0.00127833 -0.00180716 0)
(-0.00083423 -0.00129549 0)
(-0.000488385 -0.000836494 0)
(-0.000236555 -0.000450565 0)
(-7.61389e-05 -0.000161612 0)
(-9.38081e-06 7.30197e-07 0)
(-1.3702e-05 6.34017e-05 0)
(-0.000103621 0.000354829 0)
(-0.000312601 0.000772744 0)
(-0.00063222 0.00128635 0)
(-0.00106129 0.00187049 0)
(-0.00160169 0.00250357 0)
(-0.00225388 0.00316718 0)
(-0.00301715 0.00384583 0)
(-0.00388989 0.00452649 0)
(-0.00486959 0.0051983 0)
(-0.00595287 0.00585224 0)
(-0.00713554 0.00648088 0)
(-0.0084127 0.00707816 0)
(-0.0097788 0.00763918 0)
(-0.0112277 0.00816001 0)
(-0.0127529 0.00863759 0)
(-0.0143473 0.00906958 0)
(-0.0160037 0.00945425 0)
(-0.0177145 0.0097904 0)
(-0.019472 0.0100773 0)
(-0.0212684 0.0103146 0)
(-0.0230957 0.0105022 0)
(-0.024946 0.0106404 0)
(-0.0268113 0.0107298 0)
(-0.0286839 0.0107709 0)
(-0.0305559 0.0107648 0)
(-0.0324197 0.0107125 0)
(-0.0342679 0.0106151 0)
(-0.0360931 0.0104739 0)
(-0.0378882 0.0102904 0)
(-0.0396463 0.010066 0)
(-0.0413608 0.00980224 0)
(-0.0430252 0.00950078 0)
(-0.0446335 0.00916328 0)
(-0.0461797 0.00879145 0)
(-0.0476582 0.00838707 0)
(-0.0490638 0.00795194 0)
(-0.0503915 0.00748789 0)
(-0.0516364 0.0069968 0)
(-0.0527944 0.00648058 0)
(-0.0538613 0.00594116 0)
(-0.0548333 0.0053805 0)
(-0.0557071 0.00480059 0)
(-0.0564797 0.00420343 0)
(-0.0571482 0.00359108 0)
(-0.0577104 0.0029656 0)
(-0.0581642 0.00232908 0)
(-0.058508 0.00168364 0)
(-0.0587404 0.00103143 0)
(-0.0588604 0.00037462 0)
(-0.0588677 -0.000284593 0)
(-0.0587618 -0.000943987 0)
(-0.0585431 -0.00160132 0)
(-0.058212 -0.00225432 0)
(-0.0577695 -0.00290071 0)
(-0.057217 -0.00353817 0)
(-0.0565561 -0.0041644 0)
(-0.055789 -0.00477706 0)
(-0.0549181 -0.00537381 0)
(-0.0539463 -0.00595231 0)
(-0.0528769 -0.00651024 0)
(-0.0517136 -0.00704525 0)
(-0.0504602 -0.00755503 0)
(-0.0491214 -0.00803731 0)
(-0.0477018 -0.0084898 0)
(-0.0462067 -0.00891031 0)