/*--------------------------------*- C++ -*----------------------------------*\
| =========                 |                                                 |
| \\      /  F ield         | OpenFOAM: The Open Source CFD Toolbox           |
|  \\    /   O peration     | Version:  2212                                  |
|   \\  /    A nd           | Website:  www.openfoam.com                      |
|    \\/     M anipulation  |                                                 |
\*---------------------------------------------------------------------------*/
FoamFile
{
    version     2.0;
    format      ascii;
    arch        "LSB;label=32;scalar=64";
    class       volScalarField;
    location    "0.009";
    object      p;
}
// * * * * * * * * * * * * * * * * * * * * * * * * * * * * * * * * * * * * * //

dimensions      [0 2 -2 0 0 0 0];

internalField   nonuniform List<scalar> 
10000
(
8.12705e-08
-5.62324e-05
-0.000320297
-0.000711969
-0.00121986
-0.00182963
-0.00249806
-0.00318194
-0.00384321
-0.00445108
-0.00498204
-0.00541632
-0.00573751
-0.00593347
-0.00599571
-0.0059197
-0.00570272
-0.00534049
-0.00482801
-0.00416268
-0.00334367
-0.00237264
-0.00125397
6.5823e-06
0.0014042
0.00293494
0.00459466
0.00637938
0.00828556
0.0103091
0.0124442
0.0146849
0.0170256
0.0194615
0.021988
0.0246003
0.0272943
0.0300657
0.03291
0.0358227
0.0387991
0.0418346
0.0449237
0.0480596
0.0512366
0.0544499
0.0576938
0.0609615
0.0642463
0.0675409
0.070839
0.0741348
0.0774223
0.0806954
0.0839489
0.087177
0.0903732
0.0935302
0.0966412
0.0996998
0.102701
0.105639
0.10851
0.111307
0.114028
0.116667
0.119222
0.121688
0.12406
0.126332
0.128499
0.130556
0.132496
0.134311
0.135997
0.137548
0.13896
0.14023
0.141354
0.142326
0.143142
0.1438
0.144298
0.144636
0.144818
0.144846
0.144726
0.144464
0.144069
0.143549
0.142916
0.142187
0.141384
0.140535
0.139677
0.138853
0.138116
0.137534
0.137188
0.137118
9.22443e-05
0.000160241
3.31714e-06
-0.000289854
-0.000695938
-0.00119545
-0.00174657
-0.00231023
-0.00285325
-0.00334914
-0.00377576
-0.00411625
-0.0043574
-0.00448624
-0.00449333
-0.00437302
-0.00412031
-0.00373131
-0.0032031
-0.00253253
-0.00171758
-0.000758639
0.000341864
0.00158005
0.00295157
0.00445195
0.00607647
0.00782117
0.00968293
0.0116583
0.0137425
0.0159302
0.0182162
0.0205951
0.0230617
0.0256121
0.0282428
0.0309504
0.0337303
0.0365771
0.0394861
0.0424523
0.0454705
0.0485355
0.0516419
0.054784
0.0579557
0.0611503
0.0643611
0.0675823
0.0708081
0.0740315
0.0772462
0.0804467
0.0836273
0.0867825
0.0899063
0.0929915
0.0960309
0.0990187
0.10195
0.104819
0.107622
0.110353
0.113009
0.115586
0.11808
0.120486
0.1228
0.125017
0.127132
0.129139
0.131033
0.132807
0.134455
0.135973
0.137358
0.138605
0.13971
0.14067
0.141482
0.142145
0.142657
0.143021
0.14324
0.143316
0.143255
0.143065
0.142756
0.142335
0.141816
0.141214
0.14055
0.139851
0.139148
0.138477
0.137881
0.137406
0.137115
0.137049
0.000519807
0.000591496
0.000458798
0.000200404
-0.00015943
-0.000598377
-0.00107841
-0.0015645
-0.00202979
-0.00244954
-0.00280321
-0.00307687
-0.00325809
-0.0033362
-0.00330263
-0.00314912
-0.00286969
-0.00246035
-0.00191803
-0.00124022
-0.000425726
0.000526008
0.00161347
0.00283392
0.00418414
0.00565995
0.00725664
0.00897037
0.0107979
0.0127356
0.0147793
0.0169248
0.019167
0.0215004
0.0239194
0.0264205
0.0290009
0.0316572
0.0343854
0.0371797
0.0400346
0.0429452
0.0459063
0.0489133
0.0519623
0.0550471
0.0581605
0.0612964
0.0644484
0.0676109
0.0707787
0.0739449
0.0771021
0.0802448
0.0833681
0.0864656
0.0895309
0.0925577
0.0955398
0.0984711
0.101347
0.104161
0.106911
0.109589
0.112195
0.114723
0.11717
0.119529
0.121796
0.123969
0.126043
0.128012
0.12987
0.131611
0.13323
0.134724
0.136087
0.137316
0.138407
0.139358
0.140167
0.140833
0.141359
0.141745
0.141994
0.142109
0.142096
0.141961
0.141716
0.141368
0.140931
0.140417
0.139849
0.139248
0.138643
0.138062
0.137539
0.137111
0.136821
0.136702
0.00129358
0.00125262
0.00106482
0.000778424
0.000414189
-7.14685e-06
-0.000452752
-0.00089582
-0.00131269
-0.0016826
-0.00198876
-0.00221595
-0.00235334
-0.00239326
-0.00232722
-0.00214779
-0.00184874
-0.00142448
-0.000871218
-0.0001868
0.000629764
0.0015783
0.00265726
0.0038645
0.00519724
0.00665196
0.00822516
0.00991366
0.0117139
0.0136216
0.0156329
0.0177437
0.0199493
0.0222446
0.0246247
0.0270861
0.0296258
0.03224
0.0349247
0.0376751
0.0404852
0.0433494
0.0462632
0.049222
0.0522222
0.0552583
0.058323
0.0614098
0.0645139
0.0676294
0.0707496
0.073868
0.0769783
0.0800744
0.0831506
0.0862007
0.089218
0.0921963
0.0951303
0.0980154
0.100846
0.103617
0.106323
0.108961
0.111526
0.114016
0.116423
0.118744
0.120974
0.123112
0.125152
0.12709
0.12892
0.130636
0.132232
0.133705
0.135051
0.136265
0.137345
0.138289
0.139095
0.139767
0.140305
0.14071
0.140985
0.141132
0.141156
0.141064
0.140865
0.14057
0.14019
0.139738
0.139232
0.138693
0.138142
0.137605
0.137106
0.136677
0.136342
0.136117
0.0022625
0.00205019
0.00176309
0.00142026
0.00102758
0.000602303
0.000168682
-0.000250198
-0.0006346
-0.00096968
-0.00124025
-0.00143292
-0.00153819
-0.00154776
-0.00145436
-0.00125216
-0.000935191
-0.000497797
6.43397e-05
0.00075354
0.00157123
0.00251693
0.00358918
0.00478589
0.00610396
0.00754033
0.00909259
0.0107581
0.0125335
0.0144147
0.0163976
0.0184779
0.0206506
0.0229112
0.0252563
0.0276823
0.0301859
0.0327629
0.0354085
0.0381184
0.0408872
0.043709
0.0465799
0.0494959
0.0524521
0.055443
0.0584629
0.0615063
0.0645675
0.0676408
0.0707192
0.0737952
0.0768629
0.0799173
0.0829518
0.0859591
0.088933
0.0918685
0.0947606
0.0976041
0.100394
0.103126
0.105796
0.108398
0.110928
0.113383
0.115756
0.118044
0.120242
0.122349
0.12436
0.126271
0.128076
0.129769
0.131345
0.1328
0.13413
0.135331
0.1364
0.137338
0.138146
0.138824
0.139373
0.139796
0.140092
0.140265
0.140319
0.140263
0.140103
0.139849
0.139513
0.139107
0.138645
0.138146
0.137626
0.137105
0.136604
0.136147
0.135738
0.135375
0.00331001
0.00290677
0.00250242
0.00208901
0.00165415
0.00120857
0.000771654
0.000361482
-6.57801e-06
-0.000318932
-0.000564096
-0.000732195
-0.00081408
-0.000801555
-0.000687943
-0.000467466
-0.000134804
0.000314803
0.000885328
0.00157909
0.00239721
0.00333974
0.00440564
0.00559278
0.00689823
0.00831947
0.00985426
0.0114998
0.0132531
0.0151108
0.0170689
0.0191225
0.0212666
0.0234971
0.0258113
0.0282061
0.0306775
0.0332216
0.0358335
0.0385074
0.0412385
0.0440227
0.0468555
0.0497332
0.0526508
0.0556023
0.0585824
0.0615872
0.0646111
0.0676469
0.0706875
0.0737265
0.0767578
0.0797749
0.0827717
0.0857415
0.0886779
0.091576
0.0944315
0.0972393
0.0999943
0.102692
0.105329
0.1079
0.110401
0.112826
0.11517
0.117429
0.1196
0.121681
0.123668
0.125555
0.127337
0.12901
0.130568
0.132007
0.133323
0.134512
0.135574
0.136509
0.137318
0.138002
0.138562
0.138998
0.139311
0.139505
0.139584
0.139556
0.139427
0.139206
0.138902
0.138527
0.138093
0.137615
0.137106
0.136581
0.136058
0.135555
0.135056
0.13454
0.00437351
0.00378132
0.00325399
0.00276254
0.00227319
0.00179538
0.0013435
0.00092874
0.00056432
0.000262281
3.12168e-05
-0.000120905
-0.000186256
-0.000158183
-3.0291e-05
0.000203445
0.000547942
0.00100749
0.00158521
0.00228331
0.0031024
0.00404251
0.00510262
0.00628077
0.00757503
0.0089834
0.0105035
0.0121325
0.0138674
0.0157052
0.0176418
0.0196721
0.021792
0.0239976
0.0262857
0.0286536
0.0310974
0.0336127
0.036195
0.0388383
0.0415372
0.0442887
0.0470893
0.049934
0.0528177
0.0557356
0.0586828
0.0616546
0.0646455
0.0676487
0.0706566
0.073663
0.0766623
0.0796478
0.0826124
0.0855496
0.0884538
0.0913207
0.0941454
0.0969225
0.0996471
0.102316
0.104925
0.107469
0.109944
0.112344
0.114664
0.1169
0.11905
0.12111
0.123076
0.124943
0.126706
0.12836
0.129902
0.131327
0.132631
0.133813
0.134871
0.135805
0.136616
0.137305
0.137873
0.138319
0.138645
0.138855
0.138954
0.138947
0.138842
0.138644
0.138361
0.138004
0.137584
0.137112
0.136598
0.136053
0.135494
0.134932
0.134333
0.133661
0.00541175
0.00464193
0.0039939
0.00341947
0.00286854
0.00234915
0.0018716
0.00144333
0.00107371
0.000771532
0.000544661
0.00040025
0.000344408
0.000382658
0.000520807
0.00076434
0.00111761
0.00158451
0.00216773
0.00286892
0.00368878
0.00462702
0.00568219
0.00685269
0.00813742
0.00953469
0.0110421
0.0126574
0.0143777
0.0161994
0.0181179
0.0201286
0.022228
0.024413
0.02668
0.0290256
0.0314463
0.0339376
0.036494
0.0391109
0.0417837
0.0445086
0.0472821
0.0500993
0.052955
0.0558447
0.0587644
0.061709
0.0646721
0.0676466
0.0706261
0.0736049
0.076577
0.0795353
0.0824726
0.0853831
0.0882614
0.0911023
0.0939011
0.0966524
0.0993515
0.101996
0.104581
0.107103
0.109556
0.111936
0.114238
0.116457
0.11859
0.120633
0.122583
0.124432
0.126178
0.127817
0.129345
0.130759
0.132056
0.133233
0.134289
0.135224
0.136038
0.136731
0.137303
0.137756
0.138093
0.138316
0.138431
0.138441
0.138352
0.138168
0.137897
0.137547
0.137129
0.13665
0.136119
0.135544
0.134938
0.134309
0.133607
0.132782
0.00639512
0.00546188
0.00469725
0.00404061
0.00342557
0.00285694
0.00234567
0.00189635
0.00151368
0.00120411
0.000974521
0.000830659
0.000777753
0.000821089
0.000965657
0.00121599
0.00157594
0.00204839
0.00263576
0.00333917
0.00415914
0.00509509
0.00614585
0.0073103
0.00858735
0.00997543
0.0114725
0.0130769
0.0147856
0.0165941
0.018498
0.0204934
0.0225765
0.0247445
0.0269945
0.0293225
0.0317243
0.0341955
0.036731
0.0393261
0.0419775
0.0446819
0.047434
0.0502289
0.053062
0.0559298
0.0588275
0.0617493
0.064689
0.0676399
0.070596
0.0735519
0.0765013
0.0794372
0.0823527
0.0852424
0.0881002
0.0909208
0.0936989
0.0964293
0.099108
0.101732
0.104299
0.106803
0.10924
0.111604
0.113892
0.116098
0.118219
0.12025
0.122185
0.124021
0.125754
0.127381
0.1289
0.130307
0.131599
0.132774
0.13383
0.134767
0.135582
0.136278
0.136854
0.137314
0.137658
0.137892
0.138019
0.138041
0.137961
0.137783
0.137514
0.137163
0.136737
0.136243
0.135686
0.135072
0.134412
0.133713
0.132908
0.131939
0.00730204
0.00621888
0.00534428
0.00460781
0.00392737
0.00330719
0.00275687
0.00227904
0.0018765
0.00155392
0.00131609
0.00116743
0.00111284
0.00115705
0.00130437
0.00155863
0.00192297
0.00239952
0.00298998
0.00369512
0.00451476
0.00544826
0.00649516
0.00765475
0.00892566
0.0103067
0.0117965
0.0133926
0.0150921
0.0168905
0.0187832
0.0207669
0.0228381
0.0249933
0.0272296
0.0295438
0.031931
0.0343861
0.036905
0.039484
0.0421196
0.0448077
0.0475434
0.0503216
0.0531383
0.0559895
0.0588702
0.0617741
0.0646951
0.0676274
0.0705653
0.0735033
0.0764351
0.0793538
0.082253
0.0851273
0.0879704
0.0907758
0.0935384
0.0962535
0.0989171
0.101527
0.10408
0.106571
0.108995
0.111348
0.113627
0.115825
0.117936
0.119958
0.121884
0.12371
0.125434
0.127054
0.128567
0.12997
0.131259
0.132434
0.133491
0.134428
0.135245
0.135944
0.136525
0.136989
0.137341
0.137583
0.137717
0.137744
0.137667
0.137489
0.137216
0.136857
0.136417
0.135901
0.135311
0.134652
0.133934
0.133163
0.13226
0.131157
0.00811507
0.00689683
0.00591964
0.00510421
0.00435957
0.0036873
0.00309466
0.00258363
0.00215629
0.00181541
0.00156437
0.00140704
0.00134741
0.00138934
0.00153664
0.0017925
0.00215907
0.00263823
0.00323077
0.00393685
0.00475596
0.00568764
0.00673159
0.0078873
0.00915372
0.01053
0.0120151
0.013606
0.0152987
0.0170895
0.0189746
0.02095
0.0230126
0.0251593
0.0273865
0.0296903
0.0320662
0.0345096
0.0370169
0.0395848
0.0422095
0.0448862
0.0476102
0.0503769
0.0531824
0.0560224
0.0588911
0.0617819
0.0646894
0.0676085
0.0705334
0.0734586
0.0763779
0.0792847
0.0821731
0.0850374
0.0878706
0.0906658
0.0934183
0.0961237
0.0987781
0.101379
0.103923
0.106406
0.108822
0.111168
0.113441
0.115632
0.117738
0.119754
0.121674
0.123496
0.125215
0.126832
0.128343
0.129744
0.131032
0.132207
0.133265
0.134203
0.135023
0.135724
0.136309
0.13678
0.137137
0.137383
0.137519
0.137547
0.137467
0.137284
0.137003
0.136632
0.136172
0.135627
0.134999
0.134293
0.133516
0.132674
0.131678
0.13045
0.00882059
0.0074815
0.00640904
0.00551856
0.00471042
0.00398494
0.00334859
0.00280218
0.00234659
0.00198342
0.00171559
0.00154641
0.00147889
0.00151621
0.00166139
0.00191691
0.00228434
0.00276473
0.00335824
0.00406443
0.00488293
0.0058136
0.00685575
0.00800881
0.0092728
0.0106469
0.0121292
0.013717
0.0154061
0.0171924
0.0190728
0.0210437
0.0231015
0.0252432
0.0274651
0.0297625
0.0321312
0.0345673
0.0370681
0.0396298
0.042248
0.0449178
0.0476348
0.0503951
0.0531945
0.0560279
0.0588892
0.061772
0.0646717
0.0675831
0.0705004
0.0734177
0.0763296
0.0792298
0.0821123
0.0849713
0.0877991
0.0905891
0.0933369
0.0960384
0.0986893
0.101287
0.103827
0.106305
0.108718
0.111061
0.11333
0.115518
0.117621
0.119635
0.121554
0.123376
0.125096
0.126713
0.128224
0.129625
0.130913
0.132088
0.133147
0.134088
0.134911
0.135617
0.136207
0.136682
0.137042
0.137288
0.137423
0.137447
0.137362
0.13717
0.136878
0.136489
0.136005
0.135428
0.13476
0.134004
0.133169
0.132259
0.131174
0.129832
0.00940779
0.00795955
0.00680085
0.00584004
0.00496921
0.00419058
0.00351002
0.0029267
0.00244066
0.00205312
0.0017662
0.00158266
0.00150508
0.00153588
0.00167718
0.00193075
0.00229792
0.00277837
0.0033718
0.00407783
0.00489597
0.00582597
0.00686743
0.00801989
0.0092835
0.0106576
0.0121396
0.013726
0.0154139
0.0171993
0.0190785
0.0210481
0.023105
0.0252457
0.0274659
0.029761
0.032127
0.0345612
0.0370603
0.0396203
0.0422362
0.0449035
0.0476185
0.0503773
0.0531751
0.0560063
0.0588648
0.0617451
0.0646426
0.0675519
0.0704666
0.0733813
0.0762909
0.0791894
0.0820708
0.0849286
0.0877556
0.0905455
0.0932942
0.0959974
0.0986504
0.101249
0.103791
0.10627
0.108682
0.111025
0.113294
0.115482
0.117586
0.119601
0.121525
0.123351
0.125076
0.126697
0.128209
0.129612
0.130901
0.132078
0.133141
0.134086
0.134913
0.135624
0.136219
0.136696
0.137056
0.137301
0.137431
0.13745
0.137357
0.137155
0.136848
0.136438
0.135926
0.135314
0.134604
0.133798
0.132906
0.131929
0.130762
0.129316
0.00986921
0.00832233
0.00708449
0.00605722
0.00512696
0.0042964
0.00357136
0.00295028
0.00243288
0.00201988
0.00171251
0.00151304
0.00142377
0.00144643
0.00158247
0.00183288
0.00219819
0.00267771
0.00327048
0.00397625
0.00479461
0.00572462
0.00676633
0.00792031
0.00918598
0.0105617
0.0120451
0.0136331
0.0153224
0.0171095
0.0189909
0.0209633
0.0230232
0.0251665
0.0273888
0.0296859
0.0320546
0.0344919
0.0369942
0.0395565
0.0421743
0.0448438
0.0475616
0.0503235
0.053124
0.0559576
0.0588188
0.0617022
0.0646031
0.0675157
0.0704332
0.0733505
0.0762631
0.0791651
0.0820498
0.0849112
0.0877422
0.0905372
0.0932924
0.0960029
0.0986632
0.101269
0.103816
0.1063
0.108716
0.111063
0.113335
0.115528
0.117636
0.119658
0.12159
0.123424
0.125157
0.126783
0.1283
0.129707
0.131001
0.132182
0.13325
0.1342
0.135033
0.135748
0.136345
0.136823
0.137182
0.137422
0.137548
0.13756
0.137457
0.137242
0.136917
0.136483
0.135942
0.135294
0.134541
0.133687
0.132738
0.131698
0.130455
0.128912
0.0102009
0.00856348
0.00725121
0.00616223
0.00517582
0.00429489
0.00352606
0.00286739
0.00231828
0.00187914
0.00155069
0.00133447
0.00123227
0.00124551
0.00137516
0.00162135
0.00198328
0.0024608
0.00305297
0.00375862
0.00457727
0.00550862
0.00655269
0.00770974
0.00897893
0.0103582
0.0118452
0.0134371
0.0151307
0.0169226
0.0188097
0.0207885
0.022855
0.0250046
0.0272331
0.029537
0.0319134
0.0343587
0.0368682
0.0394372
0.0420617
0.0447383
0.0474636
0.0502329
0.0530406
0.0558817
0.0587512
0.0616436
0.0645535
0.0674747
0.0704006
0.0733264
0.0762478
0.0791583
0.0820515
0.0849212
0.0877615
0.0905671
0.0933343
0.0960571
0.0987292
0.101346
0.103904
0.106398
0.108824
0.111179
0.113459
0.115659
0.117777
0.11981
0.121752
0.123597
0.125339
0.126973
0.128498
0.129911
0.131213
0.132401
0.133475
0.134431
0.135268
0.135986
0.136585
0.137062
0.137418
0.137655
0.137775
0.137779
0.137665
0.137434
0.137088
0.136628
0.136056
0.135372
0.134578
0.133676
0.132673
0.131574
0.130259
0.128627
0.0103988
0.00867725
0.00729597
0.00614884
0.00510898
0.00417983
0.00336859
0.00267312
0.00209233
0.00162674
0.00127672
0.00104306
0.000927217
0.000930194
0.00105208
0.0012926
0.00165078
0.00212586
0.00271701
0.00342293
0.0042428
0.00517689
0.00622524
0.00738707
0.00866116
0.0100458
0.0115386
0.013137
0.0148376
0.0166376
0.0185338
0.0205223
0.0225986
0.0247582
0.0269974
0.0293132
0.0317019
0.0341593
0.0366802
0.0392604
0.0418965
0.0445853
0.0473227
0.050104
0.0529238
0.055778
0.0586615
0.0615684
0.0644927
0.0674282
0.0703684
0.0733087
0.0762446
0.0791692
0.082076
0.0849597
0.0878148
0.0906365
0.0934203
0.0961597
0.0988479
0.101481
0.104054
0.106563
0.109003
0.111372
0.113664
0.115878
0.118009
0.120055
0.12201
0.123867
0.12562
0.127266
0.128801
0.130225
0.131537
0.132734
0.133815
0.134776
0.135616
0.136336
0.136935
0.137412
0.137766
0.137999
0.138113
0.138106
0.137978
0.137729
0.137362
0.136876
0.136273
0.135554
0.134719
0.133771
0.132716
0.131561
0.130179
0.128467
0.0104583
0.00865994
0.00721445
0.00601194
0.00492135
0.00394609
0.00309388
0.00236268
0.00175069
0.00125838
0.000886328
0.000634828
0.000504578
0.000496193
0.000609323
0.000843088
0.0011971
0.00166996
0.00226019
0.00296685
0.00378954
0.00472816
0.00578213
0.00695017
0.008231
0.00962304
0.011124
0.0127313
0.0144421
0.0162536
0.0181622
0.0201634
0.0222527
0.0244262
0.0266807
0.0290129
0.031418
0.0338913
0.036428
0.0390244
0.0416774
0.0443831
0.0471374
0.0499355
0.0527729
0.0556457
0.0585487
0.0614752
0.0644191
0.0673744
0.0703349
0.0732958
0.0762518
0.079196
0.0821221
0.0850255
0.087901
0.0907435
0.0935481
0.0963079
0.0990164
0.10167
0.104264
0.106793
0.109253
0.11164
0.113951
0.116182
0.11833
0.120392
0.122362
0.124233
0.126
0.12766
0.12921
0.130648
0.131972
0.133179
0.134267
0.135233
0.136077
0.136799
0.1374
0.137877
0.138229
0.138457
0.138563
0.138545
0.138402
0.138134
0.137745
0.137234
0.136601
0.135847
0.134973
0.13398
0.132876
0.131668
0.130223
0.128435
0.0103774
0.0085085
0.00700265
0.00574773
0.00460885
0.00358942
0.00269735
0.00193108
0.00128863
0.000769694
0.000375001
0.00010508
-4.02433e-05
-6.11555e-05
4.22853e-05
0.000269296
0.000618812
0.00108934
0.00167945
0.00238832
0.0032155
0.00416012
0.00522091
0.00639675
0.00768643
0.00908821
0.0105999
0.012219
0.0139434
0.0157696
0.0176936
0.0197105
0.0218164
0.0240082
0.0262826
0.028635
0.0310603
0.0335537
0.0361111
0.0387289
0.0414037
0.0441311
0.0469069
0.0497272
0.0525878
0.0554846
0.058412
0.0613628
0.0643314
0.0673121
0.0702988
0.0732859
0.0762675
0.0792367
0.0821879
0.0851168
0.088018
0.0908857
0.0937148
0.096499
0.0992322
0.101911
0.104531
0.107087
0.109572
0.111983
0.114317
0.11657
0.118739
0.12082
0.122808
0.124697
0.126481
0.128158
0.129726
0.131181
0.132518
0.133736
0.134832
0.135805
0.136654
0.137381
0.137985
0.138463
0.138812
0.139035
0.139132
0.139101
0.138943
0.138657
0.138246
0.137709
0.137047
0.136259
0.135347
0.134311
0.133161
0.131901
0.130397
0.128537
0.0101555
0.00821998
0.00665761
0.00535295
0.00416763
0.00310565
0.00217485
0.00137392
0.000701154
0.000155896
-0.000261657
-0.000551132
-0.000712578
-0.000746386
-0.000652948
-0.000432825
-8.77407e-05
0.000380956
0.000972216
0.00168498
0.002518
0.00346979
0.00453899
0.00572461
0.00702537
0.00843941
0.00996478
0.0115995
0.0133408
0.0151848
0.017127
0.0191633
0.0212902
0.0235048
0.0258028
0.0281791
0.0306284
0.0331466
0.0357299
0.0383744
0.0410757
0.0438297
0.0466324
0.0494806
0.0523698
0.0552955
0.0582518
0.0612318
0.0642303
0.067242
0.0702602
0.0732787
0.0762913
0.0792913
0.0822735
0.0852334
0.088165
0.0910622
0.09392
0.0967329
0.0994958
0.102205
0.104856
0.107443
0.109959
0.112401
0.114763
0.117043
0.119236
0.12134
0.12335
0.12526
0.127066
0.128765
0.130353
0.131826
0.133178
0.134408
0.135514
0.136495
0.137352
0.138086
0.138695
0.139173
0.13952
0.139736
0.139823
0.139781
0.139608
0.139304
0.138871
0.138309
0.137617
0.136796
0.135847
0.13477
0.133574
0.132265
0.130704
0.128776
0.00979162
0.00779289
0.00617686
0.00482426
0.00359397
0.00249077
0.00152213
0.00068693
-1.62187e-05
-0.000588003
-0.00102877
-0.00133849
-0.00151681
-0.00156376
-0.00148016
-0.00126704
-0.000925766
-0.000457517
0.000136378
0.000854215
0.00169409
0.00265442
0.00373399
0.00493161
0.00624583
0.00767512
0.00921784
0.0108717
0.0126332
0.014498
0.0164621
0.0185219
0.0206744
0.0229157
0.0252409
0.0276449
0.0301229
0.0326711
0.0352854
0.0379613
0.0406943
0.0434801
0.0463157
0.0491975
0.0521206
0.05508
0.0580699
0.0610844
0.0641184
0.0671664
0.0702211
0.073276
0.076325
0.0793615
0.0823803
0.0853764
0.0883432
0.0912744
0.0941657
0.0970125
0.0998101
0.102555
0.105242
0.107865
0.110417
0.112893
0.115289
0.1176
0.119824
0.121956
0.123992
0.125928
0.127759
0.129482
0.131091
0.132582
0.13395
0.135194
0.136313
0.137307
0.138175
0.138917
0.13953
0.140008
0.140352
0.140562
0.14064
0.140587
0.140399
0.140077
0.139621
0.139033
0.138313
0.13746
0.136475
0.135358
0.134117
0.13276
0.131144
0.129152
0.00928516
0.00722548
0.00555771
0.0041588
0.00288432
0.00174063
0.000734918
-0.000134291
-0.000867978
-0.00146688
-0.00193145
-0.00226149
-0.00245653
-0.00251674
-0.00244283
-0.00223609
-0.00189734
-0.00142804
-0.000830348
-0.000106571
0.000741332
0.00171194
0.00280391
0.0040158
0.00534637
0.00679443
0.00835813
0.0100344
0.011819
0.0137081
0.0156982
0.0177861
0.0199682
0.0222399
0.0245961
0.0270321
0.0295439
0.0321272
0.0347776
0.0374898
0.0402597
0.0430835
0.045958
0.0488791
0.0518414
0.0548396
0.0578686
0.0609232
0.0639984
0.0670879
0.070184
0.0732804
0.076371
0.0794495
0.0825101
0.0855473
0.0885539
0.0915244
0.0944548
0.0973409
0.100178
0.102963
0.105691
0.108354
0.110945
0.113461
0.115896
0.118244
0.120502
0.122667
0.124735
0.126701
0.12856
0.130308
0.13194
0.13345
0.134837
0.136098
0.137234
0.138242
0.139123
0.139874
0.14049
0.140969
0.141311
0.141517
0.141589
0.141524
0.141322
0.14098
0.140501
0.139887
0.139137
0.138252
0.137231
0.136074
0.13479
0.133387
0.131718
0.129664
0.00863605
0.0065155
0.00479704
0.00335337
0.00203516
0.000851003
-0.000191219
-0.00109412
-0.00185876
-0.00248532
-0.00297378
-0.00332383
-0.00353527
-0.0036083
-0.00354342
-0.00334154
-0.00300387
-0.00253254
-0.00193024
-0.00119943
-0.000341902
0.000640828
0.0017472
0.00297598
0.00432626
0.00579662
0.00738437
0.00908573
0.0108968
0.0128141
0.0148346
0.0169547
0.01917
0.0214757
0.0238671
0.0263403
0.0288908
0.0315143
0.0342053
0.0369591
0.0397718
0.0426397
0.0455591
0.048525
0.0515317
0.0545746
0.0576489
0.0607496
0.0638714
0.0670074
0.0701498
0.0732925
0.07643
0.0795557
0.0826631
0.0857461
0.0887978
0.0918132
0.0947887
0.0977199
0.100602
0.103432
0.106203
0.10891
0.111545
0.114105
0.116583
0.118974
0.121273
0.123476
0.12558
0.127578
0.129467
0.131243
0.132899
0.134433
0.135841
0.137123
0.138279
0.139304
0.140198
0.140957
0.141579
0.142061
0.142403
0.142608
0.142674
0.142599
0.14238
0.142018
0.141516
0.140876
0.140097
0.139179
0.138122
0.136925
0.135598
0.134149
0.132428
0.130313
0.00784321
0.00566127
0.00389183
0.00240407
0.00104309
-0.000181623
-0.00126075
-0.00219746
-0.00299307
-0.00364709
-0.00415905
-0.00452876
-0.0047561
-0.00484085
-0.00478346
-0.00458488
-0.00424724
-0.00377316
-0.00316526
-0.00242592
-0.00155705
-0.000560339
0.000562836
0.00181161
0.00318492
0.00468046
0.00629473
0.00802404
0.0098651
0.0118149
0.0138699
0.0160257
0.0182777
0.0206214
0.0230529
0.0255682
0.0281623
0.0308303
0.0335668
0.0363677
0.0392291
0.0421471
0.0451167
0.0481328
0.0511898
0.0542836
0.0574096
0.0605624
0.063736
0.0669234
0.0701171
0.0733114
0.0765008
0.0796784
0.0828374
0.0859714
0.0890741
0.0921407
0.0951677
0.0981498
0.101082
0.10396
0.106779
0.109534
0.112218
0.114827
0.117353
0.119791
0.122135
0.124381
0.126525
0.12856
0.130482
0.132288
0.133972
0.135532
0.136967
0.138273
0.13945
0.140494
0.141402
0.142171
0.142801
0.143289
0.143635
0.143839
0.1439
0.143813
0.143578
0.143196
0.142671
0.142005
0.141196
0.140245
0.139151
0.137914
0.136544
0.13505
0.133279
0.131103
0.00690515
0.00466121
0.00283978
0.00130775
-9.54199e-05
-0.0013609
-0.0024779
-0.0034487
-0.00427476
-0.00495561
-0.00549066
-0.00587944
-0.00612144
-0.00621638
-0.00616492
-0.00596873
-0.00563035
-0.00515242
-0.00453751
-0.00378803
-0.00290603
-0.00189303
-0.000750056
0.000521893
0.0019209
0.00344383
0.00508721
0.00684792
0.00872305
0.0107092
0.012802
0.0149968
0.0172894
0.019676
0.0221525
0.0247145
0.0273564
0.0300733
0.0328605
0.035714
0.0386298
0.0416029
0.044628
0.0476998
0.0508133
0.0539645
0.0571483
0.0603586
0.0635891
0.0668332
0.0700836
0.0733349
0.0765812
0.0798155
0.0830311
0.0862218
0.0893818
0.0925064
0.095591
0.0986295
0.101616
0.104547
0.107419
0.110227
0.112966
0.115628
0.118206
0.120695
0.123088
0.125382
0.127569
0.129645
0.131604
0.133444
0.135161
0.136752
0.138216
0.139549
0.140749
0.141811
0.142735
0.143518
0.144159
0.144656
0.145007
0.145211
0.145266
0.145168
0.144917
0.144516
0.143969
0.143276
0.142437
0.141451
0.14032
0.139043
0.13763
0.136091
0.134269
0.132033
0.0058201
0.00351372
0.00163926
6.16552e-05
-0.00138443
-0.0026909
-0.00384604
-0.00485105
-0.00570731
-0.00641457
-0.00697203
-0.0073787
-0.00763381
-0.00773766
-0.00769132
-0.00749691
-0.0071568
-0.00667361
-0.00605012
-0.00528877
-0.00439136
-0.00335912
-0.00219321
-0.000895504
0.000531286
0.00208402
0.00375979
0.00555582
0.0074688
0.00949454
0.0116284
0.0138662
0.0162041
0.0186384
0.0211646
0.0237774
0.0264713
0.029242
0.0320853
0.0349967
0.0379718
0.0410048
0.0440906
0.0472241
0.0504003
0.053615
0.0568622
0.0601354
0.0634283
0.0667345
0.0700475
0.0733612
0.0766694
0.0799653
0.0832429
0.0864968
0.0897207
0.0929095
0.0960577
0.0991582
0.102205
0.105196
0.108127
0.110993
0.11379
0.11651
0.119145
0.121689
0.124135
0.126479
0.128714
0.130834
0.132835
0.134714
0.136468
0.138095
0.13959
0.140951
0.142175
0.143259
0.144201
0.145002
0.145657
0.146165
0.146521
0.146725
0.146774
0.146666
0.146401
0.145982
0.145411
0.144691
0.143821
0.1428
0.141631
0.140314
0.138858
0.137275
0.135401
0.133104
0.00458582
0.00221675
0.000288205
-0.00133703
-0.00282741
-0.00417504
-0.00536817
-0.00640753
-0.00729409
-0.00802734
-0.00860617
-0.00902951
-0.00929695
-0.00940912
-0.00936746
-0.00917398
-0.00883093
-0.0083411
-0.00770731
-0.00693182
-0.00601614
-0.00496161
-0.00377025
-0.00244475
-0.000987836
0.000597926
0.00230993
0.00414499
0.00609902
0.00816756
0.0103464
0.0126318
0.01502
0.0175068
0.0200869
0.0227549
0.0255057
0.0283356
0.0312401
0.0342145
0.0372535
0.0403515
0.0435036
0.0467048
0.0499499
0.0532334
0.0565493
0.0598908
0.0632519
0.0666263
0.0700076
0.0733892
0.0767646
0.0801276
0.0834733
0.0867966
0.0900909
0.09335
0.0965672
0.0997356
0.10285
0.105907
0.108903
0.111835
0.114695
0.117477
0.120173
0.122775
0.125279
0.127677
0.129964
0.132133
0.13418
0.136103
0.137899
0.139563
0.141092
0.142484
0.143735
0.144844
0.145809
0.146629
0.147301
0.14782
0.148182
0.148386
0.14843
0.148314
0.148036
0.147599
0.147006
0.146258
0.145356
0.1443
0.143092
0.141734
0.140235
0.138605
0.136679
0.13432
0.00319986
0.0007673
-0.00121619
-0.00289056
-0.00442663
-0.0058161
-0.00704752
-0.00812149
-0.00903828
-0.0097969
-0.0103964
-0.010836
-0.0111158
-0.0112361
-0.0111985
-0.011005
-0.0106579
-0.0101599
-0.00951366
-0.00872126
-0.00778443
-0.00670526
-0.00548651
-0.00413092
-0.0026407
-0.00101812
0.000733762
0.00261101
0.00460926
0.00672444
0.00895293
0.0112911
0.0137345
0.0162782
0.0189166
0.0216448
0.0244582
0.0273527
0.0303237
0.0333658
0.0364737
0.0396423
0.0428667
0.0461416
0.0494609
0.0528185
0.0562082
0.0596237
0.0630591
0.066508
0.0699632
0.0734183
0.0768668
0.0803032
0.0837233
0.0871222
0.0904927
0.0938277
0.09712
0.100363
0.103551
0.106682
0.109752
0.112754
0.115684
0.118532
0.121293
0.123958
0.126522
0.12898
0.131323
0.133546
0.135644
0.137616
0.139456
0.141161
0.142727
0.144153
0.145436
0.146574
0.147565
0.148408
0.149096
0.149626
0.149994
0.150201
0.150243
0.150119
0.14983
0.149375
0.148759
0.147983
0.147049
0.145957
0.14471
0.143309
0.141766
0.140089
0.138109
0.135685
0.00166055
-0.000837466
-0.00287683
-0.0046012
-0.00618438
-0.00761705
-0.00888752
-0.00999618
-0.010943
-0.0117269
-0.0123471
-0.0128034
-0.0130956
-0.013224
-0.0131898
-0.0129952
-0.0126427
-0.0121347
-0.0114735
-0.0106616
-0.00970152
-0.00859591
-0.0073476
-0.00595883
-0.00443157
-0.00276861
-0.000973771
0.00094874
0.00299498
0.0051615
0.00744477
0.00984053
0.0123437
0.0149489
0.0176508
0.0204449
0.0233265
0.0262911
0.0293337
0.0324488
0.0356315
0.0388767
0.0421794
0.0455335
0.048932
0.0523686
0.0558376
0.0593333
0.0628495
0.0663788
0.0699139
0.0734484
0.0769763
0.0804928
0.0839938
0.0874741
0.0909263
0.0943427
0.0977164
0.101041
0.104311
0.107523
0.110673
0.113753
0.116756
0.119676
0.122505
0.125238
0.127869
0.130391
0.132795
0.135076
0.13723
0.139253
0.141141
0.142891
0.144499
0.145963
0.147282
0.148453
0.149472
0.150338
0.151044
0.151586
0.151963
0.152174
0.152215
0.152085
0.151784
0.151312
0.150673
0.14987
0.148903
0.147775
0.146488
0.145044
0.143454
0.141727
0.13969
0.137198
-3.26898e-05
-0.00259955
-0.00469669
-0.00647224
-0.00810403
-0.0095813
-0.0108916
-0.0120351
-0.0130123
-0.0138222
-0.014464
-0.0149373
-0.0152418
-0.0153777
-0.0153463
-0.0151496
-0.0147899
-0.0142695
-0.0135913
-0.0127582
-0.0117732
-0.0106391
-0.0093582
-0.00793261
-0.00636483
-0.00465846
-0.00281766
-0.000846199
0.00125262
0.00347548
0.00581833
0.00827618
0.0108437
0.0135155
0.0162867
0.0191526
0.0221081
0.0251481
0.0282677
0.0314618
0.0347256
0.0380537
0.0414402
0.0448785
0.0483613
0.0518825
0.0554369
0.0590189
0.0626219
0.0662378
0.0698589
0.0734792
0.0770934
0.0806968
0.0842849
0.0878522
0.0913912
0.0948949
0.0983565
0.101769
0.105128
0.108429
0.111664
0.114827
0.11791
0.120907
0.123812
0.126618
0.12932
0.131911
0.134381
0.136725
0.138937
0.141016
0.142957
0.144756
0.14641
0.147918
0.149276
0.150482
0.151532
0.152421
0.153147
0.153704
0.154092
0.154308
0.15435
0.154214
0.1539
0.153412
0.152751
0.15192
0.15092
0.149755
0.148426
0.146937
0.145298
0.14352
0.141423
0.138859
-0.00188091
-0.00452109
-0.00667914
-0.00850774
-0.0101895
-0.0117125
-0.0130635
-0.014243
-0.0152517
-0.0160885
-0.0167526
-0.0172429
-0.0175593
-0.0177021
-0.0176724
-0.017472
-0.0171032
-0.0165687
-0.0158719
-0.0150162
-0.0140044
-0.0128389
-0.0115219
-0.010056
-0.00844476
-0.006692
-0.00480156
-0.00277664
-0.000620353
0.00166352
0.00407027
0.00659464
0.00923139
0.0119755
0.0148218