/*--------------------------------*- C++ -*----------------------------------*\
| =========                 |                                                 |
| \\      /  F ield         | OpenFOAM: The Open Source CFD Toolbox           |
|  \\    /   O peration     | Version:  2212                                  |
|   \\  /    A nd           | Website:  www.openfoam.com                      |
|    \\/     M anipulation  |                                                 |
\*---------------------------------------------------------------------------*/
FoamFile
{
    version     2.0;
    format      ascii;
    arch        "LSB;label=32;scalar=64";
    class       volScalarField;
    location    "0.0105";
    object      p;
}
// * * * * * * * * * * * * * * * * * * * * * * * * * * * * * * * * * * * * * //

dimensions      [0 2 -2 0 0 0 0];

internalField   nonuniform List<scalar> 
10000
(
-1.40119e-07
-4.24836e-05
-0.000301333
-0.00071309
-0.00125925
-0.00191894
-0.00264778
-0.00340185
-0.00414278
-0.00483868
-0.00546471
-0.0060011
-0.00643255
-0.00674679
-0.00693315
-0.0069844
-0.00689651
-0.00666553
-0.00628741
-0.00575973
-0.00508119
-0.00425252
-0.00327686
-0.00215856
-0.000901546
0.000490032
0.00201137
0.003658
0.00542667
0.00731451
0.00931738
0.0114297
0.0136453
0.015958
0.0183626
0.0208549
0.0234317
0.0260895
0.028823
0.0316266
0.0344943
0.0374209
0.040402
0.043432
0.0465052
0.0496157
0.0527564
0.0559203
0.059101
0.0622925
0.0654891
0.0686847
0.0718721
0.0750443
0.0781956
0.0813208
0.0844143
0.0874697
0.0904798
0.0934376
0.0963373
0.0991734
0.101941
0.104635
0.107252
0.109786
0.112234
0.114589
0.116846
0.119
0.121047
0.12298
0.124793
0.12648
0.128033
0.12945
0.130727
0.13186
0.132847
0.133681
0.134361
0.134883
0.135248
0.135457
0.135514
0.135421
0.135185
0.134813
0.134315
0.133701
0.132984
0.132183
0.131321
0.130428
0.129541
0.128702
0.127966
0.127396
0.127068
0.127014
7.25145e-05
0.000130694
-3.82002e-05
-0.000358623
-0.000801902
-0.00134603
-0.00195053
-0.00257691
-0.00319233
-0.00376989
-0.00428611
-0.00472256
-0.00506581
-0.00530356
-0.00542575
-0.00542508
-0.00529515
-0.00503134
-0.00463076
-0.00409056
-0.0034087
-0.00258538
-0.00162264
-0.00052345
0.000709028
0.00207129
0.00355906
0.00516809
0.00689471
0.00873546
0.0106865
0.0127436
0.014902
0.0171559
0.0194995
0.0219285
0.0244393
0.027029
0.0296935
0.0324272
0.0352242
0.038079
0.0409859
0.0439402
0.0469371
0.0499712
0.0530357
0.0561232
0.0592266
0.0623404
0.0654589
0.068576
0.0716853
0.0747804
0.0778553
0.0809039
0.0839206
0.0868989
0.0898323
0.0927149
0.095541
0.0983051
0.101002
0.103626
0.106174
0.108643
0.111027
0.11332
0.115518
0.117617
0.11961
0.121494
0.123262
0.124908
0.126426
0.127812
0.129064
0.130178
0.131151
0.13198
0.132662
0.133197
0.133584
0.133826
0.133926
0.133889
0.13372
0.133428
0.133023
0.132515
0.131917
0.131247
0.130527
0.129785
0.129051
0.128362
0.12776
0.127291
0.127012
0.126961
0.000465117
0.000522066
0.000372391
8.54709e-05
-0.000309618
-0.000789469
-0.00131831
-0.00186186
-0.0023934
-0.00288902
-0.00332754
-0.00369281
-0.00397099
-0.00415133
-0.00422553
-0.0041851
-0.00402299
-0.00373414
-0.003315
-0.00276297
-0.00207671
-0.00125565
-0.000301341
0.000783697
0.00199694
0.00333551
0.00479594
0.00637483
0.00806862
0.00987304
0.0117839
0.0137973
0.0159095
0.0181157
0.0204102
0.0227886
0.0252474
0.0277832
0.0303921
0.0330691
0.0358087
0.0386052
0.0414527
0.0443461
0.0472815
0.0502535
0.0532556
0.0562808
0.0593225
0.0623744
0.0654308
0.0684855
0.0715322
0.0745651
0.0775787
0.0805665
0.0835216
0.0864379
0.0893098
0.0921319
0.0948988
0.0976053
0.100246
0.102816
0.105311
0.107727
0.110061
0.112305
0.114456
0.11651
0.118462
0.120307
0.122039
0.123653
0.125144
0.126508
0.127741
0.12884
0.129803
0.130627
0.131311
0.131855
0.132261
0.13253
0.132666
0.132673
0.132557
0.132326
0.13199
0.131559
0.131047
0.13047
0.129847
0.129204
0.128567
0.127967
0.127436
0.12701
0.126732
0.126634
0.00118627
0.00113913
0.000939717
0.000630396
0.000235831
-0.000222268
-0.000713215
-0.00121023
-0.00168918
-0.0021297
-0.00251535
-0.00283006
-0.00306101
-0.00319922
-0.00323613
-0.00316435
-0.00297742
-0.00266918
-0.00223534
-0.00167357
-0.000982591
-0.000162086
0.000786738
0.00186181
0.00306054
0.00437997
0.0058175
0.00737082
0.00903696
0.0108117
0.0126906
0.0146695
0.016744
0.0189099
0.021163
0.0234996
0.025916
0.028408
0.0309711
0.0336009
0.0362918
0.0390387
0.0418363
0.0446794
0.0475637
0.0504838
0.0534331
0.0564054
0.0593953
0.0623966
0.0654023
0.0684058
0.0714012
0.0743828
0.0773451
0.0802818
0.0831861
0.0860514
0.0888727
0.0916451
0.0943635
0.0970225
0.0996172
0.102143
0.104596
0.106971
0.109263
0.111468
0.113581
0.115599
0.117517
0.11933
0.121034
0.122623
0.124091
0.125436
0.126655
0.127743
0.128697
0.129517
0.130203
0.130756
0.131179
0.131471
0.131637
0.131679
0.131604
0.131419
0.131134
0.130759
0.130307
0.129793
0.129235
0.128654
0.128072
0.127515
0.127008
0.126582
0.126262
0.126066
0.00210489
0.00189939
0.00160851
0.00124949
0.000831812
0.000374079
-0.00010085
-0.000570716
-0.00101473
-0.00141682
-0.00176221
-0.00203765
-0.00223253
-0.00233724
-0.00234355
-0.00224523
-0.00203629
-0.00171087
-0.0012644
-0.000694477
3.25015e-07
0.00081998
0.00176369
0.00282997
0.00401624
0.00531959
0.00673774
0.00826851
0.00990919
0.0116564
0.0135064
0.0154547
0.017496
0.0196261
0.021842
0.0241405
0.0265182
0.0289707
0.031493
0.0340802
0.0367269
0.039428
0.0421793
0.0449767
0.0478147
0.0506875
0.0535891
0.0565139
0.0594566
0.0624114
0.0653714
0.0683291
0.0712786
0.0742146
0.0771309
0.0800209
0.0828784
0.0856981
0.0884748
0.0912031
0.093878
0.0964949
0.0990494
0.101536
0.103952
0.10629
0.108547
0.110716
0.112795
0.114781
0.116669
0.118456
0.120134
0.1217
0.12315
0.124478
0.125682
0.126759
0.127707
0.128524
0.129213
0.129776
0.130213
0.130526
0.130716
0.130788
0.130746
0.1306
0.130356
0.130026
0.12962
0.129154
0.128642
0.128101
0.12755
0.12701
0.126502
0.126049
0.125658
0.12533
0.00311928
0.00273354
0.00233257
0.00190867
0.0014528
0.00097817
0.000503562
4.58571e-05
-0.000379254
-0.000756689
-0.00107394
-0.001321
-0.00148853
-0.00156766
-0.00155077
-0.00143138
-0.00120393
-0.000863535
-0.000405946
0.000171316
0.000869335
0.00168819
0.00262723
0.00368503
0.00485954
0.00614878
0.00755069
0.00906252
0.0106814
0.0124044
0.0142283
0.0161487
0.0181606
0.0202599
0.0224436
0.0247088
0.0270516
0.0294684
0.0319543
0.0345034
0.0371106
0.0397715
0.0424817
0.0452374
0.0480336
0.0508642
0.0537234
0.0566065
0.0595081
0.0624213
0.0653392
0.0682559
0.0711652
0.0740606
0.076936
0.079785
0.0826015
0.0853804
0.0881174
0.0908072
0.0934444
0.0960244
0.0985433
0.100996
0.103379
0.105685
0.10791
0.11005
0.1121
0.114058
0.115921
0.117683
0.119339
0.120886
0.122318
0.123631
0.124823
0.12589
0.126832
0.127649
0.128342
0.128913
0.129363
0.129692
0.129902
0.129997
0.129983
0.129867
0.129656
0.12936
0.128989
0.128555
0.128072
0.127553
0.127014
0.12647
0.125941
0.125443
0.124964
0.124487
0.00417033
0.00360285
0.00308398
0.00258639
0.00207944
0.00157439
0.00108674
0.000627445
0.000208926
-0.000156111
-0.000457515
-0.000686428
-0.000834684
-0.000895277
-0.000861307
-0.000726136
-0.000484478
-0.000132015
0.000334575
0.000917812
0.00161855
0.0024369
0.00337206
0.00442241
0.00558655
0.00686315
0.00825052
0.0097461
0.0113469
0.0130501
0.0148517
0.0167474
0.0187334
0.0208062
0.0229626
0.0251994
0.0275127
0.0298982
0.0323517
0.0348674
0.0374401
0.040066
0.0427415
0.0454614
0.0482205
0.051014
0.0538368
0.0566837
0.0595491
0.0624262
0.0653078
0.0681879
0.0710613
0.0739216
0.0767616
0.079575
0.0823563
0.0851008
0.0878038
0.0904599
0.093064
0.0956123
0.0981009
0.100525
0.102878
0.105157
0.107356
0.109471
0.111498
0.113434
0.115275
0.117016
0.118653
0.120181
0.121598
0.122898
0.12408
0.12514
0.126079
0.126897
0.127594
0.128172
0.128631
0.128972
0.129197
0.129311
0.129318
0.129225
0.129039
0.128767
0.128419
0.128004
0.127535
0.127023
0.126479
0.125917
0.125351
0.124795
0.124217
0.123586
0.00521624
0.00447506
0.00383812
0.00326065
0.00269508
0.00214996
0.00163726
0.00116558
0.00074395
0.000381087
8.56936e-05
-0.000134019
-0.000271076
-0.00031952
-0.000273298
-0.000126453
0.000125832
0.00048748
0.000961154
0.00154872
0.00225116
0.00306858
0.00399999
0.00504405
0.00619978
0.00746585
0.00884047
0.0103219
0.0119077
0.0135942
0.0153773
0.0172526
0.0192167
0.0212671
0.0234004
0.025613
0.0279015
0.030261
0.0326864
0.035173
0.0377166
0.0403132
0.0429588
0.0456485
0.0483768
0.0511388
0.0539304
0.0567464
0.0595806
0.0624259
0.0652759
0.0681252
0.070968
0.0737974
0.0766068
0.0793904
0.0821427
0.0848584
0.0875327
0.0901603
0.0927363
0.0952574
0.0977202
0.100119
0.102449
0.104705
0.106883
0.108978
0.110986
0.112904
0.114728
0.116451
0.11807
0.119584
0.120987
0.122277
0.123451
0.124508
0.125446
0.126265
0.126965
0.127548
0.128014
0.128364
0.128601
0.128729
0.128753
0.128678
0.128509
0.128252
0.127915
0.127508
0.127041
0.126523
0.125964
0.125371
0.124758
0.124135
0.123454
0.122671
0.00622617
0.00532322
0.00457046
0.00391146
0.00328349
0.00269099
0.00214513
0.00165234
0.00121829
0.000849441
0.000552842
0.000335012
0.000202108
0.000160025
0.000213992
0.000368817
0.000628786
0.000997068
0.00147606
0.00206691
0.00277032
0.00358608
0.00451356
0.00555207
0.00670079
0.00795832
0.00932285
0.0107929
0.0123661
0.0140386
0.0158062
0.0176652
0.019612
0.0216439
0.0237582
0.0259511
0.0282185
0.030556
0.0329585
0.0354211
0.0379405
0.0405133
0.0431345
0.0457987
0.0485014
0.0512383
0.0540045
0.0567943
0.0596015
0.06242
0.0652437
0.068067
0.070884
0.0736879
0.0764723
0.0792317
0.0819603
0.0846527
0.0873036
0.0899079
0.092461
0.0949599
0.0974015
0.0997803
0.102091
0.104329
0.106491
0.108571
0.110565
0.112468
0.114277
0.115986
0.117592
0.119093
0.120487
0.121769
0.122939
0.123993
0.124931
0.125752
0.126455
0.127041
0.127512
0.127869
0.128115
0.128254
0.12829
0.128227
0.128068
0.127817
0.127484
0.127076
0.126602
0.126069
0.125483
0.124852
0.124185
0.12349
0.122706
0.121776
0.00717654
0.00612408
0.0052611
0.00452121
0.00382748
0.00318414
0.00260004
0.00207883
0.00162475
0.00124312
0.000939033
0.000717304
0.000583454
0.00054298
0.000600532
0.000760029
0.0010249
0.0013976
0.00188003
0.00247309
0.00317684
0.00399081
0.00491477
0.00594849
0.00709108
0.00834163
0.00969879
0.0111604
0.0127237
0.0143849
0.01614
0.0179859
0.0199195
0.0219374
0.0240365
0.0262137
0.0284643
0.0307835
0.0331672
0.0356114
0.0381124
0.040666
0.0432675
0.0459117
0.0485944
0.0513113
0.0540573
0.056826
0.0596115
0.0624082
0.0652104
0.0680127
0.0708092
0.0735929
0.0763579
0.0790987
0.0818092
0.0844834
0.0871161
0.0897024
0.0922382
0.0947204
0.0971456
0.0995088
0.101805
0.10403
0.10618
0.108248
0.110231
0.112124
0.113921
0.11562
0.117216
0.11871
0.120097
0.121375
0.122541
0.123595
0.124533
0.125355
0.12606
0.126649
0.127124
0.127487
0.12774
0.127887
0.12793
0.127873
0.127716
0.127465
0.127128
0.126712
0.126224
0.125668
0.125049
0.124372
0.123647
0.122879
0.121995
0.120927
0.00804821
0.00685932
0.00589315
0.00507315
0.00431327
0.00361673
0.00299033
0.00243603
0.00195681
0.00155654
0.00123928
0.00100917
0.000870566
0.000827988
0.000885711
0.00104706
0.00131434
0.0016896
0.0021739
0.00276775
0.00347099
0.00428335
0.00520463
0.00623457
0.00737248
0.00861774
0.00996959
0.0114253
0.0129812
0.014634
0.0163803
0.0182165
0.0201399
0.0221476
0.0242361
0.0264013
0.0286388
0.0309443
0.0333139
0.0357443
0.0382316
0.0407711
0.0433578
0.0459872
0.0486551
0.0513571
0.0540876
0.0568401
0.0596091
0.0623896
0.0651758
0.0679623
0.0707432
0.0735121
0.0762631
0.0789907
0.0816883
0.0843495
0.0869692
0.0895431
0.092067
0.0945378
0.0969518
0.099304
0.10159
0.103806
0.105947
0.108008
0.109983
0.111868
0.113659
0.115351
0.116942
0.118431
0.119814
0.12109
0.122254
0.123307
0.124246
0.125068
0.125775
0.126367
0.126847
0.127214
0.127472
0.127623
0.127669
0.127611
0.127452
0.127196
0.12685
0.126421
0.125912
0.125328
0.12467
0.123945
0.123159
0.122318
0.121337
0.120141
0.00882714
0.00751351
0.00645024
0.00555401
0.00472874
0.0039769
0.00330547
0.00271518
0.00220722
0.00178405
0.00144944
0.00120723
0.00106063
0.00101318
0.00106841
0.00122904
0.00149679
0.0018729
0.00235778
0.00295129
0.0036534
0.00446432
0.0053836
0.0064108
0.00754597
0.00878845
0.0101367
0.0115883
0.0131395
0.0147869
0.0165273
0.0183577
0.0202748
0.0222758
0.0243571
0.0265143
0.0287429
0.0310391
0.0333997
0.0358213
0.0382992
0.0408288
0.0434055
0.0460252
0.0486836
0.0513756
0.0540952
0.0568364
0.0595945
0.0623643
0.0651399
0.0679157
0.0706862
0.0734455
0.0761876
0.0789069
0.0815963
0.0842494
0.0868617
0.0894288
0.0919463
0.0944108
0.0968185
0.0991643
0.101444
0.103654
0.10579
0.107846
0.109817
0.111698
0.113486
0.115176
0.116766
0.118254
0.119636
0.12091
0.122074
0.123126
0.124065
0.12489
0.125599
0.126195
0.126678
0.127049
0.127309
0.127459
0.127503
0.127441
0.127276
0.127011
0.126653
0.126206
0.125672
0.125054
0.124355
0.123578
0.122732
0.12182
0.120747
0.119432
0.00950261
0.00807351
0.00691991
0.00595129
0.00506175
0.00425454
0.00353673
0.00290806
0.00236873
0.00192031
0.00156568
0.00130831
0.00115103
0.00109646
0.00114705
0.00130484
0.00157136
0.00194669
0.00243078
0.00302345
0.0037245
0.004534
0.00545189
0.00647786
0.00761201
0.00885378
0.0102008
0.0116501
0.0131989
0.0148439
0.0165818
0.0184096
0.0203244
0.0223226
0.0244004
0.0265533
0.0287773
0.0310693
0.0334259
0.035843
0.0383159
0.04084
0.0434115
0.0460265
0.04868
0.0513665
0.0540802
0.0568157
0.0595683
0.0623328
0.065103
0.0678733
0.0706387
0.0733935
0.0761316
0.0788471
0.0815329
0.0841831
0.0867934
0.0893592
0.0918758
0.0943391
0.0967452
0.0990891
0.101367
0.103575
0.105709
0.107763
0.109732
0.111614
0.113403
0.115096
0.116689
0.118178
0.119561
0.120835
0.121999
0.123053
0.123994
0.124821
0.125533
0.126132
0.126618
0.12699
0.12725
0.127397
0.127436
0.127368
0.127194
0.126918
0.126543
0.126074
0.125511
0.124858
0.124115
0.123286
0.12238
0.121399
0.120239
0.118813
0.0100654
0.00853031
0.00729204
0.00625348
0.00530209
0.00444076
0.00367605
0.00300746
0.00243519
0.0019601
0.00158385
0.00130935
0.00113927
0.0010755
0.00111971
0.00127312
0.00153654
0.00190967
0.00239192
0.0029833
0.00368366
0.00449234
0.00540955
0.00643596
0.00757112
0.00881351
0.010161
0.0116107
0.0131597
0.0148051
0.0165437
0.0183726
0.0202887
0.0222879
0.024366
0.0265188
0.028743
0.0310356
0.0333927
0.0358096
0.0382818
0.0408053
0.0433765
0.0459913
0.0486443
0.05133
0.0540432
0.0567785
0.0595313
0.0622959
0.0650658
0.067836
0.0706018
0.0733572
0.0760961
0.0788125
0.0814996
0.0841521
0.0867658
0.0893358
0.0918566
0.0943236
0.0967329
0.0990795
0.101359
0.10357
0.105705
0.107761
0.109733
0.111619
0.113414
0.115113
0.11671
0.118204
0.11959
0.120867
0.122033
0.12309
0.124034
0.124865
0.125581
0.126182
0.126669
0.127041
0.127297
0.12744
0.127473
0.127397
0.127212
0.126921
0.126527
0.126032
0.125438
0.124747
0.12396
0.123079
0.122114
0.121066
0.119824
0.118295
0.0105082
0.00887583
0.00755761
0.00645261
0.00544152
0.00452721
0.00371624
0.00300756
0.0024014
0.00189846
0.00149965
0.0012069
0.00102239
0.000947689
0.000984
0.00113173
0.00139037
0.00176002
0.00224015
0.00283002
0.00352943
0.00433831
0.00525674
0.00628499
0.00742242
0.00866713
0.0100169
0.0114693
0.0130214
0.0146701
0.0164128
0.0182464
0.0201671
0.0221707
0.0242529
0.0264103
0.0286397
0.0309375
0.0332992
0.0357201
0.0381962
0.040724
0.0432998
0.0459189
0.048576
0.051266
0.0539841
0.056725
0.0594835
0.0622536
0.0650289
0.0678046
0.0705762
0.0733376
0.0760824
0.0788046
0.0814984
0.0841586
0.086781
0.0893602
0.0918898
0.0943653
0.0967826
0.0991368
0.101424
0.10364
0.105781
0.107843
0.109823
0.111717
0.11352
0.115227
0.116832
0.118331
0.119723
0.121005
0.122177
0.123239
0.124188
0.125022
0.125741
0.126343
0.12683
0.127199
0.127452
0.12759
0.127615
0.127529
0.127331
0.127022
0.126606
0.126084
0.125457
0.124727
0.123896
0.122965
0.121941
0.12083
0.119511
0.117887
0.0108252
0.00910238
0.00770999
0.00654202
0.00547305
0.0045071
0.00365102
0.00290297
0.00226265
0.00173108
0.0013088
0.000996818
0.000796844
0.000710073
0.000736823
0.000877139
0.00113033
0.0014959
0.00197337
0.00256189
0.00326096
0.00407104
0.00499226
0.00602393
0.00716492
0.00841363
0.0097679
0.0112252
0.012783
0.0144383
0.0161884
0.0180299
0.0199584
0.0219698
0.0240605
0.0262271
0.0284662
0.0307732
0.0331436
0.035573
0.0380579
0.0405949
0.04318
0.0458081
0.0484743
0.051174
0.0539027
0.0566546
0.0594241
0.0622052
0.0649917
0.0677789
0.070562
0.0733346
0.0760904
0.078824
0.0815298
0.0842031
0.0868392
0.089432
0.0919748
0.0944634
0.0968936
0.0992606
0.101559
0.103787
0.105938
0.108011
0.110001
0.111906
0.113721
0.115437
0.117051
0.11856
0.11996
0.121251
0.122431
0.123499
0.124453
0.125291
0.126011
0.126614
0.127099
0.127466
0.127715
0.127847
0.127864
0.127765
0.127552
0.127223
0.126783
0.126233
0.125573
0.124805
0.123929
0.122948
0.121869
0.120697
0.119306
0.117593
0.0110117
0.00920516
0.00774342
0.00651567
0.00539136
0.00437521
0.00347496
0.00268842
0.00201428
0.00145353
0.00100696
0.000675009
0.000458565
0.000358443
0.000374474
0.000506058
0.000753071
0.00111448
0.00158922
0.00217669
0.00287675
0.00368951
0.0046146
0.00565089
0.00679709
0.00805172
0.00941269
0.0108775
0.0124437
0.0141088
0.0158695
0.0177218
0.0196613
0.0216844
0.0237879
0.0259681
0.0282207
0.0305409
0.0329244
0.0353671
0.0378659
0.040417
0.0430158
0.0456578
0.0483384
0.0510535
0.0537982
0.0565663
0.0593519
0.0621495
0.064953
0.0677575
0.0705577
0.0733469
0.0761192
0.0788697
0.0815932
0.0842844
0.0869385
0.0895489
0.0921094
0.0946157
0.0970639
0.0994487
0.101765
0.104008
0.106175
0.108262
0.110267
0.112186
0.114014
0.115743
0.117369
0.118889
0.120302
0.121604
0.122794
0.123869
0.124829
0.125669
0.126391
0.126995
0.12748
0.127845
0.128089
0.128214
0.128221
0.128109
0.127878
0.127529
0.127064
0.126486
0.125793
0.124987
0.124068
0.123038
0.121905
0.120675
0.119215
0.11742
0.0110658
0.009181
0.00765319
0.0063687
0.00519184
0.00412724
0.00318345
0.00235876
0.00165135
0.00106132
0.000589606
0.000236841
3.0597e-06
-0.000111744
-0.000107527
1.51256e-05
0.000255465
0.00061239
0.00108487
0.00167241
0.00237486
0.00319162
0.00412164
0.00516388
0.00631719
0.00757989
0.00894989
0.010425
0.012003
0.0136809
0.015455
0.017321
0.0192751
0.0213141
0.0234345
0.0256322
0.0279021
0.0302396
0.0326408
0.035102
0.0376197
0.0401894
0.0428069
0.045468
0.0481685
0.0509043
0.0536699
0.0564591
0.0592661
0.0620857
0.0649118
0.0677391
0.0705617
0.073373
0.0761675
0.0789406
0.0816868
0.0844005
0.0870765
0.0897088
0.0922915
0.0948205
0.0972918
0.0996994
0.102038
0.104302
0.10649
0.108597
0.11062
0.112556
0.114399
0.116143
0.117785
0.119321
0.120748
0.122065
0.123266
0.12435
0.125315
0.12616
0.126885
0.127491
0.127977
0.12834
0.12858
0.128697
0.128692
0.128566
0.128317
0.127947
0.127458
0.126851
0.126125
0.125281
0.12432
0.123243
0.122058
0.120771
0.119246
0.117372
0.0109868
0.0090271
0.00743631
0.00609739
0.00486997
0.00375868
0.00277228
0.00190956
0.00116877
0.000549551
5.23267e-05
-0.000322471
-0.000574782
-0.000704864
-0.000713008
-0.000599595
-0.000365997
-1.32553e-05
0.000457938
0.00104694
0.00175288
0.0025746
0.00351095
0.00456094
0.00572337
0.00699644
0.00837826
0.00986689
0.0114598
0.0131535
0.0149439
0.0168271
0.0187998
0.0208588
0.0230001
0.0252188
0.0275098
0.0298692
0.0322932
0.0347779
0.0373192
0.0399125
0.0425538
0.0452396
0.0479655
0.0507269
0.0535183
0.0563334
0.0591672
0.0620143
0.0648684
0.0677236
0.0705739
0.0734128
0.0762351
0.0790362
0.0818101
0.0845507
0.087253
0.0899116
0.0925212
0.095078
0.0975773
0.100013
0.102379
0.10467
0.106883
0.109014
0.111059
0.113016
0.114878
0.116642
0.118303
0.119857
0.121303
0.122634
0.123848
0.124942
0.125916
0.126767
0.127498
0.128108
0.128595
0.128956
0.12919
0.129298
0.129282
0.129141
0.128875
0.128484
0.12797
0.127333
0.126574
0.125693
0.124691
0.123568
0.122332
0.12099
0.119402
0.117453
0.0107723
0.00874161
0.00709061
0.00569853
0.00442181
0.00326521
0.002237
0.00133641
0.000561992
-8.67908e-05
-0.000610023
-0.00100763
-0.00127932
-0.00142508
-0.00144561
-0.00134175
-0.00111453
-0.000764866
-0.000293705
0.000297757
0.00100806
0.00183591
0.00278028
0.00384004
0.00501377
0.0062999
0.00769677
0.00920223
0.0108131
0.0125254
0.0143353
0.0162396
0.0182352
0.0203181
0.0224838
0.0247273
0.027044
0.0294302
0.0318821
0.0343951
0.0369648
0.0395869
0.0422578
0.044974
0.0477305
0.0505225
0.0533445
0.056191
0.059057
0.061937
0.0648242
0.0677125
0.0705957
0.0734677
0.0763235
0.0791577
0.081964
0.0847362
0.0874696
0.0901593
0.0928009
0.0953902
0.0979223
0.10039
0.102788
0.105111
0.107355
0.109514
0.111586
0.113568
0.115455
0.117242
0.118925
0.120501
0.121965
0.123313
0.124541
0.125648
0.126631
0.127493
0.128231
0.128846
0.129334
0.129693
0.129921
0.130021
0.129993
0.129838
0.129554
0.129142
0.128602
0.127935
0.127143
0.126225
0.125182
0.124013
0.122728
0.121333
0.119685
0.117664
0.0104205
0.008322
0.00661317
0.00516935
0.00384372
0.00264243
0.00157312
0.000634761
-0.000173571
-0.000852568
-0.00140252
-0.00182322
-0.00211435
-0.00227602
-0.00230891
-0.00221417
-0.00199237
-0.00164456
-0.00117244
-0.000577772
0.000137915
0.000973464
0.00192769
0.00299925
0.00418687
0.00548921
0.00690443
0.00842965
0.0100612
0.0117952
0.0136286
0.0155582
0.0175805
0.0196909
0.0218847
0.0241572
0.0265045
0.0289226
0.0314071
0.0339532
0.0365566
0.0392132
0.0419197
0.0446717
0.0474642
0.0502919
0.0531501
0.0560336
0.0589375
0.0618557
0.064781
0.0677073
0.0706288
0.0735395
0.0764339
0.0793062
0.0821497
0.0849584
0.0877282
0.0904546
0.0931331
0.0957595
0.0983285
0.100833
0.103268
0.105627
0.107905
0.110099
0.112203
0.114214
0.116129
0.117943
0.119652
0.121251
0.122736
0.124102
0.125346
0.126468
0.127465
0.128339
0.129086
0.129706
0.130196
0.130553
0.130776
0.130868
0.130831
0.130662
0.130359
0.129924
0.129358
0.128661
0.127835
0.126881
0.125796
0.124583
0.123248
0.121801
0.120094
0.118004
0.00993088
0.00776539
0.00600032
0.00450637
0.00313211
0.00188596
0.000775995
-0.00019992
-0.00104266
-0.00175248
-0.00232937
-0.00277309
-0.00308352
-0.00326092
-0.00330576
-0.0032189
-0.00300128
-0.00265453
-0.00218076
-0.00158194
-0.000859444
-1.45123e-05
0.000951448
0.00203718
0.00324167
0.00456341
0.0059998
0.00754734
0.00920245
0.010962
0.0128228
0.0147817
0.0168341
0.0189756
0.0212015
0.0235079
0.0258906
0.0283454
0.0308672
0.0334514
0.036094
0.0387912
0.0415388
0.0443322
0.0471659
0.0500352
0.0529355
0.0558619
0.0588092
0.0617707
0.0647391
0.0677086
0.0706737
0.0736284
0.0765665
0.0794817
0.0823674
0.0852183
0.0880304
0.0907989
0.0935193
0.096187
0.0987969
0.101342
0.103817
0.106217
0.108536
0.110767
0.112908
0.114955
0.116903
0.118747
0.120484
0.122108
0.123616
0.125003
0.126267
0.127406
0.128421
0.129308
0.130065
0.130691
0.131183
0.131539
0.13176
0.131847
0.1318
0.131617
0.131295
0.130837
0.130243
0.129517
0.128657
0.127665
0.126539
0.12528
0.123898
0.1224
0.120635
0.118477
0.00930275
0.00706984
0.00524857
0.00370543
0.00228336
0.000992103
-0.000158944
-0.00117257
-0.0020499
-0.00279055
-0.00339417
-0.0038607
-0.00419017
-0.00438252
-0.00443816
-0.00435794
-0.00414362
-0.0037973
-0.00332104
-0.00271671
-0.00198581
-0.00112976
-0.000149872
0.000952858
0.00217726
0.00352106
0.00498097
0.00655351
0.00823562
0.0100245
0.0119167
0.013908
0.0159941
0.0181704
0.0204332
0.0227782
0.0252011
0.0276968
0.0302607
0.0328883
0.0355759
0.0383192
0.0411134
0.0439535
0.0468341
0.0497509
0.0526996
0.0556748
0.0586707
0.0616806
0.0646973
0.0677153
0.0707293
0.0737329
0.0767196
0.079683
0.0826167
0.0855158
0.0883761
0.0911924
0.0939594
0.0966727
0.0993277
0.101918
0.104439
0.106884
0.109246
0.111522
0.113704
0.11579
0.117775
0.119653
0.12142
0.123073
0.124607
0.126018
0.127305
0.128466
0.129499
0.130401
0.13117
0.131803
0.1323
0.132658
0.132879
0.132962
0.132906
0.132707
0.132366
0.131884
0.131264
0.130507
0.129613
0.128583
0.127415
0.126111
0.12468
0.123131
0.121309
0.119084
0.00853494
0.00623372
0.00435526
0.00276295
0.00129369
-4.29219e-05
-0.00123598
-0.00228767
-0.00319927
-0.00397039
-0.00460058
-0.00508956
-0.00543714
-0.00564324
-0.00570845
-0.00563419
-0.00542259
-0.00507577
-0.00459575
-0.00398443
-0.00324345
-0.00237416
-0.00137761
-0.000254945
0.000991891
0.00235991
0.00384578
0.00544655
0.00715945
0.00898131
0.010908
0.0129352
0.0150586
0.0172744
0.0195787
0.0219669
0.0244339
0.0269751
0.029586
0.0322625
0.0350005
0.0377951
0.040641
0.043533
0.0464665
0.0494372
0.0524402
0.0554697
0.0585195
0.061583
0.0646536
0.0677256
0.0707936
0.073851
0.0768914
0.0799086
0.0828965
0.0858501
0.0887647
0.0916341
0.0944529
0.0972167
0.0999215
0.102562
0.105133
0.107627
0.110039
0.112362
0.11459
0.116719
0.118745
0.12066
0.122462
0.124147
0.125711
0.127151
0.128464
0.129649
0.130701
0.13162
0.132401
0.133045
0.133549
0.133913
0.134134
0.134213
0.134147
0.133934
0.133573
0.133068
0.132421
0.131634
0.130705
0.129635
0.128425
0.127075
0.125596
0.123997
0.122118
0.119826
0.00762566
0.00525538
0.00331852
0.0016759
0.000158943
-0.00122328
-0.00245876
-0.00354872
-0.00449444
-0.00529578
-0.00595216
-0.00646285
-0.00682737
-0.00704622
-0.00712036
-0.0070516
-0.00684192
-0.00649338
-0.00600817
-0.00538824
-0.00463511
-0.00374989
-0.00273381
-0.00158877
-0.000317441
0.00107711
0.00259204
0.00422471
0.00597199
0.00783003
0.00979447
0.0118612
0.0140264
0.0162863
0.0186365
0.0210719
0.0235875
0.0261789
0.0288421
0.0315727
0.034366
0.0372167
0.0401194
0.0430693
0.0460617
0.049092
0.052155
0.0552441
0.0583532
0.061476
0.0646061
0.0677378
0.0708649
0.0739812
0.0770808
0.0801579
0.0832064
0.0862207
0.0891952
0.0921234
0.0949994
0.0978194
0.10058
0.103276
0.105901
0.10845
0.110915
0.113289
0.115567
0.117744
0.119813
0.12177
0.123611
0.125332
0.12693
0.128402
0.129744
0.130955
0.132029
0.132966
0.133763
0.13442
0.134934
0.135304
0.135527
0.135602
0.135526
0.135299
0.134921
0.134394
0.13372
0.1329
0.131935
0.130826
0.129573
0.128177
0.126649
0.124999
0.123063
0.120703
0.00657232
0.00413264
0.00213622
0.000441365
-0.00112453
-0.00255258
-0.00383047
-0.004959
-0.00593909
-0.00677042
-0.00745223
-0.00798374
-0.00836471
-0.00859592
-0.00867869
-0.00861475
-0.00840594
-0.00805442
-0.00756246
-0.00693187
-0.00616399
-0.00526008
-0.0042221
-0.0030527
-0.00175464
-0.000330519
0.00121709
0.00288518
0.00466999
0.00656735
0.00857322
0.0106839
0.0128957
0.0152043
0.0176046
0.0200915
0.0226603
0.0253071
0.0280277
0.0308174
0.0336708
0.0365826
0.0395477
0.0425614
0.0456185
0.0487141
0.0518421
0.0549962
0.0581704
0.0613584
0.0645538
0.0677506
0.0709423
0.0741231
0.0772878
0.080431
0.0835463
0.0866272
0.0896673
0.0926599
0.0955995
0.0984824
0.101305
0.104062
0.106748
0.109355
0.111877
0.114307
0.116638
0.118866
0.120984
0.122987
0.124871
0.126633
0.12827
0.129776
0.13115
0.132388
0.133487
0.134445
0.135262
0.135935
0.136462
0.136839
0.137063
0.137134
0.13705
0.13681
0.136415
0.135866
0.135164
0.134313
0.133311
0.132161
0.130865
0.129422
0.127844
0.126143
0.124149
0.12172
0.00537208
0.0028624
0.000805541
-0.000943154
-0.00255934
-0.00403386
-0.00535457
-0.00652207
-0.00753671
-0.00839772
-0.00910445
-0.00965652
-0.0100541
-0.0102976
-0.0103886
-0.0103286
-0.0101196
-0.00976371
-0.00926307
-0.00861937
-0.00783412
-0.0069093
-0.00584755
-0.00465162
-0.00332385
-0.00186659
-0.000282829
0.00142379
0.00324922
0.00518961
0.00724139
0.00940089
0.0116638
0.0140253
0.0164801
0.0190233
0.0216507
0.0243583
0.0271415
0.029995
0.0329136
0.0358919
0.0389253
0.0420086
0.045136
0.0483019
0.0515002
0.0547251
0.0579703
0.0612296
0.064496
0.0677634
0.0710256
0.0742769
0.077513
0.0807284
0.0839163
0.0870695
0.090181
0.0932443
0.0962543
0.0992073
0.102099
0.104923
0.107674
0.110345
0.112928
0.115417
0.117807
0.120091
0.122262
0.124316
0.126247
0.128054
0.129732
0.131277
0.132685
0.133954
0.135082
0.136066
0.136904
0.137595
0.138135
0.138519
0.138747
0.138815
0.138725
0.138474
0.138062
0.13749
0.136761
0.135877
0.134839
0.133648
0.132306
0.130815
0.129188
0.127433
0.125379
0.122879
0.004023
0.00144162
-0.000676582
-0.00248011
-0.00414809
-0.00567045
-0.00703478
-0.00824151
-0.00929078
-0.0101816
-0.0109135
-0.0114866
-0.0119008
-0.0121566
-0.0122552
-0.0121983
-0.0119879
-0.0116259
-0.0111144
-0.0104552
-0.00965061
-0.00870314
-0.00761555
-0.00639021
-0.00502924
-0.00353544
-0.00191249
-0.000164307
0.0017054
0.00369327
0.00579578
0.00800873
0.0103272
0.012746
0.0152602
0.0178652
0.0205567
0.0233304
0.0261811
0.0291038
0.0320931
0.035144
0.0382515
0.0414099
0.0446127
0.047854
0.0511283
0.0544298
0.0577524
0.0610889
0.0644322
0.0677761
0.0711148
0.0744433
0.0777571
0.0810506
0.0843166
0.0875477
0.0907369
0.0938777
0.0969652
0.0999951
0.102962
0.10586
0.108681
0.11142
0.114069
0.116623
0.119076
0.12142
0.123649
0.125758
0.127742
0.129597
0.13132
0.132907
0.134353
0.135658
0.136818
0.13783
0.138694
0.139404
0.139957
0.14035
0.140582
0.14065
0.140555
0.140293
0.139864
0.13927
0.138514
0.137597
0.136521
0.135288
0.133901
0.132361
0.130681
0.128872
0.126755
0.12418
0.00252421
-0.00013191
-0.00231325
-0.00417285
-0.00589421
-0.00746598
-0.00887489
-0.0101213
-0.0112056
-0.0121271
-0.0128851
-0.0134796
-0.0139105
-0.0141781
-0.0142837
-0.0142288
-0.0140154
-0.0136454
-0.0131209
-0.0124446
-0.0116191
-0.010647
-0.00953078
-0.00827262
-0.00687514
-0.00534184
-0.00367672
-0.00188338
3.49853e-05
0.00207507
0.00423289
0.00650361
0.00888204
0.0113631
0.0139422
0.0166146
0.0193757
0.0222206
0.0251443
0.0281418
0.0312081
0.0343376
0.0375248
0.0407635
0.0440469
0.0473693
0.0507253
0.0541096
0.0575156
0.0609353
0.0643616
0.0677883
0.0712101
0.0746224
0.0780201
0.0813975
0.084747
0.0880617
0.0913349
0.0945601
0.097732
0.100845
0.103894
0.10687
0.109767
0.11258
0.115301
0.117926
0.120446
0.122856
0.125148
0.127316
0.129355
0.131264
0.133036
0.134668
0.136158
0.137502
0.138697
0.139741
0.140631
0.141362
0.141931
0.142335
0.142573
0.142642
0.142542
0.142269
0.141823
0.141208
0.140424
0.139474
0.13836
0.137084
0.13565
0.134059
0.132325
0.130458
0.128275
0.125623
0.000874657
-0.00186041
-0.00410788
-0.00602551
-0.00780175
-0.00942428
-0.010879
-0.0121663
-0.0132868
-0.01424
-0.0150249
-0.015641
-0.0160882
-0.0163672
-0.0164788
-0.0164246
-0.0162065
-0.0158266
-0.0152878
-0.014593