/*--------------------------------*- C++ -*----------------------------------*\
| =========                 |                                                 |
| \\      /  F ield         | OpenFOAM: The Open Source CFD Toolbox           |
|  \\    /   O peration     | Version:  2212                                  |
|   \\  /    A nd           | Website:  www.openfoam.com                      |
|    \\/     M anipulation  |                                                 |
\*---------------------------------------------------------------------------*/
FoamFile
{
    version     2.0;
    format      ascii;
    arch        "LSB;label=32;scalar=64";
    class       volVectorField;
    location    "0.056";
    object      U;
}
// * * * * * * * * * * * * * * * * * * * * * * * * * * * * * * * * * * * * * //

dimensions      [0 1 -1 0 0 0 0];

internalField   nonuniform List<vector> 
10000
(
(2.83544e-06 -2.88919e-06 0)
(1.40746e-05 -7.39848e-06 0)
(3.19451e-05 -8.51711e-06 0)
(4.86266e-05 -7.25358e-06 0)
(5.93353e-05 -4.78867e-06 0)
(6.18086e-05 -1.77086e-06 0)
(5.49354e-05 1.45322e-06 0)
(3.82318e-05 4.70384e-06 0)
(1.16327e-05 7.87575e-06 0)
(-2.46737e-05 1.09068e-05 0)
(-7.03223e-05 1.37673e-05 0)
(-0.000124843 1.64395e-05 0)
(-0.000187696 1.89124e-05 0)
(-0.000258286 2.11827e-05 0)
(-0.000335995 2.32482e-05 0)
(-0.000420183 2.51054e-05 0)
(-0.000510202 2.67569e-05 0)
(-0.000605403 2.82084e-05 0)
(-0.000705142 2.94626e-05 0)
(-0.000808781 3.05239e-05 0)
(-0.00091569 3.13983e-05 0)
(-0.00102525 3.20912e-05 0)
(-0.00113687 3.2607e-05 0)
(-0.00124995 3.29513e-05 0)
(-0.00136392 3.31306e-05 0)
(-0.00147824 3.31505e-05 0)
(-0.00159236 3.30165e-05 0)
(-0.00170578 3.27353e-05 0)
(-0.001818 3.23137e-05 0)
(-0.00192854 3.17571e-05 0)
(-0.00203695 3.10708e-05 0)
(-0.00214279 3.02603e-05 0)
(-0.00224563 2.9332e-05 0)
(-0.0023451 2.82925e-05 0)
(-0.0024408 2.7148e-05 0)
(-0.00253239 2.59044e-05 0)
(-0.00261952 2.45671e-05 0)
(-0.00270189 2.3142e-05 0)
(-0.0027792 2.16353e-05 0)
(-0.00285116 2.00524e-05 0)
(-0.00291753 1.83988e-05 0)
(-0.00297808 1.66807e-05 0)
(-0.00303258 1.49043e-05 0)
(-0.00308085 1.30757e-05 0)
(-0.00312272 1.12002e-05 0)
(-0.00315802 9.2835e-06 0)
(-0.00318664 7.33173e-06 0)
(-0.00320846 5.35167e-06 0)
(-0.00322339 3.3498e-06 0)
(-0.00323137 1.33187e-06 0)
(-0.00323236 -6.95808e-07 0)
(-0.00322634 -2.72646e-06 0)
(-0.00321331 -4.75385e-06 0)
(-0.00319329 -6.77123e-06 0)
(-0.00316634 -8.77122e-06 0)
(-0.00313253 -1.0747e-05 0)
(-0.00309196 -1.26917e-05 0)
(-0.00304475 -1.45978e-05 0)
(-0.00299105 -1.64581e-05 0)
(-0.00293103 -1.82658e-05 0)
(-0.0028649 -2.00133e-05 0)
(-0.00279287 -2.16927e-05 0)
(-0.0027152 -2.32961e-05 0)
(-0.00263216 -2.48158e-05 0)
(-0.00254406 -2.62447e-05 0)
(-0.00245123 -2.75755e-05 0)
(-0.00235401 -2.88007e-05 0)
(-0.00225279 -2.99123e-05 0)
(-0.00214798 -3.09024e-05 0)
(-0.00204 -3.17634e-05 0)
(-0.00192931 -3.24882e-05 0)
(-0.0018164 -3.30699e-05 0)
(-0.00170174 -3.35023e-05 0)
(-0.00158588 -3.37791e-05 0)
(-0.00146936 -3.38933e-05 0)
(-0.00135273 -3.38382e-05 0)
(-0.00123658 -3.36082e-05 0)
(-0.00112152 -3.31979e-05 0)
(-0.00100814 -3.26028e-05 0)
(-0.000897092 -3.18185e-05 0)
(-0.000788998 -3.08414e-05 0)
(-0.000684509 -2.96679e-05 0)
(-0.000584277 -2.82952e-05 0)
(-0.000488958 -2.67211e-05 0)
(-0.000399204 -2.49443e-05 0)
(-0.000315666 -2.29645e-05 0)
(-0.000238979 -2.07831e-05 0)
(-0.00016976 -1.84035e-05 0)
(-0.000108594 -1.58322e-05 0)
(-5.60262e-05 -1.30799e-05 0)
(-1.25369e-05 -1.01626e-05 0)
(2.14796e-05 -7.10552e-06 0)
(4.57556e-05 -3.94876e-06 0)
(6.02082e-05 -7.58868e-07 0)
(6.50349e-05 2.3516e-06 0)
(6.08633e-05 5.18703e-06 0)
(4.89608e-05 7.40785e-06 0)
(3.16729e-05 8.40803e-06 0)
(1.37127e-05 7.15365e-06 0)
(2.68623e-06 2.68668e-06 0)
(7.04495e-06 -1.39671e-05 0)
(2.88325e-05 -2.92954e-05 0)
(5.79625e-05 -3.12341e-05 0)
(8.09834e-05 -2.35122e-05 0)
(8.89114e-05 -9.95278e-06 0)
(7.65763e-05 6.87373e-06 0)
(4.08869e-05 2.53542e-05 0)
(-1.98147e-05 4.44634e-05 0)
(-0.000106147 6.35303e-05 0)
(-0.00021797 8.21247e-05 0)
(-0.000354636 9.99554e-05 0)
(-0.000515134 0.000116829 0)
(-0.000698185 0.000132618 0)
(-0.000902336 0.000147238 0)
(-0.00112601 0.000160636 0)
(-0.00136755 0.000172779 0)
(-0.00162523 0.000183653 0)
(-0.00189732 0.000193257 0)
(-0.00218207 0.000201597 0)
(-0.00247771 0.000208689 0)
(-0.00278253 0.000214555 0)
(-0.00309481 0.000219218 0)
(-0.00341288 0.000222705 0)
(-0.00373509 0.000225048 0)
(-0.00405983 0.000226282 0)
(-0.00438556 0.00022644 0)
(-0.00471076 0.000225558 0)
(-0.00503397 0.000223675 0)
(-0.00535379 0.000220829 0)
(-0.00566885 0.000217058 0)
(-0.00597787 0.0002124 0)
(-0.00627958 0.000206896 0)
(-0.00657281 0.000200584 0)
(-0.0068564 0.000193506 0)
(-0.0071293 0.0001857 0)
(-0.00739048 0.000177207 0)
(-0.00763897 0.000168068 0)
(-0.00787386 0.000158322 0)
(-0.00809432 0.000148009 0)
(-0.00829954 0.000137169 0)
(-0.00848881 0.000125844 0)
(-0.00866144 0.000114074 0)
(-0.00881682 0.000101899 0)
(-0.0089544 8.93618e-05 0)
(-0.00907368 7.65027e-05 0)
(-0.00917424 6.33637e-05 0)
(-0.00925569 4.99875e-05 0)
(-0.00931774 3.64171e-05 0)
(-0.00936013 2.2696e-05 0)
(-0.00938268 8.86818e-06 0)
(-0.00938527 -5.02187e-06 0)
(-0.00936784 -1.89282e-05 0)
(-0.00933042 -3.28047e-05 0)
(-0.00927308 -4.66052e-05 0)
(-0.00919596 -6.02819e-05 0)
(-0.00909929 -7.37864e-05 0)
(-0.00898336 -8.70704e-05 0)
(-0.00884851 -0.000100084 0)
(-0.00869519 -0.000112779 0)
(-0.00852388 -0.000125103 0)
(-0.00833518 -0.000137007 0)
(-0.00812971 -0.000148437 0)
(-0.00790821 -0.000159342 0)
(-0.00767147 -0.000169673 0)
(-0.00742035 -0.000179377 0)
(-0.00715581 -0.000188404 0)
(-0.00687884 -0.000196703 0)
(-0.00659054 -0.000204223 0)
(-0.00629205 -0.000210914 0)
(-0.00598461 -0.000216727 0)
(-0.00566951 -0.000221615 0)
(-0.0053481 -0.000225533 0)
(-0.0050218 -0.000228439 0)
(-0.00469209 -0.000230288 0)
(-0.00436051 -0.000231043 0)
(-0.00402864 -0.000230663 0)
(-0.00369812 -0.000229115 0)
(-0.00337063 -0.000226367 0)
(-0.00304788 -0.000222393 0)
(-0.00273163 -0.000217171 0)
(-0.00242364 -0.000210682 0)
(-0.0021257 -0.000202913 0)
(-0.0018396 -0.000193857 0)
(-0.00156713 -0.000183516 0)
(-0.00131007 -0.000171897 0)
(-0.00107014 -0.000159022 0)
(-0.000849024 -0.000144927 0)
(-0.000648322 -0.000129664 0)
(-0.000469518 -0.000113312 0)
(-0.00031394 -9.59819e-05 0)
(-0.000182703 -7.7831e-05 0)
(-7.66309e-05 -5.90812e-05 0)
(3.84736e-06 -4.00504e-05 0)
(5.88528e-05 -2.1203e-05 0)
(8.92699e-05 -3.22898e-06 0)
(9.70455e-05 1.28298e-05 0)
(8.55263e-05 2.5398e-05 0)
(5.99981e-05 3.20865e-05 0)
(2.94106e-05 2.94094e-05 0)
(7.14408e-06 1.37018e-05 0)
(8.02321e-06 -3.12833e-05 0)
(3.03259e-05 -5.81414e-05 0)
(5.55145e-05 -5.657e-05 0)
(6.77412e-05 -3.43564e-05 0)
(5.62461e-05 1.45785e-06 0)
(1.43302e-05 4.56517e-05 0)
(-6.23444e-05 9.45603e-05 0)
(-0.000176347 0.000145625 0)
(-0.000328795 0.000197081 0)
(-0.000519738 0.000247685 0)
(-0.000748437 0.000296566 0)
(-0.00101355 0.000343115 0)
(-0.00131332 0.000386901 0)
(-0.00164564 0.000427625 0)
(-0.00200821 0.000465086 0)
(-0.00239854 0.000499154 0)
(-0.00281404 0.00052975 0)
(-0.00325206 0.000556841 0)
(-0.00370989 0.000580422 0)
(-0.00418483 0.000600513 0)
(-0.00467419 0.000617156 0)
(-0.00517528 0.000630406 0)
(-0.00568547 0.00064033 0)
(-0.00620217 0.000647008 0)
(-0.00672285 0.000650525 0)
(-0.00724505 0.000650974 0)
(-0.00776636 0.000648452 0)
(-0.00828446 0.000643061 0)
(-0.00879711 0.000634907 0)
(-0.00930214 0.000624096 0)
(-0.00979748 0.000610738 0)
(-0.0102811 0.000594944 0)
(-0.0107512 0.000576824 0)
(-0.0112058 0.000556493 0)
(-0.0116432 0.000534065 0)
(-0.0120619 0.000509654 0)
(-0.0124602 0.000483374 0)
(-0.0128368 0.000455342 0)
(-0.0131902 0.000425672 0)
(-0.0135191 0.000394481 0)
(-0.0138225 0.000361888 0)
(-0.0140991 0.000328009 0)
(-0.0143481 0.000292964 0)
(-0.0145686 0.000256872 0)
(-0.0147596 0.000219853 0)
(-0.0149207 0.000182028 0)
(-0.0150511 0.000143523 0)
(-0.0151503 0.000104461 0)
(-0.015218 6.49677e-05 0)
(-0.0152539 2.51717e-05 0)
(-0.0152578 -1.47968e-05 0)
(-0.0152296 -5.48065e-05 0)
(-0.0151693 -9.47237e-05 0)
(-0.0150771 -0.000134414 0)
(-0.0149532 -0.000173739 0)
(-0.014798 -0.000212561 0)
(-0.014612 -0.000250738 0)
(-0.0143956 -0.000288129 0)
(-0.0141496 -0.000324592 0)
(-0.0138749 -0.00035998 0)
(-0.0135723 -0.000394147 0)
(-0.0132429 -0.000426946 0)
(-0.0128879 -0.00045823 0)
(-0.0125085 -0.000487853 0)
(-0.0121061 -0.000515669 0)
(-0.0116822 -0.000541534 0)
(-0.0112385 -0.000565301 0)
(-0.0107767 -0.000586828 0)
(-0.0102987 -0.000605974 0)
(-0.0098063 -0.000622605 0)
(-0.00930168 -0.000636586 0)
(-0.00878699 -0.000647791 0)
(-0.00826448 -0.000656098 0)
(-0.00773649 -0.000661391 0)
(-0.00720547 -0.000663559 0)
(-0.00667394 -0.000662501 0)
(-0.00614447 -0.000658125 0)
(-0.00561973 -0.000650348 0)
(-0.00510241 -0.000639103 0)
(-0.00459526 -0.000624335 0)
(-0.00410105 -0.000606002 0)
(-0.00362258 -0.000584082 0)
(-0.00316263 -0.000558572 0)
(-0.00272396 -0.000529494 0)
(-0.0023093 -0.000496899 0)
(-0.00192129 -0.000460874 0)
(-0.00156247 -0.000421552 0)
(-0.00123521 -0.000379124 0)
(-0.00094169 -0.000333855 0)
(-0.000683819 -0.000286108 0)
(-0.000463135 -0.00023638 0)
(-0.0002807 -0.000185349 0)
(-0.000136949 -0.000133948 0)
(-3.14879e-05 -8.34683e-05 0)
(3.71667e-05 -3.57193e-05 0)
(7.19226e-05 6.75801e-06 0)
(7.74399e-05 4.04053e-05 0)
(6.05801e-05 6.03249e-05 0)
(3.21996e-05 6.00197e-05 0)
(8.41401e-06 3.16595e-05 0)
(6.93687e-06 -4.74247e-05 0)
(2.29811e-05 -8.07765e-05 0)
(3.38135e-05 -6.87411e-05 0)
(2.34014e-05 -2.38377e-05 0)
(-1.94332e-05 4.35881e-05 0)
(-0.000102031 0.000125556 0)
(-0.00022937 0.000216129 0)
(-0.000404485 0.00031098 0)
(-0.000628825 0.000406957 0)
(-0.000902575 0.000501761 0)
(-0.00122493 0.000593724 0)
(-0.00159435 0.000681627 0)
(-0.0020087 0.000764589 0)
(-0.00246539 0.000841976 0)
(-0.00296154 0.000913346 0)
(-0.003494 0.000978394 0)
(-0.00405946 0.00103693 0)
(-0.00465448 0.00108884 0)
(-0.00527557 0.00113409 0)
(-0.0059192 0.00117269 0)
(-0.00658181 0.00120469 0)
(-0.0072599 0.00123018 0)
(-0.00794996 0.00124927 0)
(-0.00864858 0.0012621 0)
(-0.00935237 0.00126882 0)
(-0.0100581 0.0012696 0)
(-0.0107624 0.00126463 0)
(-0.0114624 0.00125409 0)
(-0.0121549 0.00123817 0)
(-0.0128371 0.00121709 0)
(-0.0135061 0.00119104 0)
(-0.0141594 0.00116025 0)
(-0.0147942 0.00112493 0)
(-0.0154082 0.00108529 0)
(-0.015999 0.00104155 0)
(-0.0165644 0.000993941 0)
(-0.0171023 0.000942683 0)
(-0.0176108 0.000887999 0)
(-0.018088 0.000830116 0)
(-0.0185321 0.00076926 0)
(-0.0189417 0.000705663 0)
(-0.0193152 0.000639554 0)
(-0.0196513 0.000571167 0)
(-0.0199489 0.000500734 0)
(-0.0202067 0.000428493 0)
(-0.0204239 0.000354684 0)
(-0.0205998 0.000279547 0)
(-0.0207336 0.000203329 0)
(-0.0208247 0.000126275 0)
(-0.0208729 4.8637e-05 0)
(-0.0208779 -2.93302e-05 0)
(-0.0208395 -0.000107369 0)
(-0.0207578 -0.000185218 0)
(-0.020633 -0.000262614 0)
(-0.0204655 -0.000339287 0)
(-0.0202556 -0.000414966 0)
(-0.0200041 -0.000489378 0)
(-0.0197117 -0.000562244 0)
(-0.0193795 -0.000633286 0)
(-0.0190084 -0.000702222 0)
(-0.0185997 -0.000768766 0)
(-0.0181549 -0.000832634 0)
(-0.0176755 -0.000893541 0)
(-0.0171633 -0.000951203 0)
(-0.0166201 -0.00100534 0)
(-0.016048 -0.00105566 0)
(-0.0154491 -0.0011019 0)
(-0.0148259 -0.00114377 0)
(-0.0141807 -0.00118102 0)
(-0.0135162 -0.00121337 0)
(-0.0128352 -0.00124057 0)
(-0.0121406 -0.00126239 0)
(-0.0114354 -0.00127858 0)
(-0.0107227 -0.00128894 0)
(-0.0100058 -0.00129324 0)
(-0.00928812 -0.00129131 0)
(-0.00857302 -0.00128298 0)
(-0.00786404 -0.00126809 0)
(-0.00716478 -0.00124653 0)
(-0.00647887 -0.00121821 0)
(-0.00580997 -0.00118306 0)
(-0.00516175 -0.00114105 0)
(-0.00453786 -0.00109221 0)
(-0.00394191 -0.0010366 0)
(-0.00337744 -0.00097435 0)
(-0.00284784 -0.000905672 0)
(-0.00235637 -0.000830858 0)
(-0.00190603 -0.00075032 0)
(-0.00149956 -0.000664616 0)
(-0.0011393 -0.000574493 0)
(-0.0008271 -0.000480947 0)
(-0.000564178 -0.000385304 0)
(-0.00035096 -0.000289334 0)
(-0.000186856 -0.000195411 0)
(-7.00017e-05 -0.000106725 0)
(3.05852e-06 -2.75708e-05 0)
(3.76649e-05 3.63038e-05 0)
(4.14305e-05 7.73398e-05 0)
(2.58329e-05 8.58227e-05 0)
(7.47573e-06 4.90519e-05 0)
(4.72967e-06 -5.79712e-05 0)
(1.01906e-05 -8.87213e-05 0)
(-7.1921e-07 -5.74566e-05 0)
(-4.23624e-05 1.88698e-05 0)
(-0.000125343 0.000126778 0)
(-0.000257082 0.000255625 0)
(-0.000442665 0.000397273 0)
(-0.000685266 0.000545562 0)
(-0.000986424 0.000695858 0)
(-0.00134633 0.000844682 0)
(-0.00176411 0.000989426 0)
(-0.00223802 0.00112814 0)
(-0.00276562 0.00125937 0)
(-0.00334394 0.00138205 0)
(-0.00396961 0.00149542 0)
(-0.00463893 0.00159892 0)
(-0.00534799 0.00169219 0)
(-0.00609271 0.00177502 0)
(-0.00686889 0.00184728 0)
(-0.00767228 0.00190897 0)
(-0.00849861 0.00196013 0)
(-0.00934361 0.00200088 0)
(-0.010203 0.00203137 0)
(-0.0110727 0.0020518 0)
(-0.0119484 0.0020624 0)
(-0.0128263 0.00206343 0)
(-0.0137023 0.00205516 0)
(-0.0145727 0.0020379 0)
(-0.0154337 0.00201194 0)
(-0.0162817 0.00197762 0)
(-0.0171133 0.00193525 0)
(-0.0179251 0.00188518 0)
(-0.0187141 0.00182776 0)
(-0.0194771 0.00176333 0)
(-0.0202112 0.00169224 0)
(-0.0209137 0.00161486 0)
(-0.0215821 0.00153155 0)
(-0.0222138 0.00144267 0)
(-0.0228066 0.00134858 0)
(-0.0233584 0.00124967 0)
(-0.0238671 0.00114629 0)
(-0.024331 0.00103883 0)
(-0.0247484 0.000927667 0)
(-0.0251179 0.000813181 0)
(-0.025438 0.000695757 0)
(-0.0257077 0.000575788 0)
(-0.0259259 0.000453667 0)
(-0.0260918 0.000329793 0)
(-0.0262047 0.000204571 0)
(-0.0262643 7.84094e-05 0)
(-0.0262702 -4.82768e-05 0)
(-0.0262222 -0.000175068 0)
(-0.0261204 -0.000301538 0)
(-0.0259651 -0.000427258 0)
(-0.0257567 -0.00055179 0)
(-0.0254958 -0.000674693 0)
(-0.0251831 -0.000795521 0)
(-0.0248197 -0.000913826 0)
(-0.0244068 -0.00102915 0)
(-0.0239458 -0.00114104 0)
(-0.0234381 -0.00124904 0)
(-0.0228855 -0.00135268 0)
(-0.0222901 -0.0014515 0)
(-0.0216539 -0.00154505 0)
(-0.0209792 -0.00163287 0)
(-0.0202687 -0.0017145 0)
(-0.019525 -0.0017895 0)
(-0.0187509 -0.00185743 0)
(-0.0179497 -0.00191786 0)
(-0.0171244 -0.00197037 0)
(-0.0162786 -0.00201455 0)
(-0.0154158 -0.00205002 0)
(-0.0145397 -0.0020764 0)
(-0.0136543 -0.00209337 0)
(-0.0127634 -0.00210058 0)
(-0.0118712 -0.00209776 0)
(-0.0109819 -0.00208463 0)
(-0.0100999 -0.00206098 0)
(-0.00922955 -0.00202664 0)
(-0.00837519 -0.00198145 0)
(-0.00754132 -0.00192536 0)
(-0.00673237 -0.00185835 0)
(-0.00595276 -0.00178047 0)
(-0.00520683 -0.00169187 0)
(-0.0044988 -0.00159281 0)
(-0.00383273 -0.00148365 0)
(-0.00321246 -0.00136492 0)
(-0.00264154 -0.00123732 0)
(-0.00212315 -0.00110181 0)
(-0.00166 -0.000959608 0)
(-0.00125418 -0.000812346 0)
(-0.000907081 -0.000662127 0)
(-0.000619157 -0.000511696 0)
(-0.000389756 -0.000364636 0)
(-0.000216864 -0.000225624 0)
(-9.68363e-05 -0.000100757 0)
(-2.41291e-05 2.03873e-06 0)
(9.04513e-06 7.26171e-05 0)
(1.3805e-05 9.81234e-05 0)
(5.36611e-06 6.12885e-05 0)
(1.96557e-06 -6.0789e-05 0)
(-5.81283e-06 -7.71021e-05 0)
(-4.34387e-05 -1.63404e-05 0)
(-0.000122361 0.0001009 0)
(-0.000251905 0.000258312 0)
(-0.000439088 0.000442864 0)
(-0.000688745 0.000644325 0)
(-0.00100387 0.000854762 0)
(-0.00138588 0.00106806 0)
(-0.00183485 0.0012795 0)
(-0.00234972 0.00148546 0)
(-0.00292854 0.00168318 0)
(-0.00356859 0.00187056 0)
(-0.00426655 0.00204602 0)
(-0.00501863 0.00220839 0)
(-0.00582067 0.00235684 0)
(-0.00666822 0.00249076 0)
(-0.00755664 0.00260979 0)
(-0.00848115 0.00271372 0)
(-0.00943686 0.00280246 0)
(-0.0104188 0.00287606 0)
(-0.0114222 0.00293464 0)
(-0.0124419 0.00297839 0)
(-0.0134733 0.00300757 0)
(-0.0145114 0.00302251 0)
(-0.0155516 0.00302354 0)
(-0.0165894 0.00301105 0)
(-0.0176201 0.00298546 0)
(-0.0186395 0.0029472 0)
(-0.0196434 0.00289674 0)
(-0.0206277 0.00283454 0)
(-0.0215885 0.00276109 0)
(-0.0225221 0.00267689 0)
(-0.0234249 0.00258244 0)
(-0.0242935 0.00247826 0)
(-0.0251246 0.00236487 0)
(-0.0259153 0.00224279 0)
(-0.0266625 0.00211256 0)
(-0.0273636 0.00197471 0)
(-0.0280162 0.00182978 0)
(-0.0286178 0.00167833 0)
(-0.0291664 0.00152089 0)
(-0.0296599 0.00135803 0)
(-0.0300966 0.00119031 0)
(-0.030475 0.00101829 0)
(-0.0307937 0.000842555 0)
(-0.0310515 0.000663673 0)
(-0.0312475 0.000482233 0)
(-0.0313808 0.00029883 0)
(-0.031451 0.000114063 0)
(-0.0314577 -7.14572e-05 0)
(-0.0314006 -0.000257117 0)
(-0.03128 -0.000442291 0)
(-0.0310961 -0.000626349 0)
(-0.0308494 -0.000808652 0)
(-0.0305406 -0.000988553 0)
(-0.0301707 -0.0011654 0)
(-0.0297409 -0.00133854 0)
(-0.0292524 -0.0015073 0)
(-0.0287071 -0.00167102 0)
(-0.0281067 -0.00182903 0)
(-0.0274532 -0.00198065 0)
(-0.0267491 -0.00212522 0)
(-0.0259968 -0.00226207 0)
(-0.025199 -0.00239054 0)
(-0.0243588 -0.00250996 0)
(-0.0234794 -0.00261969 0)
(-0.022564 -0.0027191 0)
(-0.0216165 -0.00280755 0)
(-0.0206404 -0.00288446 0)
(-0.01964 -0.00294923 0)
(-0.0186193 -0.00300132 0)
(-0.0175827 -0.00304019 0)
(-0.0165347 -0.00306535 0)
(-0.0154801 -0.00307635 0)
(-0.0144235 -0.00307278 0)
(-0.01337 -0.00305428 0)
(-0.0123246 -0.00302055 0)
(-0.0112922 -0.00297134 0)
(-0.0102781 -0.00290649 0)
(-0.00928744 -0.00282593 0)
(-0.00832528 -0.00272965 0)
(-0.00739671 -0.0026178 0)
(-0.00650673 -0.00249061 0)
(-0.00566016 -0.00234851 0)
(-0.00486162 -0.00219206 0)
(-0.00411548 -0.0020221 0)
(-0.00342574 -0.00183968 0)
(-0.00279598 -0.00164621 0)
(-0.00222924 -0.00144351 0)
(-0.00172786 -0.0012339 0)
(-0.00129342 -0.00102035 0)
(-0.0009265 -0.000806674 0)
(-0.00062652 -0.000597704 0)
(-0.000391542 -0.000399623 0)
(-0.000218032 -0.000220298 0)
(-0.00010062 -6.97208e-05 0)
(-3.17918e-05 3.95595e-05 0)
(-1.53494e-06 9.18555e-05 0)
(2.68448e-06 6.61375e-05 0)
(-1.04357e-06 -5.4724e-05 0)
(-2.35629e-05 -4.28246e-05 0)
(-9.10471e-05 5.89833e-05 0)
(-0.000211323 0.000227303 0)
(-0.000391917 0.000443512 0)
(-0.000639111 0.000692464 0)
(-0.000957189 0.000962047 0)
(-0.00134871 0.00124268 0)
(-0.00181476 0.00152681 0)
(-0.00235516 0.00180849 0)
(-0.00296859 0.00208308 0)
(-0.00365283 0.00234695 0)
(-0.00440486 0.00259731 0)
(-0.00522101 0.00283202 0)
(-0.00609711 0.00304945 0)
(-0.00702859 0.00324841 0)
(-0.00801053 0.00342806 0)
(-0.00903778 0.00358783 0)
(-0.010105 0.00372737 0)
(-0.0112068 0.00384654 0)
(-0.0123377 0.00394532 0)
(-0.0134922 0.00402384 0)
(-0.0146646 0.00408234 0)
(-0.0158497 0.00412114 0)
(-0.0170419 0.00414061 0)
(-0.018236 0.00414122 0)
(-0.0194268 0.00412348 0)
(-0.0206093 0.00408791 0)
(-0.0217784 0.0040351 0)
(-0.0229294 0.00396567 0)
(-0.0240578 0.00388023 0)
(-0.0251591 0.00377945 0)
(-0.026229 0.003664 0)
(-0.0272635 0.00353455 0)
(-0.0282587 0.00339182 0)
(-0.0292108 0.00323649 0)
(-0.0301165 0.00306929 0)
(-0.0309724 0.00289094 0)
(-0.0317754 0.00270218 0)
(-0.0325227 0.00250374 0)
(-0.0332116 0.00229637 0)
(-0.0338397 0.00208083 0)
(-0.0344048 0.00185787 0)
(-0.0349047 0.00162827 0)
(-0.0353379 0.0013928 0)
(-0.0357026 0.00115225 0)
(-0.0359976 0.000907402 0)
(-0.0362218 0.000659073 0)
(-0.0363742 0.000408072 0)
(-0.0364544 0.000155222 0)
(-0.0364617 -9.86439e-05 0)
(-0.0363962 -0.000352682 0)
(-0.0362579 -0.000606038 0)
(-0.0360472 -0.000857848 0)
(-0.0357645 -0.00110724 0)
(-0.0354108 -0.00135333 0)
(-0.0349871 -0.00159522 0)
(-0.0344948 -0.00183202 0)
(-0.0339355 -0.00206283 0)
(-0.0333111 -0.00228673 0)
(-0.0326236 -0.0025028 0)
(-0.0318754 -0.00271015 0)
(-0.0310691 -0.00290785 0)
(-0.0302077 -0.003095 0)
(-0.0292942 -0.00327069 0)
(-0.0283321 -0.00343404 0)
(-0.027325 -0.00358416 0)
(-0.0262767 -0.0037202 0)
(-0.0251914 -0.00384132 0)
(-0.0240733 -0.0039467 0)
(-0.0229271 -0.00403556 0)
(-0.0217574 -0.00410717 0)
(-0.0205693 -0.0041608 0)
(-0.0193678 -0.00419582 0)
(-0.0181582 -0.00421162 0)
(-0.016946 -0.00420765 0)
(-0.0157366 -0.00418346 0)
(-0.0145358 -0.00413865 0)
(-0.0133493 -0.00407293 0)
(-0.0121828 -0.0039861 0)
(-0.0110421 -0.00387809 0)
(-0.00993286 -0.00374895 0)
(-0.00886087 -0.0035989 0)
(-0.00783163 -0.00342833 0)
(-0.0068505 -0.00323782 0)
(-0.00592262 -0.00302824 0)
(-0.0050528 -0.00280072 0)
(-0.00424549 -0.00255675 0)
(-0.00350462 -0.00229826 0)
(-0.00283355 -0.00202769 0)
(-0.00223492 -0.00174813 0)
(-0.00171054 -0.00146346 0)
(-0.00126121 -0.00117858 0)
(-0.000886572 -0.000899581 0)
(-0.000584966 -0.000634106 0)
(-0.000353218 -0.000391689 0)
(-0.000186431 -0.000184214 0)
(-7.77151e-05 -2.63551e-05 0)
(-1.86827e-05 6.38135e-05 0)
(-2.42149e-07 6.24144e-05 0)
(-4.1147e-06 -3.92107e-05 0)
(-4.21224e-05 1.59498e-05 0)
(-0.000141303 0.00017131 0)
(-0.000305487 0.000401517 0)
(-0.000540119 0.000686095 0)
(-0.000850497 0.00100815 0)
(-0.00124011 0.00135392 0)
(-0.00171087 0.00171234 0)
(-0.00226339 0.00207452 0)
(-0.00289708 0.00243335 0)
(-0.00361027 0.00278316 0)
(-0.0044004 0.00311947 0)
(-0.0052641 0.00343877 0)
(-0.00619737 0.00373831 0)
(-0.00719566 0.00401601 0)
(-0.00825399 0.00427028 0)
(-0.00936701 0.00449998 0)
(-0.0105291 0.00470432 0)
(-0.0117345 0.00488281 0)
(-0.0129773 0.00503519 0)
(-0.0142515 0.0051614 0)
(-0.0155509 0.00526156 0)
(-0.0168696 0.00533593 0)
(-0.0182016 0.00538487 0)
(-0.0195408 0.00540887 0)
(-0.0208815 0.00540847 0)
(-0.022218 0.00538429 0)
(-0.0235446 0.00533703 0)
(-0.0248558 0.00526741 0)
(-0.0261465 0.0051762 0)
(-0.0274114 0.00506422 0)
(-0.0286458 0.0049323 0)
(-0.0298447 0.00478129 0)
(-0.0310037 0.00461209 0)
(-0.0321186 0.00442558 0)
(-0.0331851 0.00422269 0)
(-0.0341994 0.00400434 0)
(-0.0351579 0.00377148 0)
(-0.0360571 0.00352505 0)
(-0.0368938 0.00326601 0)
(-0.0376651 0.00299535 0)
(-0.0383683 0.00271403 0)
(-0.0390008 0.00242306 0)
(-0.0395604 0.00212344 0)
(-0.0400451 0.00181617 0)
(-0.0404533 0.0015023 0)
(-0.0407834 0.00118284 0)
(-0.0410341 0.000858859 0)
(-0.0412047 0.000531411 0)
(-0.0412942 0.00020157 0)
(-0.0413023 -0.000129577 0)
(-0.0412289 -0.000460928 0)
(-0.0410739 -0.00079137 0)
(-0.0408379 -0.00111978 0)
(-0.0405214 -0.00144501 0)
(-0.0401255 -0.00176592 0)
(-0.0396512 -0.00208135 0)
(-0.0391001 -0.00239012 0)
(-0.0384741 -0.00269107 0)
(-0.0377751 -0.00298301 0)
(-0.0370055 -0.00326475 0)
(-0.036168 -0.00353511 0)
(-0.0352655 -0.00379291 0)
(-0.0343011 -0.00403697 0)
(-0.0332785 -0.00426612 0)
(-0.0322013 -0.00447922 0)
(-0.0310736 -0.00467513 0)
(-0.0298996 -0.00485273 0)
(-0.028684 -0.00501096 0)
(-0.0274316 -0.00514876 0)
(-0.0261473 -0.00526513 0)
(-0.0248364 -0.00535913 0)
(-0.0235045 -0.00542984 0)
(-0.0221571 -0.00547645 0)
(-0.0208002 -0.00549818 0)
(-0.0194396 -0.00549437 0)
(-0.0180816 -0.00546443 0)
(-0.0167324 -0.0054079 0)
(-0.0153981 -0.00532441 0)
(-0.0140853 -0.00521375 0)
(-0.0128001 -0.00507587 0)
(-0.011549 -0.00491086 0)
(-0.0103381 -0.00471906 0)
(-0.00917342 -0.00450102 0)
(-0.00806089 -0.00425755 0)
(-0.00700608 -0.00398979 0)
(-0.00601426 -0.00369925 0)
(-0.00509024 -0.00338789 0)
(-0.00423834 -0.00305817 0)
(-0.00346227 -0.00271323 0)
(-0.00276498 -0.00235693 0)
(-0.00214859 -0.00199408 0)
(-0.00161422 -0.00163065 0)
(-0.00116189 -0.00127394 0)
(-0.00079037 -0.00093298 0)
(-0.000497048 -0.000618824 0)
(-0.000277736 -0.00034503 0)
(-0.000126431 -0.000128069 0)
(-3.66897e-05 1.20811e-05 0)
(-3.23485e-06 4.95307e-05 0)
(-7.15455e-06 -1.40531e-05 0)
(-6.09212e-05 0.000100131 0)
(-0.0001927 0.00032226 0)
(-0.000402241 0.000625666 0)
(-0.00069275 0.000988502 0)
(-0.00106836 0.00139247 0)
(-0.00153161 0.00182242 0)
(-0.00208362 0.00226597 0)
(-0.00272436 0.00271303 0)
(-0.00345271 0.00315539 0)
(-0.00426656 0.00358642 0)
(-0.00516295 0.00400081 0)
(-0.00613812 0.00439432 0)
(-0.00718769 0.00476361 0)
(-0.00830673 0.0051061 0)
(-0.00948985 0.00541979 0)
(-0.0107313 0.00570324 0)
(-0.0120251 0.0059554 0)
(-0.0133649 0.00617561 0)
(-0.0147444 0.00636349 0)
(-0.0161571 0.00651893 0)
(-0.0175965 0.00664202 0)
(-0.0190559 0.00673303 0)
(-0.020529 0.00679238 0)
(-0.0220093 0.00682063 0)
(-0.0234905 0.00681843 0)
(-0.0249662 0.00678654 0)
(-0.0264305 0.00672578 0)
(-0.0278773 0.00663705 0)
(-0.029301 0.0065213 0)
(-0.030696 0.00637951 0)
(-0.0320568 0.00621272 0)
(-0.0333784 0.00602201 0)
(-0.0346558 0.00580846 0)
(-0.0358843 0.0055732 0)
(-0.0370594 0.00531737 0)
(-0.0381768 0.00504212 0)
(-0.0392326 0.00474864 0)
(-0.0402229 0.00443812 0)
(-0.0411444 0.00411177 0)
(-0.0419937 0.00377081 0)
(-0.042768 0.00341647 0)
(-0.0434643 0.00304999 0)
(-0.0440805 0.00267266 0)
(-0.0446141 0.00228573 0)
(-0.0450634 0.00189049 0)
(-0.0454267 0.00148826 0)
(-0.0457028 0.00108036 0)
(-0.0458904 0.000668113 0)
(-0.0459889 0.000252879 0)
(-0.0459978 -0.000163976 0)
(-0.045917 -0.000581068 0)
(-0.0457464 -0.000996996 0)
(-0.0454866 -0.00141034 0)
(-0.0451383 -0.00181968 0)
(-0.0447024 -0.00222357 0)
(-0.0441804 -0.00262055 0)
(-0.0435738 -0.00300915 0)
(-0.0428847 -0.0033879 0)
(-0.0421153 -0.00375531 0)
(-0.0412681 -0.00410991 0)
(-0.0403461 -0.00445021 0)
(-0.0393525 -0.00477473 0)
(-0.0382907 -0.005082 0)
(-0.0371646 -0.00537056 0)
(-0.0359783 -0.00563898 0)
(-0.0347362 -0.00588584 0)
(-0.033443 -0.00610976 0)
(-0.0321037 -0.00630941 0)
(-0.0307234 -0.00648348 0)
(-0.0293078 -0.00663073 0)
(-0.0278624 -0.00674998 0)
(-0.0263933 -0.00684013 0)
(-0.0249066 -0.00690016 0)
(-0.0234088 -0.00692914 0)
(-0.0219062 -0.00692624 0)
(-0.0204055 -0.00689077 0)
(-0.0189135 -0.00682217 0)
(-0.017437 -0.00672003 0)
(-0.0159829 -0.00658412 0)
(-0.0145579 -0.0064144 0)
(-0.013169 -0.00621105 0)
(-0.0118227 -0.00597453 0)
(-0.0105257 -0.00570556 0)
(-0.00928423 -0.0054052 0)
(-0.00810436 -0.00507491 0)
(-0.00699176 -0.0047166 0)
(-0.00595165 -0.00433269 0)
(-0.00498873 -0.00392625 0)
(-0.00410707 -0.00350107 0)
(-0.00331001 -0.00306182 0)
(-0.00260003 -0.00261423 0)
(-0.0019787 -0.00216528 0)
(-0.00144651 -0.00172343 0)
(-0.00100279 -0.00129896 0)
(-0.000645685 -0.000904302 0)
(-0.000371874 -0.000554435 0)
(-0.000176411 -0.000267304 0)
(-5.49696e-05 -6.43285e-05 0)
(-6.1985e-06 2.72765e-05 0)
(-1.01171e-05 2.07141e-05 0)
(-7.96052e-05 0.000210037 0)
(-0.000244266 0.000512586 0)
(-0.000499815 0.000900907 0)
(-0.000847164 0.00135219 0)
(-0.00128921 0.00184703 0)
(-0.0018274 0.00236917 0)
(-0.00246194 0.00290509 0)
(-0.00319206 0.00344361 0)
(-0.00401601 0.00397556 0)
(-0.00493117 0.00449341 0)
(-0.00593406 0.00499104 0)
(-0.00702052 0.00546353 0)
(-0.00818573 0.00590694 0)
(-0.00942437 0.00631818 0)
(-0.0107307 0.00669487 0)
(-0.0120984 0.00703522 0)
(-0.0135212 0.00733794 0)
(-0.0149924 0.00760217 0)
(-0.0165051 0.00782742 0)
(-0.0180525 0.00801348 0)
(-0.0196276 0.00816042 0)
(-0.0212233 0.00826853 0)
(-0.0228327 0.00833828 0)
(-0.0244489 0.00837029 0)
(-0.0260652 0.00836534 0)
(-0.0276748 0.00832431 0)
(-0.0292712 0.00824816 0)
(-0.030848 0.00813798 0)
(-0.0323991 0.00799488 0)
(-0.0339184 0.00782006 0)
(-0.0354003 0.00761478 0)
(-0.036839 0.0073803 0)
(-0.0382294 0.00711797 0)
(-0.0395662 0.00682914 0)
(-0.0408448 0.00651519 0)
(-0.0420604 0.00617755 0)
(-0.0432089 0.00581763 0)
(-0.044286 0.0054369 0)
(-0.0452882 0.00503683 0)
(-0.0462118 0.0046189 0)
(-0.0470536 0.00418464 0)
(-0.0478108 0.00373556 0)
(-0.0484807 0.0032732 0)
(-0.0490608 0.00279913 0)
(-0.0495493 0.00231493 0)
(-0.0499443 0.00182219 0)
(-0.0502444 0.00132253 0)
(-0.0504485 0.000817582 0)
(-0.0505557 0.000308999 0)
(-0.0505655 -0.000201546 0)
(-0.0504777 -0.000712359 0)
(-0.0502924 -0.00122173 0)
(-0.0500102 -0.00172792 0)
(-0.0496318 -0.0022292 0)
(-0.0491582 -0.00272379 0)
(-0.048591 -0.00320992 0)
(-0.0479319 -0.0036858 0)
(-0.047183 -0.00414963 0)
(-0.0463467 -0.00459961 0)
(-0.045426 -0.00503391 0)
(-0.0444238 -0.00545075 0)
(-0.0433436 -0.00584832 0)
(-0.0421892 -0.00622483 0)
(-0.0409647 -0.00657851 0)
(-0.0396745 -0.00690762 0)
(-0.0383235 -0.00721044 0)
(-0.0369165 -0.0074853 0)
(-0.0354591 -0.00773058 0)
(-0.0339567 -0.00794471 0)
(-0.0324154 -0.00812619 0)
(-0.0308412 -0.0082736 0)
(-0.0292407 -0.00838561 0)
(-0.0276203 -0.00846101 0)
(-0.0259869 -0.00849868 0)
(-0.0243475 -0.00849765 0)
(-0.0227092 -0.00845711 0)
(-0.0210792 -0.00837641 0)
(-0.0194649 -0.00825507 0)
(-0.0178736 -0.00809287 0)
(-0.0163126 -0.00788978 0)
(-0.0147891 -0.00764609 0)
(-0.0133104 -0.00736235 0)
(-0.0118835 -0.00703952 0)
(-0.010515 -0.0066789 0)
(-0.0092115 -0.00628228 0)
(-0.00797904 -0.00585198 0)
(-0.00682326 -0.00539093 0)
(-0.00574928 -0.00490277 0)
(-0.00476157 -0.00439196 0)
(-0.0038639 -0.00386397 0)
(-0.00305921 -0.00332539 0)
(-0.00234956 -0.00278417 0)
(-0.00173603 -0.00224984 0)
(-0.00121866 -0.00173382 0)
(-0.000796436 -0.00124971 0)
(-0.000467032 -0.000813708 0)
(-0.000226662 -0.00044491 0)
(-7.31679e-05 -0.000165783 0)
(-9.08461e-06 -4.33408e-06 0)
(-1.29782e-05 6.49386e-05 0)
(-9.79753e-05 0.000345595 0)
(-0.000295388 0.000742459 0)
(-0.000597032 0.0012277 0)
(-0.00100156 0.00177786 0)
(-0.00151057 0.00237273 0)
(-0.00212437 0.00299514 0)
(-0.00284218 0.00363063 0)
(-0.00366237 0.0042671 0)
(-0.0045825 0.0048945 0)
(-0.00559933 0.00550447 0)
(-0.00670885 0.00609017 0)
(-0.0079064 0.00664601 0)
(-0.00918672 0.00716749 0)
(-0.010544 0.00765103 0)
(-0.0119722 0.00809385 0)
(-0.0134645 0.00849382 0)
(-0.0150143 0.00884941 0)
(-0.0166143 0.00915956 0)
(-0.0182575 0.00942364 0)
(-0.0199364 0.00964136 0)
(-0.0216436 0.00981278 0)
(-0.0233717 0.00993817 0)
(-0.0251134 0.010018 0)
(-0.0268613 0.0100531 0)
(-0.0286083 0.0100443 0)
(-0.0303471 0.00999255 0)
(-0.032071 0.00989904 0)
(-0.033773 0.00976499 0)
(-0.0354467 0.00959175 0)
(-0.0370856 0.0093807 0)
(-0.0386836 0.00913331 0)
(-0.0402347 0.00885112 0)
(-0.0417334 0.00853568 0)
(-0.0431741 0.00818861 0)
(-0.0445517 0.00781156 0)
(-0.0458613 0.00740621 0)
(-0.0470984 0.00697425 0)
(-0.0482586 0.00651744 0)
(-0.0493379 0.00603752 0)
(-0.0503325 0.00553627 0)
(-0.051239 0.0050155 0)
(-0.0520543 0.00447703 0)
(-0.0527755 0.00392271 0)
(-0.0534002 0.00335439 0)
(-0.0539262 0.00277398 0)
(-0.0543515 0.00218338 0)
(-0.0546748 0.00158451 0)
(-0.0548946 0.000979345 0)
(-0.0550102 0.000369852 0)
(-0.055021 -0.000241967 0)
(-0.0549269 -0.000854087 0)
(-0.0547278 -0.00146446 0)
(-0.0544244 -0.00207103 0)
(-0.0540175 -0.00267169 0)
(-0.0535082 -0.00326435 0)
(-0.052898 -0.00384688 0)
(-0.052189 -0.00441715 0)
(-0.0513833 -0.00497302 0)
(-0.0504835 -0.00551231 0)
(-0.0494926 -0.0060329 0)
(-0.0484139 -0.00653261 0)