/*--------------------------------*- C++ -*----------------------------------*\
| =========                 |                                                 |
| \\      /  F ield         | OpenFOAM: The Open Source CFD Toolbox           |
|  \\    /   O peration     | Version:  2212                                  |
|   \\  /    A nd           | Website:  www.openfoam.com                      |
|    \\/     M anipulation  |                                                 |
\*---------------------------------------------------------------------------*/
FoamFile
{
    version     2.0;
    format      ascii;
    arch        "LSB;label=32;scalar=64";
    class       surfaceScalarField;
    location    "0.065";
    object      phi;
}
// * * * * * * * * * * * * * * * * * * * * * * * * * * * * * * * * * * * * * //

dimensions      [0 3 -1 0 0 0 0];

oriented        oriented;

internalField   nonuniform List<scalar> 
19800
(
6.82017e-11
-6.81662e-11
2.3445e-10
-1.66244e-10
4.17739e-10
-1.83305e-10
5.60763e-10
-1.43024e-10
6.31226e-10
-7.04708e-11
6.11781e-10
1.94463e-11
4.93935e-10
1.17821e-10
2.7475e-10
2.19202e-10
-4.53094e-11
3.20048e-10
-4.6349e-10
4.18179e-10
-9.75616e-10
5.12127e-10
-1.57655e-09
6.00926e-10
-2.2605e-09
6.83951e-10
-3.02128e-09
7.60757e-10
-3.85241e-09
8.31114e-10
-4.74729e-09
8.9488e-10
-5.69927e-09
9.51973e-10
-6.70168e-09
1.0024e-09
-7.74789e-09
1.04622e-09
-8.83138e-09
1.08349e-09
-9.94572e-09
1.11435e-09
-1.10846e-08
1.13892e-09
-1.2242e-08
1.15735e-09
-1.34118e-08
1.1698e-09
-1.45882e-08
1.17647e-09
-1.57657e-08
1.17752e-09
-1.69389e-08
1.17314e-09
-1.81024e-08
1.16354e-09
-1.92513e-08
1.14891e-09
-2.03808e-08
1.12945e-09
-2.14861e-08
1.10535e-09
-2.2563e-08
1.07683e-09
-2.36071e-08
1.0441e-09
-2.46144e-08
1.00735e-09
-2.55812e-08
9.66807e-10
-2.65039e-08
9.22674e-10
-2.73791e-08
8.75158e-10
-2.82035e-08
8.2446e-10
-2.89743e-08
7.70788e-10
-2.96886e-08
7.14357e-10
-3.0344e-08
6.55379e-10
-3.09381e-08
5.94068e-10
-3.14687e-08
5.30636e-10
-3.1934e-08
4.653e-10
-3.23323e-08
3.9828e-10
-3.26621e-08
3.29793e-10
-3.29222e-08
2.60057e-10
-3.31115e-08
1.89306e-10
-3.32292e-08
1.17764e-10
-3.32749e-08
4.56556e-11
-3.32481e-08
-2.67761e-11
-3.31488e-08
-9.92907e-11
-3.29771e-08
-1.71652e-10
-3.27335e-08
-2.43611e-10
-3.24186e-08
-3.1492e-10
-3.20333e-08
-3.85331e-10
-3.15787e-08
-4.54578e-10
-3.10563e-08
-5.22398e-10
-3.04678e-08
-5.88537e-10
-2.9815e-08
-6.52734e-10
-2.91003e-08
-7.14715e-10
-2.83261e-08
-7.74214e-10
-2.74951e-08
-8.30959e-10
-2.66105e-08
-8.84679e-10
-2.56754e-08
-9.35108e-10
-2.46934e-08
-9.81985e-10
-2.36683e-08
-1.02504e-09
-2.26043e-08
-1.064e-09
-2.15057e-08
-1.09862e-09
-2.03771e-08
-1.12865e-09
-1.92232e-08
-1.15384e-09
-1.80493e-08
-1.17395e-09
-1.68605e-08
-1.18875e-09
-1.56625e-08
-1.19804e-09
-1.44609e-08
-1.20158e-09
-1.32617e-08
-1.1992e-09
-1.20709e-08
-1.19073e-09
-1.0895e-08
-1.17599e-09
-9.74011e-09
-1.15484e-09
-8.61294e-09
-1.12717e-09
-7.52005e-09
-1.09288e-09
-6.46815e-09
-1.05191e-09
-5.46395e-09
-1.00421e-09
-4.51416e-09
-9.49785e-10
-3.62547e-09
-8.88686e-10
-2.80445e-09
-8.21013e-10
-2.05752e-09
-7.46936e-10
-1.39079e-09
-6.66724e-10
-8.10022e-10
-5.80768e-10
-3.20403e-10
-4.89622e-10
7.36558e-11
-3.94063e-10
3.68861e-10
-2.95205e-10
5.63524e-10
-1.94658e-10
6.5834e-10
-9.4812e-11
6.57651e-10
6.9117e-13
5.71362e-10
8.62914e-11
4.18181e-10
1.53186e-10
2.3087e-10
1.87316e-10
6.53151e-11
1.65558e-10
6.53172e-11
1.63514e-10
-2.31665e-10
4.50448e-10
-4.5319e-10
7.25819e-10
-4.5867e-10
8.90103e-10
-3.0732e-10
8.74661e-10
-5.50152e-11
6.35903e-10
2.58195e-10
1.48768e-10
6.04985e-10
-5.98761e-10
9.66713e-10
-1.60943e-09
1.33073e-09
-2.87952e-09
1.68827e-09
-4.40067e-09
2.03327e-09
-6.16127e-09
2.36156e-09
-8.14744e-09
2.67013e-09
-1.03437e-08
2.957e-09
-1.27333e-08
3.22081e-09
-1.52991e-08
3.46067e-09
-1.80233e-08
3.67612e-09
-2.08878e-08
3.86693e-09
-2.38747e-08
4.03308e-09
-2.6966e-08
4.17475e-09
-3.01439e-08
4.29227e-09
-3.3391e-08
4.38602e-09
-3.66902e-08
4.45648e-09
-4.00246e-08
4.50421e-09
-4.33779e-08
4.52983e-09
-4.67344e-08
4.53398e-09
-5.00786e-08
4.51734e-09
-5.33957e-08
4.48063e-09
-5.66713e-08
4.42457e-09
-5.98918e-08
4.34991e-09
-6.30439e-08
4.25743e-09
-6.61149e-08
4.14787e-09
-6.90929e-08
4.02204e-09
-7.19662e-08
3.8807e-09
-7.4724e-08
3.72466e-09
-7.73561e-08
3.55471e-09
-7.98526e-08
3.37167e-09
-8.22045e-08
3.17634e-09
-8.44032e-08
2.96951e-09
-8.64409e-08
2.75201e-09
-8.83101e-08
2.52464e-09
-9.00043e-08
2.28823e-09
-9.15173e-08
2.04363e-09
-9.28437e-08
1.79167e-09
-9.39786e-08
1.5332e-09
-9.49178e-08
1.26906e-09
-9.56579e-08
1.00013e-09
-9.61959e-08
7.27291e-10
-9.65296e-08
4.51428e-10
-9.66573e-08
1.73437e-10
-9.65783e-08
-1.05773e-10
-9.62923e-08
-3.85267e-10
-9.57999e-08
-6.64106e-10
-9.51022e-08
-9.41342e-10
-9.42011e-08
-1.216e-09
-9.30993e-08
-1.48711e-09
-9.18002e-08
-1.75368e-09
-9.03079e-08
-2.01471e-09
-8.86272e-08
-2.26918e-09
-8.67639e-08
-2.51607e-09
-8.47243e-08
-2.75437e-09
-8.25154e-08
-2.98303e-09
-8.01454e-08
-3.20102e-09
-7.76227e-08
-3.40733e-09
-7.49569e-08
-3.60092e-09
-7.21581e-08
-3.78078e-09
-6.92373e-08
-3.9459e-09
-6.6206e-08
-4.09528e-09
-6.30767e-08
-4.22793e-09
-5.98624e-08
-4.34291e-09
-5.6577e-08
-4.4393e-09
-5.32347e-08
-4.51623e-09
-4.98506e-08
-4.57283e-09
-4.64403e-08
-4.60829e-09
-4.302e-08
-4.62186e-09
-3.96064e-08
-4.61283e-09
-3.62166e-08
-4.58056e-09
-3.28681e-08
-4.52448e-09
-2.95788e-08
-4.44412e-09
-2.63669e-08
-4.33911e-09
-2.32506e-08
-4.20914e-09
-2.02484e-08
-4.05405e-09
-1.73788e-08
-3.87384e-09
-1.466e-08
-3.66864e-09
-1.21099e-08
-3.43879e-09
-9.74599e-09
-3.18489e-09
-7.5851e-09
-2.90783e-09
-5.6429e-09
-2.60892e-09
-3.9337e-09
-2.28997e-09
-2.46986e-09
-1.95346e-09
-1.26112e-09
-1.6028e-09
-3.13646e-10
-1.24268e-09
3.71299e-10
-8.79608e-10
7.99208e-10
-5.22725e-10
9.84917e-10
-1.85012e-10
9.56303e-10
1.1492e-10
7.59094e-10
3.50404e-10
4.62785e-10
4.83627e-10
1.65468e-10
4.62878e-10
2.30783e-10
1.78723e-10
-4.10406e-10
4.51406e-10
-7.25855e-10
6.53043e-10
-6.60308e-10
6.64903e-10
-3.19194e-10
4.01041e-10
2.08861e-10
-1.96987e-10
8.56224e-10
-1.16548e-09
1.57345e-09
-2.52373e-09
2.32498e-09
-4.27822e-09
3.08522e-09
-6.42576e-09
3.83579e-09
-8.95595e-09
4.56346e-09
-1.18531e-08
5.25865e-09
-1.50974e-08
5.91449e-09
-1.86665e-08
6.5261e-09
-2.25358e-08
7.09006e-09
-2.66792e-08
7.60406e-09
-3.10697e-08
8.06668e-09
-3.56799e-08
8.4771e-09
-4.04819e-08
8.83505e-09
-4.54478e-08
9.14067e-09
-5.05499e-08
9.39441e-09
-5.57608e-08
9.59698e-09
-6.10536e-08
9.74929e-09
-6.64019e-08
9.85243e-09
-7.17796e-08
9.90762e-09
-7.71619e-08
9.91618e-09
-8.2524e-08
9.87953e-09
-8.78426e-08
9.79916e-09
-9.30946e-08
9.67659e-09
-9.82581e-08
9.51343e-09
-1.03312e-07
9.3113e-09
-1.08236e-07
9.07185e-09
-1.13011e-07
8.79679e-09
-1.17618e-07
8.4878e-09
-1.2204e-07
8.14659e-09
-1.2626e-07
7.77492e-09
-1.30263e-07
7.37452e-09
-1.34034e-07
6.94716e-09
-1.37559e-07
6.49461e-09
-1.40825e-07
6.01865e-09
-1.43822e-07
5.52109e-09
-1.46537e-07
5.00372e-09
-1.48962e-07
4.46838e-09
-1.51087e-07
3.91692e-09
-1.52905e-07
3.35121e-09
-1.54409e-07
2.77311e-09
-1.55594e-07
2.18456e-09
-1.56454e-07
1.58746e-09
-1.56986e-07
9.83784e-10
-1.57188e-07
3.75513e-10
-1.57059e-07
-2.35348e-10
-1.56597e-07
-8.46769e-10
-1.55805e-07
-1.45668e-09
-1.54683e-07
-2.06298e-09
-1.53236e-07
-2.66356e-09
-1.51466e-07
-3.25628e-09
-1.49381e-07
-3.83895e-09
-1.46986e-07
-4.4094e-09
-1.4429e-07
-4.96542e-09
-1.41301e-07
-5.50478e-09
-1.38031e-07
-6.02524e-09
-1.34489e-07
-6.52456e-09
-1.3069e-07
-7.00048e-09
-1.26646e-07
-7.45077e-09
-1.22374e-07
-7.87322e-09
-1.17889e-07
-8.26563e-09
-1.13209e-07
-8.62579e-09
-1.08353e-07
-8.95155e-09
-1.0334e-07
-9.24083e-09
-9.81912e-08
-9.49157e-09
-9.29288e-08
-9.70178e-09
-8.75754e-08
-9.86959e-09
-8.2155e-08
-9.99317e-09
-7.66925e-08
-1.00708e-08
-7.12135e-08
-1.01009e-08
-6.57443e-08
-1.0082e-08
-6.0312e-08
-1.00128e-08
-5.49444e-08
-9.89214e-09
-4.96694e-08
-9.71907e-09
-4.45156e-08
-9.49287e-09
-3.95117e-08
-9.21305e-09
-3.46863e-08
-8.87943e-09
-3.00681e-08
-8.49214e-09
-2.5685e-08
-8.0517e-09
-2.15646e-08
-7.55912e-09
-1.77336e-08
-7.01597e-09
-1.42169e-08
-6.42455e-09
-1.10378e-08
-5.78802e-09
-8.21701e-09
-5.11072e-09
-5.77202e-09
-4.39845e-09
-3.71582e-09
-3.659e-09
-2.05569e-09
-2.90281e-09
-7.91377e-10
-2.14392e-09
8.72569e-11
-1.40135e-09
6.03269e-10
-7.01021e-10
7.96463e-10
-7.82775e-11
7.28046e-10
4.18817e-10
4.8558e-10
7.26099e-10
1.87796e-10
7.60663e-10
4.18575e-10
1.40802e-10
-5.51213e-10
3.04717e-10
-8.89789e-10
3.18046e-10
-6.73636e-10
5.50858e-11
-5.62682e-11
-5.76597e-10
8.40565e-10
-1.64195e-09
1.92157e-09
-3.18297e-09
3.11449e-09
-5.22323e-09
4.36523e-09
-7.77155e-09
5.63355e-09
-1.08252e-08
6.88949e-09
-1.43726e-08
8.11079e-09
-1.83949e-08
9.28094e-09
-2.28681e-08
1.03878e-08
-2.77645e-08
1.14224e-08
-3.30528e-08
1.23784e-08
-3.87001e-08
1.32514e-08
-4.46717e-08
1.40383e-08
-5.0932e-08
1.47373e-08
-5.74446e-08
1.53477e-08
-6.41733e-08
1.58693e-08
-7.10814e-08
1.63026e-08
-7.8133e-08
1.66485e-08
-8.52922e-08
1.69085e-08
-9.25239e-08
1.70841e-08
-9.97937e-08
1.71774e-08
-1.07068e-07
1.71905e-08
-1.14314e-07
1.71257e-08
-1.21501e-07
1.69855e-08
-1.28596e-07
1.67725e-08
-1.35572e-07
1.64893e-08
-1.424e-07
1.61387e-08
-1.49051e-07
1.57235e-08
-1.55501e-07
1.52466e-08
-1.61724e-07
1.47109e-08
-1.67697e-07
1.41194e-08
-1.73397e-07
1.3475e-08
-1.78803e-07
1.27808e-08
-1.83896e-07
1.20399e-08
-1.88657e-07
1.12552e-08
-1.93068e-07
1.04299e-08
-1.97114e-07
9.56709e-09
-2.0078e-07
8.66995e-09
-2.04053e-07
7.74165e-09
-2.06922e-07
6.78539e-09
-2.09375e-07
5.80443e-09
-2.11404e-07
4.80204e-09
-2.13001e-07
3.78155e-09
-2.1416e-07
2.74631e-09
-2.14876e-07
1.69974e-09
-2.15146e-07
6.45267e-10
-2.14967e-07
-4.13591e-10
-2.14341e-07
-1.4733e-09
-2.13267e-07
-2.53028e-09
-2.11749e-07
-3.5809e-09
-2.09791e-07
-4.62146e-09
-2.07399e-07
-5.64827e-09
-2.04581e-07
-6.65754e-09
-2.01345e-07
-7.64549e-09
-1.97702e-07
-8.60831e-09
-1.93664e-07
-9.54214e-09
-1.89247e-07
-1.04431e-08
-1.84464e-07
-1.13074e-08
-1.79333e-07
-1.2131e-08
-1.73874e-07
-1.29102e-08
-1.68106e-07
-1.36412e-08
-1.62051e-07
-1.432e-08
-1.55734e-07
-1.49431e-08
-1.49179e-07
-1.55067e-08
-1.42413e-07
-1.60072e-08
-1.35463e-07
-1.64411e-08
-1.2836e-07
-1.68051e-08
-1.21134e-07
-1.70959e-08
-1.13816e-07
-1.73105e-08
-1.06441e-07
-1.7446e-08
-9.90422e-08
-1.74997e-08
-9.16549e-08
-1.74693e-08
-8.43152e-08
-1.73525e-08
-7.70599e-08
-1.71475e-08
-6.9926e-08
-1.68529e-08
-6.29514e-08
-1.64675e-08
-5.61737e-08
-1.59908e-08
-4.96306e-08
-1.54225e-08
-4.33595e-08
-1.47633e-08
-3.73969e-08
-1.40143e-08
-3.17785e-08
-1.31775e-08
-2.65383e-08
-1.22562e-08
-2.17084e-08
-1.12545e-08
-1.73178e-08
-1.01785e-08
-1.33926e-08
-9.036e-09
-9.95369e-09
-7.83733e-09
-7.01657e-09
-6.59613e-09
-4.58915e-09
-5.33023e-09
-2.67001e-09
-4.06305e-09
-1.24592e-09
-2.82544e-09
-2.88895e-10
-1.65804e-09
2.47266e-10
-6.14444e-10
4.31111e-10
2.34976e-10
3.57917e-10
7.99303e-10
1.55367e-10
9.63206e-10
5.73939e-10
7.23516e-11
-6.23565e-10
6.19525e-11
-8.79383e-10
-1.95945e-10
-4.15729e-10
-8.23782e-10
5.71596e-10
-1.91312e-09
1.92987e-09
-3.52935e-09
3.53781e-09
-5.7158e-09
5.30094e-09
-8.49727e-09
7.14667e-09
-1.18832e-08
9.01945e-09
-1.58705e-08
1.08768e-08
-2.0446e-08
1.26864e-08
-2.55887e-08
1.44236e-08
-3.1271e-08
1.60701e-08
-3.74604e-08
1.76118e-08
-4.41208e-08
1.90388e-08
-5.12131e-08
2.03436e-08
-5.86962e-08
2.15213e-08
-6.65274e-08
2.25686e-08
-7.46635e-08
2.34838e-08
-8.30604e-08
2.42662e-08
-9.1674e-08
2.49162e-08
-1.0046e-07
2.54349e-08
-1.09376e-07
2.58242e-08
-1.18378e-07
2.60863e-08
-1.27425e-07
2.62239e-08
-1.36474e-07
2.62401e-08
-1.45487e-07
2.61383e-08
-1.54424e-07
2.5922e-08
-1.63246e-07
2.55952e-08
-1.71919e-07
2.51616e-08
-1.80406e-07
2.46256e-08
-1.88673e-07
2.39912e-08
-1.9669e-07
2.32629e-08
-2.04424e-07
2.24449e-08
-2.11846e-07
2.15418e-08
-2.18929e-07
2.05582e-08
-2.25647e-07
1.94985e-08
-2.31974e-07
1.83674e-08
-2.37889e-07
1.71697e-08
-2.43369e-07
1.59099e-08
-2.48395e-07
1.4593e-08
-2.52949e-07
1.32236e-08
-2.57014e-07
1.18067e-08
-2.60575e-07
1.03472e-08
-2.63621e-07
8.84999e-09
-2.66139e-07
7.32018e-09
-2.6812e-07
5.7628e-09
-2.69557e-07
4.18302e-09
-2.70443e-07
2.58604e-09
-2.70775e-07
9.77137e-10
-2.7055e-07
-6.38345e-10
-2.69769e-07
-2.25498e-09
-2.68432e-07
-3.8673e-09
-2.66543e-07
-5.46976e-09
-2.64108e-07
-7.05673e-09
-2.61133e-07
-8.62253e-09
-2.57629e-07
-1.01614e-08
-2.53607e-07
-1.16677e-08
-2.4908e-07
-1.31355e-08
-2.44063e-07
-1.45589e-08
-2.38574e-07
-1.59321e-08
-2.32632e-07
-1.72492e-08
-2.26259e-07
-1.85044e-08
-2.19477e-07
-1.96918e-08
-2.12313e-07
-2.08056e-08
-2.04793e-07
-2.184e-08
-1.96947e-07
-2.27895e-08
-1.88805e-07
-2.36485e-08
-1.80401e-07
-2.44115e-08
-1.71768e-07
-2.50734e-08
-1.62944e-07
-2.5629e-08
-1.53967e-07
-2.60736e-08
-1.44874e-07
-2.64027e-08
-1.35708e-07
-2.66119e-08
-1.26511e-07
-2.66973e-08
-1.17325e-07
-2.66554e-08
-1.08194e-07
-2.64831e-08
-9.9164e-08
-2.61778e-08
-9.02795e-08
-2.57374e-08
-8.15865e-08
-2.51605e-08
-7.31309e-08
-2.44464e-08
-6.49581e-08
-2.35953e-08
-5.71131e-08
-2.26082e-08
-4.96399e-08
-2.14875e-08
-4.2581e-08
-2.02365e-08
-3.59768e-08
-1.88604e-08
-2.9865e-08
-1.73663e-08
-2.428e-08
-1.57635e-08
-1.92517e-08
-1.40644e-08
-1.48042e-08
-1.22848e-08
-1.09552e-08
-1.04452e-08
-7.71326e-09
-8.57212e-09
-5.0769e-09
-6.69941e-09
-3.03167e-09
-4.87067e-09
-1.54774e-09
-3.14197e-09
-5.76874e-10
-1.58531e-09
-4.90064e-11
-2.92882e-10
1.31577e-10
6.18724e-10
9.13687e-11
1.00341e-09
6.65307e-10
-1.32628e-11
-6.10295e-10
-2.40603e-10
-6.52043e-10
-8.27212e-10
1.70882e-10
-1.88473e-09
1.62911e-09
-3.49803e-09
3.54316e-09
-5.72856e-09
5.76834e-09
-8.61734e-09
8.18971e-09
-1.21877e-08
1.0717e-08
-1.64477e-08
1.32795e-08
-2.13931e-08
1.58221e-08
-2.70086e-08
1.83019e-08
-3.32707e-08
2.06856e-08
-4.01484e-08
2.29478e-08
-4.76055e-08
2.5069e-08
-5.56012e-08
2.70345e-08
-6.40914e-08
2.88338e-08
-7.30294e-08
3.04593e-08
-8.23666e-08
3.19058e-08
-9.20532e-08
3.31704e-08
-1.02039e-07
3.42518e-08
-1.12273e-07
3.515e-08
-1.22704e-07
3.58661e-08
-1.33282e-07
3.64023e-08
-1.43957e-07
3.67614e-08
-1.5468e-07
3.69471e-08
-1.65403e-07
3.69632e-08
-1.76079e-07
3.68144e-08
-1.86663e-07
3.65055e-08
-1.97109e-07
3.60417e-08
-2.07376e-07
3.54285e-08
-2.17422e-07
3.46714e-08
-2.27207e-07
3.37764e-08
-2.36694e-07
3.27493e-08
-2.45845e-07
3.15964e-08
-2.54627e-07
3.03239e-08
-2.63007e-07
2.89381e-08
-2.70954e-07
2.74454e-08
-2.78439e-07
2.58522e-08
-2.85434e-07
2.41653e-08
-2.91916e-07
2.23911e-08
-2.97859e-07
2.05365e-08
-3.03244e-07
1.86081e-08
-3.0805e-07
1.66129e-08
-3.1226e-07
1.45578e-08
-3.1586e-07
1.24497e-08
-3.18836e-07
1.02958e-08
-3.21176e-07
8.10325e-09
-3.22872e-07
5.87926e-09
-3.23918e-07
3.63121e-09
-3.24307e-07
1.36653e-09
-3.24038e-07
-9.07241e-10
-3.23111e-07
-3.18248e-09
-3.21526e-07
-5.45146e-09
-3.1929e-07
-7.70636e-09
-3.16407e-07
-9.9393e-09
-3.12888e-07
-1.21423e-08
-3.08742e-07
-1.43073e-08
-3.03983e-07
-1.64261e-08
-2.98628e-07
-1.84907e-08
-2.92694e-07
-2.04928e-08
-2.86202e-07
-2.24241e-08
-2.79175e-07
-2.42765e-08
-2.71638e-07
-2.60417e-08
-2.63618e-07
-2.77116e-08
-2.55145e-07
-2.92781e-08
-2.46252e-07
-3.07332e-08
-2.36973e-07
-3.20689e-08
-2.27343e-07
-3.32777e-08
-2.17403e-07
-3.43519e-08
-2.07192e-07
-3.52844e-08
-1.96753e-07
-3.60682e-08
-1.8613e-07
-3.66965e-08
-1.75369e-07
-3.71632e-08
-1.64519e-07
-3.74624e-08
-1.53627e-07
-3.75888e-08
-1.42745e-07
-3.75375e-08
-1.31924e-07
-3.73046e-08
-1.21215e-07
-3.68865e-08
-1.10672e-07
-3.62806e-08
-1.00347e-07
-3.54853e-08
-9.02936e-08
-3.44999e-08
-8.0564e-08
-3.33249e-08
-7.12099e-08
-3.19623e-08
-6.22817e-08
-3.04156e-08
-5.38279e-08
-2.86903e-08
-4.58945e-08
-2.67938e-08
-3.85242e-08
-2.47366e-08
-3.17557e-08
-2.2532e-08
-2.56225e-08
-2.01975e-08
-2.0152e-08
-1.77553e-08
-1.53636e-08
-1.52336e-08
-1.12679e-08
-1.26679e-08
-7.86405e-09
-1.01032e-08
-5.13846e-09
-7.59626e-09
-3.06211e-09
-5.21832e-09
-1.58829e-09
-3.05912e-09
-6.49859e-10
-1.23131e-09
-1.56364e-10
1.25225e-10
9.68219e-12
8.37359e-10
6.74988e-10
-1.0783e-10
-5.02494e-10
-5.77994e-10
-1.81848e-10
-1.53109e-09
1.12396e-09
-3.06293e-09
3.16097e-09
-5.2476e-09
5.72783e-09
-8.13911e-09
8.65985e-09
-1.17733e-08
1.18239e-08
-1.61696e-08
1.51133e-08
-2.13333e-08
1.84433e-08
-2.72572e-08
2.17461e-08
-3.39236e-08
2.49683e-08
-4.13058e-08
2.80678e-08
-4.93697e-08
3.10117e-08
-5.80753e-08
3.37746e-08
-6.73778e-08
3.6337e-08
-7.72283e-08
3.86844e-08
-8.75753e-08
4.08063e-08
-9.83649e-08
4.26954e-08
-1.09542e-07
4.43473e-08
-1.2105e-07
4.57596e-08
-1.32832e-07
4.69319e-08
-1.44831e-07
4.78653e-08
-1.56991e-07
4.85621e-08
-1.69255e-07
4.90257e-08
-1.81568e-07
4.92606e-08
-1.93877e-07
4.92717e-08
-2.06127e-07
4.90647e-08
-2.18268e-07
4.8646e-08
-2.30248e-07
4.80221e-08
-2.4202e-07
4.72002e-08
-2.53536e-07
4.61876e-08
-2.64751e-07
4.49919e-08
-2.75623e-07
4.3621e-08
-2.8611e-07
4.20829e-08
-2.96171e-07
4.03859e-08
-3.05772e-07
3.85382e-08
-3.14875e-07
3.65485e-08
-3.23448e-07
3.44252e-08
-3.3146e-07
3.21772e-08
-3.38882e-07
2.98132e-08
-3.45688e-07
2.73422e-08
-3.51853e-07
2.47732e-08
-3.57355e-07
2.21153e-08
-3.62175e-07
1.93777e-08
-3.66295e-07
1.65698e-08
-3.697e-07
1.3701e-08
-3.72378e-07
1.07808e-08
-3.74317e-07
7.81903e-09
-3.75512e-07
4.82538e-09
-3.75955e-07
1.80979e-09
-3.75644e-07
-1.21772e-09
-3.7458e-07
-4.24697e-09
-3.72764e-07
-7.26769e-09
-3.70201e-07
-1.02695e-08
-3.66898e-07
-1.32418e-08
-3.62866e-07
-1.61742e-08
-3.58118e-07
-1.90557e-08
-3.52668e-07
-2.18758e-08
-3.46535e-07
-2.46234e-08
-3.3974e-07
-2.72879e-08
-3.32306e-07
-2.98581e-08
-3.24259e-07
-3.23233e-08
-3.15628e-07
-3.46726e-08
-3.06445e-07
-3.68952e-08
-2.96742e-07
-3.89804e-08
-2.86558e-07
-4.09176e-08
-2.7593e-07
-4.26965e-08
-2.64901e-07
-4.43069e-08
-2.53514e-07
-4.57389e-08
-2.41816e-07
-4.69831e-08
-2.29853e-07
-4.80303e-08
-2.17678e-07
-4.88718e-08
-2.05342e-07
-4.94995e-08
-1.92898e-07
-4.99058e-08
-1.80403e-07
-5.00839e-08
-1.67913e-07
-5.00276e-08
-1.55486e-07
-4.97317e-08
-1.43181e-07
-4.9192e-08
-1.31056e-07
-4.84052e-08
-1.19172e-07
-4.73696e-08
-1.07587e-07
-4.60846e-08
-9.63607e-08
-4.45513e-08
-8.55502e-08
-4.27728e-08
-7.52118e-08
-4.07541e-08
-6.53992e-08
-3.85029e-08
-5.61633e-08
-3.60296e-08
-4.75516e-08
-3.33483e-08
-3.96066e-08
-3.0477e-08
-3.23655e-08
-2.74386e-08
-2.58585e-08
-2.42623e-08
-2.01079e-08
-2.09841e-08
-1.51265e-08
-1.76493e-08
-1.09159e-08
-1.43139e-08
-7.46486e-09
-1.10473e-08
-4.74751e-09
-7.93567e-09
-2.72154e-09
-5.08509e-09
-1.32623e-09
-2.62662e-09
-4.8057e-10
-7.20438e-10
-8.13121e-11
4.38102e-10
5.93671e-10
-2.06244e-10
-2.96229e-10
-9.33608e-10
5.45492e-10
-2.27627e-09
2.46664e-09
-4.31153e-09
5.19623e-09
-7.09991e-09
8.51619e-09
-1.06854e-08
1.22453e-08
-1.50963e-08
1.62348e-08
-2.03464e-08
2.03635e-08
-2.64364e-08
2.45333e-08
-3.33552e-08
2.86649e-08
-4.10815e-08
3.26946e-08
-4.95852e-08
3.65715e-08
-5.88287e-08
4.02552e-08
-6.87682e-08
4.37141e-08
-7.93549e-08
4.69236e-08
-9.05357e-08
4.98652e-08
-1.02255e-07
5.2525e-08
-1.14453e-07
5.48935e-08
-1.2707e-07
5.69644e-08
-1.40044e-07
5.87341e-08
-1.53314e-07
6.02016e-08
-1.66816e-07
6.13678e-08
-1.80489e-07
6.22351e-08
-1.94271e-07
6.28076e-08
-2.08101e-07
6.30903e-08
-2.21919e-07
6.30894e-08
-2.35666e-07
6.28118e-08
-2.49285e-07
6.22652e-08
-2.62721e-07
6.14579e-08
-2.75919e-07
6.03986e-08
-2.88828e-07
5.90966e-08
-3.01398e-07
5.75615e-08
-3.1358e-07
5.58031e-08
-3.25329e-07
5.38315e-08
-3.366e-07
5.16573e-08
-3.47353e-07
4.9291e-08
-3.57548e-07
4.67434e-08
-3.67148e-07
4.40255e-08
-3.76119e-07
4.11483e-08
-3.84429e-07
3.81231e-08
-3.92048e-07
3.49613e-08
-3.98949e-07
3.16744e-08
-4.05108e-07
2.8274e-08
-4.10502e-07
2.4772e-08
-4.15113e-07
2.11803e-08
-4.18923e-07
1.7511e-08
-4.21918e-07
1.37763e-08
-4.24088e-07
9.98851e-09
-4.25423e-07
6.16023e-09
-4.25917e-07
2.30413e-09
-4.25568e-07
-1.56698e-09
-4.24375e-07
-5.4401e-09
-4.2234e-07
-9.30211e-09
-4.1947e-07
-1.31397e-08
-4.15772e-07
-1.69395e-08
-4.11258e-07
-2.0688e-08
-4.05943e-07
-2.43715e-08
-3.99842e-07
-2.79762e-08
-3.92977e-07
-3.14884e-08
-3.85371e-07
-3.48942e-08
-3.77049e-07
-3.81797e-08
-3.68041e-07
-4.13311e-08
-3.58379e-07
-4.43346e-08
-3.48098e-07
-4.71765e-08
-3.37236e-07
-4.98431e-08
-3.25832e-07
-5.23211e-08
-3.13931e-07
-5.45975e-08
-3.01579e-07
-5.66593e-08
-2.88823e-07
-5.84941e-08
-2.75716e-07
-6.009e-08
-2.62311e-07
-6.14354e-08
-2.48664e-07
-6.25194e-08
-2.34832e-07
-6.33319e-08
-2.20874e-07
-6.38634e-08
-2.06853e-07
-6.41054e-08
-1.9283e-07
-6.40504e-08
-1.78869e-07
-6.3692e-08
-1.65036e-07
-6.30252e-08
-1.51395e-07
-6.20462e-08
-1.38012e-07
-6.0753e-08
-1.24951e-07
-5.91454e-08
-1.12277e-07
-5.72253e-08
-1.00053e-07
-5.49968e-08
-8.834e-08
-5.2467e-08
-7.7197e-08
-4.96459e-08
-6.66794e-08
-4.65472e-08
-5.68387e-08
-4.31889e-08
-4.77217e-08
-3.9594e-08
-3.9369e-08
-3.57914e-08
-3.18143e-08
-3.1817e-08
-2.5083e-08
-2.77153e-08
-1.91913e-08
-2.3541e-08
-1.41441e-08
-1.9361e-08
-9.93434e-09
-1.52571e-08
-6.54126e-09
-1.13288e-08
-3.92917e-09
-7.69719e-09
-2.04635e-09
-4.50945e-09
-8.24136e-10
-1.94265e-09
-1.76484e-10
-2.09551e-10
4.17183e-10
-3.05558e-10
9.32303e-12
-1.29656e-09
1.5365e-09
-3.04132e-09
4.21139e-09
-5.59736e-09
7.75227e-09
-9.00995e-09
1.19288e-08
-1.33113e-08
1.65467e-08
-1.85206e-08
2.1444e-08
-2.46442e-08
2.64871e-08
-3.1677e-08
3.1566e-08
-3.96029e-08
3.65907e-08
-4.8396e-08
4.14877e-08
-5.80224e-08
4.61978e-08
-6.84404e-08
5.06732e-08
-7.96024e-08
5.48761e-08
-9.14554e-08
5.87767e-08
-1.03942e-07
6.23521e-08
-1.17003e-07
6.55854e-08
-1.30573e-07
6.84642e-08
-1.44589e-07
7.09804e-08
-1.58984e-07
7.3129e-08
-1.73691e-07
7.49084e-08
-1.88642e-07
7.63189e-08
-2.0377e-07
7.73633e-08
-2.19009e-07
7.80461e-08
-2.34292e-07
7.83729e-08
-2.49553e-07
7.83512e-08
-2.64731e-07
7.7989e-08
-2.79761e-07
7.72957e-08
-2.94584e-07
7.6281e-08
-3.09141e-07
7.49557e-08
-3.23376e-07
7.3331e-08
-3.37233e-07
7.14184e-08
-3.5066e-07
6.92302e-08
-3.63607e-07
6.67787e-08
-3.76026e-07
6.40767e-08
-3.87872e-07
6.11372e-08
-3.99102e-07
5.79736e-08
-4.09676e-07
5.45993e-08
-4.19556e-07
5.10281e-08
-4.28707e-07
4.72738e-08
-4.37096e-07
4.33505e-08
-4.44694e-07
3.92725e-08
-4.51474e-07
3.50542e-08
-4.57413e-07
3.07102e-08
-4.62488e-07
2.62554e-08
-4.66681e-07
2.17045e-08
-4.69978e-07
1.70729e-08
-4.72365e-07
1.23759e-08
-4.73834e-07
7.62884e-09
-4.74377e-07
2.84758e-09
-4.73992e-07
-1.95204e-09
-4.72678e-07
-6.75392e-09
-4.70439e-07
-1.15418e-08
-4.67279e-07
-1.62993e-08
-4.63209e-07
-2.10098e-08
-4.5824e-07
-2.56565e-08
-4.52389e-07
-3.02226e-08
-4.45674e-07
-3.46912e-08
-4.38118e-07
-3.90451e-08
-4.29745e-07
-4.32672e-08
-4.20584e-07
-4.73405e-08
-4.10667e-07
-5.12479e-08
-4.00029e-07
-5.49723e-08
-3.88709e-07
-5.8497e-08
-3.76747e-07
-6.18051e-08
-3.64188e-07
-6.48803e-08
-3.51079e-07
-6.77065e-08
-3.3747e-07
-7.02679e-08
-3.23415e-07
-7.25493e-08
-3.08969e-07
-7.4536e-08
-2.9419e-07
-7.6214e-08
-2.7914e-07
-7.757e-08
-2.6388e-07
-7.85916e-08
-2.48476e-07
-7.92675e-08
-2.32994e-07
-7.95874e-08
-2.17502e-07
-7.95423e-08
-2.02069e-07
-7.91246e-08
-1.86766e-07
-7.83284e-08
-1.71663e-07
-7.71495e-08
-1.5683e-07
-7.55857e-08
-1.42338e-07
-7.36373e-08
-1.28257e-07
-7.13069e-08
-1.14653e-07
-6.86001e-08
-1.01594e-07
-6.55259e-08
-8.91431e-08
-6.20971e-08
-7.73595e-08
-5.83308e-08
-6.62993e-08
-5.42491e-08
-5.60131e-08
-4.98802e-08
-4.65455e-08
-4.5259e-08
-3.79339e-08
-4.04285e-08
-3.02078e-08
-3.54414e-08
-2.33872e-08
-3.03616e-08
-1.74819e-08
-2.52664e-08
-1.24901e-08
-2.02489e-08
-8.39767e-09
-1.54212e-08
-5.17743e-09
-1.09174e-08
-2.7884e-09
-6.89848e-09
-1.17602e-09
-3.55503e-09
-2.72756e-10
-1.11282e-09
1.44428e-10
-4.03896e-10
4.13219e-10
-1.65998e-09
2.7926e-09
-3.81189e-09
6.36329e-09
-6.89734e-09
1.08377e-08
-1.09456e-08
1.59771e-08
-1.59761e-08
2.15771e-08
-2.19974e-08
2.74653e-08
-2.90075e-08
3.34973e-08
-3.69942e-08
3.95527e-08
-4.59354e-08
4.55319e-08
-5.58001e-08
5.13525e-08
-6.65495e-08
5.69473e-08
-7.81378e-08
6.22615e-08
-9.0513e-08
6.72512e-08
-1.03618e-07
7.18817e-08
-1.17392e-07
7.61257e-08
-1.31769e-07
7.99628e-08
-1.46683e-07
8.33781e-08
-1.62064e-07
8.63612e-08
-1.77841e-07
8.89061e-08
-1.93942e-07
9.101e-08
-2.10296e-07
9.2673e-08
-2.26831e-07
9.38979e-08
-2.43474e-07
9.46896e-08
-2.60156e-07
9.50546e-08
-2.76806e-07
9.50013e-08
-2.93357e-07
9.45393e-08
-3.0974e-07
9.36793e-08
-3.25892e-07
9.24329e-08
-3.41749e-07
9.08127e-08
-3.5725e-07
8.88321e-08
-3.72337e-07
8.65048e-08
-3.86952e-07
8.38454e-08
-4.01042e-07
8.08687e-08
-4.14555e-07
7.759e-08
-4.27443e-07
7.40249e-08
-4.39659e-07
7.01894e-08
-4.51159e-07
6.60998e-08
-4.61904e-07
6.17725e-08
-4.71854e-07
5.72244e-08
-4.80976e-07
5.24723e-08
-4.89237e-07
4.75335e-08
-4.96608e-07
4.24254e-08
-5.03064e-07
3.71657e-08
-5.0858e-07
3.17723e-08
-5.13139e-07
2.62631e-08
-5.16723e-07
2.06566e-08
-5.19318e-07
1.49711e-08
-5.20915e-07
9.2256e-09
-5.21506e-07
3.43893e-09
-5.21088e-07
-2.36969e-09
-5.19661e-07
-8.18083e-09
-5.17228e-07
-1.39749e-08
-5.13796e-07
-1.9732e-08
-5.09373e-07
-2.54321e-08
-5.03975e-07
-3.10551e-08
-4.97617e-07
-3.65806e-08
-4.9032e-07
-4.19881e-08
-4.82108e-07
-4.72572e-08
-4.73008e-07
-5.23672e-08
-4.63051e-07
-5.72974e-08
-4.52271e-07
-6.20275e-08
-4.40707e-07
-6.65369e-08
-4.28398e-07
-7.08054e-08
-4.15391e-07
-7.48129e-08
-4.01731e-07
-7.85397e-08
-3.87471e-07
-8.19664e-08
-3.72665e-07
-8.50744e-08
-3.57369e-07
-8.78452e-08
-3.41644e-07
-9.02615e-08
-3.25551e-07
-9.23064e-08
-3.09157e-07
-9.39643e-08
-2.92528e-07
-9.52203e-08
-2.75735e-07
-9.6061e-08
-2.58848e-07
-9.64743e-08
-2.4194e-07
-9.64497e-08
-2.25087e-07
-9.59784e-08
-2.08361e-07
-9.50535e-08
-1.9184e-07
-9.36704e-08
-1.75599e-07
-9.18269e-08
-1.59713e-07
-8.95235e-08
-1.44256e-07
-8.67639e-08
-1.29301e-07
-8.35551e-08
-1.14919e-07
-7.99084e-08
-1.01176e-07
-7.58393e-08
-8.81389e-08
-7.13683e-08
-7.5866e-08
-6.6522e-08
-6.44126e-08
-6.13336e-08
-5.38274e-08
-5.58442e-08
-4.41521e-08
-5.01038e-08
-3.54207e-08
-4.41728e-08
-2.76582e-08
-3.81241e-08
-2.08799e-08
-3.20447e-08
-1.50906e-08
-2.60382e-08
-1.02841e-08
-2.02276e-08
-6.44281e-09
-1.47587e-08
-3.53771e-09
-9.80357e-09
-1.52917e-09
-5.56357e-09
-3.6831e-10
-2.27369e-09
-2.23878e-10
-5.00397e-10
9.1361e-10
-2.01961e-09
4.31182e-09
-4.5786e-09
8.9223e-09
-8.19588e-09
1.4455e-08
-1.28846e-08
2.06658e-08
-1.86506e-08
2.73431e-08
-2.54913e-08
3.4306e-08
-3.33953e-08
4.14014e-08
-4.23425e-08
4.84999e-08
-5.23039e-08
5.54933e-08
-6.32427e-08
6.22913e-08
-7.51148e-08
6.88193e-08
-8.78694e-08
7.50161e-08
-1.0145e-07
8.08318e-08
-1.15795e-07
8.62269e-08
-1.3084e-07
9.11701e-08
-1.46514e-07
9.56373e-08
-1.62747e-07
9.96111e-08
-1.79465e-07
1.03079e-07
-1.96593e-07
1.06034e-07
-2.14054e-07
1.08471e-07
-2.31773e-07
1.10392e-07
-2.49673e-07
1.11798e-07
-2.67678e-07
1.12695e-07
-2.85713e-07
1.1309e-07
-3.03704e-07
1.12993e-07
-3.21579e-07
1.12414e-07
-3.39266e-07
1.11366e-07
-3.56696e-07
1.09863e-07
-3.73803e-07
1.07919e-07
-3.9052e-07
1.0555e-07
-4.06786e-07
1.02771e-07
-4.2254e-07
9.95996e-08
-4.37725e-07
9.60535e-08
-4.52286e-07
9.21506e-08
-4.6617e-07
8.79091e-08
-4.79328e-07
8.33478e-08
-4.91714e-07
7.84861e-08
-5.03285e-07
7.33432e-08
-5.14e-07
6.79391e-08
-5.23821e-07
6.22938e-08
-5.32715e-07
5.64276e-08
-5.40651e-07
5.03612e-08
-5.47601e-07
4.41155e-08
-5.5354e-07
3.77116e-08
-5.58448e-07
3.11709e-08
-5.62306e-07
2.45151e-08
-5.65101e-07
1.77661e-08
-5.66822e-07
1.09461e-08
-5.67461e-07
4.07769e-09
-5.67014e-07
-2.81652e-09
-5.65481e-07
-9.71353e-09
-5.62866e-07
-1.65901e-08
-5.59175e-07
-2.34227e-08
-5.54419e-07
-3.01878e-08
-5.48613e-07
-3.68614e-08
-5.41774e-07
-4.34195e-08
-5.33924e-07
-4.9838e-08
-5.25089e-07
-5.60925e-08
-5.15298e-07
-6.21587e-08
-5.04583e-07
-6.80124e-08
-4.92981e-07
-7.36293e-08
-4.80532e-07
-7.89853e-08
-4.67281e-07
-8.40565e-08
-4.53275e-07
-8.88194e-08
-4.38564e-07
-9.32507e-08
-4.23203e-07
-9.73276e-08
-4.07249e-07
-1.01028e-07
-3.90763e-07
-1.04331e-07
-3.73809e-07
-1.07215e-07
-3.56454e-07
-1.09662e-07
-3.38767e-07
-1.11652e-07
-3.20819e-07
-1.13168e-07
-3.02684e-07
-1.14195e-07
-2.84439e-07
-1.14719e-07
-2.66161e-07
-1.14728e-07
-2.47928e-07
-1.14211e-07
-2.29821e-07
-1.13161e-07
-2.11918e-07
-1.11572e-07
-1.94302e-07
-1.09443e-07
-1.77051e-07
-1.06774e-07
-1.60244e-07
-1.03571e-07
-1.43959e-07
-9.98404e-08
-1.2827e-07
-9.55971e-08
-1.13251e-07
-9.0859e-08
-9.89683e-08
-8.56505e-08
-8.54879e-08
-8.00024e-08
-7.28686e-08
-7.39529e-08
-6.11637e-08
-6.75491e-08
-5.04199e-08
-6.08476e-08
-4.0676e-08
-5.39167e-08
-3.19629e-08
-4.68373e-08
-2.43022e-08
-3.97053e-08
-1.77064e-08
-3.2634e-08
-1.21778e-08
-2.57562e-08
-7.70938e-09
-1.92272e-08
-4.28468e-09
-1.32283e-08
-1.87917e-09
-7.96908e-09
-4.62115e-10
-3.69074e-09
-6.85993e-10
-5.9447e-10
1.50805e-09
-2.37291e-09
6.09029e-09
-5.33562e-09
1.1885e-08
-9.4828e-09
1.86022e-08
-1.48117e-08
2.59947e-08
-2.13147e-08
3.3846e-08
-2.89773e-08
4.19687e-08
-3.77784e-08
5.02024e-08
-4.76889e-08
5.84104e-08
-5.86726e-08
6.6477e-08
-7.06862e-08
7.43049e-08
-8.36795e-08
8.18127e-08
-9.75966e-08
8.89332e-08
-1.12376e-07
9.56113e-08
-1.27952e-07
1.01803e-07
-1.44254e-07
1.07472e-07
-1.61209e-07
1.12593e-07
-1.78742e-07
1.17144e-07
-1.96774e-07
1.21111e-07
-2.15226e-07
1.24486e-07
-2.34018e-07
1.27264e-07
-2.5307e-07
1.29444e-07
-2.72302e-07
1.31029e-07
-2.91632e-07
1.32025e-07
-3.10982e-07
1.3244e-07
-3.30275e-07
1.32285e-07
-3.49432e-07
1.31572e-07
-3.68381e-07
1.30315e-07
-3.87047e-07
1.28529e-07
-4.05359e-07
1.26232e-07
-4.2325e-07
1.2344e-07
-4.40652e-07
1.20173e-07
-4.57503e-07
1.1645e-07
-4.73741e-07
1.12292e-07
-4.89309e-07
1.07718e-07
-5.0415e-07
1.02751e-07
-5.18214e-07
9.74116e-08
-5.31451e-07
9.17228e-08
-5.43815e-07
8.5707e-08
-5.55263e-07
7.93872e-08
-5.65756e-07
7.27867e-08
-5.75257e-07
6.59293e-08
-5.83735e-07
5.88389e-08
-5.91159e-07
5.15398e-08
-5.97504e-07
4.40567e-08
-6.02748e-07
3.64145e-08
-6.06871e-07
2.86385e-08
-6.09859e-07
2.07541e-08
-6.117e-07
1.27872e-08
-6.12387e-07
4.76408e-09
-6.11914e-07
-3.2889e-09
-6.10283e-07
-1.1345e-08
-6.07496e-07
-1.9377e-08
-6.03561e-07
-2.73579e-08
-5.98489e-07
-3.52599e-08
-5.92295e-07
-4.30554e-08
-5.84998e-07
-5.07163e-08
-5.76621e-07
-5.82146e-08