/*--------------------------------*- C++ -*----------------------------------*\
| =========                 |                                                 |
| \\      /  F ield         | OpenFOAM: The Open Source CFD Toolbox           |
|  \\    /   O peration     | Version:  2212                                  |
|   \\  /    A nd           | Website:  www.openfoam.com                      |
|    \\/     M anipulation  |                                                 |
\*---------------------------------------------------------------------------*/
FoamFile
{
    version     2.0;
    format      ascii;
    arch        "LSB;label=32;scalar=64";
    class       volVectorField;
    location    "0.065";
    object      U;
}
// * * * * * * * * * * * * * * * * * * * * * * * * * * * * * * * * * * * * * //

dimensions      [0 1 -1 0 0 0 0];

internalField   nonuniform List<vector> 
10000
(
(2.89838e-06 -2.93635e-06 0)
(1.44482e-05 -7.57205e-06 0)
(3.28768e-05 -8.74792e-06 0)
(5.01736e-05 -7.49744e-06 0)
(6.14217e-05 -5.00485e-06 0)
(6.42757e-05 -1.9307e-06 0)
(5.75616e-05 1.36893e-06 0)
(4.07582e-05 4.70443e-06 0)
(1.37774e-05 7.9652e-06 0)
(-2.32006e-05 1.10883e-05 0)
(-6.98133e-05 1.40407e-05 0)
(-0.000125585 1.68014e-05 0)
(-0.000189964 1.93575e-05 0)
(-0.000262344 2.17036e-05 0)
(-0.000342089 2.38396e-05 0)
(-0.000428544 2.5764e-05 0)
(-0.000521044 2.74781e-05 0)
(-0.000618919 2.8985e-05 0)
(-0.000721506 3.02882e-05 0)
(-0.000828145 3.13921e-05 0)
(-0.000938189 3.23028e-05 0)
(-0.001051 3.3026e-05 0)
(-0.00116596 3.35663e-05 0)
(-0.00128246 3.39294e-05 0)
(-0.00139991 3.41222e-05 0)
(-0.00151774 3.41509e-05 0)
(-0.0016354 3.40209e-05 0)
(-0.00175236 3.37384e-05 0)
(-0.0018681 3.331e-05 0)
(-0.00198213 3.27415e-05 0)
(-0.00209398 3.20387e-05 0)
(-0.0022032 3.1208e-05 0)
(-0.00230934 3.02558e-05 0)
(-0.00241201 2.9188e-05 0)
(-0.00251081 2.80107e-05 0)
(-0.00260537 2.67303e-05 0)
(-0.00269534 2.53527e-05 0)
(-0.00278039 2.38842e-05 0)
(-0.00286023 2.23309e-05 0)
(-0.00293455 2.06981e-05 0)
(-0.00300309 1.89912e-05 0)
(-0.00306562 1.72168e-05 0)
(-0.0031219 1.53818e-05 0)
(-0.00317175 1.34924e-05 0)
(-0.00321496 1.15549e-05 0)
(-0.0032514 9.57499e-06 0)
(-0.00328092 7.55836e-06 0)
(-0.00330341 5.51199e-06 0)
(-0.00331878 3.44252e-06 0)
(-0.00332696 1.35623e-06 0)
(-0.00332791 -7.39827e-07 0)
(-0.0033216 -2.83881e-06 0)
(-0.00330805 -4.93422e-06 0)
(-0.00328727 -7.01888e-06 0)
(-0.00325933 -9.08555e-06 0)
(-0.00322429 -1.11271e-05 0)
(-0.00318226 -1.3136e-05 0)
(-0.00313338 -1.51044e-05 0)
(-0.00307778 -1.70251e-05 0)
(-0.00301567 -1.88907e-05 0)
(-0.00294724 -2.06931e-05 0)
(-0.00287273 -2.24245e-05 0)
(-0.0027924 -2.40768e-05 0)
(-0.00270654 -2.56419e-05 0)
(-0.00261547 -2.71122e-05 0)
(-0.00251952 -2.84801e-05 0)
(-0.00241908 -2.97376e-05 0)
(-0.00231452 -3.08769e-05 0)
(-0.00220628 -3.18902e-05 0)
(-0.0020948 -3.277e-05 0)
(-0.00198056 -3.35084e-05 0)
(-0.00186405 -3.40985e-05 0)
(-0.00174578 -3.45336e-05 0)
(-0.0016263 -3.48071e-05 0)
(-0.00150618 -3.49121e-05 0)
(-0.001386 -3.48425e-05 0)
(-0.00126635 -3.45926e-05 0)
(-0.00114786 -3.41568e-05 0)
(-0.00103117 -3.35299e-05 0)
(-0.00091691 -3.27077e-05 0)
(-0.000805749 -3.16866e-05 0)
(-0.00069835 -3.04635e-05 0)
(-0.000595386 -2.90354e-05 0)
(-0.000497528 -2.74003e-05 0)
(-0.000405449 -2.55571e-05 0)
(-0.000319814 -2.3506e-05 0)
(-0.000241272 -2.12487e-05 0)
(-0.000170455 -1.87895e-05 0)
(-0.000107958 -1.61355e-05 0)
(-5.43347e-05 -1.32974e-05 0)
(-1.00719e-05 -1.02921e-05 0)
(2.44351e-05 -7.14633e-06 0)
(4.89226e-05 -3.90212e-06 0)
(6.33193e-05 -6.29011e-07 0)
(6.78458e-05 2.55591e-06 0)
(6.31671e-05 5.44921e-06 0)
(5.06095e-05 7.70107e-06 0)
(3.2611e-05 8.68685e-06 0)
(1.40437e-05 7.34645e-06 0)
(2.72391e-06 2.72417e-06 0)
(7.29907e-06 -1.43574e-05 0)
(2.98714e-05 -3.02225e-05 0)
(6.01805e-05 -3.23416e-05 0)
(8.43637e-05 -2.45663e-05 0)
(9.31711e-05 -1.07725e-05 0)
(8.1261e-05 6.42872e-06 0)
(4.54081e-05 2.53783e-05 0)
(-1.61402e-05 4.50137e-05 0)
(-0.000104056 6.46373e-05 0)
(-0.000218233 8.37992e-05 0)
(-0.000358029 0.000102195 0)
(-0.000522422 0.00011962 0)
(-0.000710114 0.000135939 0)
(-0.00091962 0.00015106 0)
(-0.00114933 0.000164926 0)
(-0.00139753 0.000177505 0)
(-0.00166246 0.00018878 0)
(-0.00194233 0.000198747 0)
(-0.00223534 0.000207411 0)
(-0.00253969 0.000214788 0)
(-0.00285358 0.000220899 0)
(-0.00317526 0.000225769 0)
(-0.00350299 0.000229426 0)
(-0.00383507 0.000231901 0)
(-0.00416986 0.00023323 0)
(-0.00450573 0.000233446 0)
(-0.00484114 0.000232587 0)
(-0.00517456 0.000230692 0)
(-0.00550455 0.0002278 0)
(-0.00582969 0.000223949 0)
(-0.00614863 0.000219179 0)
(-0.00646009 0.000213531 0)
(-0.00676283 0.000207046 0)
(-0.00705567 0.000199765 0)
(-0.00733749 0.000191729 0)
(-0.00760723 0.000182978 0)
(-0.0078639 0.000173556 0)
(-0.00810654 0.000163503 0)
(-0.00833427 0.000152859 0)
(-0.00854628 0.000141668 0)
(-0.0087418 0.000129971 0)
(-0.00892012 0.000117809 0)
(-0.00908062 0.000105227 0)
(-0.00922272 9.22661e-05 0)
(-0.00934589 7.89708e-05 0)
(-0.0094497 6.53845e-05 0)
(-0.00953375 5.15512e-05 0)
(-0.00959771 3.75158e-05 0)
(-0.00964134 2.3324e-05 0)
(-0.00966444 9.02117e-06 0)
(-0.0096669 -5.34576e-06 0)
(-0.00964864 -1.97289e-05 0)
(-0.0096097 -3.40804e-05 0)
(-0.00955015 -4.83514e-05 0)
(-0.00947015 -6.24924e-05 0)
(-0.00936993 -7.64533e-05 0)
(-0.0092498 -9.0183e-05 0)
(-0.00911012 -0.00010363 0)
(-0.00895134 -0.000116741 0)
(-0.00877399 -0.000129466 0)
(-0.00857867 -0.00014175 0)
(-0.00836607 -0.000153541 0)
(-0.00813692 -0.000164784 0)
(-0.00789206 -0.000175427 0)
(-0.00763239 -0.000185417 0)
(-0.0073589 -0.000194701 0)
(-0.00707264 -0.000203226 0)
(-0.00677474 -0.000210941 0)
(-0.00646639 -0.000217793 0)
(-0.00614888 -0.000223735 0)
(-0.00582355 -0.000228717 0)
(-0.0054918 -0.000232693 0)
(-0.0051551 -0.000235618 0)
(-0.00481499 -0.000237449 0)
(-0.00447306 -0.000238145 0)
(-0.00413095 -0.000237669 0)
(-0.00379035 -0.000235986 0)
(-0.003453 -0.000233064 0)
(-0.00312067 -0.000228877 0)
(-0.00279516 -0.000223402 0)
(-0.0024783 -0.000216621 0)
(-0.00217193 -0.000208523 0)
(-0.00187789 -0.000199101 0)
(-0.00159802 -0.000188358 0)
(-0.00133415 -0.000176305 0)
(-0.00108803 -0.000162966 0)
(-0.0008614 -0.000148379 0)
(-0.000655883 -0.000132601 0)
(-0.000472993 -0.000115716 0)
(-0.000314078 -9.78397e-05 0)
(-0.000180263 -7.91362e-05 0)
(-7.23685e-05 -5.98372e-05 0)
(9.19478e-06 -4.02741e-05 0)
(6.45867e-05 -2.09291e-05 0)
(9.47575e-05 -2.51787e-06 0)
(0.000101755 1.38827e-05 0)
(8.90709e-05 2.66495e-05 0)
(6.21869e-05 3.33268e-05 0)
(3.03511e-05 3.0348e-05 0)
(7.33831e-06 1.4033e-05 0)
(8.37136e-06 -3.23659e-05 0)
(3.16768e-05 -6.03219e-05 0)
(5.82556e-05 -5.90024e-05 0)
(7.1695e-05 -3.64917e-05 0)
(6.08881e-05 4.87127e-08 0)
(1.89159e-05 4.52961e-05 0)
(-5.87395e-05 9.54886e-05 0)
(-0.000174767 0.000147988 0)
(-0.000330367 0.000200961 0)
(-0.000525635 0.000253117 0)
(-0.000759842 0.000303547 0)
(-0.00103164 0.000351614 0)
(-0.00133923 0.000396864 0)
(-0.00168049 0.000438982 0)
(-0.00205303 0.000477754 0)
(-0.00245431 0.000513042 0)
(-0.00288168 0.000544762 0)
(-0.0033324 0.000572874 0)
(-0.00380369 0.000597369 0)
(-0.00429277 0.000618268 0)
(-0.00479685 0.000635609 0)
(-0.00531318 0.000649449 0)
(-0.00583903 0.000659856 0)
(-0.00637173 0.00066691 0)
(-0.00690866 0.000670697 0)
(-0.00744727 0.000671311 0)
(-0.00798509 0.000668851 0)
(-0.0085197 0.000663423 0)
(-0.00904879 0.000655132 0)
(-0.0095701 0.000644088 0)
(-0.0100815 0.000630402 0)
(-0.0105809 0.00061419 0)
(-0.0110663 0.000595565 0)
(-0.0115358 0.000574644 0)
(-0.0119877 0.000551544 0)
(-0.0124202 0.000526383 0)
(-0.0128317 0.000499279 0)
(-0.0132208 0.000470352 0)
(-0.0135859 0.000439722 0)
(-0.0139258 0.000407509 0)
(-0.0142392 0.000373835 0)
(-0.0145251 0.000338822 0)
(-0.0147823 0.000302593 0)
(-0.01501 0.000265273 0)
(-0.0152073 0.000226989 0)
(-0.0153736 0.000187865 0)
(-0.0155082 0.000148033 0)
(-0.0156105 0.000107622 0)
(-0.0156802 6.67633e-05 0)
(-0.015717 2.5591e-05 0)
(-0.0157206 -1.57597e-05 0)
(-0.015691 -5.71509e-05 0)
(-0.0156283 -9.84432e-05 0)
(-0.0155325 -0.000139496 0)
(-0.015404 -0.000180164 0)
(-0.015243 -0.000220305 0)
(-0.0150501 -0.000259769 0)
(-0.014826 -0.000298411 0)
(-0.0145712 -0.000336079 0)
(-0.0142867 -0.000372623 0)
(-0.0139735 -0.000407891 0)
(-0.0136325 -0.00044173 0)
(-0.0132652 -0.000473988 0)
(-0.0128727 -0.000504512 0)
(-0.0124565 -0.000533153 0)
(-0.0120182 -0.000559759 0)
(-0.0115595 -0.000584182 0)
(-0.0110822 -0.000606274 0)
(-0.0105883 -0.000625891 0)
(-0.0100797 -0.000642893 0)
(-0.00955854 -0.000657145 0)
(-0.00902717 -0.000668517 0)
(-0.00848788 -0.000676884 0)
(-0.00794311 -0.000682128 0)
(-0.00739539 -0.000684136 0)
(-0.00684732 -0.000682807 0)
(-0.00630156 -0.000678047 0)
(-0.00576088 -0.000669777 0)
(-0.00522805 -0.000657927 0)
(-0.00470591 -0.000642442 0)
(-0.00419731 -0.000623285 0)
(-0.00370514 -0.000600436 0)
(-0.00323226 -0.000573894 0)
(-0.0027815 -0.000543688 0)
(-0.00235567 -0.000509875 0)
(-0.00195746 -0.00047255 0)
(-0.00158947 -0.000431855 0)
(-0.00125414 -0.000387992 0)
(-0.000953683 -0.000341241 0)
(-0.000690023 -0.000291982 0)
(-0.000464714 -0.000240733 0)
(-0.00027881 -0.0001882 0)
(-0.000132714 -0.000135352 0)
(-2.59693e-05 -8.35293e-05 0)
(4.3006e-05 -3.46023e-05 0)
(7.72648e-05 8.80629e-06 0)
(8.16624e-05 4.30328e-05 0)
(6.33143e-05 6.30481e-05 0)
(3.34479e-05 6.22095e-05 0)
(8.69585e-06 3.2601e-05 0)
(7.27261e-06 -4.92785e-05 0)
(2.42625e-05 -8.42762e-05 0)
(3.6296e-05 -7.24338e-05 0)
(2.67156e-05 -2.67719e-05 0)
(-1.60552e-05 4.21416e-05 0)
(-9.9616e-05 0.000126149 0)
(-0.000229141 0.000219159 0)
(-0.000407812 0.000316711 0)
(-0.000637172 0.000415543 0)
(-0.000917456 0.00051327 0)
(-0.00124788 0.000608153 0)
(-0.00162689 0.000698924 0)
(-0.00205232 0.000784659 0)
(-0.00252153 0.000864695 0)
(-0.00303155 0.000938562 0)
(-0.00357918 0.00100594 0)
(-0.00416099 0.00106662 0)
(-0.00477348 0.00112049 0)
(-0.00541302 0.00116749 0)
(-0.00607599 0.00120764 0)
(-0.00675873 0.00124099 0)
(-0.00745761 0.00126761 0)
(-0.00816903 0.00128763 0)
(-0.00888944 0.00130118 0)
(-0.00961536 0.00130842 0)
(-0.0103434 0.00130952 0)
(-0.0110702 0.00130466 0)
(-0.0117926 0.00129404 0)
(-0.0125075 0.00127785 0)
(-0.0132118 0.0012563 0)
(-0.0139026 0.00122961 0)
(-0.0145772 0.00119799 0)
(-0.015233 0.00116167 0)
(-0.0158672 0.00112087 0)
(-0.0164776 0.00107581 0)
(-0.0170618 0.00102673 0)
(-0.0176176 0.000973852 0)
(-0.018143 0.00091741 0)
(-0.0186361 0.000857639 0)
(-0.0190951 0.000794775 0)
(-0.0195184 0.000729055 0)
(-0.0199043 0.00066072 0)
(-0.0202516 0.00059001 0)
(-0.020559 0.000517171 0)
(-0.0208253 0.000442448 0)
(-0.0210496 0.000366091 0)
(-0.0212311 0.000288354 0)
(-0.021369 0.00020949 0)
(-0.0214628 0.000129759 0)
(-0.0215122 4.94228e-05 0)
(-0.0215168 -3.12523e-05 0)
(-0.0214765 -0.000111997 0)
(-0.0213915 -0.000192539 0)
(-0.0212618 -0.000272602 0)
(-0.0210879 -0.000351905 0)
(-0.0208702 -0.000430164 0)
(-0.0206095 -0.000507093 0)
(-0.0203065 -0.000582404 0)
(-0.0199623 -0.000655804 0)
(-0.019578 -0.000727001 0)
(-0.0191548 -0.000795698 0)
(-0.0186944 -0.0008616 0)
(-0.0181983 -0.00092441 0)
(-0.0176683 -0.000983835 0)
(-0.0171064 -0.00103958 0)
(-0.0165147 -0.00109136 0)
(-0.0158955 -0.00113888 0)
(-0.0152512 -0.00118186 0)
(-0.0145845 -0.00122002 0)
(-0.013898 -0.00125311 0)
(-0.0131946 -0.00128085 0)
(-0.0124773 -0.00130299 0)
(-0.0117493 -0.00131931 0)
(-0.0110139 -0.00132957 0)
(-0.0102743 -0.00133358 0)
(-0.00953413 -0.00133113 0)
(-0.00879688 -0.00132206 0)
(-0.00806621 -0.00130623 0)
(-0.00734582 -0.00128351 0)
(-0.00663946 -0.00125381 0)
(-0.00595091 -0.00121707 0)
(-0.00528394 -0.00117329 0)
(-0.00464231 -0.00112247 0)
(-0.00402973 -0.0010647 0)
(-0.00344982 -0.00100013 0)
(-0.00290607 -0.000928967 0)
(-0.0024018 -0.000851537 0)
(-0.0019401 -0.000768271 0)
(-0.00152373 -0.000679754 0)
(-0.00115506 -0.000586766 0)
(-0.000835973 -0.000490348 0)
(-0.000567662 -0.000391876 0)
(-0.000350509 -0.000293189 0)
(-0.000183849 -0.000196744 0)
(-6.56948e-05 -0.00010584 0)
(7.57941e-06 -2.49033e-05 0)
(4.15388e-05 4.01485e-05 0)
(4.40817e-05 8.15551e-05 0)
(2.70974e-05 8.9377e-05 0)
(7.77275e-06 5.07094e-05 0)
(5.00247e-06 -6.048e-05 0)
(1.11591e-05 -9.32563e-05 0)
(9.55172e-07 -6.19347e-05 0)
(-4.05868e-05 1.58438e-05 0)
(-0.000124489 0.000126258 0)
(-0.000258442 0.000258413 0)
(-0.000447745 0.000403943 0)
(-0.000695725 0.000556503 0)
(-0.00100402 0.000711303 0)
(-0.00137289 0.000864737 0)
(-0.00180146 0.00101409 0)
(-0.00228798 0.00115734 0)
(-0.00282998 0.00129296 0)
(-0.00342442 0.00141984 0)
(-0.00406784 0.00153717 0)
(-0.00475647 0.00164438 0)
(-0.00548628 0.00174108 0)
(-0.00625307 0.00182702 0)
(-0.00705252 0.00190209 0)
(-0.00788026 0.00196626 0)
(-0.00873188 0.00201957 0)
(-0.00960297 0.00206214 0)
(-0.0104892 0.00209411 0)
(-0.0113861 0.00211569 0)
(-0.0122896 0.00212712 0)
(-0.0131954 0.00212864 0)
(-0.0140995 0.00212054 0)
(-0.0149979 0.00210312 0)
(-0.0158868 0.00207671 0)
(-0.0167624 0.00204161 0)
(-0.0176213 0.00199818 0)
(-0.0184598 0.00194676 0)
(-0.0192748 0.0018877 0)
(-0.0200631 0.00182137 0)
(-0.0208216 0.00174812 0)
(-0.0215475 0.00166833 0)
(-0.0222382 0.00158237 0)
(-0.0228911 0.00149061 0)
(-0.0235037 0.00139344 0)
(-0.024074 0.00129125 0)
(-0.0245997 0.0011844 0)
(-0.0250791 0.00107331 0)
(-0.0255105 0.000958353 0)
(-0.0258922 0.000839938 0)
(-0.0262228 0.000718465 0)
(-0.0265013 0.00059434 0)
(-0.0267264 0.000467975 0)
(-0.0268975 0.000339788 0)
(-0.0270138 0.0002102 0)
(-0.0270748 7.96388e-05 0)
(-0.0270802 -5.14619e-05 0)
(-0.0270298 -0.000182663 0)
(-0.0269238 -0.000313521 0)
(-0.0267624 -0.000443585 0)
(-0.026546 -0.000572399 0)
(-0.0262754 -0.000699504 0)
(-0.0259512 -0.000824432 0)
(-0.0255746 -0.000946715 0)
(-0.0251468 -0.00106588 0)
(-0.0246692 -0.00118145 0)
(-0.0241434 -0.00129295 0)
(-0.0235714 -0.0013999 0)
(-0.022955 -0.00150183 0)
(-0.0222967 -0.00159825 0)
(-0.0215987 -0.00168869 0)
(-0.0208638 -0.00177269 0)
(-0.0200947 -0.00184978 0)
(-0.0192945 -0.00191951 0)
(-0.0184664 -0.00198145 0)
(-0.0176137 -0.00203515 0)
(-0.0167399 -0.00208021 0)
(-0.0158489 -0.00211623 0)
(-0.0149444 -0.00214283 0)
(-0.0140305 -0.00215966 0)
(-0.0131112 -0.00216641 0)
(-0.012191 -0.00216276 0)
(-0.011274 -0.00214847 0)
(-0.0103649 -0.00212331 0)
(-0.00946799 -0.0020871 0)
(-0.00858798 -0.00203973 0)
(-0.00772941 -0.00198111 0)
(-0.00689687 -0.00191125 0)
(-0.00609487 -0.00183022 0)
(-0.00532789 -0.00173819 0)
(-0.00460025 -0.00163542 0)
(-0.00391612 -0.00152231 0)
(-0.00327943 -0.00139942 0)
(-0.00269379 -0.00126749 0)
(-0.00216245 -0.00112752 0)
(-0.00168814 -0.00098079 0)
(-0.00127298 -0.00082899 0)
(-0.000918336 -0.000674308 0)
(-0.000624615 -0.000519592 0)
(-0.000391075 -0.000368549 0)
(-0.000215571 -0.00022601 0)
(-9.42747e-05 -9.82634e-05 0)
(-2.14026e-05 6.53601e-06 0)
(1.11333e-05 7.79656e-05 0)
(1.48761e-05 0.000102859 0)
(5.63266e-06 6.36088e-05 0)
(2.15168e-06 -6.37381e-05 0)
(-5.29426e-06 -8.21672e-05 0)
(-4.29292e-05 -2.08443e-05 0)
(-0.000122748 9.8794e-05 0)
(-0.000254474 0.000259997 0)
(-0.000445402 0.000449392 0)
(-0.00070058 0.000656455 0)
(-0.00102315 0.000873013 0)
(-0.00141464 0.00109274 0)
(-0.00187516 0.00131076 0)
(-0.00240369 0.0015233 0)
(-0.00299825 0.00172749 0)
(-0.00365608 0.00192115 0)
(-0.00437378 0.00210262 0)
(-0.00514748 0.00227068 0)
(-0.00597291 0.00242443 0)
(-0.0068455 0.00256327 0)
(-0.00776048 0.00268679 0)
(-0.00871293 0.00279474 0)
(-0.0096978 0.00288706 0)
(-0.01071 0.00296375 0)
(-0.0117445 0.00302494 0)
(-0.0127963 0.00307082 0)
(-0.0138601 0.00310166 0)
(-0.0149313 0.00311776 0)
(-0.0160048 0.00311948 0)
(-0.0170759 0.00310721 0)
(-0.01814 0.00308138 0)
(-0.0191926 0.00304242 0)
(-0.0202293 0.00299081 0)
(-0.0212459 0.00292703 0)
(-0.0222384 0.00285158 0)
(-0.023203 0.00276496 0)
(-0.0241357 0.0026677 0)
(-0.0250333 0.00256033 0)
(-0.0258921 0.00244339 0)
(-0.0267092 0.00231741 0)
(-0.0274815 0.00218295 0)
(-0.0282062 0.00204056 0)
(-0.0288806 0.00189081 0)
(-0.0295024 0.00173425 0)
(-0.0300693 0.00157147 0)
(-0.0305793 0.00140304 0)
(-0.0310306 0.00122954 0)
(-0.0314214 0.00105157 0)
(-0.0317505 0.000869729 0)
(-0.0320166 0.000684614 0)
(-0.0322186 0.000496839 0)
(-0.0323558 0.000307025 0)
(-0.0324276 0.000115799 0)
(-0.0324337 -7.62019e-05 0)
(-0.0323738 -0.000268334 0)
(-0.0322482 -0.000459946 0)
(-0.032057 -0.000650379 0)
(-0.0318009 -0.000838964 0)
(-0.0314805 -0.00102503 0)
(-0.0310969 -0.00120789 0)
(-0.0306513 -0.00138686 0)
(-0.0301452 -0.00156125 0)
(-0.0295803 -0.00173037 0)
(-0.0289585 -0.00189352 0)
(-0.0282819 -0.00205 0)
(-0.027553 -0.00219911 0)
(-0.0267744 -0.00234017 0)
(-0.025949 -0.00247249 0)
(-0.0250799 -0.00259538 0)
(-0.0241704 -0.00270819 0)
(-0.0232241 -0.00281025 0)
(-0.0222446 -0.00290092 0)
(-0.021236 -0.0029796 0)
(-0.0202024 -0.00304567 0)
(-0.0191482 -0.00309858 0)
(-0.0180778 -0.00313778 0)
(-0.0169961 -0.00316279 0)
(-0.0159077 -0.00317313 0)
(-0.0148178 -0.00316839 0)
(-0.0137313 -0.00314822 0)
(-0.0126535 -0.00311232 0)
(-0.0115896 -0.00306044 0)
(-0.0105449 -0.00299244 0)
(-0.00952463 -0.00290825 0)
(-0.00853418 -0.00280788 0)
(-0.00757872 -0.0026915 0)
(-0.00666338 -0.00255938 0)
(-0.0057931 -0.00241195 0)
(-0.00497263 -0.00224985 0)
(-0.00420644 -0.00207392 0)
(-0.0034986 -0.0018853 0)
(-0.00285275 -0.00168545 0)
(-0.00227198 -0.00147628 0)
(-0.00175866 -0.00126018 0)
(-0.00131432 -0.00104027 0)
(-0.000939513 -0.000820465 0)
(-0.000633563 -0.000605788 0)
(-0.000394396 -0.000402617 0)
(-0.00021829 -0.000219064 0)
(-9.96346e-05 -6.54152e-05 0)
(-3.0613e-05 4.54329e-05 0)
(-7.98473e-07 9.73933e-05 0)
(2.8937e-06 6.8976e-05 0)
(-9.52645e-07 -5.78515e-05 0)
(-2.35733e-05 -4.7776e-05 0)
(-9.193e-05 5.54077e-05 0)
(-0.000214289 0.000227363 0)
(-0.000398536 0.000448919 0)
(-0.000651221 0.000704515 0)
(-0.000976826 0.000981684 0)
(-0.00137805 0.00127054 0)
(-0.00185609 0.00156328 0)
(-0.00241079 0.00185376 0)
(-0.00304086 0.00213714 0)
(-0.00374405 0.00240967 0)
(-0.00451728 0.00266842 0)
(-0.00535682 0.00291117 0)
(-0.00625839 0.00313621 0)
(-0.00721729 0.0033423 0)
(-0.00822849 0.00352854 0)
(-0.00928668 0.00369433 0)
(-0.0103864 0.00383929 0)
(-0.011522 0.00396324 0)
(-0.0126879 0.00406618 0)
(-0.0138784 0.00414821 0)
(-0.0150878 0.00420956 0)
(-0.0163104 0.00425055 0)
(-0.0175406 0.00427158 0)
(-0.0187731 0.00427309 0)
(-0.0200023 0.0042556 0)
(-0.0212231 0.00421966 0)
(-0.0224304 0.00416586 0)
(-0.0236192 0.00409482 0)
(-0.0247847 0.00400719 0)
(-0.0259224 0.00390364 0)
(-0.0270278 0.00378485 0)
(-0.0280967 0.00365153 0)
(-0.0291251 0.0035044 0)
(-0.0301091 0.00334418 0)
(-0.0310451 0.00317161 0)
(-0.0319297 0.00298745 0)
(-0.0327597 0.00279245 0)
(-0.0335321 0.00258738 0)
(-0.0342442 0.00237301 0)
(-0.0348933 0.00215012 0)
(-0.0354772 0.00191952 0)
(-0.0359937 0.00168199 0)
(-0.0364411 0.00143835 0)
(-0.0368177 0.00118942 0)
(-0.0371222 0.000936028 0)
(-0.0373533 0.00067901 0)
(-0.0375101 0.000419218 0)
(-0.0375921 0.000157512 0)
(-0.0375988 -0.000105237 0)
(-0.03753 -0.000368146 0)
(-0.0373859 -0.000630325 0)
(-0.0371668 -0.00089087 0)
(-0.0368732 -0.00114887 0)
(-0.0365062 -0.0014034 0)
(-0.0360669 -0.00165353 0)
(-0.0355566 -0.00189832 0)
(-0.0349769 -0.00213684 0)
(-0.03433 -0.00236813 0)
(-0.0336179 -0.00259125 0)
(-0.0328432 -0.00280524 0)
(-0.0320086 -0.00300917 0)
(-0.031117 -0.00320209 0)
(-0.0301719 -0.00338306 0)
(-0.0291766 -0.00355117 0)
(-0.028135 -0.00370552 0)
(-0.0270511 -0.00384521 0)
(-0.0259291 -0.00396938 0)
(-0.0247737 -0.0040772 0)
(-0.0235894 -0.00416787 0)
(-0.0223813 -0.00424063 0)
(-0.0211543 -0.00429476 0)
(-0.019914 -0.0043296 0)
(-0.0186657 -0.00434453 0)
(-0.017415 -0.00433902 0)
(-0.0161677 -0.00431261 0)
(-0.0149296 -0.00426489 0)
(-0.0137066 -0.0041956 0)
(-0.0125047 -0.00410454 0)
(-0.0113297 -0.00399166 0)
(-0.0101877 -0.00385703 0)
(-0.00908449 -0.0037009 0)
(-0.00802567 -0.0035237 0)
(-0.00701681 -0.00332606 0)
(-0.00606317 -0.00310889 0)
(-0.00516966 -0.00287338 0)
(-0.00434083 -0.00262111 0)
(-0.00358068 -0.00235408 0)
(-0.00289261 -0.00207484 0)
(-0.0022793 -0.00178661 0)
(-0.00174251 -0.00149342 0)
(-0.00128302 -0.00120033 0)
(-0.00090039 -0.000913654 0)
(-0.000592809 -0.000641276 0)
(-0.000356927 -0.000393034 0)
(-0.000187613 -0.000181165 0)
(-7.7686e-05 -2.07564e-05 0)
(-1.83731e-05 6.96347e-05 0)
(-1.05764e-07 6.55687e-05 0)
(-4.12196e-06 -4.22277e-05 0)
(-4.27057e-05 1.18411e-05 0)
(-0.000143715 0.000169758 0)
(-0.000311301 0.000405151 0)
(-0.00055121 0.000696924 0)
(-0.000868981 0.00102769 0)
(-0.00126828 0.00138329 0)
(-0.00175116 0.00175228 0)
(-0.00231831 0.00212549 0)
(-0.00296916 0.00249555 0)
(-0.00370206 0.00285658 0)
(-0.00451441 0.00320394 0)
(-0.00540279 0.00353395 0)
(-0.0063631 0.00384376 0)
(-0.00739068 0.00413118 0)
(-0.00848042 0.00439455 0)
(-0.00962683 0.00463268 0)
(-0.0108242 0.00484472 0)
(-0.0120664 0.00503013 0)
(-0.0133476 0.00518864 0)
(-0.0146613 0.00532016 0)
(-0.0160015 0.00542479 0)
(-0.0173618 0.00550279 0)
(-0.0187361 0.00555453 0)
(-0.0201182 0.00558047 0)
(-0.021502 0.00558118 0)
(-0.0228817 0.00555728 0)
(-0.0242514 0.00550947 0)
(-0.0256056 0.00543851 0)
(-0.0269386 0.00534516 0)
(-0.0282452 0.00523027 0)
(-0.0295204 0.00509469 0)
(-0.0307591 0.00493929 0)
(-0.0319568 0.004765 0)
(-0.0331089 0.00457273 0)
(-0.0342111 0.00436342 0)
(-0.0352594 0.00413804 0)
(-0.0362501 0.00389756 0)
(-0.0371795 0.00364295 0)
(-0.0380443 0.00337523 0)
(-0.0388414 0.00309541 0)
(-0.0395681 0.00280449 0)
(-0.0402217 0.00250351 0)
(-0.0407998 0.00219352 0)
(-0.0413005 0.00187558 0)
(-0.0417219 0.00155076 0)
(-0.0420625 0.00122013 0)
(-0.042321 0.000884795 0)
(-0.0424964 0.000545861 0)
(-0.042588 0.000204452 0)
(-0.0425953 -0.000138295 0)
(-0.0425182 -0.000481232 0)
(-0.0423567 -0.000823194 0)
(-0.0421113 -0.001163 0)
(-0.0417826 -0.00149947 0)
(-0.0413717 -0.0018314 0)
(-0.0408799 -0.00215758 0)
(-0.0403086 -0.00247679 0)
(-0.0396598 -0.0027878 0)
(-0.0389356 -0.00308939 0)
(-0.0381385 -0.00338032 0)
(-0.0372713 -0.00365937 0)
(-0.0363369 -0.00392529 0)
(-0.0353389 -0.00417689 0)
(-0.0342807 -0.00441295 0)
(-0.0331663 -0.00463228 0)
(-0.032 -0.0048337 0)
(-0.0307861 -0.00501609 0)
(-0.0295295 -0.00517833 0)
(-0.0282351 -0.00531934 0)
(-0.0269082 -0.00543811 0)
(-0.0255541 -0.00553365 0)
(-0.0241786 -0.00560506 0)
(-0.0227876 -0.00565148 0)
(-0.0213872 -0.00567216 0)
(-0.0199834 -0.00566641 0)
(-0.0185826 -0.00563365 0)
(-0.0171913 -0.00557342 0)
(-0.015816 -0.00548537 0)
(-0.0144631 -0.00536931 0)
(-0.0131393 -0.00522519 0)
(-0.011851 -0.00505317 0)
(-0.0106045 -0.0048536 0)
(-0.00940617 -0.00462708 0)
(-0.00826195 -0.00437448 0)
(-0.00717758 -0.00409702 0)
(-0.00615844 -0.00379628 0)
(-0.00520946 -0.00347431 0)
(-0.00433504 -0.00313369 0)
(-0.00353893 -0.00277768 0)
(-0.00282411 -0.0024103 0)
(-0.00219269 -0.00203655 0)
(-0.00164576 -0.00166259 0)
(-0.00118325 -0.001296 0)
(-0.000803807 -0.000946082 0)
(-0.000504654 -0.00062425 0)
(-0.000281382 -0.000344468 0)
(-0.000127711 -0.000123686 0)
(-3.68643e-05 1.75686e-05 0)
(-3.17945e-06 5.2762e-05 0)
(-7.26109e-06 -1.6661e-05 0)
(-6.20979e-05 9.76502e-05 0)
(-0.000196721 0.000323912 0)
(-0.000411069 0.000634399 0)
(-0.00070858 0.00100658 0)
(-0.0010936 0.0014216 0)
(-0.00156882 0.00186386 0)
(-0.00213546 0.00232057 0)
(-0.00279355 0.00278129 0)
(-0.00354201 0.00323753 0)
(-0.00437872 0.00368242 0)
(-0.00530064 0.00411042 0)
(-0.00630398 0.00451714 0)
(-0.00738423 0.00489909 0)
(-0.00853636 0.00525357 0)
(-0.00975483 0.00557849 0)
(-0.0110337 0.00587232 0)
(-0.0123669 0.00613398 0)
(-0.0137479 0.00636272 0)
(-0.0151701 0.00655816 0)
(-0.0166268 0.00672014 0)
(-0.0181114 0.00684873 0)
(-0.0196171 0.00694419 0)
(-0.0211371 0.00700695 0)
(-0.0226647 0.00703755 0)
(-0.0241936 0.00703666 0)
(-0.0257171 0.00700504 0)
(-0.027229 0.00694353 0)
(-0.0287232 0.00685303 0)
(-0.0301936 0.00673452 0)
(-0.0316346 0.00658901 0)
(-0.0330405 0.00641757 0)
(-0.034406 0.00622128 0)
(-0.0357259 0.00600128 0)
(-0.0369954 0.00575871 0)
(-0.0382098 0.00549476 0)
(-0.0393646 0.00521062 0)
(-0.0404558 0.00490752 0)
(-0.0414794 0.00458668 0)
(-0.0424318 0.00424936 0)
(-0.0433095 0.00389683 0)
(-0.0441096 0.00353037 0)
(-0.0448292 0.00315128 0)
(-0.0454656 0.00276087 0)
(-0.0460168 0.00236047 0)
(-0.0464807 0.00195144 0)
(-0.0468555 0.00153512 0)
(-0.04714 0.00111291 0)
(-0.047333 0.000686191 0)
(-0.0474337 0.000256382 0)
(-0.0474417 -0.000175088 0)
(-0.0473567 -0.000606774 0)
(-0.0471789 -0.00103721 0)
(-0.0469087 -0.00146492 0)
(-0.046547 -0.00188841 0)
(-0.0460947 -0.00230617 0)
(-0.0455533 -0.00271668 0)
(-0.0449245 -0.00311842 0)
(-0.0442103 -0.00350984 0)
(-0.0434131 -0.00388941 0)
(-0.0425357 -0.00425558 0)
(-0.041581 -0.00460682 0)
(-0.0405523 -0.00494158 0)
(-0.0394534 -0.00525835 0)
(-0.0382882 -0.00555562 0)
(-0.037061 -0.0058319 0)
(-0.0357764 -0.00608574 0)
(-0.0344392 -0.00631571 0)
(-0.0330547 -0.00652044 0)
(-0.0316282 -0.00669859 0)
(-0.0301655 -0.0068489 0)
(-0.0286725 -0.00697016 0)
(-0.0271554 -0.00706125 0)
(-0.0256206 -0.00712113 0)
(-0.0240746 -0.00714885 0)
(-0.0225242 -0.00714361 0)
(-0.0209762 -0.0071047 0)
(-0.0194377 -0.00703156 0)
(-0.0179156 -0.00692382 0)
(-0.016417 -0.00678125 0)
(-0.014949 -0.00660385 0)
(-0.0135187 -0.00639185 0)
(-0.0121327 -0.00614574 0)
(-0.010798 -0.00586631 0)
(-0.00952096 -0.00555469 0)
(-0.00830778 -0.00521243 0)
(-0.00716426 -0.00484153 0)
(-0.00609575 -0.00444453 0)
(-0.00510703 -0.00402464 0)
(-0.00420223 -0.0035858 0)
(-0.00338472 -0.00313287 0)
(-0.00265701 -0.00267178 0)
(-0.00202061 -0.00220977 0)
(-0.00147594 -0.0017556 0)
(-0.00102224 -0.00131989 0)
(-0.000657487 -0.00091544 0)
(-0.000378174 -0.000557711 0)
(-0.000179101 -0.000265174 0)
(-5.56614e-05 -5.98559e-05 0)
(-6.22769e-06 3.03248e-05 0)
(-1.03191e-05 1.88265e-05 0)
(-8.13808e-05 0.00021 0)
(-0.000249933 0.000518681 0)
(-0.000511742 0.000916336 0)
(-0.000867882 0.00137943 0)
(-0.00132142 0.00188795 0)
(-0.00187392 0.00242513 0)
(-0.00252568 0.00297702 0)
(-0.00327596 0.00353205 0)
(-0.00412302 0.00408072 0)
(-0.00506419 0.00461523 0)
(-0.00609596 0.00512921 0)
(-0.00721407 0.00561756 0)
(-0.0084136 0.00607616 0)
(-0.00968909 0.00650179 0)
(-0.0110346 0.00689196 0)
(-0.0124438 0.00724477 0)
(-0.0139101 0.00755887 0)
(-0.0154266 0.00783334 0)
(-0.0169862 0.00806763 0)
(-0.018582 0.00826152 0)
(-0.0202065 0.00841503 0)
(-0.0218528 0.00852845 0)
(-0.0235134 0.00860223 0)
(-0.0251815 0.00863701 0)
(-0.0268498 0.00863354 0)
(-0.0285115 0.00859273 0)
(-0.0301598 0.00851557 0)
(-0.0317882 0.00840314 0)
(-0.0333902 0.00825659 0)
(-0.0349596 0.00807715 0)
(-0.0364904 0.00786608 0)
(-0.0379769 0.00762472 0)
(-0.0394135 0.00735443 0)
(-0.0407949 0.0070566 0)
(-0.0421161 0.00673266 0)
(-0.0433724 0.00638408 0)
(-0.0445593 0.00601233 0)
(-0.0456725 0.00561892 0)
(-0.0467082 0.00520538 0)
(-0.0476626 0.00477326 0)
(-0.0485325 0.00432412 0)
(-0.0493148 0.00385956 0)
(-0.0500067 0.00338117 0)
(-0.0506059 0.0028906 0)
(-0.0511101 0.00238947 0)
(-0.0515176 0.00187947 0)
(-0.0518268 0.00136227 0)
(-0.0520367 0.000839584 0)
(-0.0521462 0.000313143 0)
(-0.0521549 -0.000215306 0)
(-0.0520627 -0.000743996 0)
(-0.0518695 -0.00127114 0)
(-0.0515761 -0.00179492 0)
(-0.051183 -0.00231352 0)
(-0.0506916 -0.00282511 0)
(-0.0501033 -0.00332782 0)
(-0.04942 -0.00381978 0)
(-0.0486439 -0.00429914 0)
(-0.0477776 -0.00476399 0)
(-0.0468239 -0.00521248 0)
(-0.0457862 -0.00564272 0)
(-0.044668 -0.00605284 0)
(-0.0434733 -0.006441 0)
(-0.0422063 -0.00680536 0)
(-0.0408717 -0.00714412 0)
(-0.0394745 -0.00745551 0)
(-0.0380198 -0.00773782 0)
(-0.0365132 -0.00798937 0)
(-0.0349606 -0.00820855 0)
(-0.0333681 -0.00839384 0)
(-0.0317421 -0.00854378 0)
(-0.0300892 -0.00865702 0)
(-0.0284164 -0.00873232 0)
(-0.0267306 -0.00876858 0)
(-0.025039 -0.0087648 0)
(-0.0233491 -0.00872018 0)
(-0.0216683 -0.00863407 0)
(-0.0200041 -0.00850604 0)
(-0.0183641 -0.00833586 0)
(-0.0167558 -0.00812358 0)
(-0.0151868 -0.0078695 0)
(-0.0136645 -0.00757427 0)
(-0.0121958 -0.00723887 0)
(-0.010788 -0.00686474 0)
(-0.00944743 -0.00645375 0)
(-0.00818047 -0.00600833 0)
(-0.00699286 -0.00553156 0)
(-0.00588979 -0.00502722 0)
(-0.00487582 -0.00449999 0)
(-0.00395475 -0.00395553 0)
(-0.00312954 -0.00340067 0)
(-0.00240224 -0.00284366 0)
(-0.00177387 -0.00229436 0)
(-0.00124438 -0.00176455 0)
(-0.000812617 -0.00126829 0)
(-0.000476099 -0.000822252 0)
(-0.000230817 -0.000446133 0)
(-7.43932e-05 -0.000163045 0)
(-9.19928e-06 -1.73948e-06 0)
(-1.32761e-05 6.40817e-05 0)
(-0.000100353 0.000348828 0)
(-0.000302712 0.000754263 0)
(-0.000612091 0.00125147 0)
(-0.00102723 0.00181622 0)
(-0.00154985 0.00242768 0)
(-0.00218036 0.00306811 0)
(-0.002918 0.0037226 0)
(-0.00376118 0.00437863 0)
(-0.00470743 0.00502577 0)
(-0.00575346 0.00565537 0)
(-0.00689519 0.00626032 0)
(-0.00812787 0.0068348 0)
(-0.00944611 0.00737413 0)
(-0.010844 0.00787458 0)
(-0.0123152 0.00833321 0)
(-0.0138528 0.00874782 0)
(-0.01545 0.00911676 0)
(-0.0170994 0.00943891 0)
(-0.0187936 0.00971358 0)
(-0.020525 0.00994046 0)
(-0.0222859 0.0101195 0)
(-0.0240687 0.0102511 0)
(-0.0258658 0.0103357 0)
(-0.0276697 0.0103739 0)
(-0.0294729 0.0103667 0)
(-0.031268 0.0103151 0)
(-0.0330478 0.0102203 0)
(-0.0348054 0.0100834 0)
(-0.0365339 0.00990593 0)
(-0.0382266 0.00968924 0)
(-0.0398773 0.00943486 0)
(-0.0414798 0.00914434 0)
(-0.0430282 0.00881929 0)
(-0.0445168 0.00846138 0)
(-0.0459403 0.0080723 0)
(-0.0472936 0.00765379 0)
(-0.048572 0.00720762 0)
(-0.0497708 0.00673557 0)
(-0.0508861 0.00623948 0)
(-0.0519138 0.00572118 0)
(-0.0528504 0.00518257 0)
(-0.0536926 0.00462552 0)
(-0.0544375 0.00405197 0)
(-0.0550826 0.00346386 0)
(-0.0556254 0.00286315 0)
(-0.0560641 0.00225185 0)
(-0.0563971 0.00163197 0)
(-0.0566231 0.00100554 0)
(-0.0567412 0.000374653 0)
(-0.0567508 -0.000258618 0)
(-0.0566518 -0.000892155 0)
(-0.0564443 -0.00152382 0)
(-0.0561288 -0.00215145 0)
(-0.0557062 -0.00277287 0)
(-0.0551776 -0.00338588 0)
(-0.0545449 -0.00398827 0)
(-0.0538099 -0.00457781 0)
(-0.0529749 -0.00515227 0)
(-0.0520428 -0.0057094 0)
(-0.0510166 -0.00624697 0)
(-0.0498998 -0.00676274 0)
(-0.0486963 -0.0072545 0)
(-0.0474101 -0.00772003 0)