/*--------------------------------*- C++ -*----------------------------------*\
| =========                 |                                                 |
| \\      /  F ield         | OpenFOAM: The Open Source CFD Toolbox           |
|  \\    /   O peration     | Version:  2212                                  |
|   \\  /    A nd           | Website:  www.openfoam.com                      |
|    \\/     M anipulation  |                                                 |
\*---------------------------------------------------------------------------*/
FoamFile
{
    version     2.0;
    format      ascii;
    arch        "LSB;label=32;scalar=64";
    class       surfaceScalarField;
    location    "0.036";
    object      phi_0;
}
// * * * * * * * * * * * * * * * * * * * * * * * * * * * * * * * * * * * * * //

dimensions      [0 3 -1 0 0 0 0];

oriented        oriented;

internalField   nonuniform List<scalar> 
19800
(
6.17345e-11
-6.17858e-11
2.07477e-10
-1.45756e-10
3.53618e-10
-1.46134e-10
4.58045e-10
-1.04441e-10
4.94534e-10
-3.64921e-11
4.49921e-10
4.46215e-11
3.18352e-10
1.31563e-10
9.84087e-11
2.19942e-10
-2.08567e-10
3.0698e-10
-5.99508e-10
3.90932e-10
-1.07023e-09
4.70723e-10
-1.61586e-09
5.4563e-10
-2.23103e-09
6.15164e-10
-2.91006e-09
6.79042e-10
-3.64717e-09
7.37111e-10
-4.43649e-09
7.89322e-10
-5.27216e-09
8.35679e-10
-6.14837e-09
8.76211e-10
-7.05936e-09
9.10988e-10
-7.99948e-09
9.40131e-10
-8.96325e-09
9.6378e-10
-9.94532e-09
9.8208e-10
-1.09405e-08
9.95192e-10
-1.19438e-08
1.00328e-09
-1.29503e-08
1.00652e-09
-1.39554e-08
1.00508e-09
-1.49546e-08
9.99156e-10
-1.59435e-08
9.88935e-10
-1.69181e-08
9.74574e-10
-1.78743e-08
9.56256e-10
-1.88085e-08
9.34196e-10
-1.97171e-08
9.08578e-10
-2.05967e-08
8.79569e-10
-2.1444e-08
8.47363e-10
-2.22562e-08
8.12152e-10
-2.30303e-08
7.74097e-10
-2.37636e-08
7.33362e-10
-2.44538e-08
6.90138e-10
-2.50984e-08
6.44612e-10
-2.56953e-08
5.96937e-10
-2.62426e-08
5.47271e-10
-2.67384e-08
4.95796e-10
-2.71811e-08
4.42697e-10
-2.75693e-08
3.88145e-10
-2.79015e-08
3.32289e-10
-2.81768e-08
2.75292e-10
-2.83942e-08
2.17341e-10
-2.85528e-08
1.58614e-10
-2.86521e-08
9.92867e-11
-2.86916e-08
3.9528e-11
-2.86711e-08
-2.04931e-11
-2.85905e-08
-8.05873e-11
-2.845e-08
-1.40561e-10
-2.82497e-08
-2.00237e-10
-2.79903e-08
-2.59427e-10
-2.76724e-08
-3.1794e-10
-2.72968e-08
-3.75582e-10
-2.68646e-08
-4.32149e-10
-2.63772e-08
-4.87436e-10
-2.5836e-08
-5.41246e-10
-2.52426e-08
-5.93375e-10
-2.4599e-08
-6.43604e-10
-2.39073e-08
-6.91721e-10
-2.31698e-08
-7.37509e-10
-2.2389e-08
-7.80747e-10
-2.15678e-08
-8.21222e-10
-2.07091e-08
-8.58722e-10
-1.98161e-08
-8.9302e-10
-1.88922e-08
-9.23889e-10
-1.79411e-08
-9.51111e-10
-1.69666e-08
-9.74465e-10
-1.59729e-08
-9.93729e-10
-1.49642e-08
-1.00869e-09
-1.3945e-08
-1.01917e-09
-1.29201e-08
-1.02495e-09
-1.18942e-08
-1.02584e-09
-1.08725e-08
-1.02168e-09
-9.86026e-09
-1.01229e-09
-8.86277e-09
-9.97501e-10
-7.88559e-09
-9.77179e-10
-6.93438e-09
-9.51206e-10
-6.0149e-09
-9.19485e-10
-5.13296e-09
-8.81938e-10
-4.29445e-09
-8.3851e-10
-3.50525e-09
-7.89185e-10
-2.77126e-09
-7.3399e-10
-2.09827e-09
-6.73e-10
-1.4919e-09
-6.06363e-10
-9.57568e-10
-5.3433e-10
-5.00289e-10
-4.57279e-10
-1.24531e-10
-3.75762e-10
1.66072e-10
-2.90603e-10
3.69118e-10
-2.03042e-10
4.84084e-10
-1.14965e-10
5.13399e-10
-2.93218e-11
4.64157e-10
4.92411e-11
3.50869e-10
1.13297e-10
2.00279e-10
1.50595e-10
5.9846e-11
1.40431e-10
5.98479e-11
1.33269e-10
-1.95071e-10
3.64261e-10
-3.76729e-10
5.70109e-10
-3.51974e-10
6.63235e-10
-1.97556e-10
5.89103e-10
3.76402e-11
3.13827e-10
3.19906e-10
-1.81054e-10
6.26444e-10
-9.03121e-10
9.42027e-10
-1.8525e-09
1.25637e-09
-3.02405e-09
1.5625e-09
-4.40897e-09
1.85566e-09
-5.99594e-09
2.13261e-09
-7.7719e-09
2.39114e-09
-9.72264e-09
2.62977e-09
-1.18331e-08
2.8476e-09
-1.40879e-08
3.04412e-09
-1.64714e-08
3.2191e-09
-1.89677e-08
3.37251e-09
-2.15612e-08
3.50451e-09
-2.42365e-08
3.61539e-09
-2.69783e-08
3.70557e-09
-2.97717e-08
3.77552e-09
-3.26023e-08
3.82579e-09
-3.54559e-08
3.85693e-09
-3.8319e-08
3.86956e-09
-4.11782e-08
3.86434e-09
-4.40209e-08
3.84189e-09
-4.68349e-08
3.80291e-09
-4.96084e-08
3.74809e-09
-5.23303e-08
3.67811e-09
-5.49898e-08
3.59366e-09
-5.75766e-08
3.49545e-09
-6.00813e-08
3.38421e-09
-6.24945e-08
3.26061e-09
-6.48077e-08
3.12532e-09
-6.70126e-08
2.97903e-09
-6.91017e-08
2.82242e-09
-7.10677e-08
2.65617e-09
-7.2904e-08
2.48093e-09
-7.46045e-08
2.29739e-09
-7.61634e-08
2.10619e-09
-7.75756e-08
1.90802e-09
-7.88364e-08
1.70353e-09
-7.99417e-08
1.49337e-09
-8.08876e-08
1.2782e-09
-8.16709e-08
1.05867e-09
-8.22891e-08
8.35461e-10
-8.27397e-08
6.09248e-10
-8.30211e-08
3.80708e-10
-8.31321e-08
1.50528e-10
-8.3072e-08
-8.06008e-11
-8.28406e-08
-3.11985e-10
-8.24383e-08
-5.42904e-10
-8.18659e-08
-7.72637e-10
-8.11249e-08
-1.00046e-09
-8.02172e-08
-1.22562e-09
-7.91454e-08
-1.44737e-09
-7.79127e-08
-1.66492e-09
-7.65226e-08
-1.87751e-09
-7.49795e-08
-2.08434e-09
-7.32882e-08
-2.28462e-09
-7.14543e-08
-2.47752e-09
-6.94838e-08
-2.66223e-09
-6.73834e-08
-2.83791e-09
-6.51604e-08
-3.00375e-09
-6.28228e-08
-3.15889e-09
-6.0379e-08
-3.3025e-09
-5.78383e-08
-3.43375e-09
-5.52104e-08
-3.55178e-09
-5.25057e-08
-3.65578e-09
-4.97353e-08
-3.7449e-09
-4.69107e-08
-3.81837e-09
-4.4044e-08
-3.87539e-09
-4.11479e-08
-3.91519e-09
-3.82358e-08
-3.93706e-09
-3.53213e-08
-3.94032e-09
-3.24187e-08
-3.9243e-09
-2.95426e-08
-3.88841e-09
-2.6708e-08
-3.8321e-09
-2.39303e-08
-3.75489e-09
-2.12251e-08
-3.65639e-09
-1.86083e-08
-3.53627e-09
-1.60959e-08
-3.39435e-09
-1.37039e-08
-3.23055e-09
-1.14481e-08
-3.04494e-09
-9.34433e-09
-2.83779e-09
-7.40772e-09
-2.60961e-09
-5.65284e-09
-2.36124e-09
-4.09326e-09
-2.09392e-09
-2.74113e-09
-1.80941e-09
-1.60663e-09
-1.51026e-09
-6.97165e-10
-1.20007e-09
-1.6232e-11
-8.83981e-10
4.38176e-10
-5.69385e-10
6.75834e-10
-2.66981e-10
7.17561e-10
7.52781e-12
5.99611e-10
2.31253e-10
3.79336e-10
3.70865e-10
1.40321e-10
3.79453e-10
2.00168e-10
1.45215e-10
-3.4028e-10
3.47548e-10
-5.79055e-10
4.68024e-10
-4.72443e-10
4.04346e-10
-1.33884e-10
8.64899e-11
3.55494e-10
-5.31249e-10
9.37634e-10
-1.47587e-09
1.57107e-09
-2.76024e-09
2.22639e-09
-4.38664e-09
2.88276e-09
-6.34946e-09
3.52533e-09
-8.63738e-09
4.14357e-09
-1.12348e-08
4.73002e-09
-1.41231e-08
5.27943e-09
-1.72814e-08
5.78816e-09
-2.06877e-08
6.25381e-09
-2.43184e-08
6.6749e-09
-2.81499e-08
7.05061e-09
-3.2158e-08
7.38061e-09
-3.63186e-08
7.66504e-09
-4.06075e-08
7.90432e-09
-4.50011e-08
8.09916e-09
-4.9476e-08
8.25044e-09
-5.40094e-08
8.35921e-09
-5.85791e-08
8.42663e-09
-6.31635e-08
8.45392e-09
-6.77416e-08
8.4424e-09
-7.22931e-08
8.39348e-09
-7.67988e-08
8.30856e-09
-8.12398e-08
8.18909e-09
-8.55982e-08
8.03653e-09
-8.98569e-08
7.85241e-09
-9.39997e-08
7.63821e-09
-9.80109e-08
7.39543e-09
-1.01876e-07
7.12558e-09
-1.05581e-07
6.83014e-09
-1.09112e-07
6.51062e-09
-1.12458e-07
6.16846e-09
-1.15607e-07
5.80515e-09
-1.18549e-07
5.42216e-09
-1.21272e-07
5.02094e-09
-1.23769e-07
4.60295e-09
-1.2603e-07
4.16965e-09
-1.28049e-07
3.72249e-09
-1.29819e-07
3.26292e-09
-1.31333e-07
2.79239e-09
-1.32587e-07
2.31234e-09
-1.33576e-07
1.82424e-09
-1.34296e-07
1.32959e-09
-1.34745e-07
8.29863e-10
-1.34921e-07
3.26572e-10
-1.34823e-07
-1.78759e-10
-1.3445e-07
-6.84591e-10
-1.33804e-07
-1.18937e-09
-1.32885e-07
-1.69149e-09
-1.31696e-07
-2.18936e-09
-1.30241e-07
-2.68135e-09
-1.28522e-07
-3.1658e-09
-1.26546e-07
-3.641e-09
-1.24318e-07
-4.10527e-09
-1.21846e-07
-4.55687e-09
-1.19136e-07
-4.99405e-09
-1.16199e-07
-5.41503e-09
-1.13043e-07
-5.81802e-09
-1.0968e-07
-6.20122e-09
-1.06121e-07
-6.56281e-09
-1.02379e-07
-6.90098e-09
-9.84672e-08
-7.21391e-09
-9.44011e-08
-7.49977e-09
-9.01961e-08
-7.75677e-09
-8.58688e-08
-7.98313e-09
-8.14366e-08
-8.17708e-09
-7.69181e-08
-8.33691e-09
-7.23325e-08
-8.46094e-09
-6.77001e-08
-8.54759e-09
-6.30419e-08
-8.59531e-09
-5.83796e-08
-8.60265e-09
-5.37356e-08
-8.56826e-09
-4.91331e-08
-8.49092e-09
-4.45957e-08
-8.36952e-09
-4.01474e-08
-8.20312e-09
-3.58129e-08
-7.99095e-09
-3.16167e-08
-7.73249e-09
-2.75836e-08
-7.42745e-09
-2.37383e-08
-7.07583e-09
-2.01052e-08
-6.67804e-09
-1.67081e-08
-6.23491e-09
-1.35698e-08
-5.74785e-09
-1.07121e-08
-5.21899e-09
-8.15459e-09
-4.6514e-09
-5.91466e-09
-4.04934e-09
-4.00617e-09
-3.41875e-09
-2.43848e-09
-2.76777e-09
-1.21482e-09
-2.10765e-09
-3.30292e-10
-1.45392e-09
2.3087e-10
-8.28139e-10
4.987e-10
-2.60307e-10
5.21909e-10
2.08029e-10
3.7256e-10
5.20215e-10
1.50995e-10
6.01027e-10
3.51156e-10
1.06042e-10
-4.46333e-10
2.0311e-10
-6.76105e-10
1.44397e-10
-4.13738e-10
-1.75939e-10
1.86467e-10
-8.33136e-10
1.01268e-09
-1.87794e-09
1.98245e-09
-3.3416e-09
3.03473e-09
-5.23981e-09
4.12461e-09
-7.57615e-09
5.2191e-09
-1.03447e-08
6.29391e-09
-1.35324e-08
7.33124e-09
-1.71205e-08
8.3181e-09
-2.10862e-08
9.2451e-09
-2.54035e-08
1.01055e-08
-3.00445e-08
1.08948e-08
-3.49795e-08
1.16099e-08
-4.01778e-08
1.22489e-08
-4.56081e-08
1.2811e-08
-5.12391e-08
1.3296e-08
-5.70392e-08
1.37045e-08
-6.29774e-08
1.40373e-08
-6.90227e-08
1.42958e-08
-7.51449e-08
1.44815e-08
-8.13146e-08
1.45963e-08
-8.75029e-08
1.46422e-08
-9.36819e-08
1.46214e-08
-9.98246e-08
1.45362e-08
-1.05905e-07
1.43889e-08
-1.11898e-07
1.41819e-08
-1.17779e-07
1.39178e-08
-1.23526e-07
1.35991e-08
-1.29116e-07
1.32284e-08
-1.34529e-07
1.28082e-08
-1.39744e-07
1.2341e-08
-1.44743e-07
1.18295e-08
-1.49509e-07
1.12761e-08
-1.54024e-07
1.06835e-08
-1.58273e-07
1.00543e-08
-1.62242e-07
9.39084e-09
-1.65917e-07
8.69577e-09
-1.69285e-07
7.9716e-09
-1.72336e-07
7.22086e-09
-1.7506e-07
6.44607e-09
-1.77447e-07
5.64974e-09
-1.79489e-07
4.83441e-09
-1.81179e-07
4.00261e-09
-1.82512e-07
3.15689e-09
-1.83482e-07
2.29982e-09
-1.84086e-07
1.43401e-09
-1.84322e-07
5.62067e-10
-1.84187e-07
-3.1336e-10
-1.83682e-07
-1.18958e-09
-1.82808e-07
-2.06389e-09
-1.81566e-07
-2.93353e-09
-1.79959e-07
-3.79571e-09
-1.77993e-07
-4.64758e-09
-1.75672e-07
-5.48628e-09
-1.73005e-07
-6.30888e-09
-1.69997e-07
-7.11242e-09
-1.6666e-07
-7.89391e-09
-1.63004e-07
-8.65031e-09
-1.59041e-07
-9.37856e-09
-1.54783e-07
-1.00756e-08
-1.50246e-07
-1.07382e-08
-1.45446e-07
-1.13634e-08
-1.40399e-07
-1.19479e-08
-1.35124e-07
-1.24888e-08
-1.29641e-07
-1.29827e-08
-1.23971e-07
-1.34268e-08
-1.18136e-07
-1.38179e-08
-1.1216e-07
-1.4153e-08
-1.06068e-07
-1.44293e-08
-9.98848e-08
-1.46439e-08
-9.36384e-08
-1.47941e-08
-8.73564e-08
-1.48773e-08
-8.10679e-08
-1.48911e-08
-7.48027e-08
-1.48334e-08
-6.85916e-08
-1.47021e-08
-6.24658e-08
-1.44953e-08
-5.64572e-08
-1.42117e-08
-5.0598e-08
-1.38501e-08
-4.49207e-08
-1.34099e-08
-3.94575e-08
-1.28906e-08
-3.42408e-08
-1.22926e-08
-2.93019e-08
-1.16169e-08
-2.46715e-08
-1.08653e-08
-2.03787e-08
-1.00406e-08
-1.6451e-08
-9.14679e-09
-1.29127e-08
-8.18964e-09
-9.78517e-09
-7.17689e-09
-7.08489e-09
-6.11904e-09
-4.82249e-09
-5.03017e-09
-3.00095e-09
-3.92918e-09
-1.61346e-09
-2.84141e-09
-6.40773e-10
-1.80083e-09
-4.80429e-11
-8.53045e-10
2.18963e-10
-5.89776e-11
2.37945e-10
5.01244e-10
1.15249e-10
7.23718e-10
4.66399e-10
4.20729e-11
-4.88413e-10
-2.18833e-11
-6.12146e-10
-3.28229e-10
-1.0739e-10
-9.78522e-10
8.36757e-10
-2.04662e-09
2.08078e-09
-3.58345e-09
3.51927e-09
-5.62092e-09
5.0722e-09
-8.17535e-09
6.67904e-09
-1.12503e-08
8.29408e-09
-1.48392e-08
9.88277e-09
-1.89271e-08
1.14191e-08
-2.34927e-08
1.28838e-08
-2.85099e-08
1.42623e-08
-3.39485e-08
1.55442e-08
-3.97757e-08
1.6722e-08
-4.59566e-08
1.77907e-08
-5.24546e-08
1.87469e-08
-5.92326e-08
1.9589e-08
-6.62528e-08
2.03162e-08
-7.34773e-08
2.0929e-08
-8.08683e-08
2.14283e-08
-8.83885e-08
2.18159e-08
-9.60011e-08
2.2094e-08
-1.0367e-07
2.22652e-08
-1.1136e-07
2.23322e-08
-1.19037e-07
2.22982e-08
-1.26667e-07
2.21666e-08
-1.34219e-07
2.19409e-08
-1.41662e-07
2.16246e-08
-1.48965e-07
2.12214e-08
-1.56101e-07
2.07352e-08
-1.63043e-07
2.01697e-08
-1.69763e-07
1.95289e-08
-1.76239e-07
1.88165e-08
-1.82446e-07
1.80365e-08
-1.88363e-07
1.71927e-08
-1.93968e-07
1.62891e-08
-1.99243e-07
1.53294e-08
-2.0417e-07
1.43176e-08
-2.08732e-07
1.32576e-08
-2.12913e-07
1.21531e-08
-2.16701e-07
1.1008e-08
-2.20081e-07
9.82629e-09
-2.23043e-07
8.61169e-09
-2.25577e-07
7.3681e-09
-2.27673e-07
6.09941e-09
-2.29326e-07
4.80953e-09
-2.30529e-07
3.50239e-09
-2.31277e-07
2.18197e-09
-2.31567e-07
8.52271e-10
-2.31397e-07
-4.82654e-10
-2.30768e-07
-1.81871e-09
-2.2968e-07
-3.15174e-09
-2.28136e-07
-4.47753e-09
-2.2614e-07
-5.79182e-09
-2.23698e-07
-7.09028e-09
-2.20815e-07
-8.3685e-09
-2.17502e-07
-9.62206e-09
-2.13768e-07
-1.08464e-08
-2.09625e-07
-1.20371e-08
-2.05086e-07
-1.31893e-08
-2.00166e-07
-1.42986e-08
-1.94882e-07
-1.53601e-08
-1.89251e-07
-1.63692e-08
-1.83293e-07
-1.73211e-08
-1.7703e-07
-1.82111e-08
-1.70484e-07
-1.90345e-08
-1.6368e-07
-1.97865e-08
-1.56644e-07
-2.04627e-08
-1.49404e-07
-2.10582e-08
-1.41988e-07
-2.15688e-08
-1.34427e-07
-2.199e-08
-1.26754e-07
-2.23177e-08
-1.19e-07
-2.25478e-08
-1.11201e-07
-2.26765e-08
-1.03391e-07
-2.27003e-08
-9.56089e-08
-2.2616e-08
-8.78903e-08
-2.24206e-08
-8.02739e-08
-2.21117e-08
-7.27985e-08
-2.16871e-08
-6.55031e-08
-2.11456e-08
-5.84269e-08
-2.04861e-08
-5.16088e-08
-1.97086e-08
-4.50876e-08
-1.88139e-08
-3.89007e-08
-1.78038e-08
-3.30846e-08
-1.66814e-08
-2.76736e-08
-1.54515e-08
-2.26998e-08
-1.41206e-08
-1.81916e-08
-1.26978e-08
-1.41734e-08
-1.11951e-08
-1.0664e-08
-9.62846e-09
-7.67524e-09
-8.0189e-09
-5.21053e-09
-6.39389e-09
-3.26252e-09
-4.78941e-09
-1.81094e-09
-3.25241e-09
-8.19787e-10
-1.8442e-09
-2.34309e-10
-6.44444e-10
2.24061e-11
2.44535e-10
5.38152e-11
6.92296e-10
5.20215e-10
-3.54652e-11
-4.52937e-10
-2.94736e-10
-3.52871e-10
-8.95111e-10
4.92976e-10
-1.92713e-09
1.86878e-09
-3.45829e-09
3.61193e-09
-5.5358e-09
5.59678e-09
-8.18936e-09
7.72576e-09
-1.14338e-08
9.92344e-09
-1.52712e-08
1.21315e-08
-1.96934e-08
1.4305e-08
-2.46837e-08
1.64094e-08
-3.02181e-08
1.84182e-08
-3.62675e-08
2.03116e-08
-4.2798e-08
2.20747e-08
-4.97728e-08
2.36968e-08
-5.71523e-08
2.51702e-08
-6.48952e-08
2.64898e-08
-7.2959e-08
2.76527e-08
-8.13004e-08
2.86576e-08
-8.98759e-08
2.95045e-08
-9.8642e-08
3.01944e-08
-1.07556e-07
3.07295e-08
-1.16574e-07
3.11123e-08
-1.25655e-07
3.13463e-08
-1.34758e-07
3.14351e-08
-1.43843e-07
3.13831e-08
-1.52871e-07
3.11946e-08
-1.61804e-07
3.08744e-08
-1.70607e-07
3.04274e-08
-1.79244e-07
2.98587e-08
-1.87683e-07
2.91735e-08
-1.9589e-07
2.83771e-08
-2.03836e-07
2.74749e-08
-2.11492e-07
2.64721e-08
-2.1883e-07
2.53743e-08
-2.25824e-07
2.41868e-08
-2.3245e-07
2.29151e-08
-2.38685e-07
2.15647e-08
-2.44508e-07
2.01408e-08
-2.499e-07
1.86491e-08
-2.54841e-07
1.70948e-08
-2.59317e-07
1.54834e-08
-2.63311e-07
1.38205e-08
-2.6681e-07
1.21113e-08
-2.69804e-07
1.03613e-08
-2.7228e-07
8.57606e-09
-2.74232e-07
6.76107e-09
-2.75651e-07
4.92187e-09
-2.76533e-07
3.06405e-09
-2.76874e-07
1.19328e-09
-2.76672e-07
-6.84741e-10
-2.75927e-07
-2.56423e-09
-2.74639e-07
-4.43934e-09
-2.72813e-07
-6.30413e-09
-2.70452e-07
-8.15259e-09
-2.67563e-07
-9.97863e-09
-2.64156e-07
-1.17761e-08
-2.60239e-07
-1.35387e-08
-2.55826e-07
-1.52601e-08
-2.50929e-07
-1.6934e-08
-2.45564e-07
-1.85537e-08
-2.3975e-07
-2.01129e-08
-2.33505e-07
-2.16049e-08
-2.26851e-07
-2.30232e-08
-2.19811e-07
-2.4361e-08
-2.1241e-07
-2.56119e-08
-2.04676e-07
-2.67692e-08
-1.96636e-07
-2.78264e-08
-1.88321e-07
-2.8777e-08
-1.79765e-07
-2.96148e-08
-1.71e-07
-3.03334e-08
-1.62063e-07
-3.0927e-08
-1.52991e-07
-3.13897e-08
-1.43823e-07
-3.17161e-08
-1.34599e-07
-3.19009e-08
-1.2536e-07
-3.19393e-08
-1.16149e-07
-3.18271e-08
-1.07009e-07
-3.15602e-08
-9.79851e-08
-3.11355e-08
-8.91218e-08
-3.05504e-08
-8.04643e-08
-2.98031e-08
-7.20576e-08
-2.88928e-08
-6.39467e-08
-2.78196e-08
-5.61755e-08
-2.6585e-08
-4.87871e-08
-2.51922e-08
-4.18228e-08
-2.36458e-08
-3.53216e-08
-2.19528e-08
-2.93192e-08
-2.0123e-08
-2.38479e-08
-1.81691e-08
-1.89347e-08
-1.61083e-08
-1.46008e-08
-1.39624e-08
-1.08596e-08
-1.176e-08
-7.71583e-09
-9.53767e-09
-5.16312e-09
-7.34211e-09
-3.18238e-09
-5.23316e-09
-1.73946e-09
-3.28711e-09
-7.82916e-10
-1.60098e-09
-2.41506e-10
-2.9688e-10
-2.12663e-11
4.72052e-10
4.98951e-10
-1.19474e-10
-3.33465e-10
-5.93709e-10
1.21362e-10
-1.51716e-09
1.41643e-09
-2.96533e-09
3.31696e-09
-4.99576e-09
5.64236e-09
-7.64892e-09
8.24992e-09
-1.09498e-08
1.10267e-08
-1.49099e-08
1.38835e-08
-1.95286e-08
1.67502e-08
-2.47952e-08
1.95716e-08
-3.06903e-08
2.23045e-08
-3.71875e-08
2.49154e-08
-4.42544e-08
2.73785e-08
-5.1854e-08
2.96744e-08
-5.99456e-08
3.17884e-08
-6.84856e-08
3.37102e-08
-7.74285e-08
3.54326e-08
-8.67269e-08
3.69512e-08
-9.6333e-08
3.82637e-08
-1.06198e-07
3.93696e-08
-1.16274e-07
4.027e-08
-1.26511e-07
4.09671e-08
-1.36863e-07
4.14641e-08
-1.47282e-07
4.17651e-08
-1.57722e-07
4.18748e-08
-1.68137e-07
4.17985e-08
-1.78484e-07
4.15418e-08
-1.88721e-07
4.1111e-08
-1.98806e-07
4.05123e-08
-2.08699e-07
3.97523e-08
-2.18364e-07
3.88379e-08
-2.27762e-07
3.77758e-08
-2.36861e-07
3.65733e-08
-2.45626e-07
3.52372e-08
-2.54026e-07
3.37749e-08
-2.62033e-07
3.21933e-08
-2.69618e-07
3.04998e-08
-2.76754e-07
2.87015e-08
-2.83419e-07
2.68057e-08
-2.8959e-07
2.48194e-08
-2.95245e-07
2.27501e-08
-3.00366e-07
2.06047e-08
-3.04937e-07
1.83907e-08
-3.08941e-07
1.61153e-08
-3.12365e-07
1.37856e-08
-3.15198e-07
1.14091e-08
-3.1743e-07
8.99299e-09
-3.19053e-07
6.5448e-09
-3.20061e-07
4.07194e-09
-3.20449e-07
1.58195e-09
-3.20216e-07
-9.17555e-10
-3.19362e-07
-3.41888e-09
-3.17887e-07
-5.91422e-09
-3.15795e-07
-8.39569e-09
-3.13093e-07
-1.08553e-08
-3.09786e-07
-1.32849e-08
-3.05886e-07
-1.56763e-08
-3.01404e-07
-1.80212e-08
-2.96353e-07
-2.03112e-08
-2.90749e-07
-2.25378e-08
-2.8461e-07
-2.46924e-08
-2.77957e-07
-2.67663e-08
-2.70811e-07
-2.87509e-08
-2.63196e-07
-3.06373e-08
-2.55141e-07
-3.2417e-08
-2.46671e-07
-3.4081e-08
-2.3782e-07
-3.56208e-08
-2.28618e-07
-3.70277e-08
-2.19102e-07
-3.82934e-08
-2.09307e-07
-3.94093e-08
-1.99273e-07
-4.03676e-08
-1.8904e-07
-4.11602e-08
-1.7865e-07
-4.17797e-08
-1.68147e-07
-4.2219e-08
-1.57577e-07
-4.24712e-08
-1.46986e-07
-4.25304e-08
-1.36422e-07
-4.23908e-08
-1.25935e-07
-4.20476e-08
-1.15574e-07
-4.14968e-08
-1.05389e-07
-4.07353e-08
-9.54307e-08
-3.97611e-08
-8.57501e-08
-3.85733e-08
-7.63969e-08
-3.71728e-08
-6.74201e-08
-3.55618e-08
-5.88675e-08
-3.37448e-08
-5.07846e-08
-3.17287e-08
-4.32144e-08
-2.9523e-08
-3.61966e-08
-2.71408e-08
-2.97665e-08
-2.45993e-08
-2.3954e-08
-2.19207e-08
-1.87828e-08
-1.91336e-08
-1.42687e-08
-1.62741e-08
-1.04185e-08
-1.33878e-08
-7.22845e-09
-1.05322e-08
-4.68245e-09
-7.77918e-09
-2.75067e-09
-5.21889e-09
-1.38791e-09
-2.96375e-09
-5.32088e-10
-1.15271e-09
-1.02909e-10
4.28765e-11
3.96037e-10
-2.05642e-10
-1.2782e-10
-9.04581e-10
8.20316e-10
-2.16759e-09
2.67942e-09
-4.05308e-09
5.20245e-09
-6.60628e-09
8.19556e-09
-9.85876e-09
1.15024e-08
-1.3829e-08
1.49969e-08
-1.85232e-08
1.85778e-08
-2.3937e-08
2.2164e-08
-3.00562e-08
2.56908e-08
-3.68583e-08
2.91065e-08
-4.43136e-08
3.23707e-08
-5.23868e-08
3.54517e-08
-6.10374e-08
3.8325e-08
-7.02214e-08
4.09723e-08
-7.98912e-08
4.33801e-08
-8.99974e-08
4.55388e-08
-1.00489e-07
4.74424e-08
-1.11312e-07
4.90875e-08
-1.22416e-07
5.04731e-08
-1.33746e-07
5.15999e-08
-1.45249e-07
5.24704e-08
-1.56873e-07
5.30882e-08
-1.68566e-07
5.34581e-08
-1.80277e-07
5.35858e-08
-1.91956e-07
5.34778e-08
-2.03556e-07
5.31409e-08
-2.15027e-07
5.25828e-08
-2.26326e-07
5.18114e-08
-2.37409e-07
5.08348e-08
-2.48233e-07
4.96617e-08
-2.58758e-07
4.83006e-08
-2.68945e-07
4.67604e-08
-2.78757e-07
4.505e-08
-2.88161e-07
4.31786e-08
-2.97123e-07
4.11551e-08
-3.05612e-07
3.89888e-08
-3.13599e-07
3.66887e-08
-3.21057e-07
3.4264e-08
-3.27962e-07
3.1724e-08
-3.3429e-07
2.90778e-08
-3.4002e-07
2.63347e-08
-3.45133e-07
2.35038e-08
-3.49612e-07
2.05945e-08
-3.53443e-07
1.76161e-08
-3.56611e-07
1.45778e-08
-3.59108e-07
1.14892e-08
-3.60922e-07
8.3596e-09
-3.62049e-07
5.19862e-09
-3.62483e-07
2.01588e-09
-3.62222e-07
-1.17887e-09
-3.61265e-07
-4.3758e-09
-3.59614e-07
-7.56494e-09
-3.57273e-07
-1.07362e-08
-3.54249e-07
-1.38793e-08
-3.5055e-07
-1.6984e-08
-3.46187e-07
-2.00398e-08
-3.41172e-07
-2.30361e-08
-3.35521e-07
-2.59621e-08
-3.29252e-07
-2.8807e-08
-3.22384e-07
-3.156e-08
-3.14941e-07
-3.42098e-08
-3.06946e-07
-3.67456e-08
-2.98427e-07
-3.91563e-08
-2.89413e-07
-4.14306e-08
-2.79937e-07
-4.35576e-08
-2.70032e-07
-4.55262e-08
-2.59734e-07
-4.73256e-08
-2.49082e-07
-4.89451e-08
-2.38117e-07
-5.03741e-08
-2.26882e-07
-5.16026e-08
-2.15422e-07
-5.26205e-08
-2.03783e-07
-5.34186e-08
-1.92014e-07
-5.39879e-08
-1.80165e-07
-5.432e-08
-1.68288e-07
-5.44073e-08
-1.56436e-07
-5.4243e-08
-1.44663e-07
-5.38212e-08
-1.33022e-07
-5.3137e-08
-1.21571e-07
-5.21868e-08
-1.10364e-07
-5.09685e-08
-9.94554e-08
-4.94814e-08
-8.89012e-08
-4.77269e-08
-7.87545e-08
-4.57085e-08
-6.90671e-08
-4.34322e-08
-5.98889e-08
-4.0907e-08
-5.12664e-08
-3.81454e-08
-4.32429e-08
-3.51643e-08
-3.58569e-08
-3.19852e-08
-2.91416e-08
-2.86361e-08
-2.31233e-08
-2.51519e-08
-1.7821e-08
-2.15764e-08
-1.32446e-08
-1.79642e-08
-9.39417e-09
-1.43826e-08
-6.25831e-09
-1.0915e-08
-3.8134e-09
-7.6638e-09
-2.02258e-09
-4.75458e-09
-8.3521e-10
-2.34007e-09
-1.86907e-10
-6.05427e-10
2.09122e-10
-2.91558e-10
1.63739e-10
-1.21845e-09
1.74722e-09
-2.82856e-09
4.28952e-09
-5.16264e-09
7.53654e-09
-8.25231e-09
1.12852e-08
-1.21187e-08
1.53688e-08
-1.67723e-08
1.96505e-08
-2.22131e-08
2.40186e-08
-2.84315e-08
2.83824e-08
-3.54088e-08
3.26681e-08
-4.31189e-08
3.68166e-08
-5.15286e-08
4.07805e-08
-6.05991e-08
4.45221e-08
-7.02864e-08
4.80124e-08
-8.0543e-08
5.12289e-08
-9.13179e-08
5.4155e-08
-1.02558e-07
5.67786e-08
-1.14207e-07
5.90921e-08
-1.2621e-07
6.10906e-08
-1.3851e-07
6.27725e-08
-1.51048e-07
6.41383e-08
-1.63768e-07
6.51904e-08
-1.76613e-07
6.5933e-08
-1.89526e-07
6.63715e-08
-2.02453e-07
6.65127e-08
-2.1534e-07
6.63641e-08
-2.28133e-07
6.59341e-08
-2.40782e-07
6.52316e-08
-2.53237e-07
6.42663e-08
-2.6545e-07
6.30481e-08
-2.77376e-07
6.15874e-08
-2.8897e-07
5.98947e-08
-3.0019e-07
5.79808e-08
-3.10997e-07
5.58567e-08
-3.21352e-07
5.35335e-08
-3.31219e-07
5.10223e-08
-3.40564e-07
4.83344e-08
-3.49357e-07
4.54811e-08
-3.57567e-07
4.24738e-08
-3.65166e-07
3.93236e-08
-3.72131e-07
3.60421e-08
-3.78437e-07
3.26407e-08
-3.84064e-07
2.91307e-08
-3.88993e-07
2.55237e-08
-3.93208e-07
2.18311e-08
-3.96695e-07
1.80646e-08
-3.99441e-07
1.42358e-08
-4.01438e-07
1.03564e-08
-4.02678e-07
6.43828e-09
-4.03155e-07
2.49335e-09
-4.02868e-07
-1.46632e-09
-4.01815e-07
-5.42854e-09
-3.99999e-07
-9.38094e-09
-3.97424e-07
-1.33111e-08
-3.94097e-07
-1.72062e-08
-3.90028e-07
-2.10537e-08
-3.85227e-07
-2.48404e-08
-3.7971e-07
-2.85533e-08
-3.73493e-07
-3.21792e-08
-3.66595e-07
-3.57047e-08
-3.59039e-07
-3.91162e-08
-3.50848e-07
-4.24002e-08
-3.42051e-07
-4.55431e-08
-3.32676e-07
-4.85312e-08
-3.22755e-07
-5.13508e-08
-3.12325e-07
-5.39884e-08
-3.0142e-07
-5.64304e-08
-2.90083e-07
-5.86634e-08
-2.78353e-07
-6.06744e-08
-2.66277e-07
-6.24506e-08
-2.539e-07
-6.39794e-08
-2.41272e-07
-6.52489e-08
-2.28443e-07
-6.62475e-08
-2.15466e-07
-6.69646e-08
-2.02396e-07
-6.73899e-08
-1.89289e-07
-6.75144e-08
-1.76202e-07
-6.733e-08
-1.63194e-07
-6.68295e-08
-1.50323e-07
-6.60074e-08
-1.37651e-07
-6.48595e-08
-1.25235e-07
-6.33837e-08
-1.13137e-07
-6.15795e-08
-1.01415e-07
-5.94489e-08
-9.01271e-08
-5.69968e-08
-7.93285e-08
-5.42308e-08
-6.9073e-08
-5.11625e-08
-5.94111e-08
-4.78073e-08
-5.03894e-08
-4.4186e-08
-4.20498e-08
-4.03248e-08
-3.44289e-08
-3.6257e-08
-2.75566e-08
-3.20243e-08
-2.14554e-08
-2.76777e-08
-1.61394e-08
-2.32802e-08
-1.16135e-08
-1.89085e-08
-7.87234e-09
-1.46562e-08
-4.89987e-09
-1.06363e-08
-2.66903e-09
-6.98543e-09
-1.14193e-09
-3.86717e-09
-2.70809e-10
-1.47655e-09
-6.16892e-11
-3.75882e-10
5.3961e-10
-1.52986e-09
2.90122e-09
-3.48858e-09
6.24824e-09
-6.27538e-09
1.03233e-08
-9.90781e-09
1.49177e-08
-1.43958e-08
1.98568e-08
-1.97407e-08
2.49954e-08
-2.59352e-08
3.02131e-08
-3.29636e-08
3.54108e-08
-4.08023e-08
4.05068e-08
-4.94205e-08
4.54348e-08
-5.87811e-08
5.0141e-08
-6.88413e-08
5.45824e-08
-7.95539e-08
5.8725e-08
-9.08674e-08
6.25425e-08
-1.02727e-07
6.6015e-08
-1.15077e-07
6.91282e-08
-1.27857e-07
7.18723e-08
-1.41008e-07
7.42414e-08
-1.54469e-07
7.62329e-08
-1.68177e-07
7.78471e-08
-1.82073e-07
7.90864e-08
-1.96096e-07
7.99554e-08
-2.10185e-07
8.04603e-08
-2.24281e-07
8.06087e-08
-2.38326e-07
8.04095e-08
-2.52264e-07
7.98723e-08
-2.6604e-07
7.90078e-08
-2.79601e-07
7.78272e-08
-2.92896e-07
7.63424e-08
-3.05874e-07
7.45656e-08
-3.18488e-07
7.25094e-08
-3.30694e-07
7.01867e-08
-3.42448e-07
6.76107e-08
-3.53709e-07
6.47945e-08
-3.64439e-07
6.17516e-08
-3.746e-07
5.84956e-08
-3.84159e-07
5.50399e-08
-3.93083e-07
5.13983e-08
-4.01344e-07
4.75844e-08
-4.08914e-07
4.36119e-08
-4.15767e-07
3.94946e-08
-4.21883e-07
3.52462e-08
-4.2724e-07
3.08808e-08
-4.31821e-07
2.64121e-08
-4.35611e-07
2.18541e-08
-4.38596e-07
1.72211e-08
-4.40766e-07
1.2527e-08
-4.42114e-07
7.78625e-09
-4.42634e-07
3.01327e-09
-4.42323e-07
-1.77738e-09
-4.41181e-07
-6.57095e-09
-4.39209e-07
-1.13525e-08
-4.36413e-07
-1.6107e-08
-4.328e-07
-2.08192e-08
-4.2838e-07
-2.54736e-08
-4.23166e-07
-3.00546e-08
-4.17173e-07
-3.45464e-08
-4.10419e-07
-3.89329e-08
-4.02926e-07
-4.31982e-08
-3.94716e-07
-4.73258e-08
-3.85817e-07
-5.12996e-08
-3.76257e-07
-5.51031e-08
-3.66068e-07
-5.87198e-08
-3.55286e-07
-6.21333e-08
-3.43947e-07
-6.53274e-08
-3.32091e-07
-6.82858e-08
-3.19762e-07
-7.09925e-08
-3.07005e-07
-7.34319e-08
-2.93867e-07
-7.55886e-08
-2.80399e-07
-7.74476e-08
-2.66653e-07
-7.89949e-08
-2.52684e-07
-8.02166e-08
-2.38548e-07
-8.11e-08
-2.24305e-07
-8.16332e-08
-2.10014e-07
-8.18054e-08
-1.95737e-07
-8.16071e-08
-1.81536e-07
-8.10302e-08
-1.67475e-07
-8.00682e-08
-1.53618e-07
-7.87166e-08
-1.40029e-07
-7.69729e-08
-1.26771e-07
-7.48372e-08
-1.13908e-07
-7.23123e-08
-1.015e-07
-6.94042e-08
-8.96087e-08
-6.61225e-08
-7.829e-08
-6.24811e-08
-6.75985e-08
-5.84988e-08
-5.75843e-08
-5.42001e-08
-4.82932e-08
-4.96159e-08
-3.97652e-08
-4.4785e-08
-3.20343e-08
-3.97551e-08
-2.51274e-08
-3.45846e-08
-1.90635e-08
-2.9344e-08
-1.38533e-08
-2.41188e-08
-9.49839e-09
-1.90111e-08
-5.99132e-09
-1.41434e-08
-3.31563e-09
-9.66111e-09
-1.44671e-09
-5.73609e-09
-3.53238e-10
-2.57003e-09
-4.14924e-10
-4.57886e-10
9.97495e-10
-1.83563e-09
4.27897e-09
-4.14049e-09
8.5531e-09
-7.37925e-09
1.35621e-08
-1.15554e-08
1.90938e-08
-1.66673e-08
2.49687e-08
-2.27066e-08
3.10347e-08
-2.96579e-08
3.71644e-08
-3.74987e-08
4.32516e-08
-4.61997e-08
4.92078e-08
-5.57251e-08
5.49602e-08
-6.60331e-08
6.0449e-08
-7.70769e-08
6.56262e-08
-8.88054e-08
7.04534e-08
-1.01163e-07
7.49004e-08
-1.14093e-07
7.89443e-08
-1.27533e-07
8.25683e-08
-1.41421e-07
8.57608e-08
-1.55694e-07
8.85145e-08
-1.70287e-07
9.08261e-08
-1.85136e-07
9.26954e-08
-2.00174e-07
9.4125e-08
-2.15339e-07
9.51199e-08
-2.30566e-07
9.5687e-08
-2.45792e-07
9.58349e-08
-2.60956e-07
9.55736e-08
-2.75998e-07
9.49144e-08
-2.9086e-07
9.38694e-08
-3.05484e-07
9.24519e-08
-3.19817e-07
9.06753e-08
-3.33806e-07
8.85542e-08
-3.47399e-07
8.61032e-08
-3.6055e-07
8.33374e-08
-3.73212e-07
8.02721e-08
-3.8534e-07
7.69231e-08
-3.96894e-07
7.3306e-08
-4.07836e-07
6.94368e-08
-4.18127e-07
6.53315e-08
-4.27735e-07
6.10061e-08
-4.36628e-07
5.6477e-08
-4.44776e-07
5.17602e-08
-4.52153e-07
4.6872e-08
-4.58736e-07
4.18288e-08
-4.64502e-07
3.6647e-08
-4.69433e-07
3.1343e-08
-4.73512e-07
2.59335e-08
-4.76726e-07
2.04351e-08
-4.79064e-07
1.48646e-08
-4.80517e-07
9.2389e-09
-4.81079e-07
3.57518e-09
-4.80747e-07
-2.10934e-09
-4.7952e-07
-7.7972e-09
-4.77402e-07
-1.34707e-08
-4.74397e-07
-1.91121e-08
-4.70513e-07
-2.47033e-08
-4.65761e-07
-3.02259e-08
-4.60154e-07
-3.56616e-08
-4.53709e-07
-4.09916e-08
-4.46444e-07
-4.6197e-08
-4.38384e-07
-5.12588e-08
-4.29552e-07
-5.61578e-08
-4.19977e-07
-6.08748e-08
-4.09689e-07
-6.53903e-08
-3.98724e-07
-6.9685e-08
-3.87118e-07
-7.37396e-08
-3.7491e-07
-7.75349e-08
-3.62145e-07
-8.10517e-08
-3.48866e-07
-8.42713e-08
-3.35123e-07
-8.71752e-08
-3.20966e-07
-8.97455e-08
-3.06449e-07
-9.19648e-08
-2.91627e-07
-9.38162e-08
-2.7656e-07
-9.5284e-08
-2.61306e-07
-9.63532e-08
-2.4593e-07
-9.701e-08
-2.30493e-07
-9.72419e-08
-2.15062e-07
-9.70379e-08
-1.99703e-07
-9.63889e-08
-1.84484e-07
-9.52874e-08
-1.69472e-07
-9.37285e-08
-1.54736e-07
-9.17096e-08
-1.40342e-07
-8.92311e-08
-1.26358e-07
-8.62966e-08
-1.12848e-07
-8.29135e-08
-9.98776e-08
-7.90932e-08
-8.75064e-08
-7.48523e-08
-7.57927e-08
-7.02126e-08
-6.47905e-08
-6.52023e-08
-5.45494e-08
-5.98571e-08
-4.51137e-08
-5.42207e-08
-3.65218e-08
-4.83471e-08
-2.88055e-08
-4.23009e-08
-2.19895e-08
-3.616e-08
-1.60909e-08
-3.00174e-08
-1.1119e-08
-2.3983e-08
-7.07556e-09
-1.81868e-08
-3.95512e-09
-1.27815e-08
-1.74629e-09
-7.94493e-09
-4.33465e-10
-3.88286e-09
-8.48392e-10
-5.37244e-10
1.53473e-09
-2.13405e-09
5.87578e-09
-4.78017e-09
1.11992e-08
-8.46687e-09
1.72488e-08
-1.31841e-08
2.38111e-08
-1.89185e-08
3.0703e-08
-2.56516e-08
3.77678e-08
-3.33598e-08
4.48726e-08
-4.2013e-08
5.19049e-08
-5.15757e-08
5.87705e-08
-6.20064e-08
6.53908e-08
-7.32585e-08
7.17011e-08
-8.52806e-08
7.76484e-08
-9.80174e-08
8.31902e-08
-1.1141e-07
8.82928e-08
-1.25396e-07
9.29304e-08
-1.39911e-07
9.70839e-08
-1.5489e-07
1.0074e-07
-1.70266e-07
1.0389e-07
-1.85969e-07
1.06529e-07
-2.01932e-07
1.08658e-07
-2.18086e-07
1.10279e-07
-2.34363e-07
1.11398e-07
-2.50697e-07
1.12021e-07
-2.67021e-07
1.12159e-07
-2.83271e-07
1.11823e-07
-2.99383e-07
1.11026e-07
-3.15295e-07
1.09782e-07
-3.30948e-07
1.08105e-07
-3.46284e-07
1.06011e-07
-3.61247e-07
1.03518e-07
-3.75785e-07
1.00641e-07
-3.89846e-07
9.73981e-08
-4.03381e-07
9.38073e-08
-4.16344e-07
8.98864e-08
-4.28692e-07
8.56538e-08
-4.40383e-07
8.11279e-08
-4.51379e-07
7.63272e-08
-4.61643e-07
7.12705e-08
-4.71143e-07
6.59766e-08
-4.79847e-07
6.04642e-08
-4.87727e-07
5.47524e-08
-4.94759e-07
4.88601e-08
-5.00918e-07
4.28065e-08
-5.06186e-07
3.66106e-08
-5.10544e-07
3.02919e-08
-5.13979e-07
2.38698e-08
-5.16478e-07
1.73638e-08
-5.18033e-07
1.07936e-08
-5.18637e-07
4.1792e-09
-5.18287e-07
-2.45934e-09
-5.16982e-07
-9.10168e-09
-5.14726e-07
-1.57273e-08
-5.11523e-07
-2.23153e-08
-5.07381e-07
-2.88448e-08
-5.02312e-07
-3.52945e-08
-4.96331e-07
-4.16428e-08
-4.89455e-07