/*--------------------------------*- C++ -*----------------------------------*\
| =========                 |                                                 |
| \\      /  F ield         | OpenFOAM: The Open Source CFD Toolbox           |
|  \\    /   O peration     | Version:  2212                                  |
|   \\  /    A nd           | Website:  www.openfoam.com                      |
|    \\/     M anipulation  |                                                 |
\*---------------------------------------------------------------------------*/
FoamFile
{
    version     2.0;
    format      ascii;
    arch        "LSB;label=32;scalar=64";
    class       volVectorField;
    location    "0.036";
    object      U;
}
// * * * * * * * * * * * * * * * * * * * * * * * * * * * * * * * * * * * * * //

dimensions      [0 1 -1 0 0 0 0];

internalField   nonuniform List<vector> 
10000
(
(2.81341e-06 -2.65429e-06 0)
(1.25952e-05 -5.91965e-06 0)
(2.68408e-05 -6.33305e-06 0)
(3.91945e-05 -5.20368e-06 0)
(4.60335e-05 -3.14783e-06 0)
(4.55955e-05 -5.87951e-07 0)
(3.68754e-05 2.20266e-06 0)
(1.94396e-05 5.03816e-06 0)
(-6.77687e-06 7.81771e-06 0)
(-4.15734e-05 1.04847e-05 0)
(-8.46073e-05 1.29989e-05 0)
(-0.000135429 1.5335e-05 0)
(-0.000193523 1.74913e-05 0)
(-0.000258341 1.94594e-05 0)
(-0.000329308 2.12367e-05 0)
(-0.000405835 2.28311e-05 0)
(-0.000487333 2.42367e-05 0)
(-0.000573214 2.5455e-05 0)
(-0.000662889 2.64969e-05 0)
(-0.000755788 2.73699e-05 0)
(-0.000851354 2.80783e-05 0)
(-0.000949035 2.86259e-05 0)
(-0.0010483 2.90183e-05 0)
(-0.00114865 2.92581e-05 0)
(-0.00124956 2.9351e-05 0)
(-0.00135058 2.93067e-05 0)
(-0.00145123 2.91328e-05 0)
(-0.00155108 2.88325e-05 0)
(-0.0016497 2.84105e-05 0)
(-0.00174668 2.78744e-05 0)
(-0.00184165 2.72307e-05 0)
(-0.00193423 2.64838e-05 0)
(-0.00202408 2.56383e-05 0)
(-0.00211086 2.46999e-05 0)
(-0.00219425 2.36743e-05 0)
(-0.00227398 2.25651e-05 0)
(-0.00234974 2.13773e-05 0)
(-0.00242129 2.01177e-05 0)
(-0.00248839 1.87928e-05 0)
(-0.0025508 1.7406e-05 0)
(-0.00260832 1.59599e-05 0)
(-0.00266077 1.44605e-05 0)
(-0.00270795 1.2914e-05 0)
(-0.00274973 1.13256e-05 0)
(-0.00278595 9.70077e-06 0)
(-0.0028165 8.04228e-06 0)
(-0.00284128 6.35424e-06 0)
(-0.00286018 4.64365e-06 0)
(-0.00287315 2.9147e-06 0)
(-0.00288013 1.17139e-06 0)
(-0.00288108 -5.79215e-07 0)
(-0.00287599 -2.3317e-06 0)
(-0.00286485 -4.08171e-06 0)
(-0.0028477 -5.82335e-06 0)
(-0.00282457 -7.55205e-06 0)
(-0.00279551 -9.26346e-06 0)
(-0.0027606 -1.095e-05 0)
(-0.00271995 -1.26042e-05 0)
(-0.00267367 -1.42216e-05 0)
(-0.00262189 -1.57972e-05 0)
(-0.00256479 -1.73244e-05 0)
(-0.00250254 -1.87965e-05 0)
(-0.00243533 -2.02077e-05 0)
(-0.00236341 -2.15512e-05 0)
(-0.00228701 -2.28202e-05 0)
(-0.0022064 -2.40088e-05 0)
(-0.00212187 -2.51105e-05 0)
(-0.00203374 -2.61177e-05 0)
(-0.00194234 -2.70234e-05 0)
(-0.00184803 -2.78224e-05 0)
(-0.00175119 -2.85093e-05 0)
(-0.00165221 -2.90768e-05 0)
(-0.00155152 -2.95176e-05 0)
(-0.00144956 -2.98257e-05 0)
(-0.00134678 -2.99954e-05 0)
(-0.00124369 -3.00205e-05 0)
(-0.00114076 -2.98947e-05 0)
(-0.00103853 -2.9613e-05 0)
(-0.000937517 -2.9171e-05 0)
(-0.000838276 -2.85635e-05 0)
(-0.000741366 -2.77849e-05 0)
(-0.000647362 -2.68312e-05 0)
(-0.000556846 -2.56989e-05 0)
(-0.000470409 -2.43847e-05 0)
(-0.000388644 -2.28852e-05 0)
(-0.000312144 -2.11991e-05 0)
(-0.000241494 -1.93272e-05 0)
(-0.00017727 -1.72715e-05 0)
(-0.000120028 -1.50351e-05 0)
(-7.02903e-05 -1.26234e-05 0)
(-2.85373e-05 -1.0047e-05 0)
(4.81852e-06 -7.32464e-06 0)
(2.94648e-05 -4.48739e-06 0)
(4.52415e-05 -1.58803e-06 0)
(5.22238e-05 1.2797e-06 0)
(5.08531e-05 3.94949e-06 0)
(4.21251e-05 6.12507e-06 0)
(2.79928e-05 7.26827e-06 0)
(1.25517e-05 6.43252e-06 0)
(2.60805e-06 2.60868e-06 0)
(7.01761e-06 -1.29077e-05 0)
(2.60422e-05 -2.45539e-05 0)
(4.93416e-05 -2.39654e-05 0)
(6.51886e-05 -1.61767e-05 0)
(6.6424e-05 -3.85854e-06 0)
(4.90674e-05 1.11831e-05 0)
(1.06052e-05 2.76447e-05 0)
(-5.02868e-05 4.46158e-05 0)
(-0.000133991 6.15084e-05 0)
(-0.00024028 7.79255e-05 0)
(-0.000368462 9.36019e-05 0)
(-0.000517526 0.000108373 0)
(-0.000686259 0.000122119 0)
(-0.000873298 0.000134778 0)
(-0.00107716 0.000146311 0)
(-0.00129633 0.000156695 0)
(-0.00152924 0.000165925 0)
(-0.00177431 0.000174001 0)
(-0.00202995 0.000180942 0)
(-0.00229462 0.000186765 0)
(-0.00256675 0.0001915 0)
(-0.00284484 0.000195174 0)
(-0.00312742 0.000197816 0)
(-0.00341304 0.000199458 0)
(-0.00370031 0.000200132 0)
(-0.00398788 0.000199876 0)
(-0.00427445 0.000198728 0)
(-0.00455876 0.000196722 0)
(-0.00483961 0.000193895 0)
(-0.00511585 0.000190283 0)
(-0.00538637 0.000185924 0)
(-0.00565012 0.000180851 0)
(-0.0059061 0.000175103 0)
(-0.00615338 0.000168714 0)
(-0.00639103 0.000161722 0)
(-0.00661823 0.000154159 0)
(-0.00683416 0.000146061 0)
(-0.0070381 0.000137464 0)
(-0.00722932 0.000128404 0)
(-0.00740721 0.000118914 0)
(-0.00757115 0.000109027 0)
(-0.00772059 9.87764e-05 0)
(-0.00785505 8.81985e-05 0)
(-0.00797407 7.73272e-05 0)
(-0.00807724 6.61954e-05 0)
(-0.00816423 5.4839e-05 0)
(-0.00823474 4.32911e-05 0)
(-0.0082885 3.1585e-05 0)
(-0.00832532 1.97558e-05 0)
(-0.00834506 7.83896e-06 0)
(-0.00834762 -4.12873e-06 0)
(-0.00833294 -1.61101e-05 0)
(-0.00830104 -2.80687e-05 0)
(-0.00825199 -3.99681e-05 0)
(-0.00818589 -5.17711e-05 0)
(-0.00810292 -6.3439e-05 0)
(-0.0080033 -7.49311e-05 0)
(-0.00788733 -8.62069e-05 0)
(-0.00775534 -9.7227e-05 0)
(-0.00760775 -0.00010795 0)
(-0.007445 -0.000118334 0)
(-0.00726762 -0.000128336 0)
(-0.00707619 -0.000137914 0)
(-0.00687136 -0.000147026 0)
(-0.00665384 -0.000155626 0)
(-0.00642439 -0.000163672 0)
(-0.00618385 -0.000171119 0)
(-0.00593311 -0.000177921 0)
(-0.00567312 -0.000184036 0)
(-0.0054049 -0.000189423 0)
(-0.00512953 -0.000194039 0)
(-0.00484814 -0.000197842 0)
(-0.00456194 -0.000200788 0)
(-0.00427217 -0.000202839 0)
(-0.00398013 -0.000203955 0)
(-0.00368719 -0.0002041 0)
(-0.00339475 -0.000203239 0)
(-0.00310426 -0.00020134 0)
(-0.00281722 -0.000198374 0)
(-0.00253514 -0.000194312 0)
(-0.0022596 -0.000189131 0)
(-0.00199217 -0.00018281 0)
(-0.00173445 -0.000175336 0)
(-0.00148806 -0.0001667 0)
(-0.0012546 -0.0001569 0)
(-0.00103565 -0.000145946 0)
(-0.000832766 -0.000133859 0)
(-0.000647451 -0.000120674 0)
(-0.00048112 -0.000106447 0)
(-0.00033507 -9.12583e-05 0)
(-0.000210432 -7.52278e-05 0)
(-0.0001081 -5.85323e-05 0)
(-2.86452e-05 -4.14314e-05 0)
(2.78226e-05 -2.43133e-05 0)
(6.18476e-05 -7.76655e-06 0)
(7.48991e-05 7.3045e-06 0)
(6.9685e-05 1.95065e-05 0)
(5.06666e-05 2.6688e-05 0)
(2.56215e-05 2.56156e-05 0)
(6.42798e-06 1.25445e-05 0)
(7.96873e-06 -2.89327e-05 0)
(2.73639e-05 -4.88534e-05 0)
(4.67503e-05 -4.23841e-05 0)
(5.18802e-05 -1.97448e-05 0)
(3.39518e-05 1.36255e-05 0)
(-1.22592e-05 5.3812e-05 0)
(-9.01975e-05 9.77739e-05 0)
(-0.000201766 0.000143378 0)
(-0.00034768 0.000189069 0)
(-0.000527744 0.000233772 0)
(-0.00074108 0.000276745 0)
(-0.000986338 0.000317449 0)
(-0.0012618 0.000355533 0)
(-0.00156546 0.000390756 0)
(-0.00189519 0.000422962 0)
(-0.00224868 0.000452056 0)
(-0.00262357 0.000477997 0)
(-0.00301745 0.000500768 0)
(-0.00342789 0.00052038 0)
(-0.00385248 0.000536882 0)
(-0.00428881 0.000550319 0)
(-0.00473452 0.00056076 0)
(-0.00518728 0.000568287 0)
(-0.00564485 0.000572976 0)
(-0.006105 0.000574917 0)
(-0.0065656 0.000574206 0)
(-0.00702458 0.000570938 0)
(-0.00747995 0.000565213 0)
(-0.00792978 0.000557132 0)
(-0.00837223 0.000546796 0)
(-0.00880555 0.000534307 0)
(-0.00922804 0.000519766 0)
(-0.0096381 0.000503277 0)
(-0.0100342 0.000484942 0)
(-0.0104149 0.000464863 0)
(-0.0107789 0.00044314 0)
(-0.0111249 0.000419874 0)
(-0.0114516 0.000395167 0)
(-0.0117579 0.000369118 0)
(-0.0120429 0.000341827 0)
(-0.0123055 0.000313392 0)
(-0.0125449 0.000283911 0)
(-0.0127603 0.000253483 0)
(-0.0129509 0.000222207 0)
(-0.0131161 0.000190182 0)
(-0.0132554 0.000157507 0)
(-0.0133682 0.000124283 0)
(-0.0134542 9.06092e-05 0)
(-0.013513 5.65848e-05 0)
(-0.0135445 2.23136e-05 0)
(-0.0135484 -1.2099e-05 0)
(-0.0135247 -4.65488e-05 0)
(-0.0134734 -8.09292e-05 0)
(-0.0133946 -0.000115131 0)
(-0.0132886 -0.000149047 0)
(-0.0131555 -0.000182565 0)
(-0.0129957 -0.00021557 0)
(-0.0128098 -0.000247946 0)
(-0.0125983 -0.000279579 0)
(-0.0123618 -0.00031035 0)
(-0.012101 -0.000340137 0)
(-0.0118169 -0.000368819 0)
(-0.0115103 -0.000396275 0)
(-0.0111823 -0.000422382 0)
(-0.0108341 -0.000447014 0)
(-0.0104668 -0.000470046 0)
(-0.0100817 -0.000491353 0)
(-0.00968045 -0.00051081 0)
(-0.0092644 -0.000528294 0)
(-0.00883523 -0.000543685 0)
(-0.00839466 -0.000556864 0)
(-0.00794451 -0.00056771 0)
(-0.00748666 -0.000576109 0)
(-0.00702312 -0.000581949 0)
(-0.00655596 -0.000585125 0)
(-0.00608733 -0.000585535 0)
(-0.00561946 -0.000583086 0)
(-0.00515463 -0.000577693 0)
(-0.0046952 -0.000569276 0)
(-0.00424356 -0.000557769 0)
(-0.00380217 -0.000543113 0)
(-0.00337348 -0.000525266 0)
(-0.00296 -0.000504202 0)
(-0.0025642 -0.000479914 0)
(-0.00218854 -0.000452422 0)
(-0.00183546 -0.000421774 0)
(-0.0015073 -0.000388058 0)
(-0.0012063 -0.000351408 0)
(-0.00093455 -0.00031202 0)
(-0.000693914 -0.000270174 0)
(-0.000485971 -0.000226262 0)
(-0.00031191 -0.000180837 0)
(-0.000172392 -0.000134674 0)
(-6.73755e-05 -8.88705e-05 0)
(4.12235e-06 -4.49843e-05 0)
(4.43344e-05 -5.2436e-06 0)
(5.70578e-05 2.718e-05 0)
(4.80928e-05 4.78404e-05 0)
(2.6808e-05 5.06862e-05 0)
(7.2827e-06 2.7994e-05 0)
(6.5686e-06 -4.34961e-05 0)
(1.96352e-05 -6.69951e-05 0)
(2.53042e-05 -4.8259e-05 0)
(9.19452e-06 -2.95128e-06 0)
(-3.8022e-05 6.04003e-05 0)
(-0.000122222 0.00013542 0)
(-0.000247309 0.000217234 0)
(-0.000415516 0.000302157 0)
(-0.000627753 0.0003875 0)
(-0.000883832 0.000471307 0)
(-0.00118278 0.000552146 0)
(-0.00152298 0.000628993 0)
(-0.00190231 0.000701124 0)
(-0.00231835 0.000768023 0)
(-0.00276837 0.000829343 0)
(-0.00324946 0.000884868 0)
(-0.00375859 0.000934464 0)
(-0.00429267 0.00097808 0)
(-0.00484853 0.00101572 0)
(-0.00542302 0.00104741 0)
(-0.00601299 0.00107326 0)
(-0.00661531 0.00109336 0)
(-0.00722693 0.00110784 0)
(-0.00784485 0.00111686 0)
(-0.00846612 0.00112057 0)
(-0.00908791 0.00111915 0)
(-0.00970744 0.00111276 0)
(-0.010322 0.00110161 0)
(-0.0109291 0.00108588 0)
(-0.0115263 0.00106575 0)
(-0.012111 0.00104144 0)
(-0.0126812 0.00101312 0)
(-0.0132346 0.000981007 0)
(-0.0137692 0.000945289 0)
(-0.014283 0.000906165 0)
(-0.0147742 0.000863832 0)
(-0.015241 0.000818485 0)
(-0.0156819 0.000770321 0)
(-0.0160953 0.000719534 0)
(-0.0164799 0.000666318 0)
(-0.0168343 0.000610865 0)
(-0.0171573 0.000553372 0)
(-0.0174478 0.00049403 0)
(-0.017705 0.000433031 0)
(-0.0179278 0.000370569 0)
(-0.0181156 0.000306841 0)
(-0.0182677 0.000242042 0)
(-0.0183836 0.000176368 0)
(-0.0184628 0.000110017 0)
(-0.0185051 4.3191e-05 0)
(-0.0185101 -2.39063e-05 0)
(-0.0184779 -9.10676e-05 0)
(-0.0184085 -0.000158086 0)
(-0.018302 -0.000224753 0)
(-0.0181586 -0.000290849 0)
(-0.0179789 -0.000356156 0)
(-0.0177631 -0.000420454 0)
(-0.0175121 -0.00048352 0)
(-0.0172265 -0.000545124 0)
(-0.0169073 -0.000605036 0)
(-0.0165554 -0.000663022 0)
(-0.016172 -0.000718846 0)
(-0.0157584 -0.00077227 0)
(-0.0153159 -0.000823055 0)
(-0.0148461 -0.000870961 0)
(-0.0143507 -0.000915744 0)
(-0.0138314 -0.000957164 0)
(-0.0132902 -0.000994981 0)
(-0.0127292 -0.00102896 0)
(-0.0121505 -0.00105886 0)
(-0.0115565 -0.00108446 0)
(-0.0109495 -0.00110553 0)
(-0.0103321 -0.00112186 0)
(-0.00970708 -0.00113322 0)
(-0.00907709 -0.00113943 0)
(-0.00844503 -0.00114029 0)
(-0.00781387 -0.00113563 0)
(-0.00718665 -0.0011253 0)
(-0.00656648 -0.00110914 0)
(-0.00595656 -0.00108705 0)
(-0.0053601 -0.00105893 0)
(-0.00478035 -0.00102472 0)
(-0.00422057 -0.000984381 0)
(-0.003684 -0.00093793 0)
(-0.00317385 -0.00088543 0)
(-0.00269323 -0.000827008 0)
(-0.00224516 -0.000762868 0)
(-0.00183248 -0.000693309 0)
(-0.00145779 -0.000618755 0)
(-0.00112342 -0.000539792 0)
(-0.000831268 -0.000457221 0)
(-0.000582719 -0.000372136 0)
(-0.000378489 -0.000286023 0)
(-0.000218426 -0.000200908 0)
(-0.00010127 -0.000119557 0)
(-2.43641e-05 -4.57512e-05 0)
(1.66365e-05 1.53731e-05 0)
(2.81374e-05 5.69477e-05 0)
(1.99216e-05 6.9964e-05 0)
(6.19518e-06 4.22339e-05 0)
(4.1341e-06 -5.22478e-05 0)
(6.81585e-06 -7.10003e-05 0)
(-8.0212e-06 -3.22626e-05 0)
(-5.30024e-05 4.36001e-05 0)
(-0.00013712 0.000144989 0)
(-0.000266337 0.000263194 0)
(-0.000444661 0.000391374 0)
(-0.000674424 0.000524313 0)
(-0.000956525 0.000658062 0)
(-0.00129077 0.000789664 0)
(-0.00167604 0.000916903 0)
(-0.00211049 0.00103816 0)
(-0.00259172 0.00115223 0)
(-0.00311689 0.00125826 0)
(-0.00368283 0.00135564 0)
(-0.00428613 0.00144397 0)
(-0.0049232 0.00152298 0)
(-0.00559033 0.00159256 0)
(-0.00628377 0.00165266 0)
(-0.00699969 0.00170332 0)
(-0.00773431 0.00174465 0)
(-0.00848384 0.00177679 0)
(-0.00924456 0.00179992 0)
(-0.0100128 0.00181428 0)
(-0.010785 0.0018201 0)
(-0.0115576 0.00181763 0)
(-0.0123273 0.00180717 0)
(-0.0130908 0.00178899 0)
(-0.0138448 0.00176341 0)
(-0.0145864 0.00173071 0)
(-0.0153126 0.00169122 0)
(-0.0160207 0.00164524 0)
(-0.0167078 0.00159309 0)
(-0.0173716 0.00153509 0)
(-0.0180096 0.00147156 0)
(-0.0186195 0.00140281 0)
(-0.0191991 0.00132917 0)
(-0.0197465 0.00125094 0)
(-0.0202598 0.00116844 0)
(-0.0207372 0.001082 0)
(-0.0211771 0.000991916 0)
(-0.021578 0.000898513 0)
(-0.0219387 0.000802104 0)
(-0.0222578 0.000703004 0)
(-0.0225343 0.000601528 0)
(-0.0227673 0.000497997 0)
(-0.022956 0.000392727 0)
(-0.0230997 0.000286038 0)
(-0.0231978 0.000178257 0)
(-0.0232501 6.97135e-05 0)
(-0.0232562 -3.92629e-05 0)
(-0.023216 -0.000148337 0)
(-0.0231296 -0.000257169 0)
(-0.0229971 -0.000365413 0)
(-0.0228189 -0.000472721 0)
(-0.0225956 -0.000578737 0)
(-0.0223276 -0.000683101 0)
(-0.0220158 -0.000785448 0)
(-0.0216612 -0.000885411 0)
(-0.0212648 -0.000982613 0)
(-0.0208279 -0.00107668 0)
(-0.0203519 -0.00116722 0)
(-0.0198385 -0.00125386 0)
(-0.0192893 -0.0013362 0)
(-0.0187062 -0.00141387 0)
(-0.0180913 -0.00148646 0)
(-0.0174469 -0.0015536 0)
(-0.0167754 -0.00161489 0)
(-0.0160792 -0.00166996 0)
(-0.015361 -0.00171843 0)
(-0.0146238 -0.00175994 0)
(-0.0138706 -0.00179412 0)
(-0.0131044 -0.00182063 0)
(-0.0123285 -0.00183914 0)
(-0.0115464 -0.00184934 0)
(-0.0107616 -0.00185092 0)
(-0.00997762 -0.00184363 0)
(-0.00919829 -0.00182721 0)
(-0.00842739 -0.00180147 0)
(-0.00766878 -0.00176622 0)
(-0.00692638 -0.00172134 0)
(-0.00620412 -0.00166675 0)
(-0.00550594 -0.00160242 0)
(-0.00483573 -0.00152842 0)
(-0.00419733 -0.00144487 0)
(-0.00359445 -0.00135203 0)
(-0.00303066 -0.00125025 0)
(-0.0025093 -0.00114008 0)
(-0.00203341 -0.00102223 0)
(-0.00160567 -0.000897695 0)
(-0.00122825 -0.000767787 0)
(-0.000902706 -0.000634255 0)
(-0.000629843 -0.000499416 0)
(-0.00040949 -0.000366344 0)
(-0.000240303 -0.000239102 0)
(-0.000119501 -0.000123067 0)
(-4.26138e-05 -2.53196e-05 0)
(-3.14938e-06 4.49457e-05 0)
(8.20517e-06 7.58971e-05 0)
(4.11835e-06 5.12769e-05 0)
(1.31533e-06 -5.32952e-05 0)
(-8.59841e-06 -5.63846e-05 0)
(-4.82508e-05 1.14239e-05 0)
(-0.000127411 0.000126208 0)
(-0.000253871 0.000273689 0)
(-0.000433337 0.000442954 0)
(-0.000669597 0.000625317 0)
(-0.000964784 0.000814034 0)
(-0.0013197 0.00100388 0)
(-0.00173399 0.00119085 0)
(-0.00220636 0.00137191 0)
(-0.00273474 0.00154472 0)
(-0.00331645 0.00170757 0)
(-0.00394831 0.00185918 0)
(-0.00462677 0.00199863 0)
(-0.00534796 0.00212529 0)
(-0.00610783 0.00223872 0)
(-0.00690216 0.0023387 0)
(-0.00772663 0.00242512 0)
(-0.0085769 0.002498 0)
(-0.00944858 0.00255745 0)
(-0.0103373 0.00260366 0)
(-0.0112388 0.00263685 0)
(-0.0121487 0.00265733 0)
(-0.013063 0.00266543 0)
(-0.0139775 0.0026615 0)
(-0.0148883 0.00264594 0)
(-0.0157916 0.00261915 0)
(-0.0166835 0.00258156 0)
(-0.0175606 0.0025336 0)
(-0.0184195 0.00247572 0)
(-0.0192567 0.00240836 0)
(-0.0200692 0.00233199 0)
(-0.020854 0.00224707 0)
(-0.0216083 0.00215404 0)
(-0.0223293 0.00205338 0)
(-0.0230145 0.00194555 0)
(-0.0236615 0.00183101 0)
(-0.0242682 0.00171022 0)
(-0.0248325 0.00158365 0)
(-0.0253524 0.00145175 0)
(-0.0258263 0.00131498 0)
(-0.0262524 0.00117381 0)
(-0.0266295 0.00102871 0)
(-0.0269563 0.000880124 0)
(-0.0272315 0.000728532 0)
(-0.0274543 0.000574401 0)
(-0.027624 0.000418201 0)
(-0.0277398 0.000260409 0)
(-0.0278013 0.000101507 0)
(-0.0278083 -5.80165e-05 0)
(-0.0277606 -0.000217671 0)
(-0.0276583 -0.000376958 0)
(-0.0275016 -0.000535372 0)
(-0.0272908 -0.0006924 0)
(-0.0270266 -0.000847523 0)
(-0.0267098 -0.00100021 0)
(-0.0263412 -0.00114994 0)
(-0.025922 -0.00129616 0)
(-0.0254535 -0.00143833 0)
(-0.0249371 -0.00157589 0)
(-0.0243746 -0.00170829 0)
(-0.0237678 -0.00183497 0)
(-0.0231187 -0.00195536 0)
(-0.0224297 -0.0020689 0)
(-0.0217032 -0.00217503 0)
(-0.0209417 -0.00227318 0)
(-0.0201481 -0.00236279 0)
(-0.0193254 -0.00244332 0)
(-0.0184767 -0.00251422 0)
(-0.0176054 -0.00257497 0)
(-0.016715 -0.00262504 0)
(-0.0158093 -0.00266396 0)
(-0.0148919 -0.00269123 0)
(-0.013967 -0.00270643 0)
(-0.0130385 -0.00270912 0)
(-0.0121108 -0.00269895 0)
(-0.0111882 -0.00267557 0)
(-0.0102751 -0.0026387 0)
(-0.00937592 -0.00258811 0)
(-0.00849526 -0.00252364 0)
(-0.00763765 -0.00244521 0)
(-0.0068076 -0.00235282 0)
(-0.00600959 -0.00224659 0)
(-0.005248 -0.00212676 0)
(-0.00452706 -0.00199372 0)
(-0.00385082 -0.00184807 0)
(-0.00322304 -0.00169061 0)
(-0.00264715 -0.00152243 0)
(-0.00212612 -0.001345 0)
(-0.0016624 -0.00116022 0)
(-0.00125773 -0.000970565 0)
(-0.000913065 -0.000779254 0)
(-0.000628327 -0.000590452 0)
(-0.000402274 -0.000409535 0)
(-0.000232267 -0.000243433 0)
(-0.000114042 -0.000101059 0)
(-4.14222e-05 6.26745e-06 0)
(-6.22156e-06 6.42198e-05 0)
(1.58687e-06 5.32711e-05 0)
(-1.58929e-06 -4.58688e-05 0)
(-2.52037e-05 -2.06573e-05 0)
(-9.22584e-05 8.6463e-05 0)
(-0.000208953 0.000249145 0)
(-0.000381494 0.000450913 0)
(-0.000614929 0.000678912 0)
(-0.00091255 0.000922814 0)
(-0.00127613 0.00117441 0)
(-0.00170616 0.00142725 0)
(-0.00220203 0.00167629 0)
(-0.00276221 0.00191762 0)
(-0.00338438 0.00214821 0)
(-0.00406555 0.00236575 0)
(-0.00480223 0.00256851 0)
(-0.00559052 0.00275521 0)
(-0.00642616 0.00292494 0)
(-0.00730466 0.00307708 0)
(-0.00822137 0.00321127 0)
(-0.0091715 0.00332729 0)
(-0.0101502 0.00342515 0)
(-0.0111525 0.00350494 0)
(-0.0121737 0.00356686 0)
(-0.0132088 0.00361122 0)
(-0.0142531 0.00363837 0)
(-0.0153019 0.00364875 0)
(-0.0163506 0.00364281 0)
(-0.0173946 0.00362107 0)
(-0.0184298 0.00358407 0)
(-0.0194518 0.00353236 0)
(-0.0204566 0.00346652 0)
(-0.0214403 0.00338716 0)
(-0.0223992 0.00329488 0)
(-0.0233296 0.00319029 0)
(-0.0242283 0.00307402 0)
(-0.0250918 0.00294669 0)
(-0.0259172 0.00280892 0)
(-0.0267016 0.00266135 0)
(-0.0274423 0.0025046 0)
(-0.0281368 0.00233931 0)
(-0.0287826 0.0021661 0)
(-0.0293776 0.00198561 0)
(-0.0299199 0.00179847 0)
(-0.0304076 0.00160531 0)
(-0.0308391 0.00140676 0)
(-0.0312129 0.00120346 0)
(-0.0315277 0.000996049 0)
(-0.0317826 0.000785172 0)
(-0.0319766 0.000571473 0)
(-0.032109 0.000355608 0)
(-0.0321793 0.000138237 0)
(-0.0321871 -7.99734e-05 0)
(-0.0321324 -0.00029835 0)
(-0.0320151 -0.000516209 0)
(-0.0318356 -0.000732859 0)
(-0.0315944 -0.000947597 0)
(-0.0312919 -0.00115971 0)
(-0.0309293 -0.00136849 0)
(-0.0305074 -0.0015732 0)
(-0.0300276 -0.00177309 0)
(-0.0294914 -0.00196744 0)
(-0.0289005 -0.00215547 0)
(-0.0282567 -0.00233645 0)
(-0.0275623 -0.00250959 0)
(-0.0268196 -0.00267414 0)
(-0.0260312 -0.00282933 0)
(-0.0251997 -0.00297439 0)
(-0.0243282 -0.00310856 0)
(-0.02342 -0.00323109 0)
(-0.0224783 -0.00334123 0)
(-0.0215069 -0.00343825 0)
(-0.0205094 -0.00352145 0)
(-0.01949 -0.00359012 0)
(-0.0184527 -0.00364362 0)
(-0.0174019 -0.0036813 0)
(-0.0163421 -0.00370258 0)
(-0.0152779 -0.00370692 0)
(-0.0142142 -0.00369382 0)
(-0.0131558 -0.00366284 0)
(-0.0121076 -0.00361364 0)
(-0.0110747 -0.00354592 0)
(-0.0100622 -0.0034595 0)
(-0.00907516 -0.0033543 0)
(-0.00811862 -0.00323037 0)
(-0.00719756 -0.00308791 0)
(-0.00631686 -0.0029273 0)
(-0.0054812 -0.00274912 0)
(-0.00469504 -0.0025542 0)
(-0.00396255 -0.00234369 0)
(-0.00328748 -0.0021191 0)
(-0.00267314 -0.0018824 0)
(-0.00212222 -0.00163614 0)
(-0.00163671 -0.00138356 0)
(-0.00121778 -0.0011288 0)
(-0.000865572 -0.000877117 0)
(-0.00057912 -0.000635154 0)
(-0.000356145 -0.000411298 0)
(-0.000192851 -0.000216114 0)
(-8.36844e-05 -6.27705e-05 0)
(-2.20291e-05 3.23444e-05 0)
(-1.11459e-06 4.7294e-05 0)
(-4.45898e-06 -2.96781e-05 0)
(-4.22168e-05 3.74942e-05 0)
(-0.000137995 0.000195085 0)
(-0.000294242 0.000415188 0)
(-0.000515219 0.000679638 0)
(-0.000805098 0.000974024 0)
(-0.00116647 0.00128652 0)
(-0.00160055 0.00160765 0)
(-0.00210739 0.0019298 0)
(-0.00268601 0.00224693 0)
(-0.00333457 0.00255427 0)
(-0.00405042 0.00284808 0)
(-0.00483029 0.00312546 0)
(-0.00567036 0.00338418 0)
(-0.00656635 0.00362258 0)
(-0.00751368 0.00383946 0)
(-0.00850746 0.00403396 0)
(-0.00954262 0.00420556 0)
(-0.0106139 0.00435395 0)
(-0.0117161 0.00447907 0)
(-0.0128438 0.00458099 0)
(-0.0139917 0.00465995 0)
(-0.0151545 0.00471628 0)
(-0.0163269 0.00475042 0)
(-0.0175037 0.00476289 0)
(-0.0186799 0.00475427 0)
(-0.0198505 0.00472519 0)
(-0.0210108 0.00467633 0)
(-0.022156 0.0046084 0)
(-0.0232818 0.00452214 0)
(-0.0243836 0.00441831 0)
(-0.0254575 0.00429769 0)
(-0.0264994 0.00416107 0)
(-0.0275055 0.00400924 0)
(-0.0284723 0.00384302 0)
(-0.0293963 0.00366322 0)
(-0.0302743 0.00347065 0)
(-0.0311032 0.00326613 0)
(-0.0318804 0.00305048 0)
(-0.0326031 0.00282452 0)
(-0.033269 0.00258906 0)
(-0.0338757 0.00234494 0)
(-0.0344214 0.00209298 0)
(-0.0349041 0.001834 0)
(-0.0353223 0.00156883 0)
(-0.0356745 0.00129831 0)
(-0.0359596 0.00102328 0)
(-0.0361766 0.000744587 0)
(-0.0363246 0.00046308 0)
(-0.0364031 0.000179622 0)
(-0.0364118 -0.000104917 0)
(-0.0363505 -0.000389658 0)
(-0.0362192 -0.000673707 0)
(-0.0360184 -0.000956163 0)
(-0.0357484 -0.00123611 0)
(-0.03541 -0.00151263 0)
(-0.0350042 -0.00178478 0)
(-0.0345322 -0.00205161 0)
(-0.0339954 -0.00231216 0)
(-0.0333955 -0.00256546 0)
(-0.0327344 -0.00281054 0)
(-0.0320142 -0.00304641 0)
(-0.0312374 -0.00327207 0)
(-0.0304064 -0.00348655 0)
(-0.0295242 -0.00368884 0)
(-0.0285938 -0.00387795 0)
(-0.0276186 -0.0040529 0)
(-0.0266021 -0.00421272 0)
(-0.0255482 -0.00435644 0)
(-0.0244607 -0.00448313 0)
(-0.0233439 -0.00459188 0)
(-0.0222023 -0.0046818 0)
(-0.0210404 -0.00475205 0)
(-0.0198631 -0.00480183 0)
(-0.0186753 -0.00483038 0)
(-0.0174821 -0.00483703 0)
(-0.0162889 -0.00482115 0)
(-0.0151009 -0.00478221 0)
(-0.0139237 -0.00471977 0)
(-0.0127628 -0.00463351 0)
(-0.0116238 -0.00452321 0)
(-0.0105122 -0.00438882 0)
(-0.00943356 -0.00423044 0)
(-0.0083933 -0.00404837 0)
(-0.00739674 -0.00384314 0)
(-0.00644899 -0.00361556 0)
(-0.0055549 -0.00336674 0)
(-0.00471898 -0.00309819 0)
(-0.00394536 -0.00281186 0)
(-0.00323763 -0.00251029 0)
(-0.00259879 -0.00219666 0)
(-0.00203113 -0.00187501 0)
(-0.00153611 -0.0015504 0)
(-0.00111423 -0.0012291 0)
(-0.000764919 -0.000918966 0)
(-0.000486447 -0.00062969 0)
(-0.000275688 -0.000373281 0)
(-0.000127935 -0.000164447 0)
(-3.83982e-05 -2.11801e-05 0)
(-3.83539e-06 3.29384e-05 0)
(-7.23342e-06 -4.72839e-06 0)
(-5.91775e-05 0.000118628 0)
(-0.000184216 0.000338425 0)
(-0.000381006 0.000625914 0)
(-0.000651741 0.000961737 0)
(-0.000999568 0.00133019 0)
(-0.00142623 0.00171827 0)
(-0.0019322 0.00211532 0)
(-0.00251699 0.00251272 0)
(-0.00317918 0.00290349 0)
(-0.0039165 0.00328205 0)
(-0.00472594 0.00364395 0)
(-0.0056039 0.00398571 0)
(-0.00654619 0.0043046 0)
(-0.00754822 0.00459857 0)
(-0.00860503 0.00486608 0)
(-0.00971137 0.00510605 0)
(-0.0108618 0.00531777 0)
(-0.0120506 0.00550084 0)
(-0.0132723 0.00565508 0)
(-0.0145209 0.00578057 0)
(-0.0157908 0.00587754 0)
(-0.0170761 0.00594638 0)
(-0.0183713 0.00598759 0)
(-0.0196707 0.00600179 0)
(-0.0209688 0.00598968 0)
(-0.0222602 0.00595201 0)
(-0.0235398 0.00588961 0)
(-0.0248024 0.00580335 0)
(-0.0260432 0.00569415 0)
(-0.0272574 0.00556293 0)
(-0.0284406 0.00541066 0)
(-0.0295883 0.00523833 0)
(-0.0306964 0.00504692 0)
(-0.0317611 0.00483744 0)
(-0.0327785 0.00461091 0)
(-0.0337452 0.00436834 0)
(-0.0346578 0.00411076 0)
(-0.0355133 0.0038392 0)
(-0.0363089 0.00355467 0)
(-0.0370417 0.00325822 0)
(-0.0377095 0.00295088 0)
(-0.03831 0.00263369 0)
(-0.0388413 0.00230768 0)
(-0.0393015 0.00197389 0)
(-0.0396891 0.00163339 0)
(-0.0400028 0.00128723 0)
(-0.0402415 0.000936465 0)
(-0.0404044 0.000582179 0)
(-0.0404908 0.000225454 0)
(-0.0405004 -0.000132616 0)
(-0.0404329 -0.000490922 0)
(-0.0402885 -0.000848343 0)
(-0.0400675 -0.00120375 0)
(-0.0397705 -0.00155598 0)
(-0.0393982 -0.00190388 0)
(-0.0389518 -0.00224628 0)
(-0.0384325 -0.00258198 0)
(-0.0378419 -0.00290977 0)
(-0.0371819 -0.00322844 0)
(-0.0364545 -0.00353677 0)
(-0.035662 -0.00383353 0)
(-0.0348071 -0.00411747 0)
(-0.0338926 -0.00438734 0)
(-0.0329217 -0.00464192 0)
(-0.0318977 -0.00487997 0)
(-0.0308242 -0.00510025 0)
(-0.0297051 -0.00530156 0)
(-0.0285445 -0.00548271 0)
(-0.0273469 -0.00564252 0)
(-0.0261167 -0.00577986 0)
(-0.0248588 -0.00589366 0)
(-0.0235783 -0.00598285 0)
(-0.0222803 -0.00604646 0)
(-0.0209703 -0.00608357 0)
(-0.0196538 -0.00609335 0)
(-0.0183365 -0.00607504 0)
(-0.0170244 -0.00602802 0)
(-0.0157232 -0.00595176 0)
(-0.014439 -0.00584588 0)
(-0.0131778 -0.00571017 0)
(-0.0119456 -0.00554459 0)
(-0.0107483 -0.00534931 0)
(-0.00959196 -0.00512476 0)
(-0.00848213 -0.00487165 0)
(-0.00742435 -0.004591 0)
(-0.00642384 -0.00428424 0)
(-0.0054855 -0.00395326 0)
(-0.00461377 -0.00360048 0)
(-0.0038126 -0.00322899 0)
(-0.00308532 -0.00284265 0)
(-0.00243457 -0.00244624 0)
(-0.00186221 -0.0020457 0)
(-0.00136916 -0.0016483 0)
(-0.000955401 -0.00126295 0)
(-0.000619874 -0.000900507 0)
(-0.00036027 -0.000574204 0)
(-0.000172873 -0.000299978 0)
(-5.4837e-05 -9.69998e-05 0)
(-6.49932e-06 1.01158e-05 0)
(-9.88744e-06 2.88398e-05 0)
(-7.58369e-05 0.000222767 0)
(-0.000230141 0.000516872 0)
(-0.000467761 0.000882074 0)
(-0.000788829 0.00129817 0)
(-0.00119536 0.00174853 0)
(-0.00168813 0.00221915 0)
(-0.00226682 0.00269841 0)
(-0.00293027 0.00317678 0)
(-0.0036765 0.00364644 0)
(-0.00450278 0.00410105 0)
(-0.00540569 0.0045355 0)
(-0.00638121 0.00494572 0)
(-0.00742482 0.00532852 0)
(-0.00853154 0.00568144 0)
(-0.00969606 0.00600262 0)
(-0.0109128 0.00629072 0)
(-0.0121758 0.00654486 0)
(-0.0134793 0.00676448 0)
(-0.0148171 0.00694935 0)
(-0.016183 0.00709951 0)
(-0.0175709 0.00721519 0)
(-0.0189746 0.00729682 0)
(-0.0203882 0.00734498 0)
(-0.0218055 0.00736038 0)
(-0.0232207 0.00734382 0)
(-0.0246281 0.00729621 0)
(-0.026022 0.00721853 0)
(-0.027397 0.00711182 0)
(-0.0287479 0.00697716 0)
(-0.0300695 0.00681568 0)
(-0.0313569 0.00662854 0)
(-0.0326056 0.00641693 0)
(-0.033811 0.00618204 0)
(-0.034969 0.0059251 0)
(-0.0360754 0.00564734 0)
(-0.0371265 0.00534999 0)
(-0.0381188 0.0050343 0)
(-0.0390489 0.00470153 0)
(-0.0399137 0.00435292 0)
(-0.0407103 0.00398974 0)
(-0.0414362 0.00361326 0)
(-0.0420889 0.00322473 0)
(-0.0426662 0.00282543 0)
(-0.0431664 0.00241664 0)
(-0.0435877 0.00199964 0)
(-0.0439286 0.00157572 0)
(-0.0441881 0.0011462 0)
(-0.0443652 0.000712383 0)
(-0.0444592 0.000275596 0)
(-0.0444697 -0.00016282 0)
(-0.0443966 -0.000601511 0)
(-0.0442398 -0.0010391 0)
(-0.0439999 -0.00147421 0)
(-0.0436773 -0.00190543 0)
(-0.043273 -0.00233134 0)
(-0.0427881 -0.00275051 0)
(-0.042224 -0.00316147 0)
(-0.0415825 -0.00356277 0)
(-0.0408654 -0.00395291 0)
(-0.0400751 -0.00433041 0)
(-0.0392141 -0.00469376 0)
(-0.0382851 -0.00504145 0)
(-0.0372913 -0.00537197 0)
(-0.036236 -0.00568382 0)
(-0.0351229 -0.00597549 0)
(-0.0339558 -0.0062455 0)
(-0.0327389 -0.00649237 0)
(-0.0314767 -0.00671467 0)
(-0.0301739 -0.00691098 0)
(-0.0288353 -0.00707993 0)
(-0.0274663 -0.00722022 0)
(-0.0260721 -0.00733058 0)
(-0.0246585 -0.00740985 0)
(-0.0232311 -0.00745692 0)
(-0.021796 -0.0074708 0)
(-0.0203593 -0.00745061 0)
(-0.0189272 -0.00739561 0)
(-0.0175061 -0.00730519 0)
(-0.0161025 -0.00717894 0)
(-0.0147226 -0.00701663 0)
(-0.013373 -0.00681825 0)
(-0.0120601 -0.00658406 0)
(-0.01079 -0.00631461 0)
(-0.00956891 -0.00601078 0)
(-0.0084027 -0.00567387 0)
(-0.00729696 -0.00530561 0)
(-0.00625694 -0.00490828 0)
(-0.00528746 -0.00448478 0)
(-0.00439283 -0.00403875 0)
(-0.00357677 -0.00357469 0)
(-0.00284233 -0.00309813 0)
(-0.00219181 -0.00261581 0)
(-0.00162669 -0.0021359 0)
(-0.00114757 -0.00166827 0)
(-0.000754165 -0.00122479 0)
(-0.000445084 -0.000819682 0)
(-0.000217674 -0.000469834 0)
(-7.10587e-05 -0.000195237 0)
(-9.07009e-06 -2.10788e-05 0)
(-1.24196e-05 7.07919e-05 0)
(-9.20695e-05 0.000349648 0)
(-0.000275297 0.000730345 0)
(-0.000553587 0.00118379 0)
(-0.000925024 0.0016893 0)
(-0.00139046 0.00222953 0)
(-0.00194967 0.00278972 0)
(-0.00260143 0.00335745 0)
(-0.00334385 0.0039224 0)
(-0.00417434 0.00447601 0)
(-0.00508962 0.00501125 0)
(-0.00608581 0.0055224 0)
(-0.00715845 0.00600485 0)
(-0.00830261 0.00645494 0)
(-0.00951295 0.00686982 0)
(-0.0107838 0.00724732 0)
(-0.0121091 0.00758585 0)
(-0.0134828 0.00788433 0)
(-0.0148984 0.00814207 0)
(-0.0163496 0.00835876 0)
(-0.0178298 0.0085344 0)
(-0.0193326 0.00866923 0)
(-0.0208513 0.0087637 0)
(-0.0223795 0.00881848 0)
(-0.023911 0.00883437 0)
(-0.0254394 0.00881229 0)
(-0.0269586 0.0087533 0)
(-0.0284627 0.00865854 0)
(-0.0299459 0.00852921 0)
(-0.0314025 0.00836659 0)
(-0.0328272 0.008172 0)
(-0.0342148 0.00794682 0)
(-0.0355603 0.00769244 0)
(-0.036859 0.00741029 0)
(-0.0381063 0.00710182 0)
(-0.0392979 0.00676848 0)
(-0.0404298 0.00641175 0)
(-0.0414983 0.00603312 0)
(-0.0424996 0.00563407 0)
(-0.0434306 0.0052161 0)
(-0.0442882 0.00478072 0)
(-0.0450696 0.00432944 0)
(-0.0457721 0.00386376 0)
(-0.0463936 0.00338522 0)
(-0.046932 0.00289533 0)
(-0.0473855 0.00239564 0)
(-0.0477526 0.00188769 0)
(-0.048032 0.00137305 0)
(-0.0482228 0.000853279 0)
(-0.0483242 0.000329973 0)
(-0.0483358 -0.000195268 0)
(-0.0482573 -0.000720823 0)
(-0.048089 -0.00124505 0)
(-0.0478311 -0.0017663 0)
(-0.0474844 -0.00228288 0)
(-0.0470497 -0.0027931 0)
(-0.0465282 -0.00329525 0)
(-0.0459216 -0.00378758 0)
(-0.0452316 -0.00426835 0)
(-0.0444603 -0.00473579 0)
(-0.0436102 -0.00518811 0)