/*--------------------------------*- C++ -*----------------------------------*\
| =========                 |                                                 |
| \\      /  F ield         | OpenFOAM: The Open Source CFD Toolbox           |
|  \\    /   O peration     | Version:  2212                                  |
|   \\  /    A nd           | Website:  www.openfoam.com                      |
|    \\/     M anipulation  |                                                 |
\*---------------------------------------------------------------------------*/
FoamFile
{
    version     2.0;
    format      ascii;
    arch        "LSB;label=32;scalar=64";
    class       volScalarField;
    location    "0.0435";
    object      p;
}
// * * * * * * * * * * * * * * * * * * * * * * * * * * * * * * * * * * * * * //

dimensions      [0 2 -2 0 0 0 0];

internalField   nonuniform List<scalar> 
10000
(
1.7405e-07
9.99295e-06
-0.000287465
-0.000890753
-0.00174163
-0.00279613
-0.00400678
-0.00532797
-0.00671829
-0.00814094
-0.00956367
-0.0109584
-0.0123008
-0.0135693
-0.0147457
-0.0158145
-0.0167622
-0.0175778
-0.0182516
-0.0187759
-0.0191443
-0.0193518
-0.0193947
-0.0192705
-0.0189776
-0.0185158
-0.0178853
-0.0170875
-0.0161243
-0.0149985
-0.0137135
-0.0122734
-0.0106829
-0.00894683
-0.00707082
-0.00506079
-0.00292312
-0.0006646
0.00170758
0.00418597
0.00676281
0.00943003
0.0121793
0.0150021
0.0178899
0.0208335
0.0238238
0.0268513
0.0299068
0.0329807
0.0360635
0.0391453
0.0422161
0.0452662
0.0482858
0.0512651
0.0541944
0.0570638
0.0598638
0.062585
0.0652184
0.0677548
0.0701854
0.0725015
0.0746951
0.0767584
0.0786843
0.0804658
0.0820966
0.0835707
0.0848827
0.0860282
0.0870035
0.0878058
0.0884332
0.0888844
0.0891593
0.0892586
0.0891843
0.0889398
0.0885298
0.0879606
0.0872396
0.0863763
0.0853814
0.0842678
0.0830503
0.0817463
0.0803757
0.0789613
0.077529
0.0761084
0.0747332
0.0734412
0.0722752
0.0712821
0.0705104
0.0700083
0.0698175
0.0698996
-0.000131018
-0.000117225
-0.000386455
-0.000914024
-0.00164871
-0.00255589
-0.0035999
-0.00474424
-0.00595433
-0.00719836
-0.00844761
-0.0096766
-0.0108627
-0.011986
-0.0130288
-0.0139761
-0.0148148
-0.0155339
-0.0161239
-0.016577
-0.0168867
-0.0170478
-0.0170563
-0.0169094
-0.0166054
-0.0161434
-0.0155236
-0.0147467
-0.0138144
-0.0127291
-0.0114938
-0.0101122
-0.00858837
-0.00692694
-0.00513306
-0.00321229
-0.00117052
0.000985847
0.00324999
0.00561492
0.00807336
0.0106177
0.0132399
0.015932
0.0186856
0.0214924
0.0243433
0.0272296
0.0301423
0.0330725
0.0360109
0.038948
0.0418746
0.0447813
0.0476589
0.0504979
0.0532891
0.0560233
0.0586913
0.0612844
0.063794
0.0662114
0.0685283
0.0707366
0.0728287
0.0747976
0.0766365
0.078339
0.0798992
0.0813115
0.0825713
0.0836745
0.0846179
0.0853991
0.0860167
0.0864696
0.0867581
0.0868833
0.0868473
0.0866539
0.0863078
0.0858155
0.0851845
0.0844239
0.0835446
0.0825587
0.0814809
0.0803275
0.0791174
0.0778721
0.0766154
0.0753742
0.0741781
0.0730599
0.072055
0.0712006
0.0705324
0.0700841
0.0698992
0.0699817
-9.78932e-06
1.32433e-05
-0.000233323
-0.000715127
-0.00137894
-0.0021937
-0.00312924
-0.0041545
-0.00523975
-0.00635716
-0.00748105
-0.00858821
-0.00965786
-0.0106715
-0.0116126
-0.0124666
-0.0132211
-0.0138651
-0.0143895
-0.0147867
-0.01505
-0.0151742
-0.0151554
-0.0149904
-0.0146773
-0.0142152
-0.0136037
-0.0128436
-0.0119362
-0.0108835
-0.00968827
-0.0083539
-0.00688414
-0.00528328
-0.00355611
-0.00170784
0.000255942
0.00232916
0.00450535
0.00677787
0.00913978
0.0115838
0.0141024
0.0166877
0.019332
0.0220271
0.0247644
0.0275355
0.0303317
0.0331446
0.0359652
0.0387847
0.0415938
0.0443838
0.0471457
0.0498707
0.0525496
0.0551739
0.0577349
0.0602242
0.0626334
0.0649544
0.0671793
0.0693005
0.0713108
0.0732036
0.0749724
0.0766113
0.0781147
0.0794775
0.0806954
0.0817646
0.0826825
0.083447
0.0840566
0.0845108
0.08481
0.0849554
0.0849495
0.084796
0.0844999
0.0840675
0.0835062
0.0828249
0.0820341
0.0811456
0.0801732
0.0791326
0.0780415
0.0769197
0.0757893
0.0746745
0.0736016
0.0725993
0.0716976
0.0709276
0.0703184
0.0698981
0.0697138
0.0697922
0.000430723
0.000411735
0.000151213
-0.000318137
-0.000949078
-0.00171292
-0.00258279
-0.00353132
-0.00453234
-0.00556129
-0.00659521
-0.00761296
-0.00859549
-0.00952571
-0.0103883
-0.0111695
-0.0118576
-0.0124422
-0.0129143
-0.0132664
-0.0134922
-0.0135866
-0.0135454
-0.0133658
-0.0130454
-0.0125833
-0.011979
-0.011233
-0.0103464
-0.00932115
-0.00815973
-0.0068652
-0.00544103
-0.00389127
-0.00222051
-0.000433641
0.00146403
0.00346675
0.00556835
0.00776246
0.0100424
0.0124013
0.0148318
0.0173265
0.0198779
0.022478
0.0251188
0.027792
0.0304894
0.0332027
0.0359235
0.038643
0.0413527
0.0440438
0.0467077
0.0493361
0.0519202
0.0544518
0.0569224
0.0593241
0.0616488
0.0638886
0.0660362
0.0680843
0.0700259
0.0718548
0.073565
0.0751506
0.0766065
0.0779279
0.0791108
0.0801518
0.0810484
0.0817986
0.0824014
0.0828563
0.0831638
0.0833254
0.0833435
0.0832219
0.0829656
0.0825807
0.0820744
0.0814553
0.0807334
0.07992
0.0790281
0.0780725
0.0770697
0.076038
0.0749976
0.0739703
0.0729796
0.0720505
0.0712094
0.0704831
0.0698971
0.0694768
0.0692656
0.0692928
0.00115661
0.00103873
0.00072614
0.000240258
-0.000384962
-0.00112428
-0.00195394
-0.00285011
-0.0037899
-0.00475165
-0.00571507
-0.0066612
-0.00757265
-0.00843372
-0.00923033
-0.00994981
-0.010581
-0.0111142
-0.0115409
-0.0118538
-0.0120468
-0.0121149
-0.0120542
-0.0118616
-0.0115351
-0.0110734
-0.0104759
-0.00974306
-0.00887586
-0.00787602
-0.00674585
-0.00548812
-0.0041061
-0.00260362
-0.000985029
0.000744999
0.00258144
0.00451882
0.00655126
0.00867266
0.0108766
0.0131565
0.0155052
0.0179158
0.020381
0.0228931
0.0254443
0.0280267
0.0306324
0.0332534
0.0358817
0.0385087
0.0411262
0.0437257
0.0462991
0.0488382
0.0513348
0.0537808
0.0561681
0.0584889
0.0607357
0.0629009
0.0649773
0.0669582
0.0688368
0.0706072
0.0722634
0.0738002
0.0752126
0.076496
0.0776468
0.0786619
0.0795388
0.0802758
0.0808719
0.0813269
0.0816414
0.0818168
0.0818557
0.0817617
0.0815398
0.0811958
0.0807368
0.0801708
0.0795073
0.078757
0.0779321
0.0770464
0.0761152
0.0751551
0.0741845
0.0732228
0.072291
0.071411
0.0706056
0.0698979
0.0693103
0.0688656
0.0685966
0.0685242
0.00211255
0.00185889
0.00146493
0.000937535
0.000293774
-0.000444623
-0.00125682
-0.00212257
-0.00302204
-0.0039362
-0.00484719
-0.00573821
-0.00659369
-0.0073993
-0.00814217
-0.00881064
-0.00939438
-0.0098843
-0.0102725
-0.0105519
-0.0107169
-0.0107626
-0.0106852
-0.0104818
-0.0101503
-0.00968935
-0.00909849
-0.00837798
-0.00752873
-0.00655229
-0.00545078
-0.00422682
-0.00288346
-0.00142437
0.000146326
0.00182418
0.00360444
0.00548184
0.00745076
0.00950534
0.0116394
0.0138466
0.0161203
0.0184536
0.0208396
0.0232707
0.0257396
0.0282385
0.0307599
0.0332963
0.0358397
0.0383819
0.0409148
0.0434304
0.0459208
0.0483782
0.0507947
0.0531625
0.0554736
0.0577207
0.0598963
0.0619935
0.0640052
0.0659249
0.0677463
0.0694634
0.0710707
0.072563
0.0739358
0.0751848
0.0763065
0.0772978
0.0781566
0.0788813
0.079471
0.0799255
0.0802454
0.0804323
0.0804886
0.0804179
0.080225
0.0799154
0.0794958
0.078974
0.0783586
0.0776599
0.0768891
0.0760589
0.0751833
0.0742776
0.073358
0.0724422
0.0715483
0.0706956
0.0699038
0.0691925
0.0685815
0.0680907
0.067738
0.0675316
0.00324883
0.00283621
0.00233952
0.00175019
0.00106712
0.000308894
-0.000506247
-0.00136141
-0.00223961
-0.0031244
-0.00400006
-0.00485173
-0.00566565
-0.00642899
-0.00712996
-0.007758
-0.00830368
-0.00875852
-0.00911509
-0.00936699
-0.00950878
-0.00953595
-0.00944488
-0.00923274
-0.00889753
-0.00843795
-0.00785353
-0.00714453
-0.00631177
-0.00535666
-0.00428117
-0.00308779
-0.00177947
-0.000359717
0.00116756
0.00279815
0.0045275
0.00635058
0.00826189
0.0102558
0.0123265
0.0144678
0.0166734
0.0189367
0.0212507
0.0236085
0.0260026
0.0284259
0.0308711
0.0333308
0.0357973
0.0382627
0.040719
0.0431588
0.0455743
0.047958
0.0503023
0.0525995
0.054842
0.0570227
0.0591344
0.0611704
0.0631241
0.0649889
0.0667589
0.0684282
0.0699916
0.0714443
0.0727816
0.0739998
0.0750952
0.0760652
0.0769076
0.0776209
0.0782043
0.0786575
0.0789814
0.0791773
0.0792477
0.079196
0.0790266
0.0787448
0.078357
0.0778703
0.077293
0.0766345
0.0759051
0.0751165
0.0742815
0.0734137
0.0725278
0.0716393
0.0707643
0.0699193
0.0691213
0.0683869
0.0677334
0.0671781
0.0667224
0.0663598
0.00452017
0.00393489
0.00332058
0.00265356
0.00191453
0.00111924
0.000283887
-0.000577567
-0.001451
-0.00232218
-0.0031775
-0.00400397
-0.00478934
-0.00552223
-0.00619215
-0.00678954
-0.00730576
-0.00773305
-0.00806459
-0.00829448
-0.0084177
-0.00843005
-0.00832814
-0.00810931
-0.00777164
-0.00731398
-0.0067359
-0.00603766
-0.00522002
-0.00428427
-0.00323233
-0.00206658
-0.000789886
0.000594403
0.00208258
0.00367061
0.00535409
0.00712815
0.0089875
0.0109267
0.0129403
0.0150223
0.0171665
0.0193666
0.0216158
0.0239073
0.0262342
0.0285895
0.030966
0.0333567
0.035754
0.0381502
0.0405378
0.0429094
0.0452578
0.0475754
0.049855
0.052089
0.0542701
0.0563914
0.0584461
0.0604276
0.0623294
0.0641454
0.0658696
0.0674965
0.0690209
0.0704382
0.0717441
0.0729348
0.0740069
0.0749577
0.0757852
0.076488
0.0770651
0.0775167
0.0778431
0.0780458
0.078127
0.0780901
0.0779391
0.0776791
0.0773159
0.0768562
0.0763077
0.0756789
0.0749795
0.07422
0.0734119
0.0725675
0.0716999
0.0708226
0.0699498
0.0690959
0.068275
0.067501
0.0667895
0.0661553
0.0655826
0.0650507
0.00588695
0.00512193
0.00438021
0.0036238
0.00281582
0.00196959
0.0010997
0.000217638
-0.000665055
-0.00153632
-0.00238439
-0.003198
-0.00396642
-0.00467958
-0.00532822
-0.00590377
-0.00639838
-0.00680505
-0.0071176
-0.00733066
-0.00743962
-0.00744064
-0.00733054
-0.0071069
-0.00676801
-0.00631283
-0.00574102
-0.00505282
-0.00424896
-0.00333074
-0.00230001
-0.00115914
8.91773e-05
0.00144172
0.00289492
0.00444487
0.00608727
0.00781739
0.00963021
0.0115205
0.013483
0.0155119
0.0176012
0.0197446
0.0219357
0.024168
0.0264348
0.0287293
0.0310445
0.0333735
0.035709
0.0380436
0.0403699
0.0426809
0.0449695
0.0472284
0.0494504
0.0516283
0.0537549
0.0558236
0.0578278
0.0597611
0.0616172
0.0633901
0.0650739
0.0666633
0.0681534
0.0695396
0.0708177
0.0719842
0.0730356
0.0739694
0.0747835
0.0754766
0.0760478
0.076497
0.0768247
0.0770321
0.0771213
0.0770953
0.0769581
0.0767142
0.0763691
0.0759289
0.0754007
0.0747924
0.0741125
0.0733708
0.0725775
0.0717437
0.0708808
0.0700008
0.0691161
0.0682389
0.0673812
0.0665544
0.0657725
0.0650484
0.0643496
0.0636413
0.00731526
0.00636792
0.00549281
0.00463852
0.0037516
0.00284354
0.00192745
0.00101264
0.000108718
-0.000774375
-0.00162661
-0.00243822
-0.00319993
-0.00390299
-0.00453915
-0.00510082
-0.00558099
-0.00597341
-0.00627253
-0.00647354
-0.00657222
-0.0065651
-0.00644929
-0.00622264
-0.00588367
-0.00543151
-0.00486585
-0.00418696
-0.00339563
-0.00249318
-0.00148146
-0.00036274
0.000860359
0.00218475
0.00360692
0.00512306
0.00672899
0.00842016
0.0101917
0.0120387
0.0139559
0.0159377
0.0179783
0.0200714
0.0222112
0.0243911
0.0266047
0.0288454
0.0311064
0.0333808
0.0356617
0.0379419
0.0402142
0.0424718
0.0447078
0.046915
0.0490865
0.0512151
0.053294
0.0553166
0.0572766
0.0591678
0.0609841
0.0627193
0.064368
0.0659249
0.0673851
0.0687442
0.0699984
0.0711437
0.0721771
0.073096
0.0738983
0.0745826
0.0751481
0.0755945
0.0759223
0.0761324
0.0762269
0.0762085
0.0760807
0.0758478
0.0755148
0.0750873
0.0745718
0.0739753
0.0733058
0.0725718
0.0717825
0.0709478
0.0700779
0.0691833
0.0682745
0.0673621
0.066456
0.0655656
0.0647037
0.0638817
0.0630509
0.0621636
0.00877645
0.00764702
0.0066353
0.00567722
0.00470381
0.00372526
0.00275359
0.00179615
0.000860754
-4.42747e-05
-0.000910519
-0.00172967
-0.00249376
-0.00319519
-0.00382673
-0.00438168
-0.0048539
-0.00523787
-0.00552866
-0.00572195
-0.00581398
-0.00580163
-0.0056824
-0.00545441
-0.00511642
-0.00466765
-0.00410795
-0.00343767
-0.00265768
-0.00176931
-0.000774416
0.000324809
0.00152578
0.00282546
0.00422043
0.0057069
0.00728085
0.0089379
0.0106734
0.0124825
0.01436
0.0163006
0.0182984
0.0203476
0.0224424
0.0245766
0.0267438
0.0289375
0.0311511
0.0333779
0.0356113
0.0378441
0.0400695
0.0422808
0.0444711
0.0466335
0.0487612
0.0508472
0.0528849
0.0548679
0.0567899
0.058645
0.060427
0.06213
0.0637486
0.0652777
0.0667124
0.0680486
0.0692822
0.0704096
0.0714276
0.0723336
0.0731256
0.0738021
0.0743622
0.0748056
0.0751325
0.0753438
0.0754412
0.0754272
0.075305
0.0750785
0.0747522
0.0743312
0.0738214
0.0732291
0.0725615
0.0718263
0.0710316
0.0701862
0.069299
0.0683793
0.0674361
0.0664784
0.0655145
0.0645519
0.0636026
0.062677
0.0617111
0.0606448
0.0102461
0.00893657
0.00778695
0.00672119
0.00565568
0.00459987
0.00356504
0.00255687
0.00158151
0.000645944
-0.000242808
-0.0010778
-0.00185223
-0.0025595
-0.00319336
-0.00374802
-0.00421814
-0.00459888
-0.00488591
-0.00507537
-0.00516401
-0.00514911
-0.00502854
-0.00480071
-0.00446455
-0.00401949
-0.00346552
-0.00280313
-0.00203326
-0.0011573
-0.000177063
0.000905258
0.00208711
0.00336543
0.00473686
0.00619772
0.0077441
0.00937177
0.0110762
0.0128526
0.0146959
0.0166009
0.0185619
0.0205734
0.0226296
0.0247244
0.0268517
0.029005
0.031178
0.0333641
0.0355567
0.0377491
0.0399345
0.0421062
0.0442577
0.046382
0.0484726
0.0505225
0.0525254
0.0544749
0.056365
0.0581897
0.059943
0.0616191
0.0632126
0.0647185
0.0661322
0.0674493
0.0686659
0.0697785
0.0707837
0.071679
0.0724623
0.073132
0.0736872
0.0741273
0.0744525
0.0746635
0.0747618
0.0747496
0.0746296
0.0744053
0.0740808
0.0736608
0.0731505
0.0725557
0.0718826
0.0711382
0.0703298
0.069465
0.0685517
0.067598
0.0666117
0.0656004
0.0645709
0.0635293
0.0624872
0.0614541
0.0603517
0.0591081
0.0117036
0.0102167
0.00892921
0.00775342
0.00659181
0.00545353
0.00434944
0.00328382
0.0022615
0.00128814
0.00036955
-0.000488451
-0.00128008
-0.00199974
-0.00264208
-0.00320216
-0.00367539
-0.00405754
-0.00434485
-0.00453399
-0.00462217
-0.00460713
-0.00448706
-0.00426064
-0.00392703
-0.00348587
-0.00293734
-0.00228207
-0.00152109
-0.000655812
0.000311925
0.0013799
0.00254553
0.00380578
0.00515731
0.00659655
0.00811968
0.00972259
0.0114008
0.0131496
0.0149641
0.0168391
0.0187692
0.0207489
0.0227726
0.0248343
0.0269281
0.0290475
0.0311864
0.0333385
0.0354971
0.0376557
0.0398078
0.0419467
0.0440659
0.0461588
0.0482186
0.0502389
0.0522132
0.0541354
0.0559994
0.0577994
0.0595295
0.0611839
0.0627572
0.0642445
0.0656413
0.0669433
0.0681465
0.0692473
0.0702424
0.0711292
0.0719054
0.0725695
0.0731204
0.0735573
0.0738804
0.07409
0.0741874
0.0741745
0.0740536
0.0738279
0.073501
0.0730771
0.0725609
0.0719574
0.0712724
0.0705119
0.0696824
0.0687908
0.0678438
0.0668486
0.0658118
0.06474
0.0636387
0.0625128
0.0613737
0.0602305
0.0589914
0.0575731
0.0131313
0.0114703
0.0100455
0.00875839
0.00749792
0.00627318
0.00509502
0.00396653
0.00289135
0.00187404
0.000919414
3.23003e-05
-0.00078247
-0.00152022
-0.00217647
-0.00274699
-0.00322789
-0.00361554
-0.00390669
-0.00409861
-0.00418897
-0.00417588
-0.00405787
-0.00383389
-0.00350337
-0.00306621
-0.00252275
-0.00187375
-0.00112033
-0.000263978
0.000693407
0.00174955
0.00290184
0.00414725
0.00548248
0.00690403
0.00840819
0.00999088
0.0116477
0.0133739
0.0151648
0.0170153
0.0189201
0.0208739
0.0228711
0.024906
0.0269724
0.0290644
0.0311757
0.0333001
0.0354313
0.0375628
0.0396881
0.0418007
0.0438942
0.0459619
0.0479975
0.0499943
0.0519462
0.053847
0.0556909
0.0574718
0.059184
0.0608217
0.0623798
0.0638532
0.0652373
0.0665281
0.0677214
0.0688136
0.0698013
0.0706818
0.0714528
0.0721126
0.0726598
0.0730939
0.0734145
0.0736219
0.073717
0.0737013
0.073577
0.0733467
0.0730136
0.0725815
0.0720546
0.0714373
0.0707346
0.069952
0.0690952
0.0681702
0.0671831
0.0661399
0.0650464
0.0639083
0.0627302
0.0615159
0.0602767
0.0590218
0.0576463
0.0560565
0.014514
0.0126822
0.0111212
0.00972198
0.00836079
0.00704664
0.00579059
0.00459479
0.00346187
0.00239549
0.0013996
0.00047815
-0.000364904
-0.00112571
-0.00180056
-0.0023859
-0.00287841
-0.00327508
-0.00357324
-0.00377067
-0.00386546
-0.00385611
-0.00374143
-0.0035207
-0.00319367
-0.00276045
-0.00222154
-0.00157784
-0.000830597
1.86182e-05
0.000967827
0.00201468
0.0031565
0.00439029
0.00571281
0.00712061
0.00860997
0.0101768
0.0118169
0.0135255
0.015298
0.0171294
0.0190145
0.0209482
0.0229248
0.0249388
0.0269841
0.0290548
0.0311448
0.0332481
0.0353583
0.0374691
0.0395741
0.0416668
0.0437409
0.04579
0.0478075
0.0497871
0.0517226
0.0536079
0.0554372
0.0572046
0.0589043
0.0605305
0.0620781
0.0635421
0.064918
0.0662014
0.0673884
0.0684752
0.0694583
0.0703349
0.0711026
0.0717594
0.0723041
0.0727357
0.0730538
0.0732583
0.07335
0.0733299
0.0731999
0.0729623
0.0726199
0.072176
0.0716341
0.0709984
0.0702732
0.0694633
0.0685737
0.0676098
0.0665769
0.0654803
0.064325
0.063116
0.0618568
0.0605508
0.0592093
0.0578417
0.0563306
0.0545724
0.0158383
0.0138391
0.012143
0.0106314
0.00916817
0.00776245
0.00642546
0.00515875
0.0039641
0.00284441
0.00180286
0.000842622
-3.31324e-05
-0.000821269
-0.00151875
-0.00212261
-0.00263015
-0.00303892
-0.00334684
-0.0035521
-0.00365321
-0.003649
-0.00353869
-0.00332186
-0.0029985
-0.00256895
-0.00203393
-0.00139446
-0.000651894
0.00019205
0.00113527
0.00217536
0.00330963
0.00453507
0.00584847
0.00724636
0.00872507
0.0102806
0.0119085
0.0136044
0.0153636
0.0171812
0.0190522
0.0209714
0.0229333
0.0249323
0.0269625
0.0290181
0.0310931
0.0331814
0.035277
0.0373734
0.0394645
0.0415437
0.0436047
0.0456413
0.0476469
0.0496154
0.0515405
0.0534162
0.0552367
0.0569961
0.0586885
0.0603083
0.0618503
0.0633095
0.0646813
0.0659614
0.0671457
0.0682303
0.0692117
0.0700868
0.0708532
0.0715088
0.0720521
0.0724819
0.0727976
0.0729991
0.0730864
0.0730607
0.0729233
0.0726761
0.0723217
0.0718627
0.0713024
0.0706443
0.0698923
0.0690506
0.0681236
0.067116
0.0660326
0.064878
0.0636565
0.0623725
0.0610289
0.0596285
0.058183
0.056702
0.0550564
0.0531327
0.0170923
0.0149287
0.0130991
0.0114751
0.00990884
0.0084098
0.00698953
0.00564897
0.00438931
0.0032128
0.00212189
0.00111908
0.000206883
-0.000612203
-0.0013357
-0.00196126
-0.00248674
-0.00291029
-0.00323024
-0.00344524
-0.00355418
-0.00355629
-0.0034511
-0.00323853
-0.00291883
-0.00249255
-0.00196056
-0.00132407
-0.000584617
0.000255952
0.00119545
0.00223141
0.00336108
0.00458146
0.00588931
0.00728118
0.00875336
0.0103018
0.0119223
0.0136103
0.0153613
0.0171704
0.0190327
0.0209429
0.0228958
0.0248857
0.0269068
0.0289534
0.0310194
0.0330991
0.0351863
0.0372747
0.039358
0.0414299
0.0434842
0.0455144
0.0475143
0.0494776
0.0513983
0.0532702
0.0550875
0.0568443
0.0585348
0.0601533
0.0616946
0.0631535
0.0645256
0.0658064
0.0669917
0.0680774
0.0690601
0.0699364
0.0707037
0.0713598
0.071903
0.0723319
0.0726458
0.072844
0.0729267
0.0728943
0.0727481
0.0724896
0.0721208
0.0716441
0.0710624
0.0703786
0.0695961
0.0687187
0.0677503
0.066695
0.0655571
0.0643404
0.0630491
0.0616868
0.0602561
0.0587591
0.0572082
0.0556135
0.0538343
0.0517479
0.0182654
0.0159403
0.0139784
0.0122422
0.0105723
0.00897852
0.00747309
0.00605638
0.00472903
0.00349274
0.00234937
0.00130081
0.000349035
-0.000503993
-0.00125637
-0.00190632
-0.00245223
-0.00289272
-0.00322659
-0.00345286
-0.00357081
-0.00358007
-0.00348052
-0.00327237
-0.00295606
-0.00253238
-0.00200243
-0.00136759
-0.000629566
0.000209659
0.0011478
0.0021823
0.00331039
0.00452903
0.00583496
0.00722466
0.00869441
0.0102402
0.0118578
0.0135428
0.0152906
0.0170964
0.0189553
0.0208622
0.0228117
0.0247983
0.0268162
0.0288597
0.030923
0.0330001
0.035085
0.0371715
0.0392534
0.0413242
0.0433778
0.0454079
0.0474081
0.0493724
0.0512944
0.0531684
0.0549881
0.0567479
0.0584417
0.060064
0.0616094
0.0630728
0.0644495
0.0657351
0.066925
0.0680154
0.0690024
0.0698826
0.0706532
0.0713118
0.0718564
0.0722857
0.0725984
0.0727937
0.0728715
0.0728319
0.0726759
0.0724046
0.0720196
0.0715231
0.0709174
0.0702051
0.0693891
0.0684727
0.0674595
0.066353
0.065157
0.063875
0.0625107
0.0610673
0.059547
0.0579518
0.0562944
0.0545856
0.0526737
0.0504267
0.0193481
0.0168638
0.0147709
0.0129226
0.0111485
0.00945911
0.007867
0.00637224
0.00497496
0.00367641
0.00247798
0.00138108
0.00038715
-0.000502343
-0.00128599
-0.00196256
-0.00253094
-0.00299015
-0.00333937
-0.00357807
-0.00370594
-0.00372294
-0.00362926
-0.00342536
-0.00311196
-0.00269007
-0.00216099
-0.00152631
-0.000787904
5.20984e-05
0.000991318
0.00202715
0.00315676
0.00437704
0.00568466
0.00707606
0.00854749
0.010095
0.0117143
0.013401
0.0151507
0.0169584
0.0188193
0.0207283
0.02268
0.024669
0.0266895
0.0287359
0.0308024
0.0328831
0.0349719
0.0370627
0.0391492
0.0412251
0.0432842
0.0453202
0.0473269
0.049298
0.0512275
0.0531091
0.054937
0.0567052
0.0584077
0.060039
0.0615934
0.063066
0.0644518
0.0657462
0.0669449
0.0680434
0.0690379
0.0699249
0.0707013
0.0713646
0.0719126
0.0723435
0.072656
0.0728491
0.0729221
0.0728752
0.0727087
0.0724236
0.0720211
0.071503
0.0708712
0.070128
0.0692759
0.0683178
0.0672568
0.0660961
0.0648391
0.0634889
0.0620489
0.060522
0.0589102
0.0572151
0.0554502
0.053627
0.0515831
0.0491773
0.0203319
0.0176902
0.0154672
0.013507
0.0116284
0.00984247
0.00816245
0.00658802
0.00511896
0.00375614
0.00250052
0.00135309
0.000314903
-0.000613095
-0.00143003
-0.00213506
-0.00272749
-0.00320674
-0.00357245
-0.00382445
-0.00396282
-0.00398783
-0.00389996
-0.00369994
-0.00338875
-0.00296761
-0.00243808
-0.00180193
-0.00106122
-0.000218196
0.000724689
0.00176474
0.00289902
0.00412433
0.00543729
0.0068343
0.00831158
0.00986515
0.0114908
0.0131841
0.0149405
0.0167553
0.0186235
0.02054
0.0224995
0.0244966
0.0265256
0.0285808
0.0306564
0.0327466
0.0348454
0.0369466
0.0390439
0.041131
0.0432018
0.0452499
0.0472691
0.0492531
0.0511958
0.0530911
0.0549328
0.0567149
0.0584316
0.060077
0.0616455
0.063132
0.0645315
0.0658391
0.0670504
0.0681608
0.0691663
0.0700632
0.0708482
0.0715185
0.0720719
0.0725061
0.0728197
0.0730114
0.0730802
0.073026
0.0728488
0.0725493
0.0721283
0.0715873
0.0709278
0.0701517
0.0692614
0.0682593
0.067148
0.0659306
0.06461
0.0631892
0.061671
0.0600585
0.0583533
0.0565569
0.0546837
0.0527458
0.0505701
0.0480068
0.0212087
0.018411
0.0160585
0.0139865
0.012003
0.0101199
0.00835086
0.00669546
0.00515308
0.00372428
0.00240975
0.00121008
0.000125855
-0.000842383
-0.00169416
-0.00242906
-0.00304675
-0.00354707
-0.00393006
-0.00419592
-0.00434507
-0.00437807
-0.0042957
-0.00409895
-0.00378903
-0.00336745
-0.00283598
-0.0021966
-0.00145151
-0.000603053
0.00034619
0.00139341
0.00253557
0.00376938
0.00509139
0.00649795
0.00798526
0.00954931
0.0111859
0.0128905
0.0146587
0.0164856
0.0183663
0.0202958
0.0222687
0.0242795
0.0263227
0.0283926
0.0304834
0.0325892
0.034704
0.0368216
0.0389359
0.0410404
0.0431289
0.0451953
0.0472331
0.0492361
0.051198
0.0531127
0.0549739
0.0567757
0.0585119
0.0601768
0.0617646
0.0632699
0.0646877
0.066013
0.0672411
0.0683673
0.0693874
0.0702974
0.071094
0.071774
0.072335
0.0727746
0.0730909
0.0732823
0.0733478
0.0732868
0.073099
0.0727848
0.0723447
0.0717798
0.0710914
0.0702811
0.0693508
0.0683027
0.0671391
0.0658628
0.0644764
0.0629827
0.0613844
0.0596844
0.0578842
0.0559851
0.0540025
0.0519493
0.0496419
0.0469217
0.0219713
0.0190183
0.0165367
0.0143528
0.0122641
0.010283
0.00842399
0.00668642
0.00506944
0.00357333
0.00219846
0.00094508
-0.000186602
-0.00119643
-0.00208427
-0.00285008
-0.00349392
-0.00401603
-0.00441678
-0.00469676
-0.00485667
-0.00489738
-0.00481993
-0.00462558
-0.00431584
-0.00389245
-0.00335741
-0.00271285
-0.00196111
-0.0011047
-0.000146303
0.000911137
0.00206446
0.00331029
0.00464512
0.00606524
0.0075668
0.00914576
0.0107979
0.0125187
0.0143036
0.0161477
0.0180463
0.0199941
0.0219858
0.0240161
0.0260793
0.0281697
0.0302816
0.032409
0.0345458
0.0366861
0.0388233
0.0409514
0.0430639
0.0451547
0.0472172
0.0492453
0.0512324
0.0531724
0.055059
0.0568861
0.0586475
0.0603373
0.0619495
0.0634788
0.0649197
0.0662673
0.0675165
0.0686626
0.0697011
0.0706278
0.0714392
0.0721319
0.0727031
0.0731502
0.0734711
0.0736639
0.0737272
0.0736602
0.0734623
0.0731334
0.072674
0.0720848
0.0713666
0.0705209
0.0695493
0.0684536
0.067236
0.0658989
0.0644449
0.0628764
0.0611962
0.0594069
0.0575101
0.0555071
0.053414
0.0512447
0.0488052
0.0459281
0.0226124
0.0195046
0.0168938
0.0145977
0.0124033
0.0103235
0.00837373
0.006553
0.00486031
0.00329574
0.00185934
0.000551067
-0.0006292
-0.00168163
-0.00260643
-0.00340391
-0.00407449
-0.00461879
-0.00503751
-0.00533157
-0.00550194
-0.00554979
-0.00547645
-0.00528346
-0.00497259
-0.00454584
-0.00400537
-0.0033535
-0.00259272
-0.00172569
-0.000755244
0.000315553
0.00148342
0.00274488
0.00409638
0.00553412
0.00705422
0.00865256
0.0103249
0.0120666
0.0138732
0.0157398
0.0176614
0.019633
0.0216492
0.0237045
0.0257935
0.0279103
0.0300492
0.0322041
0.0343692
0.036538
0.0387045
0.0408623
0.0430051
0.0451264
0.0472199
0.0492791
0.0512975
0.0532688
0.0551868
0.057045
0.0588372
0.0605573
0.0621995
0.0637578
0.065227
0.0666016
0.0678765
0.0690468
0.0701077
0.0710549
0.0718845
0.0725931
0.0731774
0.0736346
0.0739623
0.0741583
0.074221
0.0741491
0.0739418
0.0735989
0.0731203
0.0725065
0.0717581
0.0708763
0.0698624
0.0687179
0.0674449
0.0660455
0.0645221
0.0628772
0.0611134
0.0592332
0.0572383
0.0551299
0.0529252
0.0506388
0.0480663
0.0450315
0.0231251
0.0198624
0.0171222
0.0147135
0.0124127
0.0102335
0.00819207
0.0062873
0.00451796
0.00288394
0.00138504
2.09271e-05
-0.00120879
-0.00230456
-0.00326694
-0.00409655
-0.0047942
-0.00536081
-0.00579742
-0.00610521
-0.00628547
-0.00633966
-0.00626941
-0.00607653
-0.00576303
-0.00533114
-0.0047832
-0.00412171
-0.00334934
-0.0024689
-0.00148338
-0.000395972
0.000789914
0.00207073
0.00344281
0.00490234
0.0064453
0.00806756
0.00976476
0.0115323
0.0133656
0.0152597
0.0172097
0.0192105
0.0212567
0.0233429
0.0254634
0.0276125
0.0297843
0.0319729
0.0341721
0.0363759
0.0385778
0.0407716
0.0429508
0.0451089
0.0472395
0.049336
0.0513919
0.0534006
0.0553559
0.0572511
0.0590799
0.0608361
0.0625136
0.0641065
0.065609
0.0670156
0.068321
0.06952
0.0706076
0.0715794
0.0724311
0.073159
0.0737595
0.0742297
0.0745666
0.074768
0.0748318
0.0747566
0.0745412
0.074185
0.0736877
0.0730495
0.0722708
0.0713525
0.0702955
0.0691014
0.0677718
0.0663089
0.0647148
0.062992
0.0611429
0.0591704
0.0570757
0.0548604
0.0525426
0.0501377
0.047431
0.0442373
0.0235029
0.0200845
0.0172143
0.0146923
0.0122844
0.0100051
0.00787117
0.00588152
0.00403467
0.00233034
0.000768122
-0.000652553
-0.00193233
-0.00307195
-0.00407226
-0.00493424
-0.00565901
-0.00624778
-0.00670189
-0.00702282
-0.00721216
-0.00727167
-0.00720327
-0.00700902
-0.00669117
-0.00625215
-0.00569451
-0.00502092
-0.00423425
-0.00333747
-0.00233372
-0.00122633
-1.88261e-05
0.00128515
0.00268187
0.0041674
0.00573764
0.00738838
0.00911522
0.0109135
0.0127786
0.0147055
0.0166892
0.0187247
0.0208065
0.0229292
0.0250871
0.0272744
0.0294852
0.0317134
0.033953
0.0361978
0.0384414
0.0406774
0.0428993
0.0451006
0.0472746
0.0494147
0.0515142
0.0535665
0.0555651
0.0575034
0.0593747
0.0611729
0.0628914
0.0645243
0.0660655
0.0675093
0.0688502
0.0700826
0.0712016
0.0722022
0.07308
0.0738309
0.0744512
0.0749374
0.0752865
0.0754958
0.0755629
0.0754861
0.0752641
0.0748957
0.0743806
0.0737185
0.0729098
0.0719548
0.0708544
0.06961
0.068223
0.0666955
0.0650295
0.0632273
0.0612916
0.059225
0.057029
0.0547052
0.0522725
0.0497476
0.0469049
0.0435503
0.0237389
0.0201638
0.0171627
0.0145265
0.0120106
0.00963034
0.00740314
0.00532778
0.00340262
0.00162725
1.06933e-06
-0.0014767
-0.00280694
-0.00399069
-0.00502909
-0.00592343
-0.00667508
-0.00728559
-0.00775656
-0.00808978
-0.00828718
-0.00835077
-0.00828274
-0.00808542
-0.00776128
-0.00731293
-0.00674315
-0.00605481
-0.00525097
-0.00433478
-0.00330952
-0.00217864
-0.000945777
0.000385312
0.00181079
0.00332662
0.00492862
0.00661251
0.00837381
0.0102078
0.0121097
0.0140747
0.0160976
0.0181733
0.0202964
0.0224614
0.0246625
0.0268939
0.0291497
0.0314238
0.0337099
0.036002
0.0382936
0.0405782
0.0428492
0.0451
0.0473237
0.0495137
0.0516632
0.0537653
0.0558135
0.0578009
0.0597209
0.0615669
0.0633324
0.065011
0.0665965
0.0680829
0.0694644
0.0707354
0.0718904
0.0729244
0.0738327
0.0746107
0.0752545
0.0757602
0.0761246
0.0763445
0.0764175
0.0763414
0.0761144
0.0757354
0.0752036
0.0745185
0.0736801
0.0726887
0.0715449
0.0702498
0.0688049
0.0672118
0.0654728
0.0635901
0.0615662
0.059404
0.0571049
0.0546707
0.0521213
0.0494744
0.0464935
0.0429757
0.0238264
0.0200932
0.0169599
0.0142085
0.0115837
0.00910146
0.00678007
0.00461816
0.00261397
0.000766927
-0.000923711
-0.00245894
-0.00383989
-0.00506786
-0.00614428
-0.0070707
-0.00784878
-0.00848034
-0.00896731
-0.00931178
-0.00951597
-0.00958217
-0.00951283
-0.0093105
-0.00897787
-0.0085178
-0.00793327
-0.00722737
-0.00640334
-0.00546451
-0.00441429
-0.00325627
-0.0019942
-0.000631959
0.000826498
0.00237703
0.00401536
0.00573712
0.00753776
0.00941253
0.0113565
0.0133648
0.0154323
0.0175539
0.0197241
0.0219371
0.0241874
0.026469
0.0287758
0.0311019
0.0334409
0.0357866
0.0381326
0.0404722
0.0427987
0.0451053
0.0473852
0.0496315
0.0518374
0.0539958
0.0560999
0.0581428
0.0601176
0.0620176
0.063836
0.0655663
0.0672018
0.0687365
0.0701641
0.0714789
0.0726752
0.0737475
0.0746907
0.0755002
0.0761715
0.0767006
0.0770837
0.0773176
0.0773992
0.0773262
0.0770966
0.0767088
0.0761617
0.0754548
0.0745876
0.0735602
0.0723732
0.0710272
0.0695238
0.0678646
0.0660516
0.064087
0.0619736
0.0597141
0.0573102
0.0547636
0.0520953
0.0493241
0.0462026
0.0425185
0.0237588
0.0198655
0.0165985
0.0137307
0.0109958
0.0084105
0.00599394
0.00374467
0.00166077
-0.00025847
-0.00201396
-0.00360688
-0.00503862
-0.00631072
-0.00742487
-0.00838287
-0.00918668
-0.00983841
-0.0103403
-0.0106948
-0.0109043
-0.0109714
-0.0108988
-0.0106893
-0.0103458
-0.00987141
-0.00926935
-0.00854292
-0.00769553
-0.00673067
-0.00565191
-0.00446294
-0.00316769
-0.00177016
-0.000274399
0.00131533
0.00299464
0.00475907
0.006604
0.00852462
0.010516
0.012573
0.0146907
0.0168638
0.0190867
0.0213537
0.0236591
0.0259969
0.0283611
0.0307454
0.0331436
0.0355494
0.0379561
0.0403571
0.0427456
0.0451147
0.0474573
0.0497666
0.0520353
0.0542565
0.0564231
0.0585279
0.060564
0.0625244
0.064402
0.06619
0.0678816
0.0694704
0.07095
0.0723142
0.073557