/*--------------------------------*- C++ -*----------------------------------*\
| =========                 |                                                 |
| \\      /  F ield         | OpenFOAM: The Open Source CFD Toolbox           |
|  \\    /   O peration     | Version:  2212                                  |
|   \\  /    A nd           | Website:  www.openfoam.com                      |
|    \\/     M anipulation  |                                                 |
\*---------------------------------------------------------------------------*/
FoamFile
{
    version     2.0;
    format      ascii;
    arch        "LSB;label=32;scalar=64";
    class       volVectorField;
    location    "0.0435";
    object      U;
}
// * * * * * * * * * * * * * * * * * * * * * * * * * * * * * * * * * * * * * //

dimensions      [0 1 -1 0 0 0 0];

internalField   nonuniform List<vector> 
10000
(
(2.44837e-06 -3.10482e-06 0)
(1.33904e-05 -7.23432e-06 0)
(2.96781e-05 -7.78533e-06 0)
(4.47006e-05 -6.48123e-06 0)
(5.36828e-05 -4.12684e-06 0)
(5.48727e-05 -1.28573e-06 0)
(4.7248e-05 1.7436e-06 0)
(3.03809e-05 4.79209e-06 0)
(4.22753e-06 7.76198e-06 0)
(-3.10076e-05 1.05996e-05 0)
(-7.49703e-05 1.32742e-05 0)
(-0.000127206 1.57688e-05 0)
(-0.000187191 1.80714e-05 0)
(-0.000254359 2.01763e-05 0)
(-0.000328116 2.20833e-05 0)
(-0.000407856 2.37954e-05 0)
(-0.000492966 2.53156e-05 0)
(-0.000582831 2.6646e-05 0)
(-0.000676843 2.77911e-05 0)
(-0.0007744 2.87554e-05 0)
(-0.000874914 2.95432e-05 0)
(-0.000977809 3.01612e-05 0)
(-0.00108252 3.0614e-05 0)
(-0.0011885 3.09069e-05 0)
(-0.00129523 3.10469e-05 0)
(-0.00140218 3.10389e-05 0)
(-0.00150887 3.08876e-05 0)
(-0.00161482 3.06003e-05 0)
(-0.00171956 3.01827e-05 0)
(-0.00182267 2.96402e-05 0)
(-0.00192371 2.89793e-05 0)
(-0.0020223 2.82062e-05 0)
(-0.00211805 2.73259e-05 0)
(-0.0022106 2.63437e-05 0)
(-0.00229961 2.52657e-05 0)
(-0.00238474 2.40968e-05 0)
(-0.00246571 2.28421e-05 0)
(-0.00254221 2.15082e-05 0)
(-0.00261399 2.01011e-05 0)
(-0.00268078 1.86253e-05 0)
(-0.00274237 1.70851e-05 0)
(-0.00279854 1.54864e-05 0)
(-0.0028491 1.38356e-05 0)
(-0.00289388 1.21379e-05 0)
(-0.00293271 1.03978e-05 0)
(-0.00296547 8.62003e-06 0)
(-0.00299203 6.81108e-06 0)
(-0.0030123 4.97733e-06 0)
(-0.00302619 3.12391e-06 0)
(-0.00303366 1.25565e-06 0)
(-0.00303465 -6.22118e-07 0)
(-0.00302916 -2.50306e-06 0)
(-0.00301719 -4.38027e-06 0)
(-0.00299875 -6.24769e-06 0)
(-0.00297389 -8.09986e-06 0)
(-0.00294268 -9.93087e-06 0)
(-0.00290521 -1.17343e-05 0)
(-0.00286159 -1.35034e-05 0)
(-0.00281194 -1.5231e-05 0)
(-0.00275643 -1.69108e-05 0)
(-0.00269523 -1.85367e-05 0)
(-0.00262854 -2.01021e-05 0)
(-0.0025566 -2.15999e-05 0)
(-0.00247964 -2.30231e-05 0)
(-0.00239794 -2.43641e-05 0)
(-0.0023118 -2.5616e-05 0)
(-0.00222153 -2.6772e-05 0)
(-0.00212749 -2.78256e-05 0)
(-0.00203003 -2.87695e-05 0)
(-0.00192955 -2.95964e-05 0)
(-0.00182647 -3.02994e-05 0)
(-0.00172122 -3.08711e-05 0)
(-0.00161426 -3.13046e-05 0)
(-0.00150607 -3.15939e-05 0)
(-0.00139715 -3.17331e-05 0)
(-0.00128803 -3.17163e-05 0)
(-0.00117924 -3.15377e-05 0)
(-0.00107133 -3.11922e-05 0)
(-0.00096488 -3.06748e-05 0)
(-0.000860471 -2.99804e-05 0)
(-0.000758699 -2.91045e-05 0)
(-0.000660171 -2.80439e-05 0)
(-0.000565502 -2.67957e-05 0)
(-0.000475307 -2.53576e-05 0)
(-0.000390206 -2.37279e-05 0)
(-0.000310812 -2.19057e-05 0)
(-0.000237731 -1.98919e-05 0)
(-0.000171555 -1.76885e-05 0)
(-0.000112848 -1.53003e-05 0)
(-6.21407e-05 -1.27354e-05 0)
(-1.99079e-05 -1.00073e-05 0)
(1.34512e-05 -7.13786e-06 0)
(3.76511e-05 -4.16221e-06 0)
(5.25743e-05 -1.14025e-06 0)
(5.83591e-05 1.82498e-06 0)
(5.55396e-05 4.55357e-06 0)
(4.52437e-05 6.73017e-06 0)
(2.96103e-05 7.78616e-06 0)
(1.30187e-05 6.73836e-06 0)
(2.61818e-06 2.61834e-06 0)
(6.36055e-06 -1.31895e-05 0)
(2.65173e-05 -2.74968e-05 0)
(5.30048e-05 -2.81622e-05 0)
(7.28497e-05 -2.03398e-05 0)
(7.78898e-05 -7.31168e-06 0)
(6.3577e-05 8.64593e-06 0)
(2.71436e-05 2.60736e-05 0)
(-3.28721e-05 4.40303e-05 0)
(-0.000116956 6.19044e-05 0)
(-0.000224918 7.92943e-05 0)
(-0.000356093 9.59353e-05 0)
(-0.000509479 0.000111652 0)
(-0.000683841 0.000126327 0)
(-0.00087778 0.000139881 0)
(-0.00108979 0.000152268 0)
(-0.00131828 0.000163464 0)
(-0.00156163 0.000173458 0)
(-0.0018182 0.000182254 0)
(-0.00208633 0.000189859 0)
(-0.00236438 0.000196294 0)
(-0.00265073 0.000201578 0)
(-0.00294376 0.000205737 0)
(-0.00324193 0.000208802 0)
(-0.00354369 0.000210802 0)
(-0.00384756 0.00021177 0)
(-0.0041521 0.00021174 0)
(-0.0044559 0.000210749 0)
(-0.00475761 0.000208832 0)
(-0.00505595 0.000206027 0)
(-0.00534965 0.000202369 0)
(-0.00563753 0.0001979 0)
(-0.00591844 0.000192656 0)
(-0.00619129 0.000186675 0)
(-0.00645504 0.000179994 0)
(-0.00670872 0.00017265 0)
(-0.00695139 0.00016468 0)
(-0.00718217 0.000156122 0)
(-0.00740025 0.000147013 0)
(-0.00760486 0.000137392 0)
(-0.00779527 0.000127295 0)
(-0.00797083 0.000116759 0)
(-0.00813093 0.00010582 0)
(-0.00827503 9.45182e-05 0)
(-0.0084026 8.28885e-05 0)
(-0.00851322 7.09687e-05 0)
(-0.00860649 5.87964e-05 0)
(-0.00868209 4.64112e-05 0)
(-0.00873972 3.38521e-05 0)
(-0.00877916 2.11571e-05 0)
(-0.00880026 8.36503e-06 0)
(-0.0088029 -4.48397e-06 0)
(-0.00878703 -1.73488e-05 0)
(-0.00875267 -3.01874e-05 0)
(-0.00869988 -4.29576e-05 0)
(-0.0086288 -5.56179e-05 0)
(-0.00853961 -6.81254e-05 0)
(-0.00843259 -8.04356e-05 0)
(-0.00830804 -9.2504e-05 0)
(-0.00816634 -0.000104286 0)
(-0.00800796 -0.000115735 0)
(-0.0078334 -0.000126807 0)
(-0.00764324 -0.000137456 0)
(-0.00743814 -0.000147634 0)
(-0.00721881 -0.000157294 0)
(-0.00698603 -0.000166388 0)
(-0.00674065 -0.00017487 0)
(-0.00648359 -0.000182692 0)
(-0.00621584 -0.000189809 0)
(-0.00593843 -0.000196173 0)
(-0.00565249 -0.000201738 0)
(-0.0053592 -0.000206459 0)
(-0.0050598 -0.000210291 0)
(-0.00475558 -0.000213192 0)
(-0.0044479 -0.000215121 0)
(-0.00413818 -0.000216039 0)
(-0.00382789 -0.000215911 0)
(-0.00351853 -0.000214702 0)
(-0.00321167 -0.00021238 0)
(-0.00290889 -0.000208917 0)
(-0.00261183 -0.000204287 0)
(-0.00232214 -0.000198472 0)
(-0.00204149 -0.000191454 0)
(-0.00177157 -0.000183226 0)
(-0.00151407 -0.000173783 0)
(-0.00127067 -0.000163131 0)
(-0.001043 -0.000151285 0)
(-0.000832668 -0.000138272 0)
(-0.000641217 -0.000124136 0)
(-0.00047008 -0.000108944 0)
(-0.000320557 -9.27912e-05 0)
(-0.000193758 -7.58166e-05 0)
(-9.05329e-05 -5.82183e-05 0)
(-1.13703e-05 -4.02837e-05 0)
(4.37432e-05 -2.24375e-05 0)
(7.55249e-05 -5.31599e-06 0)
(8.56787e-05 1.01142e-05 0)
(7.72199e-05 2.23792e-05 0)
(5.49965e-05 2.92252e-05 0)
(2.73212e-05 2.73193e-05 0)
(6.73019e-06 1.30067e-05 0)
(7.53465e-06 -2.94283e-05 0)
(2.79804e-05 -5.35335e-05 0)
(5.007e-05 -5.01373e-05 0)
(5.89858e-05 -2.79175e-05 0)
(4.4808e-05 6.56988e-06 0)
(1.53574e-06 4.85879e-05 0)
(-7.47147e-05 9.47863e-05 0)
(-0.000186175 0.000142829 0)
(-0.000333767 0.000191088 0)
(-0.000517423 0.000238423 0)
(-0.000736349 0.000284039 0)
(-0.000989219 0.000327379 0)
(-0.0012743 0.000368053 0)
(-0.00158958 0.000405794 0)
(-0.00193284 0.000440421 0)
(-0.00230171 0.000471823 0)
(-0.00269375 0.000499939 0)
(-0.00310643 0.000524746 0)
(-0.00353722 0.000546247 0)
(-0.00398357 0.000564471 0)
(-0.00444296 0.000579466 0)
(-0.00491287 0.000591292 0)
(-0.00539086 0.000600016 0)
(-0.0058745 0.000605719 0)
(-0.00636145 0.000608486 0)
(-0.00684942 0.000608409 0)
(-0.00733618 0.000605583 0)
(-0.0078196 0.000600109 0)
(-0.00829759 0.000592088 0)
(-0.00876818 0.000581622 0)
(-0.00922944 0.00056882 0)
(-0.00967955 0.000553785 0)
(-0.0101168 0.000536625 0)
(-0.0105394 0.000517447 0)
(-0.0109459 0.000496358 0)
(-0.0113348 0.000473463 0)
(-0.0117046 0.00044887 0)
(-0.0120541 0.000422686 0)
(-0.012382 0.00039502 0)
(-0.0126871 0.000365978 0)
(-0.0129684 0.000335669 0)
(-0.0132249 0.000304199 0)
(-0.0134558 0.000271677 0)
(-0.0136601 0.000238211 0)
(-0.0138373 0.000203909 0)
(-0.0139866 0.000168882 0)
(-0.0141076 0.000133242 0)
(-0.0141998 9.71003e-05 0)
(-0.0142628 6.05709e-05 0)
(-0.0142964 2.37672e-05 0)
(-0.0143004 -1.31942e-05 0)
(-0.0142748 -5.0195e-05 0)
(-0.0142195 -8.7116e-05 0)
(-0.0141346 -0.000123835 0)
(-0.0140205 -0.000160231 0)
(-0.0138774 -0.000196177 0)
(-0.0137056 -0.000231549 0)
(-0.0135059 -0.000266216 0)
(-0.0132786 -0.000300051 0)
(-0.0130247 -0.000332923 0)
(-0.0127449 -0.000364699 0)
(-0.0124402 -0.000395247 0)
(-0.0121115 -0.000424433 0)
(-0.0117601 -0.000452122 0)
(-0.0113872 -0.000478178 0)
(-0.0109942 -0.000502468 0)
(-0.0105826 -0.000524858 0)
(-0.0101538 -0.000545215 0)
(-0.00970968 -0.000563409 0)
(-0.00925193 -0.00057931 0)
(-0.00878244 -0.000592792 0)
(-0.0083032 -0.000603731 0)
(-0.00781627 -0.000612009 0)
(-0.00732382 -0.000617514 0)
(-0.00682808 -0.000620139 0)
(-0.00633138 -0.000619785 0)
(-0.0058361 -0.000616359 0)
(-0.00534472 -0.000609779 0)
(-0.00485973 -0.000599971 0)
(-0.0043837 -0.000586874 0)
(-0.00391922 -0.000570442 0)
(-0.00346889 -0.000550643 0)
(-0.00303535 -0.000527464 0)
(-0.0026212 -0.000500915 0)
(-0.00222901 -0.000471032 0)
(-0.0018613 -0.000437883 0)
(-0.00152048 -0.000401579 0)
(-0.00120885 -0.000362282 0)
(-0.000928529 -0.00032022 0)
(-0.000681372 -0.000275716 0)
(-0.000468925 -0.000229212 0)
(-0.000292298 -0.000181321 0)
(-0.000152024 -0.000132894 0)
(-4.78782e-05 -8.51177e-05 0)
(2.13778e-05 -3.96671e-05 0)
(5.83077e-05 1.08955e-06 0)
(6.7121e-05 3.3812e-05 0)
(5.41144e-05 5.38627e-05 0)
(2.93404e-05 5.50196e-05 0)
(7.7952e-06 2.95982e-05 0)
(6.42658e-06 -4.41255e-05 0)
(2.06903e-05 -7.3426e-05 0)
(2.87923e-05 -5.91418e-05 0)
(1.58415e-05 -1.46456e-05 0)
(-2.84672e-05 5.02657e-05 0)
(-0.000110776 0.00012825 0)
(-0.000235514 0.000213868 0)
(-0.000405334 0.000303142 0)
(-0.000621418 0.000393177 0)
(-0.000883789 0.000481869 0)
(-0.00119157 0.000567683 0)
(-0.00154321 0.000649513 0)
(-0.0019366 0.000726563 0)
(-0.00236927 0.000798263 0)
(-0.00283844 0.000864217 0)
(-0.0033411 0.000924165 0)
(-0.00387412 0.000977946 0)
(-0.00443426 0.00102547 0)
(-0.00501821 0.00106673 0)
(-0.00562266 0.00110175 0)
(-0.00624428 0.00113058 0)
(-0.00687977 0.00115333 0)
(-0.0075259 0.00117011 0)
(-0.00817945 0.00118107 0)
(-0.0088373 0.00118636 0)
(-0.0094964 0.00118615 0)
(-0.0101538 0.00118061 0)
(-0.0108066 0.00116992 0)
(-0.011452 0.00115429 0)
(-0.0120874 0.0011339 0)
(-0.0127102 0.00110897 0)
(-0.0133179 0.00107968 0)
(-0.0139082 0.00104624 0)
(-0.0144788 0.00100887 0)
(-0.0150276 0.000967763 0)
(-0.0155526 0.000923132 0)
(-0.0160519 0.000875183 0)
(-0.0165236 0.000824128 0)
(-0.0169663 0.000770173 0)
(-0.0173781 0.000713529 0)
(-0.0177578 0.000654407 0)
(-0.0181041 0.000593017 0)
(-0.0184156 0.000529571 0)
(-0.0186914 0.000464282 0)
(-0.0189304 0.000397363 0)
(-0.0191318 0.000329031 0)
(-0.019295 0.000259504 0)
(-0.0194192 0.000189 0)
(-0.0195041 0.000117744 0)
(-0.0195492 4.59591e-05 0)
(-0.0195543 -2.61263e-05 0)
(-0.0195195 -9.82812e-05 0)
(-0.0194445 -0.000170272 0)
(-0.0193298 -0.000241862 0)
(-0.0191755 -0.00031281 0)
(-0.018982 -0.000382873 0)
(-0.01875 -0.000451803 0)
(-0.0184801 -0.00051935 0)
(-0.0181733 -0.000585264 0)
(-0.0178304 -0.000649288 0)
(-0.0174526 -0.000711166 0)
(-0.0170412 -0.000770638 0)
(-0.0165976 -0.000827445 0)
(-0.0161233 -0.000881325 0)
(-0.0156201 -0.000932018 0)
(-0.0150898 -0.000979263 0)
(-0.0145344 -0.0010228 0)
(-0.0139559 -0.00106238 0)
(-0.0133568 -0.00109775 0)
(-0.0127392 -0.00112866 0)
(-0.0121059 -0.00115486 0)
(-0.0114594 -0.00117613 0)
(-0.0108025 -0.00119224 0)
(-0.0101381 -0.00120298 0)
(-0.00946914 -0.00120815 0)
(-0.0087988 -0.00120755 0)
(-0.00813024 -0.00120103 0)
(-0.00746671 -0.00118843 0)
(-0.00681156 -0.00116962 0)
(-0.00616817 -0.0011445 0)
(-0.00553995 -0.00111299 0)
(-0.00493034 -0.00107504 0)
(-0.00434278 -0.00103066 0)
(-0.00378068 -0.000979892 0)
(-0.00324736 -0.000922827 0)
(-0.00274607 -0.000859634 0)
(-0.00227992 -0.000790563 0)
(-0.00185181 -0.00071597 0)
(-0.00146437 -0.000636343 0)
(-0.00111993 -0.000552349 0)
(-0.000820323 -0.000464882 0)
(-0.000566848 -0.000375148 0)
(-0.000360053 -0.000284766 0)
(-0.000199558 -0.000195924 0)
(-8.37975e-05 -0.000111582 0)
(-9.72209e-06 -3.5749e-05 0)
(2.74893e-05 2.61713e-05 0)
(3.48088e-05 6.70202e-05 0)
(2.28078e-05 7.75128e-05 0)
(6.80009e-06 4.53362e-05 0)
(4.24889e-06 -5.35408e-05 0)
(8.23206e-06 -7.91671e-05 0)
(-4.56332e-06 -4.56526e-05 0)
(-4.73536e-05 2.93968e-05 0)
(-0.000129896 0.000133129 0)
(-0.000258913 0.000255707 0)
(-0.000438948 0.000389621 0)
(-0.000672753 0.000529208 0)
(-0.000961577 0.000670212 0)
(-0.00130543 0.000809439 0)
(-0.00170335 0.000944502 0)
(-0.00215355 0.00107362 0)
(-0.00265366 0.00119548 0)
(-0.0032008 0.00130913 0)
(-0.00379173 0.00141388 0)
(-0.00442294 0.00150926 0)
(-0.0050907 0.00159495 0)
(-0.00579116 0.00167078 0)
(-0.00652036 0.00173666 0)
(-0.00727431 0.00179262 0)
(-0.008049 0.00183873 0)
(-0.00884044 0.0018751 0)
(-0.00964466 0.0019019 0)
(-0.0104578 0.00191935 0)
(-0.011276 0.00192768 0)
(-0.0120955 0.00192713 0)
(-0.0129127 0.00191799 0)
(-0.013724 0.00190054 0)
(-0.0145261 0.00187508 0)
(-0.0153157 0.00184193 0)
(-0.0160895 0.00180139 0)
(-0.0168445 0.0017538 0)
(-0.0175778 0.00169948 0)
(-0.0182866 0.00163877 0)
(-0.0189684 0.00157199 0)
(-0.0196205 0.00149948 0)
(-0.0202407 0.00142158 0)
(-0.0208266 0.00133862 0)
(-0.0213763 0.00125095 0)
(-0.0218878 0.00115891 0)
(-0.0223594 0.00106284 0)
(-0.0227893 0.000963077 0)
(-0.0231761 0.000859973 0)
(-0.0235185 0.000753873 0)
(-0.0238152 0.000645127 0)
(-0.0240652 0.000534086 0)
(-0.0242676 0.000421106 0)
(-0.0244217 0.000306546 0)
(-0.0245268 0.000190768 0)
(-0.0245826 7.41405e-05 0)
(-0.0245888 -4.29665e-05 0)
(-0.0245452 -0.000160177 0)
(-0.0244519 -0.00027711 0)
(-0.0243091 -0.000393379 0)
(-0.0241172 -0.000508593 0)
(-0.0238768 -0.000622355 0)
(-0.0235885 -0.000734264 0)
(-0.0232532 -0.000843916 0)
(-0.0228719 -0.0009509 0)
(-0.022446 -0.0010548 0)
(-0.0219768 -0.00115521 0)
(-0.0214659 -0.0012517 0)
(-0.0209151 -0.00134385 0)
(-0.0203262 -0.00143124 0)
(-0.0197014 -0.00151345 0)
(-0.019043 -0.00159006 0)
(-0.0183534 -0.00166066 0)
(-0.0176353 -0.00172484 0)
(-0.0168914 -0.00178219 0)
(-0.0161247 -0.00183231 0)
(-0.0153384 -0.00187483 0)
(-0.0145357 -0.00190937 0)
(-0.0137199 -0.00193559 0)
(-0.0128947 -0.00195313 0)
(-0.0120638 -0.00196169 0)
(-0.0112309 -0.00196097 0)
(-0.0104 -0.00195072 0)
(-0.00957495 -0.00193071 0)
(-0.00875993 -0.00190074 0)
(-0.00795904 -0.00186066 0)
(-0.00717641 -0.00181038 0)
(-0.00641623 -0.00174984 0)
(-0.00568262 -0.00167908 0)
(-0.00497969 -0.0015982 0)
(-0.00431142 -0.00150738 0)
(-0.00368169 -0.00140694 0)
(-0.00309417 -0.00129733 0)
(-0.00255226 -0.00117916 0)
(-0.00205906 -0.00105327 0)
(-0.00161722 -0.00092077 0)
(-0.00122886 -0.000783112 0)
(-0.00089543 -0.000642221 0)
(-0.000617539 -0.000500614 0)
(-0.000394766 -0.0003616 0)
(-0.000225425 -0.000229522 0)
(-0.000106313 -0.000110077 0)
(-3.244e-05 -1.0714e-05 0)
(3.29681e-06 5.8969e-05 0)
(1.1063e-05 8.67277e-05 0)
(4.73129e-06 5.59598e-05 0)
(1.56649e-06 -5.5427e-05 0)
(-7.15667e-06 -6.61111e-05 0)
(-4.54373e-05 -3.69352e-06 0)
(-0.000123646 0.000110805 0)
(-0.00025029 0.000261845 0)
(-0.000431735 0.000437304 0)
(-0.000672289 0.000627726 0)
(-0.000974531 0.000825797 0)
(-0.00133958 0.00102589 0)
(-0.00176732 0.00122368 0)
(-0.00225662 0.00141585 0)
(-0.00280548 0.00159988 0)
(-0.00341124 0.00177387 0)
(-0.0040707 0.00193639 0)
(-0.0047802 0.00208641 0)
(-0.00553579 0.00222319 0)
(-0.00633324 0.00234621 0)
(-0.00716817 0.00245518 0)
(-0.00803607 0.00254994 0)
(-0.00893234 0.00263044 0)
(-0.00985237 0.00269676 0)
(-0.0107916 0.00274904 0)
(-0.0117453 0.00278751 0)
(-0.0127091 0.00281242 0)
(-0.0136785 0.00282411 0)
(-0.0146491 0.00282291 0)
(-0.0156168 0.00280921 0)
(-0.0165773 0.00278342 0)
(-0.0175266 0.00274595 0)
(-0.0184609 0.00269727 0)
(-0.0193765 0.00263781 0)
(-0.0202697 0.00256804 0)
(-0.0211372 0.00248844 0)
(-0.0219757 0.00239948 0)
(-0.022782 0.00230165 0)
(-0.0235533 0.00219544 0)
(-0.0242867 0.00208133 0)
(-0.0249796 0.00195983 0)
(-0.0256296 0.00183142 0)
(-0.0262344 0.00169661 0)
(-0.0267919 0.00155589 0)
(-0.0273002 0.00140977 0)
(-0.0277575 0.00125875 0)
(-0.0281621 0.00110336 0)
(-0.0285128 0.000944084 0)
(-0.0288082 0.000781457 0)
(-0.0290474 0.000615997 0)
(-0.0292293 0.000448231 0)
(-0.0293534 0.000278692 0)
(-0.0294192 0.000107918 0)
(-0.0294262 -6.35468e-05 0)
(-0.0293745 -0.00023515 0)
(-0.029264 -0.000406333 0)
(-0.029095 -0.000576528 0)
(-0.0288679 -0.000745164 0)
(-0.0285834 -0.00091166 0)
(-0.0282424 -0.00107543 0)
(-0.0278459 -0.00123588 0)
(-0.0273951 -0.00139241 0)
(-0.0268914 -0.00154441 0)
(-0.0263367 -0.00169129 0)
(-0.0257327 -0.00183242 0)
(-0.0250814 -0.0019672 0)
(-0.0243853 -0.00209501 0)
(-0.0236467 -0.00221525 0)
(-0.0228683 -0.00232729 0)
(-0.0220531 -0.00243055 0)
(-0.0212041 -0.00252442 0)
(-0.0203247 -0.00260833 0)
(-0.0194182 -0.0026817 0)
(-0.0184884 -0.00274399 0)
(-0.0175391 -0.00279466 0)
(-0.0165742 -0.0028332 0)
(-0.015598 -0.00285913 0)
(-0.0146148 -0.00287202 0)
(-0.0136289 -0.00287145 0)
(-0.0126449 -0.00285705 0)
(-0.0116674 -0.00282852 0)
(-0.0107013 -0.00278559 0)
(-0.00975124 -0.00272807 0)
(-0.00882204 -0.00265585 0)
(-0.00791851 -0.00256889 0)
(-0.00704542 -0.00246725 0)
(-0.00620747 -0.00235114 0)
(-0.00540922 -0.00222087 0)
(-0.00465509 -0.00207694 0)
(-0.00394922 -0.00192005 0)
(-0.00329548 -0.00175113 0)
(-0.00269734 -0.00157143 0)
(-0.00215777 -0.00138259 0)
(-0.00167915 -0.0011867 0)
(-0.00126311 -0.000986494 0)
(-0.000910385 -0.000785446 0)
(-0.000620653 -0.000588041 0)
(-0.000392309 -0.000400019 0)
(-0.000222271 -0.000228727 0)
(-0.000105738 -8.35522e-05 0)
(-3.58944e-05 2.36619e-05 0)
(-3.6783e-06 7.80245e-05 0)
(2.15083e-06 5.94377e-05 0)
(-1.31516e-06 -4.87904e-05 0)
(-2.40713e-05 -3.14559e-05 0)
(-9.06752e-05 7.0726e-05 0)
(-0.000207985 0.000234205 0)
(-0.000382798 0.000441236 0)
(-0.000620781 0.000677712 0)
(-0.000925726 0.000932413 0)
(-0.0012998 0.00119649 0)
(-0.00174383 0.00146299 0)
(-0.00225743 0.00172645 0)
(-0.00283922 0.00198262 0)
(-0.00348695 0.00222819 0)
(-0.00419766 0.00246064 0)
(-0.00496782 0.00267802 0)
(-0.00579343 0.00287889 0)
(-0.0066701 0.00306221 0)
(-0.00759319 0.00322723 0)
(-0.00855783 0.00337349 0)
(-0.00955901 0.00350071 0)
(-0.0105916 0.00360881 0)
(-0.0116505 0.00369782 0)
(-0.0127305 0.00376791 0)
(-0.0138265 0.00381933 0)
(-0.0149334 0.00385242 0)
(-0.0160462 0.00386757 0)
(-0.01716 0.00386525 0)
(-0.0182699 0.00384595 0)
(-0.0193713 0.00381021 0)
(-0.0204597 0.00375858 0)
(-0.0215306 0.00369166 0)
(-0.0225798 0.00361006 0)
(-0.0236033 0.0035144 0)
(-0.0245972 0.00340532 0)
(-0.0255577 0.00328346 0)
(-0.0264813 0.00314948 0)
(-0.0273647 0.00300404 0)
(-0.0282046 0.00284781 0)
(-0.0289981 0.00268147 0)
(-0.0297424 0.00250569 0)
(-0.030435 0.00232115 0)
(-0.0310732 0.00212853 0)
(-0.0316551 0.00192853 0)
(-0.0321785 0.00172183 0)
(-0.0326417 0.00150915 0)
(-0.0330431 0.00129116 0)
(-0.0333811 0.0010686 0)
(-0.0336548 0.000842171 0)
(-0.0338629 0.000612596 0)
(-0.0340048 0.000380606 0)
(-0.0340799 0.00014694 0)
(-0.0340878 -8.76565e-05 0)
(-0.0340284 -0.000322427 0)
(-0.0339017 -0.000556606 0)
(-0.0337081 -0.000789418 0)
(-0.033448 -0.00102008 0)
(-0.0331223 -0.0012478 0)
(-0.0327318 -0.00147177 0)
(-0.0322778 -0.00169119 0)
(-0.0317616 -0.00190524 0)
(-0.0311851 -0.00211309 0)
(-0.03055 -0.00231391 0)
(-0.0298585 -0.00250687 0)
(-0.029113 -0.00269115 0)
(-0.0283161 -0.00286589 0)
(-0.0274705 -0.00303028 0)
(-0.0265795 -0.0031835 0)
(-0.0256461 -0.00332471 0)
(-0.0246741 -0.00345313 0)
(-0.0236671 -0.00356797 0)
(-0.022629 -0.00366845 0)
(-0.021564 -0.00375383 0)
(-0.0204765 -0.00382341 0)
(-0.019371 -0.0038765 0)
(-0.0182521 -0.00391246 0)
(-0.0171248 -0.00393072 0)
(-0.0159941 -0.00393071 0)
(-0.0148651 -0.00391199 0)
(-0.0137429 -0.00387413 0)
(-0.0126331 -0.00381681 0)
(-0.0115408 -0.00373981 0)
(-0.0104715 -0.00364299 0)
(-0.00943063 -0.00352634 0)
(-0.00842343 -0.00339001 0)
(-0.00745515 -0.00323429 0)
(-0.00653088 -0.00305967 0)
(-0.00565549 -0.00286687 0)
(-0.00483359 -0.00265687 0)
(-0.00406944 -0.00243098 0)
(-0.00336686 -0.00219093 0)
(-0.00272915 -0.00193892 0)
(-0.00215894 -0.00167774 0)
(-0.0016581 -0.00141096 0)
(-0.0012276 -0.00114305 0)
(-0.000867333 -0.000879664 0)
(-0.000575953 -0.000627898 0)
(-0.000350741 -0.000396653 0)
(-0.000187359 -0.000197076 0)
(-7.96107e-05 -4.29851e-05 0)
(-2.00118e-05 4.85191e-05 0)
(-6.38405e-07 5.47195e-05 0)
(-4.23266e-06 -3.31724e-05 0)
(-4.16402e-05 2.63965e-05 0)
(-0.000138156 0.00018011 0)
(-0.000296834 0.000402674 0)
(-0.000522472 0.000674639 0)
(-0.000819805 0.000980247 0)
(-0.00119188 0.00130675 0)
(-0.00164028 0.00164391 0)
(-0.00216535 0.00198354 0)
(-0.00276634 0.00231909 0)
(-0.00344153 0.00264539 0)
(-0.00418836 0.00295835 0)
(-0.00500353 0.00325477 0)
(-0.0058832 0.00353218 0)
(-0.00682298 0.00378871 0)
(-0.00781813 0.00402297 0)
(-0.00886359 0.00423397 0)
(-0.00995407 0.00442103 0)
(-0.0110841 0.00458375 0)
(-0.0122481 0.00472197 0)
(-0.0134405 0.0048357 0)
(-0.0146555 0.00492508 0)
(-0.0158876 0.00499043 0)
(-0.0171312 0.00503213 0)
(-0.0183807 0.00505066 0)
(-0.0196307 0.0050466 0)
(-0.0208759 0.00502055 0)
(-0.0221112 0.00497319 0)
(-0.0233315 0.00490524 0)
(-0.0245319 0.00481744 0)
(-0.0257078 0.00471057 0)
(-0.0268546 0.00458543 0)
(-0.0279681 0.00444284 0)
(-0.029044 0.00428362 0)
(-0.0300785 0.00410864 0)
(-0.0310677 0.00391874 0)
(-0.0320083 0.00371479 0)
(-0.0328967 0.00349766 0)
(-0.03373 0.00326824 0)
(-0.0345053 0.0030274 0)
(-0.0352198 0.00277605 0)
(-0.0358711 0.00251508 0)
(-0.036457 0.00224539 0)
(-0.0369753 0.00196789 0)
(-0.0374245 0.0016835 0)
(-0.0378028 0.00139315 0)
(-0.0381089 0.00109776 0)
(-0.0383418 0.000798294 0)
(-0.0385005 0.00049569 0)
(-0.0385844 0.000190916 0)
(-0.0385932 -0.000115055 0)
(-0.0385266 -0.000421235 0)
(-0.0383848 -0.000726627 0)
(-0.038168 -0.00103022 0)
(-0.0378769 -0.001331 0)
(-0.0375123 -0.00162792 0)
(-0.0370752 -0.00191994 0)
(-0.0365671 -0.00220601 0)
(-0.0359895 -0.00248507 0)
(-0.0353443 -0.00275604 0)
(-0.0346335 -0.00301785 0)
(-0.0338597 -0.00326942 0)
(-0.0330253 -0.00350967 0)
(-0.0321333 -0.00373751 0)
(-0.0311869 -0.00395187 0)
(-0.0301894 -0.00415169 0)
(-0.0291446 -0.00433592 0)
(-0.0280562 -0.00450351 0)
(-0.0269286 -0.00465346 0)
(-0.025766 -0.00478477 0)
(-0.0245731 -0.0048965 0)
(-0.0233546 -0.00498773 0)
(-0.0221156 -0.00505759 0)
(-0.0208613 -0.00510529 0)
(-0.0195971 -0.00513006 0)
(-0.0183285 -0.00513123 0)
(-0.0170612 -0.00510822 0)
(-0.0158009 -0.00506052 0)
(-0.0145534 -0.00498775 0)
(-0.0133248 -0.00488963 0)
(-0.0121208 -0.00476604 0)
(-0.0109474 -0.00461701 0)
(-0.00981045 -0.00444276 0)
(-0.00871561 -0.00424372 0)
(-0.00766845 -0.00402056 0)
(-0.00667427 -0.00377425 0)
(-0.0057381 -0.00350612 0)
(-0.00486456 -0.00321788 0)
(-0.00405785 -0.00291175 0)
(-0.00332156 -0.00259054 0)
(-0.00265867 -0.00225777 0)
(-0.00207133 -0.00191784 0)
(-0.00156081 -0.00157622 0)
(-0.00112737 -0.00123969 0)
(-0.000770069 -0.000916615 0)
(-0.000486748 -0.000617311 0)
(-0.000273747 -0.000354472 0)
(-0.000125722 -0.000143576 0)
(-3.70602e-05 -3.4683e-06 0)
(-3.47196e-06 4.13069e-05 0)
(-7.09941e-06 -8.45447e-06 0)
(-5.93372e-05 0.0001082 0)
(-0.000186499 0.000325835 0)
(-0.000387767 0.000618066 0)
(-0.000665813 0.000964193 0)
(-0.00102428 0.00134714 0)
(-0.00146531 0.00175288 0)
(-0.00198973 0.00216996 0)
(-0.00259732 0.00258906 0)
(-0.00328682 0.00300265 0)
(-0.00405609 0.00340465 0)
(-0.00490219 0.00379022 0)
(-0.00582147 0.00415551 0)
(-0.0068097 0.00449749 0)
(-0.00786216 0.00481386 0)
(-0.00897373 0.00510285 0)
(-0.010139 0.0053632 0)
(-0.0113521 0.00559403 0)
(-0.0126074 0.00579479 0)
(-0.0138987 0.00596522 0)
(-0.0152201 0.00610526 0)
(-0.0165653 0.00621509 0)
(-0.0179284 0.00629502 0)
(-0.0193032 0.0063455 0)
(-0.0206837 0.00636711 0)
(-0.0220642 0.00636052 0)
(-0.0234388 0.00632647 0)
(-0.0248018 0.00626578 0)
(-0.0261479 0.00617932 0)
(-0.0274718 0.00606801 0)
(-0.0287682 0.00593281 0)
(-0.0300323 0.0057747 0)
(-0.0312595 0.00559471 0)
(-0.032445 0.00539386 0)
(-0.0335847 0.00517322 0)
(-0.0346745 0.00493385 0)
(-0.0357105 0.00467684 0)
(-0.036689 0.00440327 0)
(-0.0376067 0.00411426 0)
(-0.0384603 0.00381091 0)
(-0.0392471 0.00349435 0)
(-0.0399642 0.00316569 0)
(-0.0406091 0.00282609 0)
(-0.0411798 0.00247667 0)
(-0.0416742 0.0021186 0)
(-0.0420907 0.00175305 0)
(-0.0424276 0.00138118 0)
(-0.042684 0.00100419 0)
(-0.0428587 0.000623267 0)
(-0.042951 0.000239634 0)
(-0.0429607 -0.000145485 0)
(-0.0428874 -0.000530851 0)
(-0.0427313 -0.000915208 0)
(-0.0424928 -0.00129729 0)
(-0.0421724 -0.0016758 0)
(-0.0417712 -0.00204946 0)
(-0.0412902 -0.00241694 0)
(-0.040731 -0.00277693 0)
(-0.0400953 -0.00312809 0)
(-0.0393852 -0.00346908 0)
(-0.0386029 -0.00379855 0)
(-0.0377511 -0.00411514 0)
(-0.0368326 -0.00441752 0)
(-0.0358506 -0.00470431 0)
(-0.0348086 -0.00497419 0)
(-0.0337103 -0.00522582 0)
(-0.0325597 -0.0054579 0)
(-0.031361 -0.00566912 0)
(-0.0301188 -0.00585823 0)
(-0.0288378 -0.006024 0)
(-0.0275231 -0.00616526 0)
(-0.0261799 -0.00628088 0)
(-0.0248137 -0.00636979 0)
(-0.0234301 -0.00643098 0)
(-0.022035 -0.00646356 0)
(-0.0206344 -0.0064667 0)
(-0.0192344 -0.00643968 0)
(-0.0178413 -0.00638191 0)
(-0.0164614 -0.00629294 0)
(-0.0151011 -0.00617246 0)
(-0.0137669 -0.00602036 0)
(-0.012465 -0.00583672 0)
(-0.0112017 -0.00562185 0)
(-0.00998333 -0.00537633 0)
(-0.00881572 -0.00510105 0)
(-0.00770465 -0.00479725 0)
(-0.00665551 -0.0044666 0)
(-0.00567334 -0.00411126 0)
(-0.00476266 -0.00373396 0)
(-0.00392745 -0.00333812 0)
(-0.00317101 -0.00292799 0)
(-0.00249588 -0.00250882 0)
(-0.00190373 -0.00208701 0)
(-0.00139525 -0.0016704 0)
(-0.000970086 -0.00126853 0)
(-0.000626758 -0.000892956 0)
(-0.000362448 -0.0005577 0)
(-0.000172826 -0.000279584 0)
(-5.42875e-05 -7.87585e-05 0)
(-6.2638e-06 1.90466e-05 0)
(-9.8748e-06 2.52933e-05 0)
(-7.68513e-05 0.000214148 0)
(-0.000234824 0.000508493 0)
(-0.000479168 0.000881339 0)
(-0.000810401 0.00131112 0)
(-0.00123099 0.00177977 0)
(-0.00174206 0.0022722 0)
(-0.00234359 0.00277591 0)
(-0.00303464 0.00328062 0)
(-0.0038134 0.00377787 0)
(-0.00467721 0.00426077 0)
(-0.00562268 0.00472374 0)
(-0.00664576 0.0051623 0)
(-0.00774184 0.00557289 0)
(-0.0089058 0.00595276 0)
(-0.0101321 0.00629978 0)
(-0.011415 0.00661239 0)
(-0.0127484 0.0068895 0)
(-0.014126 0.00713039 0)
(-0.0155414 0.00733469 0)
(-0.016988 0.00750231 0)
(-0.0184595 0.0076334 0)
(-0.0199492 0.00772829 0)
(-0.0214507 0.0077875 0)
(-0.0229575 0.00781168 0)
(-0.0244635 0.00780162 0)
(-0.0259623 0.0077582 0)
(-0.0274481 0.00768237 0)
(-0.0289148 0.00757519 0)
(-0.0303568 0.00743774 0)
(-0.0317685 0.00727118 0)
(-0.0331448 0.0070767 0)
(-0.0344805 0.00685552 0)
(-0.0357707 0.0066089 0)
(-0.0370108 0.00633812 0)
(-0.0381964 0.00604448 0)
(-0.0393233 0.00572929 0)
(-0.0403876 0.00539388 0)
(-0.0413857 0.0050396 0)
(-0.042314 0.00466781 0)
(-0.0431695 0.00427987 0)
(-0.0439492 0.00387715 0)
(-0.0446505 0.00346106 0)
(-0.0452709 0.00303298 0)
(-0.0458085 0.00259434 0)
(-0.0462612 0.00214655 0)
(-0.0466276 0.00169106 0)
(-0.0469063 0.00122932 0)
(-0.0470963 0.000762789 0)
(-0.0471968 0.000292958 0)
(-0.0472075 -0.000178674 0)
(-0.047128 -0.00065059 0)
(-0.0469585 -0.00112126 0)
(-0.0466994 -0.00158912 0)
(-0.0463514 -0.00205261 0)
(-0.0459155 -0.00251014 0)
(-0.045393 -0.00296012 0)
(-0.0447854 -0.00340092 0)
(-0.0440946 -0.00383092 0)
(-0.0433229 -0.00424849 0)
(-0.0424727 -0.00465197 0)
(-0.0415469 -0.00503972 0)
(-0.0405485 -0.00541011 0)
(-0.039481 -0.00576147 0)
(-0.038348 -0.00609219 0)
(-0.0371537 -0.00640064 0)
(-0.0359023 -0.00668524 0)
(-0.0345983 -0.00694441 0)
(-0.0332468 -0.00717665 0)
(-0.0318527 -0.00738045 0)
(-0.0304215 -0.00755441 0)
(-0.0289589 -0.00769716 0)
(-0.0274707 -0.00780742 0)
(-0.025963 -0.007884 0)
(-0.024442 -0.00792581 0)
(-0.0229143 -0.00793187 0)
(-0.0213863 -0.00790134 0)
(-0.0198649 -0.00783353 0)
(-0.0183568 -0.00772792 0)
(-0.0168688 -0.00758419 0)
(-0.0154078 -0.00740222 0)
(-0.0139805 -0.00718216 0)
(-0.0125938 -0.00692442 0)
(-0.0112541 -0.00662975 0)
(-0.00996799 -0.00629926 0)
(-0.00874145 -0.00593448 0)
(-0.00758034 -0.00553745 0)
(-0.00649005 -0.00511075 0)
(-0.00547552 -0.00465765 0)
(-0.00454108 -0.0041822 0)
(-0.00369046 -0.00368934 0)
(-0.00292663 -0.00318512 0)
(-0.00225172 -0.00267685 0)
(-0.001667 -0.00217332 0)
(-0.00117275 -0.00168513 0)
(-0.000768316 -0.00122492 0)
(-0.000451815 -0.000807814 0)
(-0.000220019 -0.000451683 0)
(-7.13747e-05 -0.000177608 0)
(-8.97174e-06 -1.20124e-05 0)
(-1.25426e-05 6.7888e-05 0)
(-9.40132e-05 0.000344093 0)
(-0.000282587 0.000728145 0)
(-0.000569991 0.00119281 0)
(-0.000954618 0.00171598 0)
(-0.00143772 0.00227884 0)
(-0.00201936 0.00286547 0)
(-0.00269857 0.00346253 0)
(-0.00347363 0.00405887 0)
(-0.00434207 0.00464522 0)
(-0.00530067 0.00521395 0)
(-0.00634554 0.00575879 0)
(-0.00747216 0.00627468 0)
(-0.00867549 0.00675755 0)
(-0.00995003 0.00720418 0)
(-0.0112899 0.00761212 0)
(-0.0126888 0.0079795 0)
(-0.0141404 0.00830499 0)
(-0.0156379 0.00858774 0)
(-0.0171746 0.00882726 0)
(-0.0187436 0.00902339 0)
(-0.0203379 0.00917626 0)
(-0.0219508 0.00928623 0)
(-0.0235752 0.00935388 0)
(-0.0252044 0.00937996 0)
(-0.0268318 0.00936534 0)
(-0.0284507 0.00931105 0)
(-0.0300547 0.00921821 0)
(-0.0316376 0.00908804 0)
(-0.0331933 0.00892181 0)
(-0.034716 0.00872089 0)
(-0.0362 0.00848667 0)
(-0.0376399 0.00822061 0)
(-0.0390304 0.00792419 0)
(-0.0403668 0.00759893 0)
(-0.0416442 0.00724637 0)
(-0.0428582 0.00686807 0)
(-0.0440046 0.00646563 0)
(-0.0450795 0.00604065 0)
(-0.0460793 0.00559474 0)
(-0.0470006 0.00512953 0)
(-0.0478401 0.00464667 0)
(-0.0485953 0.00414783 0)
(-0.0492633 0.00363467 0)
(-0.0498421 0.00310888 0)
(-0.0503297 0.00257218 0)
(-0.0507242 0.00202627 0)
(-0.0510245 0.0014729 0)
(-0.0512292 0.000913824 0)
(-0.0513377 0.000350816 0)
(-0.0513495 -0.000214331 0)
(-0.0512642 -0.000779801 0)
(-0.0510822 -0.00134376 0)
(-0.0508037 -0.00190435 0)
(-0.0504296 -0.0024597 0)
(-0.0499608 -0.00300792 0)
(-0.0493987 -0.00354709 0)
(-0.0487451 -0.00407529 0)
(-0.048002 -0.00459057 0)
(-0.0471717 -0.00509099 0)
(-0.0462568 -0.00557458 0)
(-0.0452604 -0.00603937 0)