/*--------------------------------*- C++ -*----------------------------------*\
| =========                 |                                                 |
| \\      /  F ield         | OpenFOAM: The Open Source CFD Toolbox           |
|  \\    /   O peration     | Version:  2212                                  |
|   \\  /    A nd           | Website:  www.openfoam.com                      |
|    \\/     M anipulation  |                                                 |
\*---------------------------------------------------------------------------*/
FoamFile
{
    version     2.0;
    format      ascii;
    arch        "LSB;label=32;scalar=64";
    class       volVectorField;
    location    "0.011";
    object      U;
}
// * * * * * * * * * * * * * * * * * * * * * * * * * * * * * * * * * * * * * //

dimensions      [0 1 -1 0 0 0 0];

internalField   nonuniform List<vector> 
10000
(
(3.44364e-06 -3.24004e-06 0)
(1.19834e-05 -5.44464e-06 0)
(2.09286e-05 -4.63487e-06 0)
(2.43697e-05 -2.194e-06 0)
(1.97951e-05 7.79054e-07 0)
(6.48374e-06 3.81027e-06 0)
(-1.54595e-05 6.68558e-06 0)
(-4.55719e-05 9.31053e-06 0)
(-8.32355e-05 1.16657e-05 0)
(-0.000127753 1.37563e-05 0)
(-0.000178416 1.55991e-05 0)
(-0.000234505 1.71847e-05 0)
(-0.000295317 1.85268e-05 0)
(-0.000360168 1.96484e-05 0)
(-0.000428427 2.05767e-05 0)
(-0.000499482 2.13334e-05 0)
(-0.000572761 2.19155e-05 0)
(-0.000647728 2.23221e-05 0)
(-0.000723886 2.25829e-05 0)
(-0.000800791 2.27288e-05 0)
(-0.000878044 2.27809e-05 0)
(-0.00095527 2.27371e-05 0)
(-0.00103213 2.25866e-05 0)
(-0.0011083 2.23247e-05 0)
(-0.0011835 2.19655e-05 0)
(-0.00125744 2.15351e-05 0)
(-0.0013299 2.10514e-05 0)
(-0.00140064 2.05186e-05 0)
(-0.00146946 1.99313e-05 0)
(-0.00153617 1.92879e-05 0)
(-0.0016006 1.85911e-05 0)
(-0.00166262 1.78496e-05 0)
(-0.00172207 1.70733e-05 0)
(-0.00177884 1.62605e-05 0)
(-0.0018328 1.54136e-05 0)
(-0.00188386 1.4534e-05 0)
(-0.0019319 1.36276e-05 0)
(-0.00197687 1.27056e-05 0)
(-0.00201868 1.17652e-05 0)
(-0.00205727 1.08109e-05 0)
(-0.0020926 9.84811e-06 0)
(-0.00212461 8.86769e-06 0)
(-0.00215325 7.87527e-06 0)
(-0.00217849 6.87618e-06 0)
(-0.00220029 5.86712e-06 0)
(-0.00221863 4.85876e-06 0)
(-0.00223349 3.85244e-06 0)
(-0.00224485 2.83586e-06 0)
(-0.00225267 1.80934e-06 0)
(-0.00225696 7.74233e-07 0)
(-0.00225768 -2.71005e-07 0)
(-0.00225485 -1.31526e-06 0)
(-0.00224845 -2.34979e-06 0)
(-0.00223848 -3.38131e-06 0)
(-0.00222495 -4.41523e-06 0)
(-0.00220787 -5.44982e-06 0)
(-0.00218725 -6.48598e-06 0)
(-0.00216311 -7.52238e-06 0)
(-0.00213548 -8.54943e-06 0)
(-0.00210438 -9.56231e-06 0)
(-0.00206985 -1.0568e-05 0)
(-0.00203191 -1.15704e-05 0)
(-0.00199063 -1.25621e-05 0)
(-0.00194606 -1.35354e-05 0)
(-0.00189827 -1.44876e-05 0)
(-0.00184733 -1.54129e-05 0)
(-0.00179336 -1.63022e-05 0)
(-0.00173645 -1.71516e-05 0)
(-0.00167673 -1.79629e-05 0)
(-0.00161434 -1.87352e-05 0)
(-0.00154941 -1.94618e-05 0)
(-0.00148213 -2.0135e-05 0)
(-0.00141266 -2.07498e-05 0)
(-0.00134119 -2.13041e-05 0)
(-0.00126796 -2.17954e-05 0)
(-0.00119317 -2.22187e-05 0)
(-0.00111708 -2.2565e-05 0)
(-0.00103998 -2.28244e-05 0)
(-0.000962156 -2.29897e-05 0)
(-0.000883956 -2.30557e-05 0)
(-0.000805734 -2.30138e-05 0)
(-0.000727875 -2.28516e-05 0)
(-0.000650808 -2.25581e-05 0)
(-0.000574998 -2.2124e-05 0)
(-0.000500944 -2.15361e-05 0)
(-0.000429184 -2.07728e-05 0)
(-0.000360297 -1.98122e-05 0)
(-0.000294907 -1.86413e-05 0)
(-0.00023367 -1.72555e-05 0)
(-0.00017727 -1.56477e-05 0)
(-0.000126411 -1.38023e-05 0)
(-8.1813e-05 -1.17018e-05 0)
(-4.41932e-05 -9.33703e-06 0)
(-1.42374e-05 -6.7171e-06 0)
(7.46196e-06 -3.87688e-06 0)
(2.05078e-05 -8.95975e-07 0)
(2.48567e-05 2.04085e-06 0)
(2.12017e-05 4.50294e-06 0)
(1.21437e-05 5.53768e-06 0)
(3.40802e-06 3.39883e-06 0)
(5.42158e-06 -1.18287e-05 0)
(1.67366e-05 -1.6589e-05 0)
(2.30428e-05 -9.58079e-06 0)
(1.50403e-05 3.7502e-06 0)
(-1.21959e-05 1.96856e-05 0)
(-6.04268e-05 3.62106e-05 0)
(-0.000129886 5.23524e-05 0)
(-0.000219965 6.75495e-05 0)
(-0.000329498 8.15557e-05 0)
(-0.000457007 9.42452e-05 0)
(-0.000600849 0.000105582 0)
(-0.000759285 0.000115563 0)
(-0.000930552 0.000124203 0)
(-0.00111293 0.000131546 0)
(-0.00130474 0.000137669 0)
(-0.00150437 0.000142647 0)
(-0.00171029 0.000146545 0)
(-0.00192105 0.000149431 0)
(-0.00213531 0.000151377 0)
(-0.00235183 0.000152475 0)
(-0.00256944 0.000152809 0)
(-0.00278709 0.000152451 0)
(-0.0030038 0.000151441 0)
(-0.00321863 0.000149817 0)
(-0.00343078 0.000147622 0)
(-0.00363949 0.000144909 0)
(-0.00384406 0.000141732 0)
(-0.00404386 0.000138139 0)
(-0.0042383 0.000134168 0)
(-0.00442686 0.000129849 0)
(-0.00460905 0.000125214 0)
(-0.00478445 0.000120288 0)
(-0.00495266 0.000115101 0)
(-0.00511332 0.000109674 0)
(-0.00526611 0.000104021 0)
(-0.00541072 9.81737e-05 0)
(-0.0055469 9.21508e-05 0)
(-0.00567439 8.59769e-05 0)
(-0.005793 7.96772e-05 0)
(-0.00590252 7.32555e-05 0)
(-0.00600279 6.67304e-05 0)
(-0.00609366 6.01123e-05 0)
(-0.00617499 5.34024e-05 0)
(-0.00624665 4.66227e-05 0)
(-0.00630857 3.97841e-05 0)
(-0.00636063 3.28901e-05 0)
(-0.00640276 2.5957e-05 0)
(-0.00643491 1.89892e-05 0)
(-0.00645701 1.19812e-05 0)
(-0.00646902 4.94047e-06 0)
(-0.00647092 -2.12023e-06 0)
(-0.00646268 -9.19311e-06 0)
(-0.00644429 -1.62679e-05 0)
(-0.00641577 -2.33307e-05 0)
(-0.00637714 -3.03737e-05 0)
(-0.00632841 -3.73955e-05 0)
(-0.00626965 -4.43887e-05 0)
(-0.00620093 -5.1339e-05 0)
(-0.0061223 -5.82355e-05 0)
(-0.00603388 -6.50708e-05 0)
(-0.00593577 -7.1832e-05 0)
(-0.0058281 -7.85013e-05 0)
(-0.00571102 -8.50626e-05 0)
(-0.00558471 -9.14992e-05 0)
(-0.00544938 -9.77862e-05 0)
(-0.00530526 -0.000103893 0)
(-0.00515263 -0.000109794 0)
(-0.00499178 -0.000115469 0)
(-0.00482305 -0.000120893 0)
(-0.00464683 -0.000126035 0)
(-0.00446351 -0.000130866 0)
(-0.00427356 -0.000135363 0)
(-0.00407749 -0.000139494 0)
(-0.00387586 -0.00014322 0)
(-0.00366924 -0.000146504 0)
(-0.0034583 -0.000149308 0)
(-0.00324376 -0.000151588 0)
(-0.00302643 -0.000153291 0)
(-0.00280716 -0.000154362 0)
(-0.00258689 -0.000154747 0)
(-0.00236665 -0.00015439 0)
(-0.00214755 -0.000153226 0)
(-0.00193078 -0.000151184 0)
(-0.00171762 -0.000148189 0)
(-0.00150943 -0.00014417 0)
(-0.00130771 -0.000139048 0)
(-0.00111402 -0.000132748 0)
(-0.000929981 -0.0001252 0)
(-0.000757315 -0.000116349 0)
(-0.000597786 -0.000106153 0)
(-0.000453179 -9.45845e-05 0)
(-0.000325248 -8.16443e-05 0)
(-0.000215646 -6.73871e-05 0)
(-0.00012585 -5.1959e-05 0)
(-5.69982e-05 -3.56624e-05 0)
(-9.61976e-06 -1.90666e-05 0)
(1.67089e-05 -3.22056e-06 0)
(2.39576e-05 9.96844e-06 0)
(1.71384e-05 1.70729e-05 0)
(5.55956e-06 1.21505e-05 0)
(4.21389e-06 -2.054e-05 0)
(9.76157e-06 -2.31688e-05 0)
(2.47381e-06 -1.81552e-06 0)
(-2.75121e-05 3.2962e-05 0)
(-8.57683e-05 7.38599e-05 0)
(-0.000174643 0.000116686 0)
(-0.000294607 0.000158991 0)
(-0.000445007 0.000199395 0)
(-0.00062436 0.000237053 0)
(-0.000830703 0.000271516 0)
(-0.00106175 0.000302552 0)
(-0.00131502 0.000330075 0)
(-0.00158799 0.00035408 0)
(-0.00187808 0.000374648 0)
(-0.00218279 0.000391902 0)
(-0.00249972 0.000406004 0)
(-0.00282653 0.000417134 0)
(-0.00316102 0.00042547 0)
(-0.00350108 0.000431192 0)
(-0.00384479 0.000434507 0)
(-0.00419031 0.000435602 0)
(-0.00453597 0.00043466 0)
(-0.00488021 0.000431851 0)
(-0.00522158 0.000427313 0)
(-0.00555875 0.000421177 0)
(-0.00589052 0.000413576 0)
(-0.00621578 0.000404635 0)
(-0.00653352 0.000394475 0)
(-0.00684281 0.000383214 0)
(-0.00714282 0.000370952 0)
(-0.00743277 0.000357782 0)
(-0.00771195 0.000343785 0)
(-0.00797975 0.000329032 0)
(-0.00823558 0.000313593 0)
(-0.00847892 0.000297526 0)
(-0.00870931 0.000280892 0)
(-0.00892631 0.00026376 0)
(-0.00912953 0.000246176 0)
(-0.00931863 0.000228193 0)
(-0.00949329 0.000209858 0)
(-0.00965321 0.000191196 0)
(-0.00979816 0.000172248 0)
(-0.00992791 0.000153051 0)
(-0.0100423 0.000133626 0)
(-0.010141 0.00011401 0)
(-0.0102241 9.42358e-05 0)
(-0.0102913 7.43153e-05 0)
(-0.0103425 5.42766e-05 0)
(-0.0103776 3.41503e-05 0)
(-0.0103967 1.39459e-05 0)
(-0.0103996 -6.31635e-06 0)
(-0.0103862 -2.65987e-05 0)
(-0.0103567 -4.68793e-05 0)
(-0.010311 -6.71418e-05 0)
(-0.0102492 -8.73493e-05 0)
(-0.0101713 -0.000107467 0)
(-0.0100774 -0.000127477 0)
(-0.00996759 -0.000147356 0)
(-0.00984204 -0.000167065 0)
(-0.00970091 -0.000186568 0)
(-0.00954437 -0.000205834 0)
(-0.00937265 -0.000224821 0)
(-0.00918604 -0.000243474 0)
(-0.00898482 -0.000261739 0)
(-0.00876931 -0.000279565 0)
(-0.00853989 -0.000296889 0)
(-0.00829702 -0.000313642 0)
(-0.00804115 -0.000329754 0)
(-0.00777282 -0.000345152 0)
(-0.00749261 -0.000359759 0)
(-0.0072012 -0.000373494 0)
(-0.0068993 -0.00038627 0)
(-0.00658771 -0.000397992 0)
(-0.00626729 -0.000408559 0)
(-0.00593902 -0.000417863 0)
(-0.00560397 -0.000425787 0)
(-0.00526328 -0.000432196 0)
(-0.00491821 -0.000436946 0)
(-0.00457015 -0.000439891 0)
(-0.00422058 -0.000440878 0)
(-0.00387112 -0.000439744 0)
(-0.00352352 -0.000436308 0)
(-0.00317964 -0.000430384 0)
(-0.0028415 -0.000421789 0)
(-0.00251123 -0.000410337 0)
(-0.00219109 -0.000395847 0)
(-0.00188345 -0.00037814 0)
(-0.00159079 -0.000357065 0)
(-0.00131565 -0.000332502 0)
(-0.00106063 -0.000304378 0)
(-0.000828316 -0.000272687 0)
(-0.000621179 -0.000237524 0)
(-0.000441518 -0.000199153 0)
(-0.000291296 -0.000158092 0)
(-0.000171911 -0.000115262 0)
(-8.38784e-05 -7.22114e-05 0)
(-2.64322e-05 -3.15062e-05 0)
(3.04954e-06 2.73105e-06 0)
(1.01638e-05 2.39542e-05 0)
(4.53993e-06 2.12572e-05 0)
(1.83262e-06 -2.41815e-05 0)
(-2.84317e-06 -1.63169e-05 0)
(-3.02495e-05 2.74899e-05 0)
(-8.86959e-05 9.21732e-05 0)
(-0.000183341 0.000166936 0)
(-0.000316667 0.000245138 0)
(-0.000489182 0.000322765 0)
(-0.000700086 0.000397318 0)
(-0.000947673 0.000467239 0)
(-0.00122957 0.000531575 0)
(-0.00154302 0.000589793 0)
(-0.00188502 0.000641647 0)
(-0.00225241 0.000687089 0)
(-0.00264201 0.000726192 0)
(-0.00305063 0.000759134 0)
(-0.00347519 0.000786168 0)
(-0.00391271 0.000807593 0)
(-0.00436035 0.000823729 0)
(-0.00481539 0.000834919 0)
(-0.00527528 0.000841481 0)
(-0.00573762 0.00084376 0)
(-0.00620017 0.000842076 0)
(-0.00666088 0.000836746 0)
(-0.00711783 0.000828062 0)
(-0.00756926 0.000816298 0)
(-0.00801355 0.000801702 0)
(-0.0084492 0.000784511 0)
(-0.00887485 0.000764953 0)
(-0.00928927 0.000743241 0)
(-0.00969131 0.000719573 0)
(-0.0100799 0.000694127 0)
(-0.0104542 0.000667069 0)
(-0.0108133 0.000638536 0)
(-0.0111563 0.000608662 0)
(-0.0114827 0.000577576 0)
(-0.0117917 0.000545387 0)
(-0.0120829 0.000512211 0)
(-0.0123555 0.000478152 0)
(-0.0126093 0.000443289 0)
(-0.0128437 0.000407714 0)
(-0.0130583 0.0003715 0)
(-0.0132528 0.000334703 0)
(-0.013427 0.000297404 0)
(-0.0135804 0.000259666 0)
(-0.013713 0.000221531 0)
(-0.0138244 0.000183066 0)
(-0.0139145 0.000144324 0)
(-0.0139832 0.000105337 0)
(-0.0140303 6.61599e-05 0)
(-0.0140557 2.68543e-05 0)
(-0.0140595 -1.25422e-05 0)
(-0.0140415 -5.19874e-05 0)
(-0.0140017 -9.1422e-05 0)
(-0.0139402 -0.000130795 0)
(-0.013857 -0.00017006 0)
(-0.0137523 -0.000209156 0)
(-0.0136261 -0.000248019 0)
(-0.0134785 -0.000286593 0)
(-0.0133099 -0.000324819 0)
(-0.0131204 -0.00036263 0)
(-0.0129102 -0.000399949 0)
(-0.0126798 -0.000436693 0)
(-0.0124294 -0.00047277 0)
(-0.0121594 -0.000508086 0)
(-0.0118704 -0.000542534 0)
(-0.0115628 -0.000575999 0)
(-0.0112373 -0.000608357 0)
(-0.0108943 -0.00063948 0)
(-0.0105348 -0.000669226 0)
(-0.0101594 -0.000697446 0)
(-0.00976911 -0.000723975 0)
(-0.00936482 -0.000748642 0)
(-0.00894762 -0.000771263 0)
(-0.00851871 -0.000791641 0)
(-0.00807937 -0.000809563 0)
(-0.00763103 -0.000824792 0)
(-0.00717522 -0.000837074 0)
(-0.00671366 -0.000846144 0)
(-0.00624817 -0.000851719 0)
(-0.00578072 -0.000853503 0)
(-0.00531346 -0.000851183 0)
(-0.00484869 -0.000844435 0)
(-0.00438888 -0.000832929 0)
(-0.00393665 -0.000816334 0)
(-0.00349477 -0.000794322 0)
(-0.00306616 -0.000766577 0)
(-0.00265388 -0.000732815 0)
(-0.00226107 -0.000692794 0)
(-0.00189093 -0.000646337 0)
(-0.00154669 -0.00059337 0)
(-0.00123154 -0.000533958 0)
(-0.00094849 -0.000468383 0)
(-0.000700292 -0.00039724 0)
(-0.000489227 -0.00032158 0)
(-0.000316891 -0.000243132 0)
(-0.000183877 -0.000164632 0)
(-8.93842e-05 -9.03302e-05 0)
(-3.07091e-05 -2.6618e-05 0)
(-2.80547e-06 1.6969e-05 0)
(2.13793e-06 2.5089e-05 0)
(-9.58567e-07 -2.00979e-05 0)
(-1.8085e-05 8.91512e-06 0)
(-6.96197e-05 8.37962e-05 0)
(-0.000160705 0.000186108 0)
(-0.000295297 0.00030212 0)
(-0.000475596 0.00042297 0)
(-0.000701886 0.000543022 0)
(-0.000973164 0.000658637 0)
(-0.00128743 0.000767447 0)
(-0.00164202 0.000867932 0)
(-0.00203378 0.000959179 0)
(-0.00245927 0.00104072 0)
(-0.00291487 0.0011124 0)
(-0.00339687 0.00117427 0)
(-0.00390159 0.00122658 0)
(-0.00442538 0.00126963 0)
(-0.00496472 0.00130385 0)
(-0.00551621 0.0013297 0)
(-0.00607663 0.0013477 0)
(-0.00664292 0.00135835 0)
(-0.00721218 0.00136214 0)
(-0.00778171 0.00135958 0)
(-0.00834899 0.00135114 0)
(-0.00891168 0.00133727 0)
(-0.00946764 0.00131843 0)
(-0.0100149 0.00129502 0)
(-0.0105516 0.00126742 0)
(-0.011076 0.001236 0)
(-0.0115867 0.00120108 0)
(-0.0120822 0.00116299 0)
(-0.0125612 0.001122 0)
(-0.0130226 0.00107838 0)
(-0.0134653 0.00103237 0)
(-0.0138884 0.000984184 0)
(-0.0142909 0.000934024 0)
(-0.014672 0.000882075 0)
(-0.0150311 0.000828505 0)
(-0.0153674 0.000773486 0)
(-0.0156804 0.000717156 0)
(-0.0159696 0.000659641 0)
(-0.0162344 0.000601078 0)
(-0.0164744 0.000541569 0)
(-0.0166892 0.000481211 0)
(-0.0168785 0.000420124 0)
(-0.017042 0.000358403 0)
(-0.0171794 0.000296124 0)
(-0.0172905 0.000233379 0)
(-0.0173752 0.000170256 0)
(-0.0174332 0.000106824 0)
(-0.0174644 4.31597e-05 0)
(-0.0174689 -2.06408e-05 0)
(-0.0174465 -8.44931e-05 0)
(-0.0173973 -0.000148324 0)
(-0.0173212 -0.000212052 0)
(-0.0172184 -0.000275582 0)
(-0.017089 -0.000338822 0)
(-0.0169331 -0.000401681 0)
(-0.0167509 -0.000464057 0)
(-0.0165427 -0.000525841 0)
(-0.0163088 -0.000586923 0)
(-0.0160494 -0.000647184 0)
(-0.015765 -0.000706489 0)
(-0.0154561 -0.000764697 0)
(-0.0151231 -0.000821657 0)
(-0.0147667 -0.000877198 0)
(-0.0143874 -0.000931133 0)
(-0.013986 -0.000983271 0)
(-0.0135633 -0.00103341 0)
(-0.0131202 -0.00108132 0)
(-0.0126576 -0.00112676 0)
(-0.0121768 -0.00116947 0)
(-0.0116788 -0.00120917 0)
(-0.011165 -0.00124555 0)
(-0.0106368 -0.0012783 0)
(-0.0100959 -0.00130707 0)
(-0.00954401 -0.00133148 0)
(-0.00898302 -0.00135114 0)
(-0.008415 -0.00136562 0)
(-0.00784219 -0.00137447 0)
(-0.00726701 -0.00137722 0)
(-0.00669206 -0.00137339 0)
(-0.00612011 -0.00136249 0)
(-0.00555415 -0.001344 0)
(-0.00499732 -0.00131745 0)
(-0.00445293 -0.00128233 0)
(-0.00392445 -0.0012382 0)
(-0.00341548 -0.00118466 0)
(-0.0029297 -0.00112137 0)
(-0.00247084 -0.00104813 0)
(-0.00204265 -0.000964917 0)
(-0.00164876 -0.000871915 0)
(-0.00129261 -0.000769656 0)
(-0.000977275 -0.000659146 0)
(-0.000705338 -0.000542057 0)
(-0.000478626 -0.000420998 0)
(-0.000297964 -0.000299918 0)
(-0.000162811 -0.000184659 0)
(-7.0845e-05 -8.36222e-05 0)
(-1.83783e-05 -8.83318e-06 0)
(-7.30463e-07 2.10455e-05 0)
(-3.787e-06 -7.62871e-06 0)
(-3.42465e-05 5.46935e-05 0)
(-0.000111781 0.000169992 0)
(-0.00023774 0.00031768 0)
(-0.000414218 0.000481843 0)
(-0.000642806 0.000651783 0)
(-0.00092335 0.000820385 0)
(-0.00125445 0.000982904 0)
(-0.00163382 0.00113614 0)
(-0.00205847 0.00127798 0)
(-0.00252492 0.00140712 0)
(-0.00302937 0.00152281 0)
(-0.00356779 0.00162475 0)
(-0.00413607 0.00171296 0)
(-0.00473011 0.00178769 0)
(-0.00534581 0.00184935 0)
(-0.00597919 0.00189848 0)
(-0.00662641 0.00193569 0)
(-0.00728379 0.00196164 0)
(-0.00794784 0.00197703 0)
(-0.00861526 0.00198256 0)
(-0.00928292 0.00197892 0)
(-0.00994793 0.00196678 0)
(-0.0106076 0.00194677 0)
(-0.0112593 0.00191953 0)
(-0.0119009 0.00188564 0)
(-0.0125302 0.00184565 0)
(-0.0131452 0.00180009 0)
(-0.0137441 0.00174943 0)
(-0.0143253 0.00169413 0)
(-0.0148872 0.00163459 0)
(-0.0154285 0.00157119 0)
(-0.0159479 0.00150429 0)
(-0.0164443 0.00143421 0)
(-0.0169166 0.00136122 0)
(-0.0173639 0.00128562 0)
(-0.0177853 0.00120764 0)
(-0.01818 0.00112751 0)
(-0.0185474 0.00104545 0)
(-0.0188868 0.000961654 0)
(-0.0191976 0.00087629 0)
(-0.0194793 0.000789542 0)
(-0.0197314 0.000701557 0)
(-0.0199536 0.000612471 0)
(-0.0201454 0.000522438 0)
(-0.0203067 0.0004316 0)
(-0.020437 0.000340071 0)
(-0.0205362 0.000247972 0)
(-0.0206042 0.000155437 0)
(-0.0206408 6.25797e-05 0)
(-0.0206458 -3.04881e-05 0)
(-0.0206194 -0.000123635 0)
(-0.0205614 -0.000216732 0)
(-0.0204719 -0.00030966 0)
(-0.0203511 -0.000402288 0)
(-0.0201989 -0.000494476 0)
(-0.0200158 -0.000586088 0)
(-0.0198018 -0.000676979 0)
(-0.0195572 -0.000766988 0)
(-0.0192824 -0.000855943 0)
(-0.0189779 -0.000943673 0)
(-0.018644 -0.00102999 0)
(-0.0182813 -0.00111468 0)
(-0.0178905 -0.00119752 0)
(-0.0174722 -0.00127828 0)
(-0.0170271 -0.00135669 0)
(-0.0165562 -0.00143247 0)
(-0.0160603 -0.00150531 0)
(-0.0155405 -0.0015749 0)
(-0.0149981 -0.00164088 0)
(-0.0144342 -0.00170287 0)
(-0.0138503 -0.00176048 0)
(-0.013248 -0.00181325 0)
(-0.0126289 -0.00186072 0)
(-0.011995 -0.00190239 0)
(-0.0113483 -0.00193772 0)
(-0.0106909 -0.00196613 0)
(-0.0100254 -0.00198702 0)
(-0.00935425 -0.00199975 0)
(-0.00868031 -0.00200368 0)
(-0.00800656 -0.00199812 0)
(-0.00733619 -0.00198237 0)
(-0.00667263 -0.00195576 0)
(-0.00601946 -0.0019176 0)
(-0.00538044 -0.00186725 0)
(-0.00475949 -0.00180411 0)
(-0.00416066 -0.00172766 0)
(-0.00358808 -0.00163751 0)
(-0.00304592 -0.00153345 0)
(-0.0025383 -0.00141552 0)
(-0.00206925 -0.00128407 0)
(-0.00164255 -0.00113993 0)
(-0.00126159 -0.000984567 0)
(-0.000929261 -0.000820283 0)
(-0.0006477 -0.000650557 0)
(-0.000418137 -0.000480464 0)
(-0.00024055 -0.000317239 0)
(-0.000113362 -0.000170932 0)
(-3.47064e-05 -5.5438e-05 0)
(-3.6503e-06 8.44607e-06 0)
(-6.48333e-06 1.32518e-05 0)
(-5.02513e-05 0.000121671 0)
(-0.000154222 0.000287234 0)
(-0.000315667 0.000488167 0)
(-0.000534606 0.00070715 0)
(-0.000811725 0.000932077 0)
(-0.00114621 0.00115465 0)
(-0.00153619 0.00136908 0)
(-0.00197894 0.00157142 0)
(-0.00247114 0.00175898 0)
(-0.00300901 0.00193002 0)
(-0.00358839 0.00208354 0)
(-0.00420492 0.00221906 0)
(-0.00485416 0.00233653 0)
(-0.00553161 0.00243622 0)
(-0.00623284 0.00251862 0)
(-0.00695348 0.00258437 0)
(-0.00768932 0.00263424 0)
(-0.00843628 0.00266906 0)
(-0.00919051 0.00268971 0)
(-0.00994834 0.0026971 0)
(-0.0107063 0.00269213 0)
(-0.0114612 0.00267568 0)
(-0.0122099 0.0026486 0)
(-0.0129498 0.00261172 0)
(-0.013678 0.0025658 0)
(-0.0143923 0.0025116 0)
(-0.0150905 0.0024498 0)
(-0.0157704 0.00238107 0)
(-0.0164302 0.00230599 0)
(-0.0170682 0.00222513 0)
(-0.0176828 0.002139 0)
(-0.0182726 0.00204807 0)
(-0.0188363 0.00195279 0)
(-0.0193727 0.00185354 0)
(-0.0198807 0.00175069 0)
(-0.0203594 0.0016446 0)
(-0.0208077 0.00153555 0)
(-0.021225 0.00142384 0)
(-0.0216105 0.00130975 0)
(-0.0219635 0.00119351 0)
(-0.0222835 0.00107535 0)
(-0.0225698 0.00095549 0)
(-0.0228222 0.000834139 0)
(-0.0230401 0.000711471 0)
(-0.0232231 0.00058768 0)
(-0.0233711 0.000462951 0)
(-0.0234837 0.000337448 0)
(-0.0235608 0.000211339 0)
(-0.0236022 8.47972e-05 0)
(-0.0236078 -4.20139e-05 0)
(-0.0235775 -0.000168931 0)
(-0.0235115 -0.000295777 0)
(-0.0234096 -0.000422375 0)
(-0.0232722 -0.000548547 0)
(-0.0230992 -0.000674108 0)
(-0.0228909 -0.000798861 0)
(-0.0226475 -0.000922602 0)
(-0.0223695 -0.00104512 0)
(-0.0220573 -0.00116619 0)
(-0.0217112 -0.00128556 0)
(-0.0213318 -0.00140297 0)
(-0.0209198 -0.00151814 0)
(-0.0204758 -0.00163077 0)
(-0.0200006 -0.00174054 0)
(-0.0194951 -0.00184709 0)
(-0.0189603 -0.00195003 0)
(-0.0183973 -0.00204897 0)
(-0.0178071 -0.00214346 0)
(-0.0171913 -0.00223303 0)
(-0.0165512 -0.00231715 0)
(-0.0158885 -0.00239529 0)
(-0.015205 -0.00246686 0)
(-0.0145025 -0.00253121 0)
(-0.0137832 -0.00258766 0)
(-0.0130494 -0.0026355 0)
(-0.0123035 -0.00267395 0)
(-0.0115484 -0.00270223 0)
(-0.0107869 -0.00271947 0)
(-0.0100221 -0.00272483 0)
(-0.00925737 -0.00271741 0)
(-0.00849627 -0.00269632 0)
(-0.00774259 -0.00266067 0)
(-0.00700027 -0.00260959 0)
(-0.00627346 -0.00254227 0)
(-0.00556646 -0.00245796 0)
(-0.0048837 -0.00235605 0)
(-0.00422968 -0.00223609 0)
(-0.00360891 -0.00209789 0)
(-0.00302588 -0.00194156 0)
(-0.00248494 -0.00176766 0)
(-0.00199018 -0.00157732 0)
(-0.00154532 -0.00137245 0)
(-0.00115359 -0.00115597 0)
(-0.000817565 -0.000932157 0)
(-0.000539013 -0.00070706 0)
(-0.000318639 -0.000489048 0)
(-0.000155839 -0.000289411 0)
(-5.07886e-05 -0.000123289 0)
(-6.43684e-06 -1.26659e-05 0)
(-8.98562e-06 4.22338e-05 0)
(-6.55709e-05 0.000209532 0)
(-0.000195381 0.000435371 0)
(-0.000391845 0.000697528 0)
(-0.000652767 0.000977871 0)
(-0.000977765 0.0012634 0)
(-0.00136525 0.00154484 0)
(-0.0018127 0.00181564 0)
(-0.00231692 0.00207112 0)
(-0.00287422 0.00230807 0)
(-0.00348042 0.00252437 0)
(-0.0041311 0.00271874 0)
(-0.00482157 0.00289056 0)
(-0.00554707 0.00303969 0)
(-0.00630278 0.00316639 0)
(-0.00708395 0.00327123 0)
(-0.00788591 0.00335496 0)
(-0.00870412 0.0034185 0)
(-0.00953419 0.00346286 0)
(-0.0103719 0.00348912 0)
(-0.0112134 0.00349839 0)
(-0.0120548 0.00349179 0)
(-0.0128926 0.00347041 0)
(-0.0137235 0.00343534 0)
(-0.0145444 0.00338761 0)
(-0.0153525 0.00332822 0)
(-0.0161451 0.0032581 0)
(-0.0169197 0.00317814 0)
(-0.0176741 0.00308917 0)
(-0.0184063 0.00299196 0)
(-0.0191143 0.00288723 0)
(-0.0197964 0.00277566 0)
(-0.0204509 0.00265782 0)
(-0.0210766 0.00253431 0)
(-0.0216719 0.00240563 0)
(-0.0222357 0.00227225 0)
(-0.022767 0.00213462 0)
(-0.0232646 0.00199316 0)
(-0.0237278 0.00184822 0)
(-0.0241556 0.00170014 0)
(-0.0245474 0.00154926 0)
(-0.0249026 0.00139588 0)
(-0.0252204 0.00124026 0)
(-0.0255004 0.00108268 0)
(-0.0257422 0.000923404 0)
(-0.0259453 0.000762654 0)
(-0.0261095 0.000600668 0)
(-0.0262344 0.000437676 0)
(-0.0263198 0.0002739 0)
(-0.0263656 0.00010956 0)
(-0.0263716 -5.51234e-05 0)
(-0.0263379 -0.000219925 0)
(-0.0262644 -0.000384625 0)
(-0.0261512 -0.000548997 0)
(-0.0259983 -0.000712799 0)
(-0.0258061 -0.000875783 0)
(-0.0255747 -0.0010377 0)
(-0.0253044 -0.00119828 0)
(-0.0249957 -0.00135725 0)
(-0.0246489 -0.0015143 0)
(-0.0242646 -0.00166913 0)
(-0.0238434 -0.00182139 0)
(-0.0233859 -0.00197071 0)
(-0.022893 -0.00211671 0)
(-0.0223656 -0.00225896 0)
(-0.0218045 -0.00239701 0)
(-0.0212109 -0.00253036 0)
(-0.0205861 -0.0026585 0)
(-0.0199313 -0.00278085 0)
(-0.019248 -0.00289679 0)
(-0.0185378 -0.00300566 0)
(-0.0178026 -0.00310676 0)
(-0.0170443 -0.00319933 0)
(-0.016265 -0.00328254 0)
(-0.0154671 -0.00335553 0)
(-0.0146532 -0.00341738 0)
(-0.0138258 -0.00346711 0)
(-0.0129881 -0.00350369 0)
(-0.0121432 -0.00352609 0)
(-0.0112945 -0.00353321 0)
(-0.0104457 -0.00352394 0)
(-0.00960058 -0.00349717 0)
(-0.00876329 -0.0034518 0)
(-0.0079381 -0.00338677 0)
(-0.00712947 -0.0033011 0)
(-0.00634203 -0.00319391 0)
(-0.00558052 -0.00306448 0)
(-0.00484977 -0.00291232 0)
(-0.0041546 -0.00273726 0)
(-0.00349982 -0.00253951 0)
(-0.00289005 -0.00231981 0)
(-0.00232973 -0.00207959 0)
(-0.00182294 -0.00182118 0)
(-0.00137329 -0.00154805 0)
(-0.000983884 -0.00126516 0)
(-0.000657151 -0.000979351 0)
(-0.000394654 -0.000699838 0)
(-0.000196882 -0.00043876 0)
(-6.6104e-05 -0.00021196 0)
(-9.00626e-06 -4.19196e-05 0)
(-1.12805e-05 7.88309e-05 0)
(-7.99213e-05 0.000317426 0)
(-0.000234454 0.000613489 0)
(-0.000464713 0.00094482 0)
(-0.000766402 0.00129305 0)
(-0.00113798 0.00164458 0)
(-0.00157697 0.00198955 0)
(-0.00208012 0.00232075 0)
(-0.00264373 0.00263296 0)
(-0.00326361 0.00292251 0)
(-0.00393525 0.00318693 0)
(-0.00465387 0.0034247 0)
(-0.00541449 0.00363504 0)
(-0.00621206 0.00381777 0)
(-0.00704149 0.00397315 0)
(-0.00789772 0.00410179 0)
(-0.0087758 0.00420456 0)
(-0.00967091 0.00428252 0)
(-0.0105784 0.00433689 0)
(-0.0114938 0.00436893 0)
(-0.0124129 0.00437997 0)
(-0.0133316 0.00437136 0)
(-0.0142462 0.00434441 0)
(-0.0151532 0.00430045 0)
(-0.0160491 0.00424073 0)
(-0.0169309 0.00416648 0)
(-0.0177957 0.00407884 0)
(-0.018641 0.0039789 0)
(-0.0194642 0.00386769 0)
(-0.0202631 0.00374617 0)
(-0.0210356 0.00361521 0)
(-0.0217798 0.00347566 0)
(-0.0224941 0.00332827 0)
(-0.0231767 0.00317373 0)
(-0.0238264 0.0030127 0)
(-0.0244416 0.00284577 0)
(-0.0250213 0.00267349 0)
(-0.0255644 0.00249636 0)
(-0.0260698 0.00231487 0)
(-0.0265367 0.00212943 0)
(-0.0269642 0.00194045 0)
(-0.0273517 0.00174831 0)
(-0.0276985 0.00155337 0)
(-0.028004 0.00135595 0)
(-0.0282678 0.00115638 0)
(-0.0284894 0.000954969 0)
(-0.0286684 0.000752005 0)
(-0.0288046 0.00054777 0)
(-0.0288977 0.000342555 0)
(-0.0289475 0.000136641 0)
(-0.028954 -6.96983e-05 0)
(-0.028917 -0.000276185 0)
(-0.0288366 -0.000482527 0)
(-0.0287129 -0.000688436 0)
(-0.0285459 -0.000893615 0)
(-0.0283359 -0.00109776 0)
(-0.0280832 -0.00130054 0)
(-0.0277881 -0.00150163 0)
(-0.027451 -0.00170067 0)
(-0.0270724 -0.00189728 0)
(-0.0266529 -0.00209108 0)
(-0.0261931 -0.00228163 0)
(-0.0256938 -0.00246848 0)
(-0.0251559 -0.00265113 0)
(-0.0245803 -0.00282907 0)
(-0.023968 -0.00300171 0)
(-0.0233203 -0.00316846 0)
(-0.0226385 -0.00332865 0)
(-0.021924 -0.00348157 0)
(-0.0211785 -0.00362647 0)
(-0.0204037 -0.00376251 0)
(-0.0196017 -0.00388882 0)
(-0.0187744 -0.00400444 0)
(-0.0179243 -0.00410838 0)
(-0.0170538 -0.00419955 0)
(-0.0161658 -0.00427682 0)
(-0.0152631 -0.004339 0)
(-0.0143489 -0.00438484 0)
(-0.0134268 -0.00441306 0)
(-0.0125003 -0.00442234 0)
(-0.0115734 -0.00441134 0)
(-0.0106502 -0.00437872 0)
(-0.00973498 -0.00432316 0)
(-0.00883241 -0.00424342 0)
(-0.00794719 -0.00413834 0)
(-0.00708422 -0.00400691 0)
(-0.00624854 -0.0038483 0)
(-0.00544525 -0.003662 0)
(-0.00467949 -0.00344783 0)
(-0.00395631 -0.00320611 0)
(-0.00328068 -0.00293775 0)
(-0.00265735 -0.00264443 0)
(-0.00209079 -0.00232887 0)
(-0.0015851 -0.00199499 0)
(-0.00114393 -0.0016483 0)
(-0.000770461 -0.00129622 0)
(-0.000467195 -0.00094856 0)
(-0.000235742 -0.000617955 0)
(-8.04068e-05 -0.000320544 0)
(-1.13301e-05 -7.87862e-05 0)
(-1.33766e-05 0.000122498 0)
(-9.32231e-05 0.000444207 0)
(-0.000271048 0.000820179 0)
(-0.000533469 0.00122857 0)
(-0.000874225 0.00165111 0)
(-0.00129062 0.002074 0)
(-0.00177923 0.00248696 0)
(-0.00233607 0.00288237 0)
(-0.00295678 0.0032546 0)
(-0.00363674 0.00359961 0)
(-0.00437101 0.00391466 0)
(-0.00515445 0.00419801 0)
(-0.00598179 0.00444876 0)
(-0.00684767 0.00466669 0)
(-0.00774676 0.00485206 0)
(-0.00867372 0.00500556 0)
(-0.00962335 0.00512817 0)
(-0.0105906 0.00522112 0)
(-0.0115705 0.00528577 0)
(-0.0125585 0.00532363 0)
(-0.01355 0.00533622 0)
(-0.0145407 0.00532514 0)
(-0.0155267 0.00529194 0)
(-0.0165043 0.00523818 0)
(-0.0174698 0.00516535 0)
(-0.01842 0.0050749 0)
(-0.0193518 0.00496822 0)
(-0.0202624 0.0048466 0)
(-0.0211493 0.00471126 0)
(-0.0220099 0.00456338 0)
(-0.0228421 0.00440402 0)
(-0.0236438 0.00423415 0)
(-0.0244132 0.00405473 0)
(-0.0251486 0.00386658 0)
(-0.0258484 0.0036705 0)
(-0.0265111 0.00346721 0)
(-0.0271356 0.00325738 0)
(-0.0277205 0.00304162 0)
(-0.0282649 0.0028205 0)
(-0.0287678 0.00259457 0)
(-0.0292284 0.0023643 0)
(-0.0296457 0.00213016 0)
(-0.0300192 0.00189259 0)
(-0.0303483 0.00165199 0)
(-0.0306324 0.00140876 0)
(-0.030871 0.00116326 0)
(-0.0310637 0.000915877 0)
(-0.0312103 0.000666949 0)
(-0.0313105 0.000416823 0)
(-0.031364 0.000165843 0)
(-0.0313709 -8.5647e-05 0)
(-0.0313309 -0.0003373 0)
(-0.0312442 -0.000588769 0)
(-0.0311107 -0.000839698 0)
(-0.0309307 -0.00108972 0)
(-0.0307044 -0.00133846 0)
(-0.030432 -0.00158552 0)
(-0.030114 -0.00183049 0)
(-0.0297507 -0.00207294 0)
(-0.0293428 -0.00231241 0)
(-0.0288907 -0.00254842 0)
(-0.0283954 -0.00278045 0)
(-0.0278574 -0.00300793 0)
(-0.0272779 -0.00323028 0)
(-0.0266577 -0.00344685 0)
(-0.0259982 -0.00365696 0)
(-0.0253004 -0.00385986 0)
(-0.024566 -0.00405476 0)
(-0.0237964 -0.00424079 0)
(-0.0229934 -0.00441703 0)
(-0.0221588 -0.00458249 0)
(-0.0212949 -0.0047361 0)
(-0.0204038 -0.00487672 0)
(-0.019488 -0.00500313 0)
(-0.0185503 -0.00511404 0)
(-0.0175935 -0.00520811 0)
(-0.0166209 -0.0052839 0)
(-0.0156357 -0.00533994 0)
(-0.0146418 -0.00537469 0)
(-0.0136429 -0.0053866 0)
(-0.0126431 -0.00537409 0)
(-0.0116469 -0.00533559 0)
(-0.0106588 -0.00526956 0)
(-0.0096836 -0.00517457 0)
(-0.00872636 -0.00504928 0)
(-0.00779221 -0.00489253 0)
(-0.00688642 -0.00470342 0)
(-0.00601438 -0.00448137 0)
(-0.00518147 -0.00422621 0)
(-0.00439306 -0.00393832 0)
(-0.00365442 -0.00361876 0)
(-0.00297066 -0.00326946 0)
(-0.00234668 -0.0028934 0)
(-0.00178707 -0.00249489 0)
(-0.00129611 -0.00207981 0)
(-0.000877787 -0.00165601 0)
(-0.000535532 -0.00123365 0)
(-0.000272074 -0.000825565 0)
(-9.36171e-05 -0.00044789 0)
(-1.34209e-05 -0.000122685 0)
(-1.52672e-05 0.000172655 0)
(-0.000105468 0.000588601 0)
(-0.000305055 0.0010538 0)
(-0.000597795 0.00154695 0)
(-0.000975647 0.00205015 0)
(-0.00143482 0.00254964 0)
(-0.00197095 0.00303498 0)
(-0.00257923 0.00349828 0)
(-0.00325471 0.00393362 0)
(-0.00399222 0.00433673 0)
(-0.0047864 0.00470465 0)
(-0.00563174 0.0050355 0)
(-0.00652264 0.00532829 0)
(-0.00745346 0.00558275 0)
(-0.00841859 0.0057992 0)
(-0.00941246 0.00597839 0)
(-0.0104296 0.00612144 0)
(-0.0114648 0.00622972 0)
(-0.0125128 0.0063048 0)
(-0.0135689 0.00634837 0)
(-0.0146281 0.00636222 0)
(-0.0156863 0.00634815 0)
(-0.016739 0.00630797 0)
(-0.0177824 0.00624349 0)
(-0.0188128 0.00615644 0)
(-0.0198267 0.00604852 0)
(-0.0208208 0.00592132 0)
(-0.0217923 0.00577639 0)
(-0.0227382 0.00561516 0)
(-0.0236562 0.00543899 0)
(-0.0245438 0.00524915 0)
(-0.0253988 0.0050468 0)
(-0.0262194 0.00483304 0)
(-0.0270036 0.00460887 0)
(-0.0277499 0.00437523 0)
(-0.0284566 0.00413297 0)
(-0.0291225 0.0038829 0)
(-0.0297463 0.00362575 0)
(-0.0303269 0.00336219 0)
(-0.0308631 0.00309285 0)
(-0.0313542 0.00281834 0)
(-0.0317992 0.0025392 0)
(-0.0321974 0.00225595 0)
(-0.0325483 0.00196907 0)
(-0.0328511 0.00167905 0)
(-0.0331055 0.00138633 0)
(-0.0333109 0.00109135 0)
(-0.0334672 0.000794521 0)
(-0.0335739 0.000496271 0)
(-0.0336309 0.000197011 0)
(-0.0336381 -0.000102851 0)
(-0.0335953 -0.000402901 0)
(-0.0335027 -0.000702719 0)
(-0.0333603 -0.00100188 0)
(-0.0331683 -0.00129994 0)
(-0.0329268 -0.00159645 0)