/*--------------------------------*- C++ -*----------------------------------*\
| =========                 |                                                 |
| \\      /  F ield         | OpenFOAM: The Open Source CFD Toolbox           |
|  \\    /   O peration     | Version:  2212                                  |
|   \\  /    A nd           | Website:  www.openfoam.com                      |
|    \\/     M anipulation  |                                                 |
\*---------------------------------------------------------------------------*/
FoamFile
{
    version     2.0;
    format      ascii;
    arch        "LSB;label=32;scalar=64";
    class       volVectorField;
    location    "0.011";
    object      U_0;
}
// * * * * * * * * * * * * * * * * * * * * * * * * * * * * * * * * * * * * * //

dimensions      [0 1 -1 0 0 0 0];

internalField   nonuniform List<vector> 
10000
(
(3.63297e-06 -3.0034e-06 0)
(1.09725e-05 -2.54859e-06 0)
(1.47865e-05 -2.88997e-08 0)
(1.22866e-05 1.61223e-06 0)
(2.95693e-06 3.28007e-06 0)
(-1.3219e-05 5.25395e-06 0)
(-3.67154e-05 7.43516e-06 0)
(-6.75982e-05 9.60802e-06 0)
(-0.000105536 1.1706e-05 0)
(-0.000150033 1.36282e-05 0)
(-0.000200482 1.53402e-05 0)
(-0.000256209 1.68793e-05 0)
(-0.000316577 1.82066e-05 0)
(-0.00038092 1.93103e-05 0)
(-0.000448573 2.02317e-05 0)
(-0.000518968 2.09716e-05 0)
(-0.000591545 2.15475e-05 0)
(-0.000665744 2.19885e-05 0)
(-0.000741108 2.22778e-05 0)
(-0.00081718 2.24012e-05 0)
(-0.000893519 2.23984e-05 0)
(-0.000969762 2.22906e-05 0)
(-0.00104557 2.20832e-05 0)
(-0.00112062 2.17948e-05 0)
(-0.00119461 2.14468e-05 0)
(-0.00126731 2.10437e-05 0)
(-0.00133849 2.05803e-05 0)
(-0.00140793 2.00586e-05 0)
(-0.00147543 1.94743e-05 0)
(-0.00154084 1.88224e-05 0)
(-0.00160399 1.81112e-05 0)
(-0.00166474 1.73663e-05 0)
(-0.00172295 1.66114e-05 0)
(-0.00177853 1.58388e-05 0)
(-0.00183136 1.50342e-05 0)
(-0.00188135 1.41898e-05 0)
(-0.00192841 1.33116e-05 0)
(-0.00197247 1.24177e-05 0)
(-0.00201346 1.151e-05 0)
(-0.00205131 1.05933e-05 0)
(-0.00208597 9.66996e-06 0)
(-0.00211737 8.7185e-06 0)
(-0.00214547 7.73837e-06 0)
(-0.00217023 6.74278e-06 0)
(-0.00219161 5.737e-06 0)
(-0.00220956 4.73633e-06 0)
(-0.00222408 3.73922e-06 0)
(-0.00223513 2.72569e-06 0)
(-0.00224268 1.69811e-06 0)
(-0.00224674 6.63777e-07 0)
(-0.00224728 -3.81281e-07 0)
(-0.00224429 -1.427e-06 0)
(-0.00223779 -2.45934e-06 0)
(-0.00222776 -3.48274e-06 0)
(-0.00221422 -4.50413e-06 0)
(-0.00219719 -5.52399e-06 0)
(-0.00217667 -6.5477e-06 0)
(-0.00215269 -7.57591e-06 0)
(-0.00212527 -8.59186e-06 0)
(-0.00209445 -9.58152e-06 0)
(-0.00206028 -1.05517e-05 0)
(-0.00202278 -1.15133e-05 0)
(-0.00198204 -1.24643e-05 0)
(-0.0019381 -1.3398e-05 0)
(-0.00189102 -1.43113e-05 0)
(-0.00184088 -1.51988e-05 0)
(-0.00178779 -1.60536e-05 0)
(-0.00173182 -1.68753e-05 0)
(-0.00167309 -1.76683e-05 0)
(-0.00161171 -1.84323e-05 0)
(-0.00154782 -1.91604e-05 0)
(-0.00148155 -1.9843e-05 0)
(-0.00141308 -2.04715e-05 0)
(-0.00134259 -2.10394e-05 0)
(-0.00127027 -2.15437e-05 0)
(-0.00119635 -2.19837e-05 0)
(-0.00112106 -2.23559e-05 0)
(-0.00104468 -2.26512e-05 0)
(-0.000967493 -2.28583e-05 0)
(-0.000889834 -2.29652e-05 0)
(-0.000812051 -2.2958e-05 0)
(-0.00073453 -2.2822e-05 0)
(-0.000657702 -2.25481e-05 0)
(-0.000582035 -2.21327e-05 0)
(-0.000508029 -2.15682e-05 0)
(-0.000436217 -2.08368e-05 0)
(-0.000367171 -1.99148e-05 0)
(-0.000301508 -1.87839e-05 0)
(-0.000239887 -1.74377e-05 0)
(-0.000182994 -1.58691e-05 0)
(-0.000131541 -1.4061e-05 0)
(-8.62597e-05 -1.19944e-05 0)
(-4.78877e-05 -9.65595e-06 0)
(-1.71407e-05 -7.05048e-06 0)
(5.35819e-06 -4.21302e-06 0)
(1.91753e-05 -1.21596e-06 0)
(2.42135e-05 1.76865e-06 0)
(2.10936e-05 4.32376e-06 0)
(1.22925e-05 5.51219e-06 0)
(3.512e-06 3.48977e-06 0)
(8.14178e-06 -1.25948e-05 0)
(2.00207e-05 -1.24004e-05 0)
(2.31368e-05 -1.62136e-07 0)
(9.08343e-06 1.26042e-05 0)
(-2.4405e-05 2.5994e-05 0)
(-7.75082e-05 4.02624e-05 0)
(-0.000150672 5.47067e-05 0)
(-0.00024352 6.88357e-05 0)
(-0.0003551 8.21379e-05 0)
(-0.000484129 9.43494e-05 0)
(-0.000628999 0.000105357 0)
(-0.000788099 0.000115075 0)
(-0.000959707 0.000123514 0)
(-0.00114207 0.00013071 0)
(-0.00133357 0.000136677 0)
(-0.0015326 0.000141501 0)
(-0.00173762 0.000145264 0)
(-0.00194723 0.000148046 0)
(-0.00216009 0.000149895 0)
(-0.00237493 0.000150887 0)
(-0.00259064 0.000151082 0)
(-0.00280615 0.000150555 0)
(-0.00302051 0.000149368 0)
(-0.00323282 0.000147595 0)
(-0.00344228 0.000145292 0)
(-0.00364817 0.000142506 0)
(-0.00384981 0.000139287 0)
(-0.0040466 0.00013568 0)
(-0.00423798 0.000131716 0)
(-0.00442345 0.000127406 0)
(-0.00460257 0.000122786 0)
(-0.00477493 0.000117894 0)
(-0.00494015 0.000112769 0)
(-0.00509791 0.000107436 0)
(-0.00524789 0.000101906 0)
(-0.00538982 9.62003e-05 0)
(-0.00552344 9.03235e-05 0)
(-0.00564851 8.42886e-05 0)
(-0.00576486 7.81248e-05 0)
(-0.0058723 7.18406e-05 0)
(-0.00597065 6.54542e-05 0)
(-0.00605977 5.8972e-05 0)
(-0.00613951 5.23843e-05 0)
(-0.00620976 4.5714e-05 0)
(-0.00627042 3.89786e-05 0)
(-0.00632139 3.21793e-05 0)
(-0.00636261 2.53337e-05 0)
(-0.00639402 1.84519e-05 0)
(-0.00641554 1.15311e-05 0)
(-0.00642713 4.58109e-06 0)
(-0.00642878 -2.38661e-06 0)
(-0.00642047 -9.36856e-06 0)
(-0.00640218 -1.63519e-05 0)
(-0.00637395 -2.33136e-05 0)
(-0.00633577 -3.02442e-05 0)
(-0.00628768 -3.71503e-05 0)
(-0.00622974 -4.40311e-05 0)
(-0.00616202 -5.08682e-05 0)
(-0.00608459 -5.76422e-05 0)
(-0.00599754 -6.43406e-05 0)
(-0.00590098 -7.0951e-05 0)
(-0.00579506 -7.74587e-05 0)
(-0.00567992 -8.38533e-05 0)
(-0.00555571 -9.0126e-05 0)
(-0.00542265 -9.62587e-05 0)
(-0.00528096 -0.000102225 0)
(-0.0051309 -0.000108005 0)
(-0.00497272 -0.000113583 0)
(-0.00480676 -0.000118937 0)
(-0.00463337 -0.000124039 0)
(-0.0044529 -0.000128862 0)
(-0.0042658 -0.000133384 0)
(-0.00407255 -0.000137569 0)
(-0.00387367 -0.00014137 0)
(-0.00366973 -0.000144741 0)
(-0.00346132 -0.000147648 0)
(-0.00324917 -0.000150055 0)
(-0.00303405 -0.000151913 0)
(-0.0028168 -0.000153164 0)
(-0.00259831 -0.000153743 0)
(-0.0023796 -0.000153583 0)
(-0.00216176 -0.000152613 0)
(-0.00194597 -0.000150763 0)
(-0.00173349 -0.000147963 0)
(-0.00152569 -0.000144144 0)
(-0.00132404 -0.00013923 0)
(-0.00113011 -0.000133147 0)
(-0.000945542 -0.000125821 0)
(-0.000772043 -0.000117188 0)
(-0.000611405 -0.000107197 0)
(-0.000465448 -9.58066e-05 0)
(-0.000335961 -8.30096e-05 0)
(-0.000224649 -6.88521e-05 0)
(-0.000133054 -5.34691e-05 0)
(-6.23903e-05 -3.71497e-05 0)
(-1.32808e-05 -2.04474e-05 0)
(1.45926e-05 -4.38361e-06 0)
(2.30752e-05 9.17861e-06 0)
(1.70115e-05 1.68345e-05 0)
(5.61918e-06 1.23136e-05 0)
(8.55211e-06 -2.58552e-05 0)
(1.77219e-05 -2.06292e-05 0)
(1.13378e-05 1.08602e-05 0)
(-2.16478e-05 4.68953e-05 0)
(-8.4587e-05 8.54099e-05 0)
(-0.000178195 0.000125362 0)
(-0.000302587 0.000165327 0)
(-0.000456925 0.000203959 0)
(-0.000639763 0.000240302 0)
(-0.000848996 0.000273779 0)
(-0.00108241 0.000303972 0)
(-0.00133752 0.000330753 0)
(-0.00161176 0.000354122 0)
(-0.00190262 0.000374074 0)
(-0.00220758 0.000390744 0)
(-0.00252419 0.000404295 0)
(-0.00285019 0.00041488 0)
(-0.00318336 0.000422701 0)
(-0.00352165 0.000427959 0)
(-0.00386313 0.000430825 0)
(-0.00420602 0.000431482 0)
(-0.00454867 0.00043012 0)
(-0.00488956 0.000426901 0)
(-0.00522729 0.000421988 0)
(-0.00556057 0.000415535 0)
(-0.00588823 0.000407677 0)
(-0.00620922 0.000398548 0)
(-0.00652255 0.000388275 0)
(-0.00682734 0.000376966 0)
(-0.0071228 0.000364706 0)
(-0.00740819 0.000351579 0)
(-0.00768284 0.000337668 0)
(-0.00794617 0.000323045 0)
(-0.00819762 0.000307786 0)
(-0.00843672 0.000291952 0)
(-0.008663 0.000275596 0)
(-0.00887605 0.000258772 0)
(-0.00907551 0.000241509 0)
(-0.00926105 0.000223848 0)
(-0.00943238 0.000205842 0)
(-0.00958922 0.000187516 0)
(-0.00973134 0.000168907 0)
(-0.00985853 0.000150053 0)
(-0.00997058 0.000130965 0)
(-0.0100673 0.000111681 0)
(-0.0101486 9.22344e-05 0)
(-0.0102144 7.26326e-05 0)
(-0.0102645 5.29091e-05 0)
(-0.0102989 3.31088e-05 0)
(-0.0103174 1.32408e-05 0)
(-0.0103201 -6.68408e-06 0)
(-0.0103069 -2.66284e-05 0)
(-0.0102779 -4.65659e-05 0)
(-0.0102329 -6.64791e-05 0)
(-0.0101722 -8.63304e-05 0)
(-0.0100957 -0.000106086 0)
(-0.0100035 -0.000125735 0)
(-0.00989569 -0.000145256 0)
(-0.00977245 -0.0001646 0)
(-0.00963393 -0.000183728 0)
(-0.00948027 -0.000202612 0)
(-0.00931171 -0.000221217 0)
(-0.0091285 -0.000239494 0)
(-0.00893092 -0.000257396 0)
(-0.00871925 -0.000274882 0)
(-0.00849387 -0.000291902 0)
(-0.00825521 -0.000308396 0)
(-0.00800371 -0.000324301 0)
(-0.00773985 -0.000339546 0)
(-0.00746418 -0.000354059 0)
(-0.00717736 -0.000367763 0)
(-0.00688006 -0.000380579 0)
(-0.00657302 -0.00039241 0)
(-0.00625709 -0.000403144 0)
(-0.00593319 -0.000412667 0)
(-0.00560233 -0.000420862 0)
(-0.00526562 -0.000427602 0)
(-0.00492427 -0.000432744 0)
(-0.00457963 -0.000436136 0)
(-0.00423315 -0.000437618 0)
(-0.0038864 -0.000437012 0)
(-0.00354108 -0.000434129 0)
(-0.00319905 -0.000428777 0)
(-0.00286229 -0.000420768 0)
(-0.00253293 -0.000409918 0)
(-0.0022132 -0.000396038 0)
(-0.00190549 -0.000378944 0)
(-0.00161227 -0.000358472 0)
(-0.00133612 -0.000334486 0)
(-0.00107969 -0.000306893 0)
(-0.0008456 -0.000275659 0)
(-0.000636386 -0.000240859 0)
(-0.000454419 -0.000202731 0)
(-0.000301758 -0.000161771 0)
(-0.00017991 -0.000118874 0)
(-8.95138e-05 -7.55592e-05 0)
(-2.99352e-05 -3.43522e-05 0)
(1.31293e-06 6.8855e-07 0)
(9.63746e-06 2.30551e-05 0)
(4.503e-06 2.12954e-05 0)
(5.31728e-06 -3.45704e-05 0)
(4.08875e-06 -1.76274e-05 0)
(-2.13538e-05 4.04511e-05 0)
(-8.10027e-05 0.000109091 0)
(-0.000178975 0.000182648 0)
(-0.000316325 0.00025838 0)
(-0.000493088 0.000333564 0)
(-0.000708166 0.000405983 0)
(-0.000959535 0.000474143 0)
(-0.00124481 0.000536939 0)
(-0.00156109 0.000593744 0)
(-0.00190526 0.000644286 0)
(-0.0022742 0.000688441 0)
(-0.00266468 0.000726294 0)
(-0.00307349 0.000758046 0)
(-0.00349758 0.000783914 0)
(-0.00393393 0.000804205 0)
(-0.00437972 0.000819252 0)
(-0.00483229 0.000829396 0)
(-0.00528911 0.000834973 0)
(-0.00574785 0.000836341 0)
(-0.00620632 0.000833812 0)
(-0.0066625 0.000827713 0)
(-0.00711455 0.000818354 0)
(-0.00756073 0.000806008 0)
(-0.0079995 0.000790931 0)
(-0.00842939 0.000773373 0)
(-0.00884911 0.000753563 0)
(-0.00925747 0.000731706 0)
(-0.0096534 0.000707994 0)
(-0.0100359 0.000682603 0)
(-0.0104041 0.000655686 0)
(-0.0107571 0.000627373 0)
(-0.0110943 0.000597792 0)
(-0.0114149 0.00056708 0)
(-0.0117184 0.000535339 0)
(-0.0120041 0.00050267 0)
(-0.0122717 0.00046916 0)
(-0.0125206 0.000434874 0)
(-0.0127505 0.000399898 0)
(-0.0129609 0.000364305 0)
(-0.0131516 0.000328146 0)
(-0.0133222 0.000291504 0)
(-0.0134726 0.000254441 0)
(-0.0136024 0.000216989 0)
(-0.0137115 0.000179204 0)
(-0.0137997 0.000141148 0)
(-0.0138669 0.000102854 0)
(-0.0139129 6.4379e-05 0)
(-0.0139378 2.57903e-05 0)
(-0.0139414 -1.28821e-05 0)
(-0.0139236 -5.16038e-05 0)
(-0.0138846 -9.03102e-05 0)
(-0.0138243 -0.000128946 0)
(-0.0137427 -0.000167472 0)
(-0.01364 -0.000205836 0)
(-0.0135163 -0.000243972 0)
(-0.0133717 -0.000281823 0)
(-0.0132063 -0.000319328 0)
(-0.0130205 -0.000356425 0)
(-0.0128144 -0.000393045 0)
(-0.0125884 -0.000429108 0)
(-0.0123428 -0.000464531 0)
(-0.0120779 -0.000499225 0)
(-0.0117942 -0.0005331 0)
(-0.0114922 -0.000566055 0)
(-0.0111725 -0.000597979 0)
(-0.0108356 -0.000628752 0)
(-0.0104822 -0.000658238 0)
(-0.010113 -0.000686292 0)
(-0.00972903 -0.00071276 0)
(-0.00933105 -0.000737478 0)
(-0.00892013 -0.000760265 0)
(-0.0084974 -0.000780921 0)
(-0.0080641 -0.000799229 0)
(-0.00762158 -0.000814953 0)
(-0.00717132 -0.000827842 0)
(-0.00671498 -0.000837626 0)
(-0.00625434 -0.000844019 0)
(-0.0057913 -0.00084671 0)
(-0.00532795 -0.000845375 0)
(-0.00486655 -0.000839675 0)
(-0.00440954 -0.000829273 0)
(-0.00395951 -0.000813826 0)
(-0.00351919 -0.00079299 0)
(-0.00309151 -0.000766431 0)
(-0.00267951 -0.000733843 0)
(-0.00228635 -0.000694962 0)
(-0.00191528 -0.000649586 0)
(-0.00156957 -0.000597602 0)
(-0.00125247 -0.000539037 0)
(-0.000967078 -0.000474132 0)
(-0.000716222 -0.000403444 0)
(-0.000502305 -0.000327985 0)
(-0.000327053 -0.000249441 0)
(-0.000191204 -0.000170511 0)
(-9.41125e-05 -9.5392e-05 0)
(-3.32238e-05 -3.03943e-05 0)
(-3.70027e-06 1.49898e-05 0)
(2.01462e-06 2.47716e-05 0)
(1.16626e-06 -3.41209e-05 0)
(-1.40438e-05 4.09982e-06 0)
(-6.40163e-05 9.6095e-05 0)
(-0.000155784 0.000204683 0)
(-0.0002929 0.00032093 0)
(-0.000476591 0.00044002 0)
(-0.000706756 0.000557821 0)
(-0.000981874 0.000671231 0)
(-0.00129979 0.000777917 0)
(-0.00165761 0.000876354 0)
(-0.00205203 0.000965629 0)
(-0.00247955 0.00104519 0)
(-0.00293645 0.00111488 0)
(-0.00341897 0.00117478 0)
(-0.00392342 0.00122512 0)
(-0.00444615 0.00126626 0)
(-0.00498363 0.00129863 0)
(-0.00553249 0.00132271 0)
(-0.00608952 0.001339 0)
(-0.0066517 0.00134803 0)
(-0.0072162 0.00135032 0)
(-0.00778039 0.00134637 0)
(-0.0083418 0.00133669 0)
(-0.00889817 0.00132175 0)
(-0.00944742 0.00130199 0)
(-0.00998761 0.00127783 0)
(-0.010517 0.00124967 0)
(-0.0110339 0.00121784 0)
(-0.0115369 0.00118267 0)
(-0.0120246 0.00114448 0)
(-0.0124959 0.00110355 0)
(-0.0129496 0.00106013 0)
(-0.0133847 0.00101445 0)
(-0.0138003 0.00096672 0)
(-0.0141955 0.000917128 0)
(-0.0145696 0.000865851 0)
(-0.0149219 0.00081304 0)
(-0.0152518 0.000758858 0)
(-0.0155588 0.000703434 0)
(-0.0158422 0.000646877 0)
(-0.0161017 0.000589315 0)
(-0.0163368 0.000530848 0)
(-0.0165472 0.000471566 0)
(-0.0167326 0.000411589 0)
(-0.0168927 0.000351006 0)
(-0.0170272 0.000289878 0)
(-0.0171359 0.000228299 0)
(-0.0172187 0.000166365 0)
(-0.0172755 0.000104139 0)
(-0.017306 4.16905e-05 0)
(-0.0173103 -2.0888e-05 0)
(-0.0172883 -8.35101e-05 0)
(-0.01724 -0.000146104 0)
(-0.0171655 -0.000208593 0)
(-0.0170647 -0.000270888 0)
(-0.0169379 -0.000332905 0)
(-0.0167852 -0.000394557 0)
(-0.0166067 -0.000455741 0)
(-0.0164027 -0.000516349 0)
(-0.0161735 -0.000576281 0)
(-0.0159193 -0.00063543 0)
(-0.0156406 -0.000693667 0)
(-0.0153377 -0.000750859 0)
(-0.0150112 -0.000806869 0)
(-0.0146615 -0.000861542 0)
(-0.0142893 -0.000914706 0)
(-0.0138953 -0.000966183 0)
(-0.0134802 -0.00101578 0)
(-0.0130449 -0.0010633 0)
(-0.0125902 -0.00110848 0)
(-0.0121174 -0.00115109 0)
(-0.0116274 -0.00119085 0)
(-0.0111216 -0.00122747 0)
(-0.0106013 -0.00126063 0)
(-0.0100681 -0.00128998 0)
(-0.00952362 -0.00131515 0)
(-0.00896975 -0.00133575 0)
(-0.00840847 -0.00135134 0)
(-0.00784194 -0.00136146 0)
(-0.00727252 -0.00136562 0)
(-0.00670274 -0.00136335 0)
(-0.00613532 -0.00135411 0)
(-0.0055732 -0.00133738 0)
(-0.00501948 -0.00131266 0)
(-0.00447744 -0.00127943 0)
(-0.00395055 -0.00123719 0)
(-0.00344239 -0.00118552 0)
(-0.00295668 -0.00112405 0)
(-0.00249718 -0.00105252 0)
(-0.00206769 -0.000970853 0)
(-0.00167191 -0.000879193 0)
(-0.00131335 -0.000778005 0)
(-0.00099523 -0.000668237 0)
(-0.000720233 -0.000551505 0)
(-0.000490343 -0.000430367 0)
(-0.000306543 -0.000308714 0)
(-0.000168463 -0.000192328 0)
(-7.39528e-05 -8.95073e-05 0)
(-1.9554e-05 -1.22237e-05 0)
(-9.22102e-07 2.0188e-05 0)
(-2.74527e-06 -2.32668e-05 0)
(-3.26601e-05 4.81237e-05 0)
(-0.00010958 0.000182067 0)
(-0.000236209 0.000337731 0)
(-0.000414826 0.000503352 0)
(-0.000646365 0.000672185 0)
(-0.000930261 0.000838849 0)
(-0.00126482 0.000999088 0)
(-0.00164741 0.00114989 0)
(-0.00207485 0.00128922 0)
(-0.00254353 0.00141573 0)
(-0.0030495 0.00152872 0)
(-0.00358867 0.00162791 0)
(-0.00415686 0.00171332 0)
(-0.00474991 0.00178524 0)
(-0.00536373 0.00184413 0)
(-0.00599434 0.00189056 0)
(-0.00663792 0.00192517 0)
(-0.00729082 0.00194864 0)
(-0.0079496 0.00196171 0)
(-0.00861099 0.00196508 0)
(-0.00927197 0.00195946 0)
(-0.00992969 0.00194555 0)
(-0.0105815 0.00192399 0)
(-0.011225 0.00189543 0)
(-0.011858 0.00186047 0)
(-0.0124783 0.00181966 0)
(-0.0130842 0.00177351 0)
(-0.0136738 0.0017225 0)
(-0.0142455 0.00166706 0)
(-0.0147981 0.0016076 0)
(-0.01533 0.00154448 0)
(-0.0158402 0.00147804 0)
(-0.0163276 0.0014086 0)
(-0.0167911 0.00133643 0)
(-0.0172299 0.00126179 0)
(-0.0176432 0.0011849 0)
(-0.0180301 0.00110597 0)
(-0.0183902 0.00102522 0)
(-0.0187227 0.000942817 0)
(-0.0190271 0.000858922 0)
(-0.019303 0.000773714 0)
(-0.0195498 0.000687334 0)
(-0.0197673 0.000599901 0)
(-0.019955 0.000511559 0)
(-0.0201128 0.000422449 0)
(-0.0202403 0.000332682 0)
(-0.0203373 0.000242374 0)
(-0.0204038 0.000151655 0)
(-0.0204395 6.06299e-05 0)
(-0.0204444 -3.05972e-05 0)
(-0.0204184 -0.000121896 0)
(-0.0203616 -0.000213137 0)
(-0.0202739 -0.00030421 0)
(-0.0201556 -0.000394997 0)
(-0.0200066 -0.000485362 0)
(-0.0198273 -0.000575174 0)
(-0.0196177 -0.000664296 0)
(-0.0193782 -0.000752575 0)
(-0.0191091 -0.00083985 0)
(-0.0188108 -0.000925962 0)
(-0.0184837 -0.00101073 0)
(-0.0181283 -0.00109396 0)
(-0.0177452 -0.00117545 0)
(-0.017335 -0.00125496 0)
(-0.0168985 -0.00133228 0)
(-0.0164365 -0.00140712 0)
(-0.0159498 -0.00147919 0)
(-0.0154395 -0.00154819 0)
(-0.0149066 -0.0016138 0)
(-0.0143524 -0.00167564 0)
(-0.0137782 -0.00173332 0)
(-0.0131855 -0.00178641 0)
(-0.012576 -0.00183444 0)
(-0.0119515 -0.00187692 0)
(-0.0113138 -0.00191331 0)
(-0.0106652 -0.00194303 0)
(-0.0100079 -0.00196549 0)
(-0.00934455 -0.00198002 0)
(-0.00867777 -0.00198596 0)
(-0.0080105 -0.00198261 0)
(-0.0073459 -0.00196925 0)
(-0.00668731 -0.00194516 0)
(-0.00603828 -0.00190963 0)
(-0.00540254 -0.00186199 0)
(-0.00478398 -0.00180157 0)
(-0.00418666 -0.0017278 0)
(-0.00361473 -0.00164026 0)
(-0.00307239 -0.00153865 0)
(-0.00256384 -0.00142295 0)
(-0.00209315 -0.00129344 0)
(-0.0016642 -0.00115087 0)
(-0.00128052 -0.00099662 0)
(-0.000945115 -0.000832923 0)
(-0.000660296 -0.000663188 0)
(-0.000427459 -0.000492419 0)
(-0.000246768 -0.000327775 0)
(-0.000116841 -0.000179188 0)
(-3.60604e-05 -6.04811e-05 0)
(-3.88746e-06 6.9124e-06 0)
(-6.15029e-06 -2.64305e-06 0)
(-5.04213e-05 0.000114686 0)
(-0.00015453 0.000299604 0)
(-0.000316856 0.000509655 0)
(-0.000537781 0.000730999 0)
(-0.000817434 0.000955456 0)
(-0.00115484 0.00117627 0)
(-0.00154774 0.00138834 0)
(-0.00199317 0.00158795 0)
(-0.00248758 0.00177247 0)
(-0.00302704 0.00194023 0)
(-0.00360725 0.00209027 0)
(-0.00422378 0.00222218 0)
(-0.0048721 0.00233596 0)
(-0.00554768 0.00243192 0)
(-0.00624605 0.00251062 0)
(-0.00696285 0.00257273 0)
(-0.0076939 0.0026191 0)
(-0.00843516 0.00265058 0)
(-0.00918282 0.00266809 0)
(-0.00993328 0.00267258 0)
(-0.0106831 0.00266497 0)
(-0.0114292 0.00264616 0)
(-0.0121687 0.00261702 0)
(-0.0128986 0.00257838 0)
(-0.0136166 0.00253104 0)
(-0.0143203 0.00247573 0)
(-0.0150077 0.00241315 0)
(-0.0156766 0.00234395 0)
(-0.0163254 0.00226871 0)
(-0.0169524 0.00218797 0)
(-0.017556 0.00210222 0)
(-0.0181351 0.00201193 0)
(-0.0186882 0.00191753 0)
(-0.0192144 0.00181938 0)
(-0.0197124 0.00171784 0)
(-0.0201816 0.00161323 0)
(-0.0206209 0.00150584 0)
(-0.0210296 0.00139591 0)
(-0.0214071 0.00128374 0)
(-0.0217527 0.00116953 0)
(-0.0220658 0.0010535 0)
(-0.022346 0.000935862 0)
(-0.0225929 0.000816808 0)
(-0.022806 0.000696497 0)
(-0.022985 0.000575115 0)
(-0.0231297 0.000452847 0)
(-0.0232398 0.000329848 0)
(-0.0233151 0.000206271 0)
(-0.0233555 8.22838e-05 0)
(-0.0233609 -4.1955e-05 0)
(-0.0233312 -0.000166289 0)
(-0.0232665 -0.000290551 0)
(-0.0231668 -0.000414572 0)
(-0.0230322 -0.000538186 0)
(-0.0228629 -0.000661216 0)
(-0.0226591 -0.000783475 0)
(-0.0224209 -0.000904767 0)
(-0.0221488 -0.0010249 0)
(-0.0218432 -0.00114366 0)
(-0.0215044 -0.00126081 0)
(-0.0211329 -0.00137611 0)
(-0.0207293 -0.00148928 0)
(-0.0202944 -0.00160007 0)
(-0.0198287 -0.00170816 0)
(-0.0193332 -0.00181322 0)
(-0.0188088 -0.00191488 0)
(-0.0182565 -0.00201277 0)
(-0.0176774 -0.00210646 0)
(-0.0170728 -0.0021955 0)
(-0.016444 -0.00227939 0)
(-0.0157927 -0.0023576 0)
(-0.0151205 -0.00242956 0)
(-0.0144293 -0.00249464 0)
(-0.013721 -0.00255216 0)
(-0.0129979 -0.00260139 0)
(-0.0122624 -0.00264159 0)
(-0.0115171 -0.00267193 0)
(-0.0107649 -0.00269156 0)
(-0.0100087 -0.00269959 0)
(-0.00925186 -0.00269513 0)
(-0.00849783 -0.00267723 0)
(-0.00775034 -0.00264496 0)
(-0.0070133 -0.00259741 0)
(-0.00629081 -0.00253371 0)
(-0.00558715 -0.00245305 0)
(-0.00490674 -0.00235476 0)
(-0.0042541 -0.0022383 0)
(-0.00363381 -0.00210341 0)
(-0.00305038 -0.00195009 0)
(-0.00250823 -0.00177883 0)
(-0.00201156 -0.00159064 0)
(-0.00156422 -0.00138734 0)
(-0.00116959 -0.00117176 0)
(-0.000830389 -0.000948072 0)
(-0.000548585 -0.000722245 0)
(-0.000325075 -0.000502553 0)
(-0.000159472 -0.00030016 0)
(-5.22194e-05 -0.000130104 0)
(-6.69351e-06 -1.4946e-05 0)
(-9.11986e-06 2.6876e-05 0)
(-6.67764e-05 0.000203088 0)
(-0.000197335 0.000448523 0)
(-0.000394877 0.000720425 0)
(-0.000657606 0.00100388 0)
(-0.000984826 0.00128932 0)
(-0.00137474 0.00156913 0)
(-0.00182454 0.00183741 0)
(-0.00233079 0.00208978 0)
(-0.0028896 0.00232312 0)
(-0.00349663 0.00253543 0)
(-0.0041473 0.00272549 0)
(-0.00483686 0.00289277 0)
(-0.00556046 0.00303723 0)
(-0.00631326 0.00315921 0)
(-0.00709046 0.00325934 0)
(-0.00788741 0.00333845 0)
(-0.00869957 0.00339751 0)
(-0.00952262 0.0034376 0)
(-0.0103524 0.00345985 0)
(-0.011185 0.00346541 0)
(-0.0120168 0.00345543 0)
(-0.0128443 0.00343105 0)
(-0.0136643 0.00339336 0)
(-0.0144737 0.00334342 0)
(-0.0152699 0.00328222 0)
(-0.0160502 0.00321071 0)
(-0.0168124 0.00312977 0)
(-0.0175542 0.00304022 0)
(-0.0182737 0.00294282 0)
(-0.018969 0.00283827 0)
(-0.0196386 0.00272721 0)
(-0.0202808 0.00261024 0)
(-0.0208943 0.00248788 0)
(-0.0214779 0.00236066 0)
(-0.0220304 0.00222899 0)
(-0.0225507 0.00209332 0)
(-0.0230381 0.00195402 0)
(-0.0234915 0.00181143 0)
(-0.0239102 0.00166588 0)
(-0.0242936 0.00151768 0)
(-0.024641 0.00136711 0)
(-0.0249518 0.00121442 0)
(-0.0252256 0.00105988 0)
(-0.025462 0.000903723 0)
(-0.0256605 0.000746173 0)
(-0.0258209 0.000587452 0)
(-0.0259429 0.000427778 0)
(-0.0260264 0.00026736 0)
(-0.026071 0.000106407 0)
(-0.0260768 -5.48675e-05 0)
(-0.0260438 -0.000216245 0)
(-0.0259718 -0.00037752 0)
(-0.025861 -0.000538485 0)
(-0.0257115 -0.000698908 0)
(-0.0255235 -0.000858546 0)
(-0.0252971 -0.00101717 0)
(-0.0250327 -0.00117452 0)
(-0.0247307 -0.00133035 0)
(-0.0243914 -0.00148437 0)
(-0.0240154 -0.00163628 0)
(-0.0236031 -0.00178577 0)
(-0.0231554 -0.00193249 0)
(-0.0226728 -0.00207607 0)
(-0.0221562 -0.00221612 0)
(-0.0216065 -0.00235222 0)
(-0.0210249 -0.00248389 0)
(-0.0204123 -0.00261064 0)
(-0.01977 -0.00273193 0)
(-0.0190996 -0.00284716 0)
(-0.0184024 -0.0029557 0)
(-0.0176803 -0.00305686 0)
(-0.016935 -0.0031499 0)
(-0.0161687 -0.003234 0)
(-0.0153835 -0.00330831 0)
(-0.0145819 -0.00337192 0)
(-0.0137666 -0.00342384 0)
(-0.0129403 -0.00346305 0)
(-0.0121063 -0.00348847 0)
(-0.0112677 -0.003499 0)
(-0.0104282 -0.00349349 0)
(-0.00959157 -0.00347078 0)
(-0.0087618 -0.00342973 0)
(-0.00794313 -0.00336922 0)
(-0.00713998 -0.00328818 0)
(-0.00635694 -0.00318567 0)
(-0.00559876 -0.00306087 0)
(-0.00487028 -0.00291322 0)
(-0.00417638 -0.00274241 0)
(-0.00352188 -0.00254856 0)
(-0.00291151 -0.00233228 0)
(-0.00234978 -0.0020949 0)
(-0.00184092 -0.00183861 0)
(-0.00138869 -0.00156677 0)
(-0.000996348 -0.00128422 0)
(-0.000666526 -0.00099769 0)
(-0.000400992 -0.000716287 0)
(-0.000200468 -0.000452004 0)
(-6.75126e-05 -0.000220562 0)
(-9.25555e-06 -4.49542e-05 0)
(-1.16618e-05 6.44678e-05 0)
(-8.17172e-05 0.000312119 0)
(-0.000237365 0.000627675 0)
(-0.000468754 0.00096919 0)
(-0.000772086 0.00132091 0)
(-0.00114554 0.00167263 0)
(-0.00158642 0.00201598 0)
(-0.0020913 0.00234441 0)
(-0.00265621 0.00265302 0)
(-0.00327679 0.00293832 0)
(-0.00394837 0.00319796 0)
(-0.00466604 0.00343053 0)
(-0.00542473 0.00363535 0)
(-0.0062193 0.00381237 0)
(-0.00704464 0.00396195 0)
(-0.00789566 0.00408479 0)
(-0.00876744 0.00418187 0)
(-0.00965515 0.00425433 0)
(-0.0105542 0.00430344 0)
(-0.0114602 0.00433055 0)
(-0.0123689 0.00433703 0)
(-0.0132765 0.00432426 0)
(-0.0141792 0.00429362 0)
(-0.0150735 0.00424645 0)
(-0.0159563 0.00418402 0)
(-0.0168246 0.00410757 0)
(-0.0176755 0.00401825 0)
(-0.0185066 0.00391714 0)
(-0.0193155 0.00380525 0)
(-0.0201 0.00368353 0)
(-0.0208583 0.00355283 0)
(-0.0215884 0.00341397 0)
(-0.0222887 0.0032677 0)
(-0.0229578 0.00311466 0)
(-0.0235942 0.00295548 0)
(-0.0241967 0.00279074 0)
(-0.0247642 0.00262094 0)
(-0.0252957 0.00244656 0)
(-0.0257902 0.00226807 0)
(-0.0262469 0.00208585 0)
(-0.0266649 0.00190028 0)
(-0.0270437 0.00171174 0)
(-0.0273827 0.00152053 0)
(-0.0276813 0.00132698 0)
(-0.027939 0.0011314 0)
(-0.0281555 0.000934075 0)
(-0.0283303 0.000735285 0)
(-0.0284633 0.000535287 0)
(-0.0285541 0.000334357 0)
(-0.0286027 0.000132771 0)
(-0.0286089 -6.92115e-05 0)
(-0.0285727 -0.000271328 0)
(-0.028494 -0.000473304 0)
(-0.028373 -0.000674866 0)
(-0.0282098 -0.000875734 0)
(-0.0280045 -0.00107561 0)
(-0.0277575 -0.0012742 0)
(-0.0274689 -0.00147119 0)
(-0.0271394 -0.00166623 0)
(-0.0267692 -0.00185899 0)
(-0.0263589 -0.00204909 0)
(-0.0259092 -0.00223612 0)
(-0.0254207 -0.00241965 0)
(-0.0248943 -0.00259925 0)
(-0.0243309 -0.00277439 0)
(-0.0237315 -0.00294456 0)
(-0.0230971 -0.00310916 0)
(-0.0224291 -0.00326758 0)
(-0.0217288 -0.00341914 0)
(-0.0209977 -0.0035631 0)
(-0.0202376 -0.00369868 0)
(-0.0194503 -0.00382501 0)
(-0.0186378 -0.00394117 0)
(-0.0178023 -0.00404616 0)
(-0.0169462 -0.00413892 0)
(-0.0160723 -0.00421833 0)
(-0.0151832 -0.00428319 0)
(-0.0142822 -0.00433223 0)
(-0.0133725 -0.00436417 0)
(-0.0124578 -0.00437763 0)
(-0.0115417 -0.00437125 0)
(-0.0106284 -0.00434363 0)
(-0.00972216 -0.0042934 0)
(-0.00882745 -0.00421923 0)
(-0.00794897 -0.00411988 0)
(-0.00709159 -0.00399423 0)
(-0.00626034 -0.00384138 0)
(-0.00546036 -0.00366066 0)
(-0.00469678 -0.0034518 0)
(-0.00397473 -0.00321495 0)
(-0.00329923 -0.0029509 0)
(-0.00267514 -0.00266119 0)
(-0.00210707 -0.00234839 0)
(-0.00159926 -0.00201628 0)
(-0.00115553 -0.00167023 0)
(-0.000779256 -0.00131752 0)
(-0.000473165 -0.000967826 0)
(-0.000239106 -0.000633609 0)
(-8.17049e-05 -0.000330869 0)
(-1.15476e-05 -8.25323e-05 0)
(-1.38734e-05 0.000109328 0)
(-9.52984e-05 0.00044031 0)
(-0.000274377 0.000835598 0)
(-0.000537925 0.00125429 0)
(-0.000880075 0.00168054 0)
(-0.0012979 0.00210371 0)
(-0.00178786 0.00251491 0)
(-0.00234571 0.00290719 0)
(-0.00296693 0.00327526 0)
(-0.00364668 0.00361529 0)
(-0.00437991 0.00392468 0)
(-0.00516135 0.00420185 0)
(-0.00598561 0.00444605 0)
(-0.0068473 0.00465715 0)
(-0.00774102 0.00483559 0)
(-0.00866144 0.00498216 0)
(-0.00960337 0.00509795 0)
(-0.0105618 0.00518429 0)
(-0.0115318 0.00524265 0)
(-0.0125087 0.0052746 0)
(-0.0134883 0.00528173 0)
(-0.0144663 0.00526569 0)
(-0.0154387 0.00522809 0)
(-0.016402 0.0051705 0)
(-0.0173527 0.00509446 0)
(-0.0182876 0.0050014 0)
(-0.0192038 0.00489274 0)
(-0.0200986 0.00476976 0)
(-0.0209695 0.00463367 0)
(-0.0218141 0.0044856 0)
(-0.0226304 0.00432661 0)
(-0.0234164 0.00415765 0)
(-0.0241703 0.00397964 0)
(-0.0248906 0.00379338 0)
(-0.0255757 0.00359961 0)
(-0.0262244 0.00339904 0)
(-0.0268353 0.0031923 0)
(-0.0274074 0.00297996 0)
(-0.0279398 0.00276256 0)
(-0.0284314 0.00254062 0)
(-0.0288814 0.00231459 0)
(-0.0292892 0.00208491 0)
(-0.0296541 0.00185197 0)
(-0.0299755 0.00161618 0)
(-0.0302528 0.00137789 0)
(-0.0304858 0.00113747 0)
(-0.0306739 0.000895262 0)
(-0.030817 0.000651592 0)
(-0.0309147 0.00040679 0)
(-0.0309668 0.000161184 0)
(-0.0309734 -8.48991e-05 0)
(-0.0309342 -0.000331132 0)
(-0.0308494 -0.000577186 0)
(-0.030719 -0.000822727 0)
(-0.0305431 -0.0010674 0)
(-0.030322 -0.00131086 0)
(-0.0300559 -0.00155272 0)
(-0.0297451 -0.00179261 0)
(-0.0293902 -0.00203013 0)
(-0.0289915 -0.00226482 0)
(-0.0285497 -0.00249625 0)
(-0.0280655 -0.00272392 0)
(-0.0275395 -0.00294731 0)
(-0.0269728 -0.00316587 0)
(-0.0263662 -0.00337899 0)
(-0.0257208 -0.00358602 0)
(-0.0250378 -0.00378626 0)
(-0.0243187 -0.00397894 0)
(-0.0235648 -0.00416325 0)
(-0.0227779 -0.0043383 0)
(-0.0219596 -0.00450313 0)
(-0.0211121 -0.0046567 0)
(-0.0202374 -0.00479789 0)
(-0.019338 -0.00492552 0)
(-0.0184164 -0.0050383 0)
(-0.0174755 -0.00513489 0)
(-0.0165182 -0.00521385 0)
(-0.0155479 -0.00527371 0)
(-0.0145681 -0.00531289 0)
(-0.0135825 -0.00532981 0)
(-0.0125952 -0.00532283 0)
(-0.0116105 -0.00529033 0)
(-0.0106328 -0.0052307 0)
(-0.00966689 -0.0051424 0)
(-0.00871776 -0.005024 0)
(-0.00779049 -0.00487424 0)
(-0.00689036 -0.00469207 0)
(-0.00602275 -0.00447677 0)
(-0.00519309 -0.00422805 0)
(-0.00440676 -0.0039461 0)
(-0.00366912 -0.00363184 0)
(-0.00298538 -0.00328701 0)
(-0.00236058 -0.00291445 0)
(-0.00179944 -0.00251827 0)
(-0.00130642 -0.00210423 0)
(-0.00088569 -0.00167998 0)
(-0.000540918 -0.00125552 0)
(-0.000275084 -0.000843472 0)
(-9.4743e-05 -0.000459811 0)
(-1.35923e-05 -0.000127059 0)
(-1.58242e-05 0.000160742 0)
(-0.000107597 0.000586259 0)
(-0.000308478 0.00107042 0)
(-0.00060222 0.00157383 0)
(-0.000981106 0.00208081 0)
(-0.00144122 0.00258047 0)
(-0.00197806 0.00306377 0)
(-0.0025866 0.00352347 0)
(-0.00326171 0.003954 0)
(-0.00399804 0.0043513 0)
(-0.0047901 0.00471261 0)
(-0.00563227 0.00503623 0)
(-0.00651887 0.00532132 0)
(-0.0074442 0.00556779 0)
(-0.0084026 0.0057761 0)
(-0.00938851 0.00594716 0)
(-0.0103965 0.00608221 0)
(-0.0114213 0.00618275 0)
(-0.0124578 0.00625045 0)
(-0.0135012 0.00628709 0)
(-0.014547 0.00629454 0)
(-0.0155906 0.00627468 0)
(-0.0166281 0.00622937 0)
(-0.0176555 0.00616043 0)
(-0.0186694 0.00606965 0)
(-0.0196663 0.00595872 0)
(-0.0206431 0.00582925 0)
(-0.0215969 0.00568279 0)
(-0.0225252 0.00552073 0)
(-0.0234255 0.00534442 0)
(-0.0242956 0.00515511 0)
(-0.0251333 0.00495392 0)
(-0.0259368 0.00474191 0)
(-0.0267045 0.00452006 0)
(-0.0274347 0.00428927 0)
(-0.028126 0.00405033 0)
(-0.0287771 0.00380401 0)
(-0.0293868 0.00355102 0)
(-0.0299541 0.00329198 0)
(-0.030478 0.0030275 0)
(-0.0309576 0.00275813 0)
(-0.0313921 0.00248439 0)
(-0.0317809 0.00220677 0)
(-0.0321233 0.00192573 0)
(-0.0324189 0.00164172 0)
(-0.032667 0.00135516 0)
(-0.0328675 0.00106646 0)
(-0.0330198 0.000776013 0)
(-0.0331238 0.000484224 0)
(-0.0331794 0.000191488 0)
(-0.0331862 -0.000101812 0)
(-0.0331444 -0.00039529 0)
(-0.0330539 -0.000688543 0)
(-0.0329148 -0.000981167 0)
(-0.0327273 -0.00127275 0)
(-0.0324915 -0.00156286 0)