/*--------------------------------*- C++ -*----------------------------------*\
| =========                 |                                                 |
| \\      /  F ield         | OpenFOAM: The Open Source CFD Toolbox           |
|  \\    /   O peration     | Version:  2212                                  |
|   \\  /    A nd           | Website:  www.openfoam.com                      |
|    \\/     M anipulation  |                                                 |
\*---------------------------------------------------------------------------*/
FoamFile
{
    version     2.0;
    format      ascii;
    arch        "LSB;label=32;scalar=64";
    class       surfaceScalarField;
    location    "0.0155";
    object      phi_0;
}
// * * * * * * * * * * * * * * * * * * * * * * * * * * * * * * * * * * * * * //

dimensions      [0 3 -1 0 0 0 0];

oriented        oriented;

internalField   nonuniform List<scalar> 
19800
(
6.24941e-11
-6.25589e-11
2.07821e-10
-1.45341e-10
2.94429e-10
-8.65998e-11
3.20284e-10
-2.58619e-11
2.67045e-10
5.32385e-11
1.30411e-10
1.36631e-10
-8.88383e-11
2.19251e-10
-3.87392e-10
2.98551e-10
-7.60403e-10
3.73018e-10
-1.20232e-09
4.41917e-10
-1.70705e-09
5.04732e-10
-2.26829e-09
5.61239e-10
-2.87978e-09
6.11485e-10
-3.53545e-09
6.55665e-10
-4.22932e-09
6.93865e-10
-4.95555e-09
7.26225e-10
-5.70855e-09
7.53006e-10
-6.48309e-09
7.74544e-10
-7.27423e-09
7.91139e-10
-8.07729e-09
8.03069e-10
-8.88791e-09
8.10633e-10
-9.70203e-09
8.14126e-10
-1.05158e-08
8.13818e-10
-1.13258e-08
8.09931e-10
-1.21284e-08
8.02642e-10
-1.29206e-08
7.92141e-10
-1.36992e-08
7.78656e-10
-1.44617e-08
7.62469e-10
-1.52055e-08
7.43809e-10
-1.59283e-08
7.22829e-10
-1.6628e-08
6.99723e-10
-1.73027e-08
6.74681e-10
-1.79505e-08
6.47809e-10
-1.85697e-08
6.19219e-10
-1.91588e-08
5.89093e-10
-1.97164e-08
5.57583e-10
-2.02412e-08
5.24797e-10
-2.07321e-08
4.90874e-10
-2.11881e-08
4.55971e-10
-2.16082e-08
4.20176e-10
-2.19918e-08
3.83532e-10
-2.23379e-08
3.46117e-10
-2.2646e-08
3.08057e-10
-2.29154e-08
2.6945e-10
-2.31458e-08
2.30342e-10
-2.33365e-08
1.90782e-10
-2.34874e-08
1.50845e-10
-2.3598e-08
1.10603e-10
-2.36681e-08
7.01059e-11
-2.36975e-08
2.93881e-11
-2.3686e-08
-1.14926e-11
-2.36336e-08
-5.24534e-11
-2.35401e-08
-9.34194e-11
-2.34058e-08
-1.34323e-10
-2.32307e-08
-1.75095e-10
-2.30151e-08
-2.15656e-10
-2.27592e-08
-2.55912e-10
-2.24634e-08
-2.95775e-10
-2.21282e-08
-3.35181e-10
-2.17542e-08
-3.74055e-10
-2.13419e-08
-4.12299e-10
-2.08921e-08
-4.49794e-10
-2.04057e-08
-4.86402e-10
-1.98837e-08
-5.21978e-10
-1.93273e-08
-5.56393e-10
-1.87378e-08
-5.8951e-10
-1.81166e-08
-6.21177e-10
-1.74654e-08
-6.51236e-10
-1.67859e-08
-6.79517e-10
-1.608e-08
-7.05839e-10
-1.535e-08
-7.30035e-10
-1.4598e-08
-7.51955e-10
-1.38266e-08
-7.71442e-10
-1.30383e-08
-7.88311e-10
-1.22359e-08
-8.02347e-10
-1.14226e-08
-8.13309e-10
-1.06017e-08
-8.20941e-10
-9.77668e-09
-8.24996e-10
-8.95144e-09
-8.25232e-10
-8.13004e-09
-8.21405e-10
-7.31677e-09
-8.13265e-10
-6.51621e-09
-8.00558e-10
-5.73319e-09
-7.83013e-10
-4.97284e-09
-7.60357e-10
-4.24052e-09
-7.32318e-10
-3.54186e-09
-6.98651e-10
-2.88274e-09
-6.59126e-10
-2.2692e-09
-6.13542e-10
-1.70745e-09
-5.61749e-10
-1.20376e-09
-5.03685e-10
-7.64348e-10
-4.39411e-10
-3.95199e-10
-3.69155e-10
-1.018e-10
-2.93399e-10
1.11297e-10
-2.13092e-10
2.41316e-10
-1.30019e-10
2.88751e-10
-4.74409e-11
2.59995e-10
2.87538e-11
1.72189e-10
8.78094e-11
6.26981e-11
1.09493e-10
6.27047e-11
7.15967e-11
-1.34169e-10
2.08125e-10
-2.81851e-10
2.78765e-10
-1.5725e-10
1.91937e-10
6.0974e-11
-8.2819e-11
3.27996e-10
-5.62046e-10
6.15867e-10
-1.24986e-09
9.07059e-10
-2.14216e-09
1.19087e-09
-3.22981e-09
1.46066e-09
-4.50044e-09
1.71255e-09
-5.93983e-09
1.94413e-09
-7.53264e-09
2.15406e-09
-9.263e-09
2.34186e-09
-1.11149e-08
2.5076e-09
-1.30726e-08
2.65159e-09
-1.51208e-08
2.77436e-09
-1.72444e-08
2.87662e-09
-1.94291e-08
2.95928e-09
-2.16613e-08
3.02336e-09
-2.39281e-08
3.06984e-09
-2.62172e-08
3.09971e-09
-2.85171e-08
3.11399e-09
-3.08168e-08
3.1136e-09
-3.31063e-08
3.09939e-09
-3.53759e-08
3.0722e-09
-3.76166e-08
3.03287e-09
-3.98202e-08
2.98223e-09
-4.19788e-08
2.92112e-09
-4.40854e-08
2.85037e-09
-4.61332e-08
2.77071e-09
-4.81163e-08
2.6828e-09
-5.00289e-08
2.58725e-09
-5.18657e-08
2.48468e-09
-5.36221e-08
2.37564e-09
-5.52937e-08
2.26063e-09
-5.68763e-08
2.14019e-09
-5.83663e-08
2.01485e-09
-5.97605e-08
1.88507e-09
-6.10559e-08
1.75129e-09
-6.22496e-08
1.6139e-09
-6.33393e-08
1.47323e-09
-6.43228e-08
1.32961e-09
-6.51981e-08
1.18339e-09
-6.59635e-08
1.03487e-09
-6.66175e-08
8.84338e-10
-6.71588e-08
7.32073e-10
-6.75864e-08
5.78341e-10
-6.78991e-08
4.23381e-10
-6.80965e-08
2.67426e-10
-6.81778e-08
1.10708e-10
-6.81427e-08
-4.65289e-11
-6.79912e-08
-2.04018e-10
-6.77231e-08
-3.61485e-10
-6.73388e-08
-5.18655e-10
-6.68387e-08
-6.75228e-10
-6.62234e-08
-8.30892e-10
-6.5494e-08
-9.85338e-10
-6.46515e-08
-1.13826e-09
-6.36974e-08
-1.28932e-09
-6.26333e-08
-1.4382e-09
-6.14611e-08
-1.58449e-09
-6.01831e-08
-1.72776e-09
-5.88019e-08
-1.86756e-09
-5.73205e-08
-2.00339e-09
-5.57422e-08
-2.13475e-09
-5.40706e-08
-2.26109e-09
-5.23099e-08
-2.38186e-09
-5.04647e-08
-2.49647e-09
-4.85399e-08
-2.60429e-09
-4.6541e-08
-2.70469e-09
-4.44741e-08
-2.797e-09
-4.23455e-08
-2.88057e-09
-4.01622e-08
-2.95469e-09
-3.79319e-08
-3.01866e-09
-3.56625e-08
-3.07167e-09
-3.3363e-08
-3.11285e-09
-3.10426e-08
-3.14132e-09
-2.87115e-08
-3.15616e-09
-2.63802e-08
-3.15646e-09
-2.40603e-08
-3.1413e-09
-2.17638e-08
-3.10975e-09
-1.95035e-08
-3.0609e-09
-1.72927e-08
-2.99381e-09
-1.51455e-08
-2.90757e-09
-1.30765e-08
-2.80133e-09
-1.11008e-08
-2.6743e-09
-9.23419e-09
-2.52579e-09
-7.49242e-09
-2.35531e-09
-5.89155e-09
-2.16262e-09
-4.44739e-09
-1.94786e-09
-3.17512e-09
-1.71169e-09
-2.08874e-09
-1.45553e-09
-1.20016e-09
-1.18199e-09
-5.17817e-10
-8.95438e-10
-4.46927e-11
-6.03152e-10
2.24882e-10
-3.1701e-10
3.09897e-10
-5.62551e-11
2.49254e-10
1.48447e-10
1.09722e-10
2.49029e-10
1.72424e-10
8.57192e-11
-2.19881e-10
1.28396e-10
-3.24541e-10
3.6256e-11
-6.51123e-11
-2.82849e-10
3.80069e-10
-8.76495e-10
9.21652e-10
-1.7686e-09
1.50797e-09
-2.96713e-09
2.1056e-09
-4.46885e-09
2.69259e-09
-6.2628e-09
3.2546e-09
-8.33263e-09
3.78237e-09
-1.06587e-08
4.27018e-09
-1.32192e-08
4.71454e-09
-1.5991e-08
5.11373e-09
-1.89507e-08
5.46729e-09
-2.20746e-08
5.77548e-09
-2.53394e-08
6.03919e-09
-2.87225e-08
6.2597e-09
-3.22019e-08
6.43863e-09
-3.57563e-08
6.5778e-09
-3.93656e-08
6.67917e-09
-4.30106e-08
6.74474e-09
-4.66731e-08
6.77648e-09
-5.03359e-08
6.77637e-09
-5.39828e-08
6.74629e-09
-5.75986e-08
6.68807e-09
-6.11692e-08
6.60349e-09
-6.46814e-08
6.49437e-09
-6.81227e-08
6.36248e-09
-7.14818e-08
6.20946e-09
-7.4748e-08
6.03686e-09
-7.79114e-08
5.84619e-09
-8.0963e-08
5.63884e-09
-8.38943e-08
5.41605e-09
-8.66978e-08
5.17907e-09
-8.93662e-08
4.92908e-09
-9.18932e-08
4.6672e-09
-9.42729e-08
4.39449e-09
-9.64997e-08
4.11193e-09
-9.85689e-08
3.82047e-09
-1.00476e-07
3.52096e-09
-1.02217e-07
3.21418e-09
-1.03788e-07
2.90087e-09
-1.05187e-07
2.58176e-09
-1.06409e-07
2.25753e-09
-1.07454e-07
1.92883e-09
-1.08318e-07
1.59627e-09
-1.09e-07
1.26043e-09
-1.09499e-07
9.21887e-10
-1.09812e-07
5.81198e-10
-1.09941e-07
2.38914e-10
-1.09883e-07
-1.04406e-10
-1.09638e-07
-4.48191e-10
-1.09208e-07
-7.91842e-10
-1.08592e-07
-1.13474e-09
-1.07791e-07
-1.47625e-09
-1.06806e-07
-1.8157e-09
-1.05639e-07
-2.1524e-09
-1.04292e-07
-2.48567e-09
-1.02766e-07
-2.81476e-09
-1.01066e-07
-3.13889e-09
-9.91929e-08
-3.45722e-09
-9.71518e-08
-3.76882e-09
-9.49467e-08
-4.07272e-09
-9.25822e-08
-4.3679e-09
-9.00637e-08
-4.65327e-09
-8.73971e-08
-4.92767e-09
-8.4589e-08
-5.18991e-09
-8.16468e-08
-5.43871e-09
-7.85783e-08
-5.67275e-09
-7.53924e-08
-5.89064e-09
-7.20984e-08
-6.09094e-09
-6.87068e-08
-6.27217e-09
-6.52287e-08
-6.43278e-09
-6.16762e-08
-6.57114e-09
-5.80624e-08
-6.68554e-09
-5.4401e-08
-6.77417e-09
-5.07072e-08
-6.83518e-09
-4.69967e-08
-6.86664e-09
-4.32865e-08
-6.86665e-09
-3.95945e-08
-6.83326e-09
-3.59397e-08
-6.76455e-09
-3.2342e-08
-6.6586e-09
-2.88223e-08
-6.51355e-09
-2.54022e-08
-6.32762e-09
-2.21044e-08
-6.09918e-09
-1.89519e-08
-5.82679e-09
-1.59684e-08
-5.50932e-09
-1.31776e-08
-5.14607e-09
-1.06032e-08
-4.73697e-09
-8.26831e-09
-4.2828e-09
-6.19442e-09
-3.78557e-09
-4.40094e-09
-3.24903e-09
-2.90356e-09
-2.67937e-09
-1.71251e-09
-2.08649e-09
-8.29913e-10
-1.48575e-09
-2.46241e-10
-9.00682e-10
6.44322e-11
-3.66939e-10
1.50303e-10
6.25781e-11
8.84853e-11
3.10848e-10
2.60905e-10
2.86555e-11
-2.48541e-10
-6.1728e-11
-2.3415e-10
-3.75297e-10
2.48453e-10
-9.93366e-10
9.98147e-10
-1.96481e-09
1.89309e-09
-3.31511e-09
2.85828e-09
-5.053e-09
3.84349e-09
-7.17496e-09
4.81455e-09
-9.66834e-09
5.748e-09
-1.25141e-08
6.62811e-09
-1.56885e-08
7.44458e-09
-1.91649e-08
8.19096e-09
-2.29148e-08
8.86365e-09
-2.69086e-08
9.46113e-09
-3.11165e-08
9.98338e-09
-3.55088e-08
1.04314e-08
-4.00561e-08
1.0807e-08
-4.47301e-08
1.11126e-08
-4.95032e-08
1.13509e-08
-5.4349e-08
1.15249e-08
-5.92421e-08
1.16379e-08
-6.41585e-08
1.16929e-08
-6.90754e-08
1.16933e-08
-7.39713e-08
1.16422e-08
-7.8826e-08
1.15428e-08
-8.36206e-08
1.13981e-08
-8.83374e-08
1.12112e-08
-9.29598e-08
1.09848e-08
-9.74723e-08
1.0722e-08
-1.01861e-07
1.04252e-08
-1.06112e-07
1.00972e-08
-1.10213e-07
9.74007e-09
-1.14153e-07
9.35626e-09
-1.17922e-07
8.94784e-09
-1.2151e-07
8.51683e-09
-1.24908e-07
8.06514e-09
-1.28108e-07
7.59456e-09
-1.31103e-07
7.10682e-09
-1.33886e-07
6.60348e-09
-1.36451e-07
6.08603e-09
-1.38792e-07
5.55586e-09
-1.40906e-07
5.01428e-09
-1.42786e-07
4.46255e-09
-1.44431e-07
3.90184e-09
-1.45835e-07
3.33329e-09
-1.46997e-07
2.75799e-09
-1.47914e-07
2.17698e-09
-1.48583e-07
1.59127e-09
-1.49004e-07
1.00187e-09
-1.49174e-07
4.09753e-10
-1.49095e-07
-1.84074e-10
-1.48764e-07
-7.78595e-10
-1.48183e-07
-1.37277e-09
-1.47353e-07
-1.96554e-09
-1.46273e-07
-2.55579e-09
-1.44946e-07
-3.14237e-09
-1.43375e-07
-3.72409e-09
-1.41561e-07
-4.29972e-09
-1.39508e-07
-4.86796e-09
-1.37219e-07
-5.42744e-09
-1.347e-07
-5.97668e-09
-1.31954e-07
-6.51413e-09
-1.28989e-07
-7.03813e-09
-1.2581e-07
-7.54692e-09
-1.22424e-07
-8.03865e-09
-1.18841e-07
-8.51137e-09
-1.15068e-07
-8.963e-09
-1.11115e-07
-9.39138e-09
-1.06993e-07
-9.79424e-09
-1.02715e-07
-1.01692e-08
-9.8292e-08
-1.05138e-08
-9.37388e-08
-1.08254e-08
-8.90703e-08
-1.11013e-08
-8.43026e-08
-1.13388e-08
-7.94533e-08
-1.15349e-08
-7.45408e-08
-1.16866e-08
-6.95852e-08
-1.17908e-08
-6.46076e-08
-1.18442e-08
-5.96305e-08
-1.18438e-08
-5.46775e-08
-1.17862e-08
-4.97738e-08
-1.16683e-08
-4.49454e-08
-1.1487e-08
-4.02197e-08
-1.12393e-08
-3.56249e-08
-1.09224e-08
-3.11902e-08
-1.05338e-08
-2.69455e-08
-1.00715e-08
-2.29208e-08
-9.53401e-09
-1.91463e-08
-8.92057e-09
-1.56516e-08
-8.23165e-09
-1.24652e-08
-7.46924e-09
-9.61341e-09
-6.63738e-09
-7.11938e-09
-5.74305e-09
-5.00148e-09
-4.79728e-09
-3.2712e-09
-3.81677e-09
-1.93061e-09
-2.82634e-09
-9.69012e-10
-1.8623e-09
-3.58827e-10
-9.7713e-10
-5.10121e-11
-2.45223e-10
3.04551e-11
2.29379e-10
2.91361e-10
-4.30909e-11
-2.0545e-10
-3.11791e-10
3.45464e-11
-8.9318e-10
8.29856e-10
-1.85662e-09
1.96158e-09
-3.24648e-09
3.28295e-09
-5.08617e-09
4.69797e-09
-7.38288e-09
6.14019e-09
-1.01315e-08
7.56316e-09
-1.33175e-08
8.93398e-09
-1.69192e-08
1.02298e-08
-2.09096e-08
1.14351e-08
-2.52585e-08
1.25398e-08
-2.99328e-08
1.3538e-08
-3.48983e-08
1.44266e-08
-4.012e-08
1.5205e-08
-4.55628e-08
1.58742e-08
-5.1192e-08
1.64363e-08
-5.69738e-08
1.68944e-08
-6.28751e-08
1.72522e-08
-6.88641e-08
1.75139e-08
-7.49102e-08
1.7684e-08
-8.09843e-08
1.7767e-08
-8.70585e-08
1.77676e-08
-9.31068e-08
1.76905e-08
-9.91044e-08
1.75404e-08
-1.05028e-07
1.73217e-08
-1.10856e-07
1.7039e-08
-1.16568e-07
1.66966e-08
-1.22144e-07
1.62985e-08
-1.27568e-07
1.58489e-08
-1.32822e-07
1.53515e-08
-1.37892e-07
1.48099e-08
-1.42763e-07
1.42275e-08
-1.47423e-07
1.36076e-08
-1.51859e-07
1.29531e-08
-1.56061e-07
1.2267e-08
-1.60019e-07
1.15521e-08
-1.63723e-07
1.08107e-08
-1.67165e-07
1.00455e-08
-1.70337e-07
9.25856e-09
-1.73234e-07
8.45211e-09
-1.75847e-07
7.62815e-09
-1.78173e-07
6.78859e-09
-1.80207e-07
5.93524e-09
-1.81943e-07
5.06985e-09
-1.8338e-07
4.1941e-09
-1.84512e-07
3.30961e-09
-1.85339e-07
2.41796e-09
-1.85858e-07
1.52069e-09
-1.86067e-07
6.19347e-10
-1.85967e-07
-2.84522e-10
-1.85556e-07
-1.18935e-09
-1.84835e-07
-2.09354e-09
-1.83805e-07
-2.99545e-09
-1.82468e-07
-3.89338e-09
-1.80825e-07
-4.78558e-09
-1.78878e-07
-5.67025e-09
-1.76633e-07
-6.54547e-09
-1.74091e-07
-7.40924e-09
-1.71259e-07
-8.25947e-09
-1.68142e-07
-9.09391e-09
-1.64746e-07
-9.9102e-09
-1.61078e-07
-1.07058e-08
-1.57147e-07
-1.14782e-08
-1.52961e-07
-1.22244e-08
-1.48531e-07
-1.29416e-08
-1.43867e-07
-1.36266e-08
-1.38983e-07
-1.42762e-08
-1.3389e-07
-1.48869e-08
-1.28604e-07
-1.54552e-08
-1.2314e-07
-1.59772e-08
-1.17517e-07
-1.64491e-08
-1.11751e-07
-1.68668e-08
-1.05864e-07
-1.72261e-08
-9.98762e-08
-1.75226e-08
-9.3811e-08
-1.77518e-08
-8.76927e-08
-1.79091e-08
-8.15472e-08
-1.79898e-08
-7.54017e-08
-1.79892e-08
-6.92853e-08
-1.79027e-08
-6.3228e-08
-1.77255e-08
-5.72616e-08
-1.74534e-08
-5.14188e-08
-1.70821e-08
-4.57335e-08
-1.66077e-08
-4.02406e-08
-1.60268e-08
-3.49752e-08
-1.53369e-08
-2.99729e-08
-1.45363e-08
-2.52689e-08
-1.36245e-08
-2.08977e-08
-1.26029e-08
-1.68918e-08
-1.14751e-08
-1.32815e-08
-1.02477e-08
-1.00928e-08
-8.93173e-09
-7.34645e-09
-7.54364e-09
-5.0556e-09
-6.10761e-09
-3.22364e-09
-4.6583e-09
-1.84137e-09
-3.24458e-09
-8.83787e-10
-1.9347e-09
-3.06942e-10
-8.22064e-10
-4.41995e-11
-3.33667e-11
2.47164e-10
-1.22875e-10
-8.25755e-11
-5.9011e-10
5.01785e-10
-1.46598e-09
1.70572e-09
-2.80333e-09
3.29894e-09
-4.63734e-09
5.11696e-09
-6.98608e-09
7.04672e-09
-9.85321e-09
9.00733e-09
-1.32308e-08
1.09407e-08
-1.71016e-08
1.28048e-08
-2.14415e-08
1.45696e-08
-2.62205e-08
1.62141e-08
-3.14048e-08
1.77242e-08
-3.69581e-08
1.90913e-08
-4.2842e-08
2.03105e-08
-4.90174e-08
2.13804e-08
-5.54447e-08
2.23016e-08
-6.20848e-08
2.30764e-08
-6.88991e-08
2.37086e-08
-7.58498e-08
2.4203e-08
-8.29006e-08
2.45647e-08
-9.00162e-08
2.47996e-08
-9.71631e-08
2.49139e-08
-1.04309e-07
2.49137e-08
-1.11424e-07
2.48054e-08
-1.18479e-07
2.45953e-08
-1.25447e-07
2.42896e-08
-1.32302e-07
2.38943e-08
-1.39021e-07
2.34155e-08
-1.45581e-07
2.28588e-08
-1.51962e-07
2.22297e-08
-1.58144e-07
2.15335e-08
-1.6411e-07
2.07752e-08
-1.69842e-07
1.99596e-08
-1.75325e-07
1.90911e-08
-1.80546e-07
1.81739e-08
-1.85491e-07
1.72122e-08
-1.90149e-07
1.62098e-08
-1.94508e-07
1.51702e-08
-1.98559e-07
1.40967e-08
-2.02293e-07
1.29927e-08
-2.05702e-07
1.1861e-08
-2.08779e-07
1.07046e-08
-2.11516e-07
9.52611e-09
-2.13909e-07
8.32815e-09
-2.15953e-07
7.11318e-09
-2.17642e-07
5.88357e-09
-2.18974e-07
4.64164e-09
-2.19946e-07
3.38963e-09
-2.20555e-07
2.12976e-09
-2.208e-07
8.6422e-10
-2.20679e-07
-4.04786e-10
-2.20194e-07
-1.67503e-09
-2.19343e-07
-2.94426e-09
-2.18128e-07
-4.21014e-09
-2.16551e-07
-5.47028e-09
-2.14615e-07
-6.72221e-09
-2.12322e-07
-7.96335e-09
-2.09676e-07
-9.19105e-09
-2.06683e-07
-1.04025e-08
-2.03348e-07
-1.15946e-08
-1.99677e-07
-1.27644e-08
-1.95679e-07
-1.39084e-08
-1.91362e-07
-1.50233e-08
-1.86735e-07
-1.61052e-08
-1.81809e-07
-1.71504e-08
-1.76596e-07
-1.81546e-08
-1.71109e-07
-1.91135e-08
-1.65362e-07
-2.00227e-08
-1.59372e-07
-2.08772e-08
-1.53155e-07
-2.16721e-08
-1.4673e-07
-2.24022e-08
-1.40118e-07
-2.3062e-08
-1.33338e-07
-2.36459e-08
-1.26417e-07
-2.4148e-08
-1.19377e-07
-2.45623e-08
-1.12246e-07
-2.48826e-08
-1.05053e-07
-2.51026e-08
-9.78264e-08
-2.5216e-08
-9.05992e-08
-2.52164e-08
-8.34043e-08
-2.50976e-08
-7.62765e-08
-2.48533e-08
-6.92523e-08
-2.44776e-08
-6.23691e-08
-2.39652e-08
-5.56657e-08
-2.33111e-08
-4.91814e-08
-2.25111e-08
-4.29562e-08
-2.15622e-08
-3.703e-08
-2.04625e-08
-3.14423e-08
-1.92122e-08
-2.62314e-08
-1.78138e-08
-2.14336e-08
-1.62729e-08
-1.7082e-08
-1.45993e-08
-1.32057e-08
-1.2808e-08
-9.82785e-09
-1.09215e-08
-6.96405e-09
-8.9714e-09
-4.62056e-09
-7.00179e-09
-2.79198e-09
-5.07316e-09
-1.45922e-09
-3.26745e-09
-5.87556e-10
-1.69374e-09
-1.2491e-10
-4.96011e-10
1.22251e-10
-2.04121e-10
1.21551e-10
-8.76951e-10
1.17461e-09
-2.05858e-09
2.88736e-09
-3.78346e-09
5.02382e-09
-6.07451e-09
7.408e-09
-8.94186e-09
9.91407e-09
-1.23837e-08
1.24492e-08
-1.63881e-08
1.4945e-08
-2.09344e-08
1.73512e-08
-2.59953e-08
1.96306e-08
-3.15381e-08
2.17569e-08
-3.75259e-08
2.3712e-08
-4.3919e-08
2.54843e-08
-5.06757e-08
2.70672e-08
-5.77532e-08
2.84579e-08
-6.51083e-08
2.96567e-08
-7.26979e-08
3.0666e-08
-8.04794e-08
3.14901e-08
-8.84111e-08
3.21347e-08
-9.64527e-08
3.26062e-08
-1.04565e-07
3.29118e-08
-1.1271e-07
3.30592e-08
-1.20853e-07
3.30563e-08
-1.28959e-07
3.29111e-08
-1.36995e-07
3.26318e-08
-1.44932e-07
3.22264e-08
-1.5274e-07
3.17027e-08
-1.60393e-07
3.10684e-08
-1.67865e-07
3.0331e-08
-1.75133e-07
2.94976e-08
-1.82175e-07
2.85752e-08
-1.8897e-07
2.75703e-08
-1.95499e-07
2.64891e-08
-2.01746e-07
2.53376e-08
-2.07693e-07
2.41215e-08
-2.13327e-07
2.2846e-08
-2.18633e-07
2.15161e-08
-2.236e-07
2.01367e-08
-2.28216e-07
1.87122e-08
-2.3247e-07
1.72468e-08
-2.36353e-07
1.57446e-08
-2.39858e-07
1.42093e-08
-2.42977e-07
1.26446e-08
-2.45702e-07
1.10538e-08
-2.48029e-07
9.44039e-09
-2.49953e-07
7.80743e-09
-2.5147e-07
6.15804e-09
-2.52575e-07
4.49525e-09
-2.53268e-07
2.82203e-09
-2.53545e-07
1.14134e-09
-2.53406e-07
-5.43862e-10
-2.5285e-07
-2.2306e-09
-2.51879e-07
-3.91585e-09
-2.50492e-07
-5.5965e-09
-2.48693e-07
-7.26935e-09
-2.46484e-07
-8.93111e-09
-2.43869e-07
-1.05783e-08
-2.40853e-07
-1.22075e-08
-2.37441e-07
-1.38147e-08
-2.33639e-07
-1.53962e-08
-2.29456e-07
-1.69476e-08
-2.24899e-07
-1.84647e-08
-2.1998e-07
-1.99428e-08
-2.14708e-07
-2.1377e-08
-2.09096e-07
-2.27621e-08
-2.03158e-07
-2.40927e-08
-1.96909e-07
-2.53631e-08
-1.90364e-07
-2.65673e-08
-1.83542e-07
-2.7699e-08
-1.76463e-07
-2.87515e-08
-1.69147e-07
-2.9718e-08
-1.61618e-07
-3.05914e-08
-1.53899e-07
-3.13642e-08
-1.46018e-07
-3.20289e-08
-1.38003e-07
-3.25775e-08
-1.29883e-07
-3.30021e-08
-1.21692e-07
-3.32944e-08
-1.13461e-07
-3.34464e-08
-1.05228e-07
-3.34499e-08
-9.70287e-08
-3.32968e-08
-8.89026e-08
-3.29793e-08
-8.089e-08
-3.24902e-08
-7.30326e-08
-3.18227e-08
-6.5373e-08
-3.09707e-08
-5.79548e-08
-2.99293e-08
-5.08218e-08
-2.86951e-08
-4.40178e-08
-2.72665e-08
-3.75857e-08
-2.56443e-08
-3.15673e-08
-2.38322e-08
-2.60021e-08
-2.18382e-08
-2.09261e-08
-1.96752e-08
-1.63714e-08
-1.73628e-08
-1.2364e-08
-1.49289e-08
-8.92308e-09
-1.24124e-08
-6.059e-09
-9.86589e-09
-3.77214e-09
-7.36001e-09
-2.05164e-09
-4.98796e-09
-8.7459e-10
-2.8708e-09
-2.06036e-10
-1.16456e-09
-8.37911e-11
-2.8327e-10
4.04822e-10
-1.16062e-09
2.05197e-09
-2.6488e-09
4.37554e-09
-4.76358e-09
7.1386e-09
-7.51421e-09
1.01586e-08
-1.09011e-08
1.3301e-08
-1.49156e-08
1.64636e-08
-1.95403e-08
1.95698e-08
-2.47506e-08
2.25615e-08
-3.05155e-08
2.53955e-08
-3.67992e-08
2.80406e-08
-4.35618e-08
3.04745e-08
-5.07603e-08
3.26829e-08
-5.83501e-08
3.46571e-08
-6.62852e-08
3.6393e-08
-7.4519e-08
3.78905e-08
-8.3005e-08
3.9152e-08
-9.16972e-08
4.01824e-08
-1.00551e-07
4.0988e-08
-1.09521e-07
4.15766e-08
-1.18566e-07
4.19568e-08
-1.27645e-07
4.21378e-08
-1.36718e-07
4.21292e-08
-1.45747e-07
4.19411e-08
-1.54699e-07
4.15832e-08
-1.63538e-07
4.10656e-08
-1.72233e-07
4.03981e-08
-1.80755e-07
3.95902e-08
-1.89075e-07
3.86512e-08
-1.97168e-07
3.75902e-08
-2.05009e-07
3.64157e-08
-2.12575e-07
3.51362e-08
-2.19845e-07
3.37594e-08
-2.268e-07
3.2293e-08
-2.33423e-07
3.07439e-08
-2.39696e-07
2.9119e-08
-2.45604e-07
2.74247e-08
-2.51135e-07
2.56669e-08
-2.56274e-07
2.38515e-08
-2.61011e-07
2.19837e-08
-2.65335e-07
2.00688e-08
-2.69237e-07
1.81115e-08
-2.72709e-07
1.61165e-08
-2.75744e-07
1.40883e-08
-2.78334e-07
1.20309e-08
-2.80475e-07
9.94862e-09
-2.82163e-07
7.84533e-09
-2.83392e-07
5.72493e-09
-2.84161e-07
3.59127e-09
-2.84468e-07
1.44812e-09
-2.84311e-07
-7.00697e-10
-2.83691e-07
-2.85135e-09
-2.82607e-07
-4.99995e-09
-2.81061e-07
-7.14251e-09
-2.79055e-07
-9.27495e-09
-2.76593e-07
-1.1393e-08
-2.73679e-07
-1.34924e-08
-2.70318e-07
-1.55684e-08
-2.66516e-07
-1.76163e-08
-2.62282e-07
-1.9631e-08
-2.57622e-07
-2.16072e-08
-2.52547e-07
-2.35393e-08
-2.47069e-07
-2.54215e-08
-2.41198e-07
-2.72475e-08
-2.34949e-07
-2.90108e-08
-2.28338e-07
-3.07044e-08
-2.2138e-07
-3.23212e-08
-2.14093e-07
-3.38535e-08
-2.06499e-07
-3.52933e-08
-1.98618e-07
-3.66323e-08
-1.90474e-07
-3.78619e-08
-1.82093e-07
-3.8973e-08
-1.73501e-07
-3.99563e-08
-1.64727e-07
-4.08023e-08
-1.55804e-07
-4.15011e-08
-1.46763e-07
-4.20428e-08
-1.3764e-07
-4.24171e-08
-1.28473e-07
-4.2614e-08
-1.19299e-07
-4.26235e-08
-1.1016e-07
-4.24357e-08
-1.01098e-07
-4.20412e-08
-9.21574e-08
-4.14311e-08
-8.33828e-08
-4.05973e-08
-7.48207e-08
-3.95327e-08
-6.65181e-08
-3.82319e-08
-5.85223e-08
-3.6691e-08
-5.08803e-08
-3.49086e-08
-4.36383e-08
-3.28862e-08
-3.68413e-08
-3.06293e-08
-3.05315e-08
-2.81479e-08
-2.47483e-08
-2.54584e-08
-1.95268e-08
-2.25843e-08
-1.48968e-08
-1.9559e-08
-1.08814e-08
-1.64277e-08
-7.49656e-09
-1.32507e-08
-4.74984e-09
-1.01067e-08
-2.64002e-09
-7.09779e-09
-1.15733e-09
-4.35348e-09
-2.84637e-10
-2.03726e-09
-3.68428e-10
-3.58732e-10
7.63559e-10
-1.43474e-09
3.12797e-09
-3.2234e-09
6.1642e-09
-5.72264e-09
9.63785e-09
-8.92768e-09
1.33637e-08
-1.28283e-08
1.72016e-08
-1.74077e-08
2.10431e-08
-2.26426e-08
2.48046e-08
-2.85032e-08
2.84221e-08
-3.49547e-08
3.1847e-08
-4.19575e-08
3.50434e-08
-4.94685e-08
3.79856e-08
-5.7442e-08
4.06563e-08
-6.583e-08
4.30451e-08
-7.45837e-08
4.51467e-08
-8.36535e-08
4.69603e-08
-9.29899e-08
4.84884e-08
-1.02544e-07
4.97363e-08
-1.12267e-07
5.07113e-08
-1.22113e-07
5.14222e-08
-1.32035e-07
5.18791e-08
-1.4199e-07
5.20928e-08
-1.51935e-07
5.20747e-08
-1.61831e-07
5.18368e-08
-1.71639e-07
5.13908e-08
-1.81322e-07
5.07487e-08
-1.90846e-07
4.99223e-08
-2.00179e-07
4.89233e-08
-2.09291e-07
4.77629e-08
-2.18153e-07
4.64521e-08
-2.26738e-07
4.50013e-08
-2.35023e-07
4.34208e-08
-2.42984e-07
4.17202e-08
-2.50599e-07
3.99087e-08
-2.57851e-07
3.7995e-08
-2.64719e-07
3.59875e-08
-2.71188e-07
3.3894e-08
-2.77243e-07
3.17219e-08
-2.8287e-07
2.94783e-08
-2.88056e-07
2.71699e-08
-2.9279e-07
2.4803e-08
-2.97062e-07
2.23835e-08
-3.00863e-07
1.99173e-08
-3.04185e-07
1.74099e-08
-3.0702e-07
1.48664e-08
-3.09364e-07
1.22919e-08
-3.1121e-07
9.6915e-09
-3.12555e-07
7.06993e-09
-3.13396e-07
4.43197e-09
-3.1373e-07
1.78236e-09
-3.13556e-07
-8.74171e-10
-3.12875e-07
-3.53285e-09
-3.11686e-07
-6.18884e-09
-3.09991e-07
-8.83721e-09
-3.07793e-07
-1.14729e-08
-3.05096e-07
-1.40906e-08
-3.01903e-07
-1.66849e-08
-2.98222e-07
-1.92501e-08
-2.94058e-07
-2.17803e-08
-2.89419e-07
-2.42692e-08
-2.84316e-07
-2.67103e-08
-2.78759e-07
-2.90966e-08
-2.7276e-07
-3.1421e-08
-2.66331e-07
-3.36757e-08
-2.59489e-07
-3.58528e-08
-2.5225e-07
-3.79436e-08
-2.44632e-07
-3.99393e-08
-2.36655e-07
-4.18307e-08
-2.2834e-07
-4.36078e-08
-2.19712e-07
-4.52605e-08
-2.10796e-07
-4.67782e-08
-2.01619e-07
-4.81499e-08
-1.92211e-07
-4.93643e-08
-1.82604e-07
-5.04097e-08
-1.72831e-07
-5.12741e-08
-1.62928e-07
-5.19455e-08
-1.52933e-07
-5.24118e-08
-1.42887e-07
-5.26606e-08
-1.3283e-07
-5.26801e-08
-1.22807e-07
-5.24585e-08
-1.12864e-07
-5.19847e-08
-1.03047e-07
-5.12483e-08
-9.34043e-08
-5.02397e-08
-8.3986e-08
-4.8951e-08
-7.48419e-08
-4.7376e-08
-6.60223e-08
-4.55105e-08
-5.75774e-08
-4.33535e-08
-4.95564e-08
-4.09073e-08
-4.20069e-08
-3.81787e-08
-3.49747e-08
-3.51802e-08
-2.85022e-08
-3.19309e-08
-2.2628e-08
-2.84585e-08
-1.73859e-08
-2.4801e-08
-1.28044e-08
-2.10093e-08
-8.90549e-09
-1.71496e-08
-5.70484e-09
-1.33074e-08
-3.21168e-09
-9.59094e-09
-1.4298e-09
-6.13535e-09
-3.59286e-10
-3.10778e-09
-7.2771e-10
-4.29706e-10
1.19327e-09
-1.69586e-09
4.39413e-09
-3.77492e-09
8.24325e-09
-6.6481e-09
1.2511e-08
-1.0297e-08
1.70126e-08
-1.47005e-08
2.1605e-08
-1.98332e-08
2.61758e-08
-2.56649e-08
3.06363e-08
-3.21605e-08
3.49177e-08
-3.92803e-08
3.89669e-08
-4.69811e-08
4.27442e-08
-5.52163e-08
4.62208e-08
-6.39368e-08
4.93769e-08
-7.30921e-08
5.22003e-08
-8.26302e-08
5.46848e-08
-9.24988e-08
5.68289e-08
-1.02646e-07
5.86352e-08
-1.13019e-07
6.01095e-08
-1.23567e-07
6.12598e-08
-1.34241e-07
6.20963e-08
-1.44993e-07
6.26304e-08
-1.55775e-07
6.28747e-08
-1.66542e-07
6.28423e-08
-1.77253e-07
6.25472e-08
-1.87865e-07
6.20031e-08
-1.98341e-07
6.12242e-08
-2.08643e-07
6.02244e-08
-2.18737e-07
5.90173e-08
-2.2859e-07
5.76163e-08
-2.38172e-07
5.60344e-08
-2.47455e-07
5.42843e-08
-2.56412e-07
5.23779e-08
-2.65019e-07
5.03267e-08
-2.73252e-07
4.81418e-08
-2.81091e-07
4.58337e-08
-2.88515e-07
4.34123e-08
-2.95509e-07
4.08871e-08
-3.02054e-07
3.82669e-08
-3.08136e-07
3.55604e-08
-3.13741e-07
3.27755e-08
-3.18858e-07
2.99199e-08
-3.23475e-07
2.70008e-08
-3.27583e-07
2.40251e-08
-3.31173e-07
2.09995e-08
-3.34237e-07
1.79304e-08
-3.36769e-07
1.48239e-08
-3.38763e-07
1.1686e-08
-3.40216e-07
8.52255e-09
-3.41123e-07
5.3394e-09
-3.41483e-07
2.14226e-09
-3.41294e-07
-1.06313e-09
-3.40556e-07
-4.271e-09
-3.39269e-07
-7.47548e-09
-3.37436e-07
-1.06706e-08
-3.35059e-07
-1.38502e-08
-3.32141e-07
-1.70079e-08
-3.28689e-07
-2.01371e-08
-3.24708e-07
-2.3231e-08
-3.20206e-07
-2.62825e-08
-3.15191e-07
-2.92839e-08
-3.09674e-07
-3.22273e-08
-3.03666e-07
-3.51046e-08
-2.97181e-07
-3.79068e-08
-2.90231e-07
-4.06249e-08
-2.82835e-07
-4.32491e-08
-2.75009e-07
-4.57693e-08
-2.66774e-07
-4.81747e-08
-2.5815e-07
-5.04542e-08
-2.49162e-07
-5.25962e-08
-2.39834e-07
-5.45883e-08
-2.30194e-07
-5.64181e-08
-2.20272e-07
-5.80722e-08
-2.10099e-07
-5.95374e-08
-1.99709e-07
-6.07996e-08
-1.89138e-07
-6.18449e-08
-1.78425e-07
-6.26589e-08
-1.67609e-07
-6.32272e-08
-1.56734e-07
-6.35356e-08
-1.45844e-07
-6.357e-08
-1.34986e-07
-6.33169e-08
-1.24208e-07
-6.27632e-08
-1.13559e-07
-6.18969e-08
-1.03091e-07
-6.07074e-08
-9.28569e-08
-5.91855e-08
-8.29086e-08
-5.73243e-08
-7.32995e-08
-5.51195e-08
-6.40828e-08
-5.25703e-08
-5.53104e-08
-4.96796e-08
-4.70332e-08
-4.64559e-08
-3.92999e-08
-4.29135e-08
-3.21564e-08
-3.90743e-08
-2.56454e-08
-3.49695e-08
-1.98053e-08
-3.06411e-08
-1.467e-08
-2.61446e-08
-1.02685e-08
-2.15511e-08
-6.62503e-09
-1.69509e-08
-3.7595e-09
-1.24565e-08
-1.68891e-09
-8.20595e-09
-4.29408e-10
-4.36728e-09
-1.15712e-09
-4.96094e-10
1.68936e-09
-1.94261e-09
5.84066e-09
-4.29963e-09
1.06003e-08
-7.5332e-09
1.57446e-08
-1.16121e-08
2.10915e-08
-1.65043e-08
2.64973e-08
-2.21757e-08
3.18471e-08
-2.85886e-08
3.70493e-08
-3.57023e-08
4.20313e-08
-4.3472e-08
4.67366e-08
-5.18502e-08
5.11224e-08
-6.07867e-08
5.51573e-08
-7.02292e-08
5.88194e-08
-8.0124e-08
6.20951e-08
-9.04164e-08
6.49771e-08
-1.01051e-07
6.74637e-08
-1.11974e-07
6.95576e-08
-1.23129e-07
7.1265e-08
-1.34464e-07
7.25948e-08
-1.45926e-07
7.35586e-08
-1.57465e-07
7.41691e-08
-1.69031e-07
7.44406e-08
-1.80577e-07
7.43884e-08
-1.92058e-07
7.40281e-08
-2.03431e-07
7.33757e-08
-2.14654e-07
7.24475e-08
-2.25689e-07
7.12596e-08
-2.365e-07
6.98278e-08
-2.47051e-07
6.81677e-08
-2.57311e-07
6.62945e-08
-2.6725e-07
6.42228e-08
-2.76838e-07
6.19666e-08
-2.86051e-07
5.95395e-08
-2.94864e-07
5.69544e-08
-3.03254e-07
5.42237e-08
-3.112e-07
5.1359e-08
-3.18685e-07
4.83714e-08
-3.25689e-07
4.52715e-08
-3.32198e-07
4.20693e-08
-3.38197e-07
3.87742e-08
-3.43672e-07
3.53954e-08
-3.48613e-07
3.19414e-08
-3.53008e-07
2.84204e-08
-3.56849e-07
2.48402e-08
-3.60127e-07
2.12085e-08
-3.62836e-07
1.75325e-08
-3.64969e-07
1.38194e-08
-3.66523e-07
1.00761e-08
-3.67493e-07
6.30949e-09
-3.67877e-07
2.5264e-09
-3.67674e-07
-1.26637e-09
-3.66883e-07
-5.06193e-09
-3.65505e-07
-8.85336e-09
-3.63542e-07
-1.26335e-08
-3.60997e-07
-1.63952e-08
-3.57874e-07
-2.01307e-08
-3.54179e-07
-2.38324e-08
-3.49918e-07
-2.74921e-08
-3.45099e-07
-3.11013e-08
-3.39732e-07
-3.46511e-08
-3.33827e-07
-3.81322e-08
-3.27397e-07
-4.15347e-08
-3.20455e-07
-4.48484e-08
-3.13018e-07
-4.80624e-08
-3.05101e-07
-5.11654e-08
-2.96725e-07
-5.41452e-08
-2.87911e-07
-5.69894e-08
-2.7868e-07
-5.96849e-08
-2.69058e-07
-6.22178e-08
-2.59073e-07
-6.4574e-08
-2.48752e-07
-6.67387e-08
-2.38128e-07
-6.86964e-08
-2.27234e-07
-7.04315e-08
-2.16106e-07
-7.19278e-08
-2.04782e-07
-7.31689e-08
-1.93302e-07
-7.41383e-08
-1.8171e-07
-7.48192e-08
-1.7005e-07
-7.51954e-08
-1.5837e-07
-7.52505e-08
-1.46718e-07
-7.49691e-08
-1.35145e-07
-7.43363e-08
-1.23703e-07
-7.33384e-08
-1.12447e-07
-7.19635e-08
-1.01431e-07
-7.02014e-08
-9.07108e-08
-6.80444e-08
-8.03424e-08
-6.54879e-08
-7.03815e-08
-6.25312e-08
-6.0883e-08
-5.91781e-08
-5.19009e-08
-5.5438e-08
-4.34873e-08
-5.13272e-08
-3.56917e-08
-4.68699e-08
-2.85612e-08
-4.21001e-08
-2.2139e-08
-3.70633e-08
-1.64652e-08
-3.18184e-08
-1.15759e-08
-2.64404e-08
-7.50398e-09
-2.10227e-08
-4.27999e-09
-1.56804e-08
-1.93339e-09
-1.05526e-08
-4.94894e-10
-5.80577e-09
-1.65202e-09
-5.58072e-10
2.24743e-09
-2.17484e-09
7.45742e-09
-4.79639e-09
1.32218e-08
-8.37524e-09
1.93235e-08
-1.28682e-08
2.55844e-08
-1.8233e-08
3.18621e-08
-2.44265e-08
3.80406e-08
-3.14039e-08
4.40267e-08
-3.91179e-08
4.97453e-08
-4.75189e-08
5.51375e-08
-5.65547e-08
6.01582e-08
-6.61712e-08
6.47737e-08
-7.63126e-08
6.89609e-08
-8.6922e-08
7.27046e-08
-9.7942e-08
7.59971e-08
-1.09315e-07
7.88364e-08
-1.20982e-07
8.12253e-08
-1.32888e-07
8.31708e-08
-1.44976e-07
8.4683e-08
-1.57192e-07
8.57742e-08
-1.69482e-07
8.64592e-08
-1.81795e-07
8.67538e-08
-1.94082e-07
8.66752e-08
-2.06295e-07
8.62412e-08
-2.18389e-07
8.54699e-08
-2.30322e-07
8.43799e-08
-2.42052e-07
8.29894e-08
-2.5354e-07
8.13166e-08
-2.64752e-07
7.93793e-08
-2.75652e-07
7.71949e-08
-2.8621e-07
7.47803e-08
-2.96395e-07
7.21515e-08
-3.0618e-07
6.93243e-08
-3.15539e-07
6.63134e-08
-3.24448e-07
6.31332e-08
-3.32886e-07
5.97972e-08
-3.40833e-07
5.63182e-08
-3.4827e-07
5.27085e-08
-3.55181e-07
4.89797e-08
-3.61549e-07
4.51429e-08
-3.67362e-07
4.12084e-08
-3.72607e-07
3.71863e-08
-3.77273e-07
3.30862e-08
-3.8135e-07
2.89172e-08
-3.8483e-07
2.46882e-08
-3.87705e-07
2.04076e-08
-3.89969e-07
1.60838e-08
-3.91618e-07
1.17248e-08
-3.92647e-07
7.33882e-09
-3.93055e-07
2.93369e-09
-3.92838e-07
-1.48261e-09
-3.91998e-07
-5.90207e-09
-3.90535e-07
-1.03166e-08
-3.88451e-07
-1.47178e-08
-3.85749e-07
-1.90973e-08
-3.82433e-07
-2.34463e-08
-3.7851e-07