/*--------------------------------*- C++ -*----------------------------------*\
| =========                 |                                                 |
| \\      /  F ield         | OpenFOAM: The Open Source CFD Toolbox           |
|  \\    /   O peration     | Version:  2212                                  |
|   \\  /    A nd           | Website:  www.openfoam.com                      |
|    \\/     M anipulation  |                                                 |
\*---------------------------------------------------------------------------*/
FoamFile
{
    version     2.0;
    format      ascii;
    arch        "LSB;label=32;scalar=64";
    class       volVectorField;
    location    "0.016";
    object      U_0;
}
// * * * * * * * * * * * * * * * * * * * * * * * * * * * * * * * * * * * * * //

dimensions      [0 1 -1 0 0 0 0];

internalField   nonuniform List<vector> 
10000
(
(3.49078e-06 -2.6958e-06 0)
(1.09928e-05 -2.27773e-06 0)
(1.6012e-05 -6.11183e-08 0)
(1.59218e-05 9.58015e-07 0)
(1.02541e-05 2.08055e-06 0)
(-1.2879e-06 3.68588e-06 0)
(-1.96147e-05 5.69271e-06 0)
(-4.51377e-05 7.80782e-06 0)
(-7.7846e-05 9.96547e-06 0)
(-0.000117479 1.20435e-05 0)
(-0.000163619 1.39532e-05 0)
(-0.00021572 1.57124e-05 0)
(-0.000273238 1.72793e-05 0)
(-0.00033559 1.86453e-05 0)
(-0.000402159 1.98606e-05 0)
(-0.000472399 2.08984e-05 0)
(-0.000545752 2.17473e-05 0)
(-0.000621642 2.24406e-05 0)
(-0.000699582 2.29713e-05 0)
(-0.000779089 2.33399e-05 0)
(-0.000859669 2.35912e-05 0)
(-0.000940905 2.37275e-05 0)
(-0.00102239 2.37331e-05 0)
(-0.00110372 2.36219e-05 0)
(-0.00118454 2.34168e-05 0)
(-0.00126451 2.31287e-05 0)
(-0.00134333 2.27585e-05 0)
(-0.0014207 2.23064e-05 0)
(-0.00149636 2.17694e-05 0)
(-0.00157006 2.11473e-05 0)
(-0.00164156 2.04494e-05 0)
(-0.00171067 1.96983e-05 0)
(-0.00177718 1.89132e-05 0)
(-0.00184093 1.80907e-05 0)
(-0.00190175 1.72237e-05 0)
(-0.0019595 1.63097e-05 0)
(-0.00201403 1.5355e-05 0)
(-0.00206522 1.4367e-05 0)
(-0.00211296 1.3343e-05 0)
(-0.00215715 1.22897e-05 0)
(-0.00219769 1.12162e-05 0)
(-0.00223448 1.01207e-05 0)
(-0.00226747 9.00465e-06 0)
(-0.00229658 7.86933e-06 0)
(-0.00232175 6.71495e-06 0)
(-0.00234292 5.5461e-06 0)
(-0.00236006 4.3638e-06 0)
(-0.00237312 3.16857e-06 0)
(-0.00238207 1.96742e-06 0)
(-0.00238689 7.6619e-07 0)
(-0.00238758 -4.36173e-07 0)
(-0.00238411 -1.64325e-06 0)
(-0.00237648 -2.85479e-06 0)
(-0.00236471 -4.06537e-06 0)
(-0.0023488 -5.2688e-06 0)
(-0.00232877 -6.46186e-06 0)
(-0.00230466 -7.64441e-06 0)
(-0.0022765 -8.81742e-06 0)
(-0.00224433 -9.97828e-06 0)
(-0.00220822 -1.11204e-05 0)
(-0.00216823 -1.22404e-05 0)
(-0.00212443 -1.33398e-05 0)
(-0.00207691 -1.44155e-05 0)
(-0.00202577 -1.54592e-05 0)
(-0.00197112 -1.64662e-05 0)
(-0.00191308 -1.74372e-05 0)
(-0.00185179 -1.83703e-05 0)
(-0.0017874 -1.92591e-05 0)
(-0.00172009 -2.00978e-05 0)
(-0.00165002 -2.08812e-05 0)
(-0.00157741 -2.16028e-05 0)
(-0.00150248 -2.22576e-05 0)
(-0.00142546 -2.28425e-05 0)
(-0.00134663 -2.33514e-05 0)
(-0.00126625 -2.37732e-05 0)
(-0.00118464 -2.40982e-05 0)
(-0.00110212 -2.43217e-05 0)
(-0.00101905 -2.44394e-05 0)
(-0.000935792 -2.44443e-05 0)
(-0.000852757 -2.43271e-05 0)
(-0.00077037 -2.40785e-05 0)
(-0.000689082 -2.36888e-05 0)
(-0.000609374 -2.31482e-05 0)
(-0.000531751 -2.24484e-05 0)
(-0.000456742 -2.1583e-05 0)
(-0.000384898 -2.05436e-05 0)
(-0.000316791 -1.93193e-05 0)
(-0.000253019 -1.78986e-05 0)
(-0.000194199 -1.6273e-05 0)
(-0.000140958 -1.4438e-05 0)
(-9.3918e-05 -1.23907e-05 0)
(-5.36898e-05 -1.01287e-05 0)
(-2.08494e-05 -7.65667e-06 0)
(4.09791e-06 -4.99671e-06 0)
(2.07838e-05 -2.20026e-06 0)
(2.90875e-05 6.25094e-07 0)
(2.93043e-05 3.25728e-06 0)
(2.25239e-05 5.234e-06 0)
(1.18065e-05 5.62065e-06 0)
(3.01386e-06 3.01263e-06 0)
(9.0111e-06 -1.29291e-05 0)
(2.36268e-05 -1.44996e-05 0)
(3.23995e-05 -4.04368e-06 0)
(2.62819e-05 6.46241e-06 0)
(2.78883e-06 1.78625e-05 0)
(-3.86768e-05 3.08116e-05 0)
(-9.9278e-05 4.46259e-05 0)
(-0.000179382 5.87222e-05 0)
(-0.000278636 7.25014e-05 0)
(-0.000396349 8.55975e-05 0)
(-0.000531335 9.78129e-05 0)
(-0.000682328 0.000108963 0)
(-0.000847904 0.000118988 0)
(-0.00102649 0.00012789 0)
(-0.00121662 0.000135645 0)
(-0.00141677 0.0001423 0)
(-0.00162538 0.00014788 0)
(-0.00184105 0.000152433 0)
(-0.00206239 0.000155977 0)
(-0.00228802 0.000158584 0)
(-0.0025167 0.000160305 0)
(-0.00274723 0.000161196 0)
(-0.00297845 0.000161292 0)
(-0.00320929 0.000160648 0)
(-0.00343875 0.000159315 0)
(-0.00366587 0.000157339 0)
(-0.0038898 0.000154775 0)
(-0.00410969 0.000151671 0)
(-0.00432478 0.000148057 0)
(-0.00453437 0.000143955 0)
(-0.0047378 0.000139407 0)
(-0.00493448 0.000134458 0)
(-0.00512384 0.000129152 0)
(-0.00530538 0.000123514 0)
(-0.00547862 0.000117566 0)
(-0.00564314 0.000111341 0)
(-0.00579852 0.000104854 0)
(-0.00594441 9.81226e-05 0)
(-0.00608048 9.11721e-05 0)
(-0.00620645 8.40226e-05 0)
(-0.00632202 7.67003e-05 0)
(-0.00642695 6.92196e-05 0)
(-0.00652104 6.15926e-05 0)
(-0.00660408 5.38422e-05 0)
(-0.0066759 4.59826e-05 0)
(-0.00673635 3.80227e-05 0)
(-0.00678531 2.99774e-05 0)
(-0.00682268 2.18625e-05 0)
(-0.00684835 1.3696e-05 0)
(-0.00686227 5.49676e-06 0)
(-0.00686439 -2.72338e-06 0)
(-0.00685469 -1.0958e-05 0)
(-0.00683316 -1.91946e-05 0)
(-0.00679982 -2.74124e-05 0)
(-0.00675471 -3.55926e-05 0)
(-0.00669788 -4.3723e-05 0)
(-0.00662944 -5.17908e-05 0)
(-0.00654948 -5.97762e-05 0)
(-0.00645814 -6.76575e-05 0)
(-0.00635559 -7.54167e-05 0)
(-0.00624201 -8.30364e-05 0)
(-0.00611762 -9.04962e-05 0)
(-0.00598268 -9.77726e-05 0)
(-0.00583749 -0.00010484 0)
(-0.00568235 -0.000111671 0)
(-0.00551762 -0.00011824 0)
(-0.00534372 -0.000124521 0)
(-0.00516109 -0.000130486 0)
(-0.00497021 -0.000136102 0)
(-0.00477162 -0.000141331 0)
(-0.0045659 -0.000146135 0)
(-0.00435368 -0.00015048 0)
(-0.00413566 -0.000154331 0)
(-0.00391258 -0.000157645 0)
(-0.00368526 -0.000160373 0)
(-0.00345454 -0.00016247 0)
(-0.00322135 -0.000163896 0)
(-0.00298668 -0.000164607 0)
(-0.00275161 -0.000164551 0)
(-0.00251726 -0.000163675 0)
(-0.00228479 -0.000161929 0)
(-0.00205548 -0.000159264 0)
(-0.00183064 -0.000155631 0)
(-0.00161166 -0.000150982 0)
(-0.00139998 -0.000145271 0)
(-0.00119708 -0.000138453 0)
(-0.00100452 -0.000130488 0)
(-0.000823873 -0.000121342 0)
(-0.000656723 -0.000110994 0)
(-0.000504659 -9.94402e-05 0)
(-0.00036923 -8.67011e-05 0)
(-0.000251887 -7.28367e-05 0)
(-0.000153918 -5.79693e-05 0)
(-7.63361e-05 -4.23223e-05 0)
(-1.97191e-05 -2.62833e-05 0)
(1.60452e-05 -1.05188e-05 0)
(3.20952e-05 3.82222e-06 0)
(3.11574e-05 1.47757e-05 0)
(1.90509e-05 1.90667e-05 0)
(5.59557e-06 1.17892e-05 0)
(1.02651e-05 -2.92272e-05 0)
(2.49656e-05 -2.93764e-05 0)
(2.88044e-05 -2.31623e-06 0)
(9.00505e-06 2.89622e-05 0)
(-3.84709e-05 6.34742e-05 0)
(-0.000114942 0.000100814 0)
(-0.000221419 0.000139626 0)
(-0.000357885 0.000178496 0)
(-0.000523767 0.000216266 0)
(-0.000717676 0.00025219 0)
(-0.000938017 0.000285654 0)
(-0.00118285 0.000316328 0)
(-0.00144996 0.000344059 0)
(-0.00173716 0.000368696 0)
(-0.00204215 0.000390256 0)
(-0.00236258 0.000408804 0)
(-0.00269623 0.000424389 0)
(-0.00304085 0.000437114 0)
(-0.00339428 0.00044711 0)
(-0.00375448 0.000454481 0)
(-0.00411945 0.000459361 0)
(-0.00448731 0.0004619 0)
(-0.00485629 0.000462217 0)
(-0.00522469 0.000460443 0)
(-0.00559092 0.000456712 0)
(-0.00595348 0.000451147 0)
(-0.00631099 0.00044388 0)
(-0.00666213 0.000435042 0)
(-0.00700569 0.000424743 0)
(-0.00734055 0.00041308 0)
(-0.00766564 0.000400156 0)
(-0.00797999 0.000386073 0)
(-0.00828271 0.00037092 0)
(-0.00857298 0.000354786 0)
(-0.00885002 0.000337749 0)
(-0.00911314 0.000319889 0)
(-0.0093617 0.000301279 0)
(-0.0095951 0.000281973 0)
(-0.00981282 0.000262033 0)
(-0.0100144 0.000241525 0)
(-0.0101993 0.0002205 0)
(-0.0103673 0.000199013 0)
(-0.0105179 0.000177111 0)
(-0.0106508 0.000154843 0)
(-0.0107658 0.000132259 0)
(-0.0108626 0.0001094 0)
(-0.010941 8.62988e-05 0)
(-0.0110008 6.30016e-05 0)
(-0.011042 3.95575e-05 0)
(-0.0110643 1.60067e-05 0)
(-0.0110678 -7.61419e-06 0)
(-0.0110523 -3.12659e-05 0)
(-0.011018 -5.49056e-05 0)
(-0.0109648 -7.84892e-05 0)
(-0.0108927 -0.000101971 0)
(-0.0108019 -0.000125305 0)
(-0.0106926 -0.000148445 0)
(-0.0105649 -0.000171344 0)
(-0.0104189 -0.000193946 0)
(-0.0102551 -0.000216188 0)
(-0.0100737 -0.000238017 0)
(-0.00987508 -0.000259377 0)
(-0.00965962 -0.000280201 0)
(-0.00942782 -0.000300413 0)
(-0.00918017 -0.000319938 0)
(-0.00891728 -0.000338703 0)
(-0.0086398 -0.00035663 0)
(-0.00834845 -0.000373628 0)
(-0.008044 -0.000389607 0)
(-0.00772732 -0.000404468 0)
(-0.00739935 -0.000418109 0)
(-0.00706112 -0.000430425 0)
(-0.00671372 -0.000441309 0)
(-0.00635835 -0.000450642 0)
(-0.0059963 -0.000458305 0)
(-0.00562892 -0.000464176 0)
(-0.0052577 -0.000468131 0)
(-0.00488421 -0.00047004 0)
(-0.00451012 -0.000469769 0)
(-0.00413721 -0.000467181 0)
(-0.00376733 -0.000462143 0)
(-0.00340244 -0.000454521 0)
(-0.0030446 -0.000444189 0)
(-0.00269595 -0.000431026 0)
(-0.00235873 -0.00041492 0)
(-0.00203522 -0.000395769 0)
(-0.00172775 -0.000373489 0)
(-0.00143869 -0.000348023 0)
(-0.00117041 -0.000319357 0)
(-0.000925244 -0.000287534 0)
(-0.000705395 -0.000252677 0)
(-0.000512902 -0.00021503 0)
(-0.000349501 -0.000175015 0)
(-0.00021648 -0.000133328 0)
(-0.000114456 -9.10745e-05 0)
(-4.30756e-05 -4.9994e-05 0)
(-6.39417e-07 -1.28049e-05 0)
(1.64262e-05 1.63289e-05 0)
(1.47992e-05 3.11837e-05 0)
(5.20307e-06 2.24649e-05 0)
(7.28281e-06 -4.25012e-05 0)
(1.34048e-05 -3.64621e-05 0)
(1.59946e-06 1.34139e-05 0)
(-4.07184e-05 7.44057e-05 0)
(-0.000118981 0.000141927 0)
(-0.000235131 0.000213878 0)
(-0.00039021 0.000287723 0)
(-0.000584152 0.000361093 0)
(-0.000815841 0.000432255 0)
(-0.00108375 0.000499821 0)
(-0.00138575 0.000562841 0)
(-0.00171932 0.000620761 0)
(-0.00208184 0.000673172 0)
(-0.00247044 0.000719882 0)
(-0.00288216 0.000760878 0)
(-0.0033141 0.000796172 0)
(-0.00376331 0.000825895 0)
(-0.00422692 0.000850224 0)
(-0.00470214 0.000869354 0)
(-0.00518627 0.000883488 0)
(-0.00567669 0.000892884 0)
(-0.00617094 0.000897768 0)
(-0.00666667 0.000898393 0)
(-0.00716162 0.000895015 0)
(-0.00765369 0.000887865 0)
(-0.00814089 0.000877173 0)
(-0.00862134 0.00086318 0)
(-0.00909329 0.000846115 0)
(-0.00955513 0.000826195 0)
(-0.0100053 0.000803622 0)
(-0.0104425 0.000778598 0)
(-0.0108652 0.000751312 0)
(-0.0112724 0.000721927 0)
(-0.0116629 0.000690609 0)
(-0.0120356 0.000657524 0)
(-0.0123897 0.000622817 0)
(-0.0127241 0.000586625 0)
(-0.0130383 0.000549074 0)
(-0.0133313 0.000510284 0)
(-0.0136026 0.000470379 0)
(-0.0138516 0.000429464 0)
(-0.0140776 0.000387634 0)
(-0.0142803 0.000344994 0)
(-0.0144593 0.000301642 0)
(-0.014614 0.000257661 0)
(-0.0147443 0.000213139 0)
(-0.0148498 0.000168159 0)
(-0.0149304 0.000122801 0)
(-0.0149857 7.71515e-05 0)
(-0.0150157 3.12937e-05 0)
(-0.0150203 -1.46998e-05 0)
(-0.0149995 -6.07515e-05 0)
(-0.0149532 -0.000106773 0)
(-0.0148814 -0.000152673 0)
(-0.0147844 -0.000198369 0)
(-0.0146621 -0.000243775 0)
(-0.0145149 -0.000288798 0)
(-0.014343 -0.000333333 0)
(-0.0141466 -0.000377273 0)
(-0.0139261 -0.000420516 0)
(-0.013682 -0.000462948 0)
(-0.0134148 -0.000504445 0)
(-0.013125 -0.000544877 0)
(-0.0128132 -0.00058411 0)
(-0.0124803 -0.000622 0)
(-0.0121269 -0.000658397 0)
(-0.0117539 -0.00069314 0)
(-0.0113624 -0.000726063 0)
(-0.0109533 -0.000756986 0)
(-0.0105279 -0.000785724 0)
(-0.0100874 -0.000812081 0)
(-0.0096332 -0.000835857 0)
(-0.00916676 -0.000856838 0)
(-0.00868971 -0.000874805 0)
(-0.00820376 -0.000889531 0)
(-0.00771075 -0.000900783 0)
(-0.00721262 -0.000908324 0)
(-0.0067115 -0.000911911 0)
(-0.0062096 -0.000911294 0)
(-0.00570926 -0.000906226 0)
(-0.00521292 -0.000896456 0)
(-0.00472318 -0.000881746 0)
(-0.00424274 -0.00086187 0)
(-0.0037744 -0.000836618 0)
(-0.00332104 -0.000805799 0)
(-0.00288561 -0.000769247 0)
(-0.00247112 -0.000726839 0)
(-0.00208057 -0.000678518 0)
(-0.00171694 -0.000624313 0)
(-0.00138313 -0.000564367 0)
(-0.00108184 -0.000498984 0)
(-0.00081554 -0.000428702 0)
(-0.000586282 -0.000354389 0)
(-0.000395534 -0.000277388 0)
(-0.00024396 -0.000199722 0)
(-0.000131127 -0.00012441 0)
(-5.51457e-05 -5.59049e-05 0)
(-1.2214e-05 -6.35182e-07 0)
(4.08045e-06 3.22763e-05 0)
(3.29245e-06 2.92949e-05 0)
(3.18899e-06 -4.73591e-05 0)
(-3.70124e-06 -2.70653e-05 0)
(-3.7846e-05 5.20093e-05 0)
(-0.000109456 0.000149746 0)
(-0.000224015 0.000257981 0)
(-0.000383878 0.000372477 0)
(-0.000590179 0.000489173 0)
(-0.000842513 0.000604825 0)
(-0.00113976 0.000716763 0)
(-0.00147995 0.000823047 0)
(-0.00186061 0.000922338 0)
(-0.00227891 0.00101367 0)
(-0.0027317 0.00109646 0)
(-0.00321564 0.00117043 0)
(-0.00372731 0.00123543 0)
(-0.00426321 0.00129151 0)
(-0.00481989 0.00133883 0)
(-0.0053939 0.0013776 0)
(-0.00598191 0.00140813 0)
(-0.00658068 0.00143073 0)
(-0.00718705 0.00144576 0)
(-0.00779802 0.00145358 0)
(-0.00841074 0.00145459 0)
(-0.00902246 0.00144915 0)
(-0.00963063 0.00143765 0)
(-0.0102328 0.00142046 0)
(-0.0108266 0.00139795 0)
(-0.0114101 0.00137047 0)
(-0.011981 0.00133835 0)
(-0.0125376 0.00130194 0)
(-0.0130781 0.00126153 0)
(-0.0136009 0.00121744 0)
(-0.0141045 0.00116994 0)
(-0.0145875 0.0011193 0)
(-0.0150485 0.00106577 0)
(-0.0154865 0.0010096 0)
(-0.0159003 0.000950988 0)
(-0.0162889 0.000890164 0)
(-0.0166515 0.000827324 0)
(-0.0169872 0.000762652 0)
(-0.0172952 0.000696334 0)
(-0.017575 0.000628531 0)
(-0.0178258 0.000559401 0)
(-0.0180472 0.000489109 0)
(-0.0182386 0.000417795 0)
(-0.0183998 0.000345591 0)
(-0.0185303 0.000272642 0)
(-0.0186298 0.000199091 0)
(-0.0186982 0.000125069 0)
(-0.0187352 5.06995e-05 0)
(-0.0187408 -2.38867e-05 0)
(-0.0187148 -9.85506e-05 0)
(-0.0186573 -0.000173155 0)
(-0.0185684 -0.000247566 0)
(-0.0184481 -0.000321639 0)
(-0.0182967 -0.000395224 0)
(-0.0181144 -0.000468169 0)
(-0.0179014 -0.000540313 0)
(-0.0176583 -0.000611484 0)
(-0.0173854 -0.000681506 0)
(-0.0170834 -0.000750197 0)
(-0.0167527 -0.000817356 0)
(-0.0163942 -0.000882771 0)
(-0.0160086 -0.000946224 0)
(-0.0155967 -0.00100748 0)
(-0.0151597 -0.00106631 0)
(-0.0146986 -0.00112243 0)
(-0.0142146 -0.00117559 0)
(-0.013709 -0.0012255 0)
(-0.0131833 -0.00127185 0)
(-0.012639 -0.00131433 0)
(-0.0120778 -0.00135263 0)
(-0.0115016 -0.0013864 0)
(-0.0109124 -0.0014153 0)
(-0.0103122 -0.00143896 0)
(-0.0097033 -0.00145702 0)
(-0.00908816 -0.00146909 0)
(-0.0084693 -0.0014748 0)
(-0.00784944 -0.00147377 0)
(-0.00723142 -0.0014656 0)
(-0.00661823 -0.00144992 0)
(-0.00601298 -0.00142637 0)
(-0.00541895 -0.00139461 0)
(-0.00483948 -0.00135433 0)
(-0.00427802 -0.00130525 0)
(-0.00373807 -0.00124717 0)
(-0.00322319 -0.00117993 0)
(-0.0027369 -0.00110351 0)
(-0.00228269 -0.001018 0)
(-0.00186387 -0.000923709 0)
(-0.00148357 -0.000821197 0)
(-0.00114458 -0.000711375 0)
(-0.000849194 -0.000595647 0)
(-0.000599085 -0.000476095 0)
(-0.000395044 -0.000355742 0)
(-0.000236757 -0.000238907 0)
(-0.000122471 -0.000131709 0)
(-4.86228e-05 -4.2629e-05 0)
(-9.87393e-06 1.66961e-05 0)
(7.62581e-07 2.93e-05 0)
(-7.61267e-07 -4.20714e-05 0)
(-2.1905e-05 3.45529e-06 0)
(-8.18552e-05 0.000119063 0)
(-0.000186836 0.000260422 0)
(-0.000341415 0.000416213 0)
(-0.000547986 0.000579983 0)
(-0.00080732 0.00074632 0)
(-0.00111899 0.000910696 0)
(-0.00148149 0.00106967 0)
(-0.00189264 0.00122069 0)
(-0.00234967 0.00136186 0)
(-0.00284937 0.00149187 0)
(-0.00338823 0.00160992 0)
(-0.00396252 0.00171551 0)
(-0.00456839 0.00180846 0)
(-0.00520191 0.00188878 0)
(-0.00585915 0.00195663 0)
(-0.0065362 0.0020123 0)
(-0.00722926 0.00205615 0)
(-0.00793462 0.00208866 0)
(-0.00864865 0.00211027 0)
(-0.0093679 0.0021215 0)
(-0.0100891 0.00212288 0)
(-0.010809 0.00211493 0)
(-0.0115246 0.00209819 0)
(-0.0122331 0.0020732 0)
(-0.0129319 0.00204046 0)
(-0.0136184 0.00200049 0)
(-0.0142903 0.00195377 0)
(-0.0149453 0.00190077 0)
(-0.0155814 0.00184194 0)
(-0.0161967 0.0017777 0)
(-0.0167895 0.00170847 0)
(-0.0173579 0.00163464 0)
(-0.0179007 0.00155657 0)
(-0.0184163 0.00147461 0)
(-0.0189034 0.00138908 0)
(-0.019361 0.0013003 0)
(-0.0197879 0.00120855 0)
(-0.0201831 0.00111411 0)
(-0.0205458 0.00101724 0)
(-0.0208751 0.000918196 0)
(-0.0211704 0.000817213 0)
(-0.0214311 0.000714508 0)
(-0.0216565 0.000610296 0)
(-0.0218461 0.000504794 0)
(-0.0219997 0.000398202 0)
(-0.0221168 0.00029072 0)
(-0.0221971 0.000182546 0)
(-0.0222406 7.38733e-05 0)
(-0.0222469 -3.51078e-05 0)
(-0.0222162 -0.000144197 0)
(-0.0221483 -0.00025319 0)
(-0.0220433 -0.000361886 0)
(-0.0219015 -0.000470079 0)
(-0.021723 -0.000577546 0)
(-0.0215081 -0.000684061 0)
(-0.0212572 -0.000789385 0)
(-0.0209707 -0.000893271 0)
(-0.0206493 -0.000995461 0)
(-0.0202935 -0.00109568 0)
(-0.0199041 -0.00119365 0)
(-0.0194819 -0.00128905 0)
(-0.0190279 -0.00138156 0)
(-0.0185432 -0.00147084 0)
(-0.0180288 -0.00155655 0)
(-0.0174861 -0.0016383 0)
(-0.0169166 -0.0017157 0)
(-0.0163217 -0.00178834 0)
(-0.0157032 -0.00185577 0)
(-0.0150629 -0.00191756 0)
(-0.0144029 -0.00197324 0)
(-0.0137252 -0.00202231 0)
(-0.0130322 -0.00206428 0)
(-0.0123264 -0.00209863 0)
(-0.0116103 -0.00212484 0)
(-0.0108869 -0.00214237 0)
(-0.010159 -0.00215068 0)
(-0.00942982 -0.00214923 0)
(-0.00870268 -0.00213748 0)
(-0.00798098 -0.00211492 0)
(-0.00726834 -0.00208105 0)
(-0.00656849 -0.00203542 0)
(-0.00588527 -0.00197761 0)
(-0.00522259 -0.00190727 0)
(-0.00458442 -0.00182413 0)
(-0.00397477 -0.00172807 0)
(-0.00339761 -0.00161909 0)
(-0.00285682 -0.00149741 0)
(-0.0023561 -0.00136354 0)
(-0.00189889 -0.00121833 0)
(-0.00148827 -0.00106313 0)
(-0.00112682 -0.000899924 0)
(-0.000816419 -0.00073157 0)
(-0.00055812 -0.000562077 0)
(-0.000351913 -0.000396997 0)
(-0.000196463 -0.000243938 0)
(-8.88061e-05 -0.000113128 0)
(-2.51921e-05 -1.81943e-05 0)
(-1.9517e-06 2.14501e-05 0)
(-4.22582e-06 -2.70466e-05 0)
(-3.97002e-05 5.61071e-05 0)
(-0.000126597 0.000216891 0)
(-0.000266911 0.000409152 0)
(-0.000463635 0.000619023 0)
(-0.000718525 0.000838386 0)
(-0.0010321 0.00106021 0)
(-0.00140347 0.00127897 0)
(-0.00183085 0.00149039 0)
(-0.00231174 0.0016912 0)
(-0.0028431 0.00187902 0)
(-0.0034214 0.00205218 0)
(-0.0040428 0.00220956 0)
(-0.00470322 0.00235052 0)
(-0.00539844 0.00247473 0)
(-0.00612417 0.00258218 0)
(-0.00687607 0.00267304 0)
(-0.00764985 0.00274764 0)
(-0.00844128 0.00280645 0)
(-0.00924625 0.00285001 0)
(-0.0100607 0.00287893 0)
(-0.0108809 0.00289389 0)
(-0.011703 0.00289554 0)
(-0.0125235 0.00288459 0)
(-0.013339 0.00286175 0)
(-0.0141464 0.0028277 0)
(-0.0149426 0.00278313 0)
(-0.0157248 0.00272872 0)
(-0.0164902 0.00266513 0)
(-0.0172365 0.00259298 0)
(-0.0179613 0.00251287 0)
(-0.0186624 0.00242538 0)
(-0.0193378 0.00233106 0)
(-0.0199856 0.00223045 0)
(-0.020604 0.00212403 0)
(-0.0211915 0.00201227 0)
(-0.0217467 0.00189564 0)
(-0.0222681 0.00177454 0)
(-0.0227546 0.00164937 0)
(-0.023205 0.00152051 0)
(-0.0236183 0.00138832 0)
(-0.0239937 0.00125314 0)
(-0.0243302 0.0011153 0)
(-0.0246271 0.000975098 0)
(-0.0248839 0.000832834 0)
(-0.0251 0.000688797 0)
(-0.0252749 0.000543275 0)
(-0.0254082 0.000396539 0)
(-0.0254996 0.000248853 0)
(-0.0255489 0.000100487 0)
(-0.025556 -4.82881e-05 0)
(-0.0255207 -0.000197199 0)
(-0.0254431 -0.000345972 0)
(-0.0253233 -0.000494325 0)
(-0.0251614 -0.000641973 0)
(-0.0249577 -0.000788616 0)
(-0.0247126 -0.000933939 0)
(-0.0244264 -0.00107762 0)
(-0.0240997 -0.00121931 0)
(-0.0237333 -0.00135867 0)
(-0.0233277 -0.00149532 0)
(-0.0228838 -0.00162886 0)
(-0.0224026 -0.00175887 0)
(-0.0218852 -0.00188492 0)
(-0.0213328 -0.00200655 0)
(-0.0207467 -0.00212328 0)
(-0.0201284 -0.00223459 0)
(-0.0194795 -0.00233994 0)
(-0.0188019 -0.00243878 0)
(-0.0180974 -0.00253053 0)
(-0.0173681 -0.00261457 0)
(-0.0166163 -0.00269028 0)
(-0.0158445 -0.002757 0)
(-0.0150552 -0.00281406 0)
(-0.0142513 -0.00286077 0)
(-0.0134358 -0.00289643 0)
(-0.0126117 -0.00292033 0)
(-0.0117825 -0.00293175 0)
(-0.0109516 -0.00292998 0)
(-0.0101228 -0.00291434 0)
(-0.00929984 -0.00288414 0)
(-0.00848684 -0.00283876 0)
(-0.00768789 -0.00277761 0)
(-0.00690726 -0.00270018 0)
(-0.00614925 -0.00260605 0)
(-0.00541825 -0.00249493 0)
(-0.00471864 -0.00236669 0)
(-0.00405477 -0.00222142 0)
(-0.00343087 -0.00205949 0)
(-0.00285096 -0.00188162 0)
(-0.00231878 -0.001689 0)
(-0.00183772 -0.00148343 0)
(-0.00141062 -0.0012675 0)
(-0.00103968 -0.0010448 0)
(-0.00072631 -0.00082027 0)
(-0.000470983 -0.000600565 0)
(-0.000272994 -0.000394553 0)
(-0.00013023 -0.000213844 0)
(-4.08022e-05 -7.35052e-05 0)
(-4.64e-06 5.47381e-06 0)
(-7.29856e-06 -2.97575e-06 0)
(-5.64283e-05 0.000130739 0)
(-0.00017024 0.000346297 0)
(-0.000346444 0.000597048 0)
(-0.000585941 0.000867733 0)
(-0.000889843 0.0011485 0)
(-0.00125797 0.00143125 0)
(-0.0016889 0.00170945 0)
(-0.00218049 0.00197799 0)
(-0.00272989 0.00223297 0)
(-0.00333371 0.00247153 0)
(-0.00398812 0.00269159 0)
(-0.00468898 0.00289176 0)
(-0.0054319 0.00307118 0)
(-0.00621231 0.00322943 0)
(-0.00702559 0.00336642 0)
(-0.00786709 0.00348233 0)
(-0.00873215 0.00357754 0)
(-0.00961619 0.00365259 0)
(-0.0105147 0.00370813 0)
(-0.0114234 0.00374491 0)
(-0.012338 0.00376374 0)
(-0.0132545 0.00376547 0)
(-0.0141689 0.00375097 0)
(-0.0150777 0.00372112 0)
(-0.0159772 0.00367679 0)
(-0.0168642 0.00361885 0)
(-0.0177355 0.00354817 0)
(-0.0185881 0.00346557 0)
(-0.0194194 0.00337186 0)
(-0.0202266 0.00326781 0)
(-0.0210075 0.00315416 0)
(-0.0217597 0.00303162 0)
(-0.0224812 0.00290088 0)
(-0.02317 0.00276258 0)
(-0.0238244 0.00261732 0)
(-0.0244428 0.00246568 0)
(-0.0250236 0.00230821 0)
(-0.0255654 0.00214544 0)
(-0.026067 0.00197784 0)
(-0.0265274 0.00180589 0)
(-0.0269454 0.00163004 0)
(-0.0273202 0.00145071 0)
(-0.0276509 0.00126829 0)
(-0.0279368 0.00108318 0)
(-0.0281774 0.000895766 0)
(-0.0283721 0.00070641 0)
(-0.0285204 0.000515472 0)
(-0.0286221 0.000323301 0)
(-0.0286769 0.00013025 0)
(-0.0286846 -6.33261e-05 0)
(-0.0286451 -0.000257066 0)
(-0.0285584 -0.000450613 0)
(-0.0284247 -0.000643606 0)
(-0.0282442 -0.000835663 0)
(-0.0280171 -0.00102638 0)
(-0.0277438 -0.00121537 0)
(-0.0274248 -0.00140219 0)
(-0.0270608 -0.00158642 0)
(-0.0266524 -0.00176758 0)
(-0.0262005 -0.00194518 0)
(-0.0257059 -0.00211871 0)
(-0.0251699 -0.00228764 0)
(-0.0245936 -0.00245139 0)
(-0.0239782 -0.00260937 0)
(-0.0233255 -0.00276095 0)
(-0.0226369 -0.00290546 0)
(-0.0219143 -0.00304222 0)
(-0.0211597 -0.00317051 0)
(-0.0203752 -0.00328956 0)
(-0.0195631 -0.00339862 0)
(-0.018726 -0.00349685 0)
(-0.0178666 -0.00358342 0)
(-0.0169876 -0.00365748 0)
(-0.0160924 -0.00371814 0)
(-0.015184 -0.00376451 0)
(-0.014266 -0.0037957 0)
(-0.0133421 -0.00381081 0)
(-0.0124162 -0.00380894 0)
(-0.0114922 -0.00378923 0)
(-0.0105743 -0.00375085 0)
(-0.00966704 -0.00369302 0)
(-0.00877479 -0.00361504 0)
(-0.00790221 -0.0035163 0)
(-0.00705395 -0.00339631 0)
(-0.00623475 -0.00325476 0)
(-0.00544934 -0.00309156 0)
(-0.00470239 -0.00290689 0)
(-0.00399844 -0.00270126 0)
(-0.00334182 -0.00247565 0)
(-0.00273658 -0.00223159 0)
(-0.00218638 -0.00197131 0)
(-0.00169443 -0.00169798 0)
(-0.0012633 -0.00141589 0)
(-0.000894859 -0.00113079 0)
(-0.000590199 -0.000850286 0)
(-0.0003494 -0.000584239 0)
(-0.00017134 -0.000345279 0)
(-5.60988e-05 -0.000149417 0)
(-7.19687e-06 -1.85245e-05 0)
(-9.96115e-06 2.9432e-05 0)
(-7.20017e-05 0.000226658 0)
(-0.000211968 0.000506857 0)
(-0.000423538 0.000824272 0)
(-0.000705622 0.00116239 0)
(-0.00105831 0.00151042 0)
(-0.00148059 0.00185925 0)
(-0.00197049 0.00220151 0)
(-0.00252533 0.00253139 0)
(-0.00314186 0.00284443 0)
(-0.00381631 0.00313728 0)
(-0.00454457 0.00340747 0)
(-0.00532215 0.00365335 0)
(-0.00614436 0.00387387 0)
(-0.00700635 0.00406847 0)
(-0.00790318 0.00423699 0)
(-0.00882989 0.00437962 0)
(-0.00978152 0.00449676 0)
(-0.0107532 0.00458905 0)
(-0.0117401 0.00465726 0)
(-0.0127375 0.00470225 0)
(-0.013741 0.00472499 0)
(-0.0147461 0.00472649 0)
(-0.0157487 0.00470782 0)
(-0.0167448 0.00467004 0)
(-0.0177307 0.00461421 0)
(-0.0187026 0.00454142 0)
(-0.0196572 0.00445269 0)
(-0.0205913 0.00434906 0)
(-0.0215019 0.00423151 0)
(-0.0223861 0.004101 0)
(-0.0232414 0.00395846 0)
(-0.0240654 0.00380478 0)
(-0.0248556 0.00364078 0)
(-0.02561 0.00346728 0)
(-0.0263268 0.00328504 0)
(-0.027004 0.00309477 0)
(-0.0276401 0.00289717 0)
(-0.0282335 0.00269288 0)
(-0.0287829 0.00248252 0)
(-0.029287 0.00226669 0)
(-0.0297448 0.00204594 0)
(-0.0301552 0.0018208 0)
(-0.0305174 0.00159178 0)
(-0.0308305 0.00135937 0)
(-0.0310938 0.00112407 0)
(-0.0313069 0.00088632 0)
(-0.0314693 0.000646578 0)
(-0.0315805 0.000405292 0)
(-0.0316403 0.000162915 0)
(-0.0316485 -8.01105e-05 0)
(-0.0316051 -0.000323338 0)
(-0.03151 -0.000566314 0)
(-0.0313634 -0.000808572 0)
(-0.0311654 -0.00104963 0)
(-0.0309165 -0.001289 0)
(-0.030617 -0.00152616 0)
(-0.0302675 -0.0017606 0)
(-0.0298686 -0.00199174 0)
(-0.0294212 -0.002219 0)
(-0.0289261 -0.00244178 0)
(-0.0283844 -0.00265943 0)
(-0.0277972 -0.00287127 0)
(-0.0271659 -0.00307659 0)
(-0.026492 -0.00327464 0)
(-0.0257771 -0.00346465 0)
(-0.0250229 -0.00364577 0)
(-0.0242315 -0.00381716 0)
(-0.0234051 -0.00397792 0)
(-0.0225459 -0.00412711 0)
(-0.0216566 -0.00426376 0)
(-0.0207398 -0.00438686 0)
(-0.0197984 -0.00449539 0)
(-0.0188357 -0.00458827 0)
(-0.0178549 -0.00466443 0)
(-0.0168596 -0.00472278 0)
(-0.0158537 -0.00476221 0)
(-0.0148409 -0.00478163 0)
(-0.0138256 -0.00477997 0)
(-0.012812 -0.00475618 0)
(-0.0118047 -0.00470927 0)
(-0.0108084 -0.00463831 0)
(-0.00982788 -0.00454247 0)
(-0.00886806 -0.00442105 0)
(-0.00793394 -0.00427351 0)
(-0.00703057 -0.00409953 0)
(-0.00616298 -0.00389905 0)
(-0.00533615 -0.00367234 0)
(-0.00455491 -0.00342008 0)
(-0.00382389 -0.0031435 0)
(-0.00314746 -0.00284443 0)
(-0.00252963 -0.00252557 0)
(-0.00197395 -0.00219056 0)
(-0.00148346 -0.00184435 0)
(-0.00106058 -0.00149337 0)
(-0.000707118 -0.00114597 0)
(-0.000424015 -0.000812784 0)
(-0.000211214 -0.000507121 0)
(-7.07557e-05 -0.000245538 0)
(-9.57887e-06 -5.02353e-05 0)
(-1.2312e-05 6.9498e-05 0)
(-8.64341e-05 0.000342752 0)
(-0.000251371 0.000697791 0)
(-0.00049732 0.00108999 0)
(-0.000821101 0.00150241 0)
(-0.00122169 0.00192351 0)
(-0.00169726 0.00234344 0)
(-0.00224509 0.00275418 0)
(-0.00286194 0.00314935 0)
(-0.00354409 0.00352397 0)
(-0.00428739 0.00387425 0)
(-0.00508733 0.00419743 0)
(-0.00593914 0.00449156 0)
(-0.00683781 0.0047554 0)
(-0.0077782 0.00498828 0)
(-0.00875509 0.00518999 0)
(-0.00976322 0.00536068 0)
(-0.0107973 0.00550084 0)
(-0.0118523 0.00561113 0)
(-0.012923 0.00569246 0)
(-0.0140045 0.00574583 0)
(-0.015092 0.00577236 0)
(-0.0161808 0.00577325 0)
(-0.0172666 0.00574973 0)
(-0.0183449 0.00570306 0)
(-0.0194119 0.00563452 0)
(-0.0204637 0.00554538 0)
(-0.0214965 0.0054369 0)
(-0.022507 0.00531027 0)
(-0.023492 0.00516672 0)
(-0.0244485 0.00500738 0)
(-0.0253735 0.00483338 0)
(-0.0262646 0.00464577 0)
(-0.0271192 0.00444558 0)
(-0.027935 0.00423377 0)
(-0.02871 0.00401128 0)
(-0.0294423 0.00377899 0)
(-0.0301301 0.00353772 0)
(-0.0307718 0.00328826 0)
(-0.0313658 0.00303139 0)
(-0.0319109 0.00276782 0)
(-0.0324058 0.00249822 0)
(-0.0328495 0.00222324 0)
(-0.033241 0.00194352 0)
(-0.0335794 0.00165967 0)
(-0.0338641 0.00137226 0)
(-0.0340944 0.00108186 0)
(-0.0342698 0.000789031 0)
(-0.03439 0.000494323 0)
(-0.0344545 0.000198284 0)
(-0.0344632 -9.85385e-05 0)
(-0.0344161 -0.000395594 0)
(-0.0343131 -0.000692326 0)
(-0.0341545 -0.000988166 0)
(-0.0339403 -0.00128253 0)
(-0.033671 -0.0015748 0)
(-0.033347 -0.00186435 0)
(-0.032969 -0.00215055 0)
(-0.0325376 -0.00243271 0)
(-0.0320537 -0.00271011 0)
(-0.0315182 -0.002982 0)
(-0.0309324 -0.00324761 0)
(-0.0302974 -0.0035061 0)
(-0.0296148 -0.00375661 0)
(-0.028886 -0.00399824 0)
(-0.0281129 -0.00423002 0)
(-0.0272974 -0.00445096 0)
(-0.0264417 -0.00466002 0)
(-0.025548 -0.00485611 0)
(-0.0246188 -0.00503809 0)
(-0.023657 -0.0052048 0)
(-0.0226654 -0.00535502 0)
(-0.0216472 -0.00548751 0)
(-0.0206057 -0.00560099 0)
(-0.0195446 -0.00569417 0)
(-0.0184675 -0.00576575 0)
(-0.0173787 -0.00581441 0)
(-0.0162821 -0.00583887 0)
(-0.0151824 -0.00583783 0)
(-0.0140842 -0.00581008 0)
(-0.0129921 -0.00575446 0)
(-0.0119113 -0.00566988 0)
(-0.0108468 -0.00555541 0)
(-0.00980379 -0.00541024 0)
(-0.0087876 -0.00523379 0)
(-0.00780356 -0.00502571 0)
(-0.00685697 -0.00478598 0)
(-0.00595311 -0.00451497 0)
(-0.00509711 -0.00421353 0)
(-0.0042939 -0.0038831 0)
(-0.00354817 -0.00352584 0)
(-0.00286431 -0.0031448 0)
(-0.0022463 -0.00274412 0)
(-0.00169767 -0.00232923 0)
(-0.00122146 -0.00190716 0)
(-0.000820227 -0.00148681 0)
(-0.000495852 -0.00107937 0)
(-0.000249344 -0.000698544 0)
(-8.46166e-05 -0.000361135 0)
(-1.17812e-05 -8.925e-05 0)
(-1.44371e-05 0.000116604 0)
(-9.97698e-05 0.00047797 0)
(-0.000288447 0.000917794 0)
(-0.000567413 0.00139303 0)
(-0.000931531 0.00188668 0)
(-0.00137878 0.00238664 0)
(-0.00190637 0.00288264 0)
(-0.0025108 0.00336617 0)
(-0.00318821 0.00383039 0)
(-0.00393437 0.00426988 0)
(-0.00474469 0.00468052 0)
(-0.00561429 0.00505923 0)
(-0.00653803 0.00540384 0)
(-0.00751062 0.00571294 0)
(-0.0085266 0.00598576 0)
(-0.00958048 0.00622202 0)
(-0.0106667 0.00642188 0)
(-0.0117798 0.00658586 0)
(-0.0129144 0.00671473 0)
(-0.014065 0.00680946 0)
(-0.0152265 0.00687123 0)
(-0.0163938 0.00690132 0)
(-0.017562 0.00690108 0)
(-0.0187265 0.00687196 0)
(-0.0198827 0.00681542 0)
(-0.0210264 0.00673295 0)
(-0.0221535 0.00662601 0)
(-0.0232602 0.00649608 0)
(-0.0243428 0.00634459 0)
(-0.0253979 0.00617294 0)
(-0.0264222 0.00598249 0)
(-0.0274129 0.00577456 0)
(-0.0283671 0.0055504 0)
(-0.0292821 0.00531122 0)
(-0.0301557 0.00505819 0)
(-0.0309855 0.00479238 0)
(-0.0317695 0.00451485 0)
(-0.0325058 0.00422659 0)
(-0.0331927 0.00392855 0)
(-0.0338286 0.00362164 0)
(-0.0344121 0.0033067 0)
(-0.0349418 0.00298455 0)
(-0.0354168 0.00265597 0)
(-0.0358358 0.00232172 0)
(-0.036198 0.00198252 0)
(-0.0365027 0.00163906 0)
(-0.0367491 0.00129204 0)
(-0.0369368 0.000942111 0)
(-0.0370653 0.000589943 0)
(-0.0371343 0.000236195 0)
(-0.0371435 -0.000118482 0)
(-0.037093 -0.000473429 0)
(-0.0369827 -0.000827976 0)
(-0.0368127 -0.00118144 0)
(-0.0365833 -0.00153311 0)
(-0.036295 -0.00188227 0)
(-0.0359481 -0.00222817 0)
(-0.0355433 -0.00257003 0)