/*--------------------------------*- C++ -*----------------------------------*\
| =========                 |                                                 |
| \\      /  F ield         | OpenFOAM: The Open Source CFD Toolbox           |
|  \\    /   O peration     | Version:  2212                                  |
|   \\  /    A nd           | Website:  www.openfoam.com                      |
|    \\/     M anipulation  |                                                 |
\*---------------------------------------------------------------------------*/
FoamFile
{
    version     2.0;
    format      ascii;
    arch        "LSB;label=32;scalar=64";
    class       volVectorField;
    location    "0.047";
    object      U_0;
}
// * * * * * * * * * * * * * * * * * * * * * * * * * * * * * * * * * * * * * //

dimensions      [0 1 -1 0 0 0 0];

internalField   nonuniform List<vector> 
10000
(
(2.70899e-06 -2.89414e-06 0)
(1.35311e-05 -7.0539e-06 0)
(3.02067e-05 -7.88495e-06 0)
(4.55576e-05 -6.64275e-06 0)
(5.50378e-05 -4.29429e-06 0)
(5.66341e-05 -1.42449e-06 0)
(4.92909e-05 1.64671e-06 0)
(3.25529e-05 4.74488e-06 0)
(6.36277e-06 7.76656e-06 0)
(-2.90849e-05 1.06576e-05 0)
(-7.3435e-05 1.33849e-05 0)
(-0.000126228 1.59298e-05 0)
(-0.000186937 1.82808e-05 0)
(-0.000254988 2.04328e-05 0)
(-0.000329781 2.23855e-05 0)
(-0.0004107 2.41393e-05 0)
(-0.000497121 2.56977e-05 0)
(-0.000588423 2.70642e-05 0)
(-0.000683986 2.82424e-05 0)
(-0.0007832 2.9237e-05 0)
(-0.000885465 3.00512e-05 0)
(-0.000990192 3.06906e-05 0)
(-0.00109681 3.11633e-05 0)
(-0.00120476 3.14735e-05 0)
(-0.0013135 3.16271e-05 0)
(-0.00142251 3.16301e-05 0)
(-0.00153127 3.1486e-05 0)
(-0.00163931 3.12007e-05 0)
(-0.00174616 3.07819e-05 0)
(-0.00185135 3.02361e-05 0)
(-0.00195447 2.95684e-05 0)
(-0.0020551 2.8785e-05 0)
(-0.00215285 2.78915e-05 0)
(-0.00224735 2.68932e-05 0)
(-0.00233825 2.57965e-05 0)
(-0.00242521 2.46082e-05 0)
(-0.00250793 2.33326e-05 0)
(-0.0025861 2.19739e-05 0)
(-0.00265944 2.05377e-05 0)
(-0.00272771 1.9031e-05 0)
(-0.00279067 1.74592e-05 0)
(-0.00284808 1.58265e-05 0)
(-0.00289977 1.41384e-05 0)
(-0.00294554 1.24019e-05 0)
(-0.00298523 1.06233e-05 0)
(-0.00301871 8.80756e-06 0)
(-0.00304586 6.95897e-06 0)
(-0.00306657 5.08287e-06 0)
(-0.00308076 3.18636e-06 0)
(-0.00308838 1.27602e-06 0)
(-0.00308938 -6.42744e-07 0)
(-0.00308374 -2.56498e-06 0)
(-0.00307147 -4.48539e-06 0)
(-0.00305258 -6.3971e-06 0)
(-0.00302713 -8.29238e-06 0)
(-0.00299519 -1.01645e-05 0)
(-0.00295684 -1.20076e-05 0)
(-0.00291219 -1.38156e-05 0)
(-0.00286139 -1.55823e-05 0)
(-0.0028046 -1.73005e-05 0)
(-0.00274199 -1.89622e-05 0)
(-0.00267378 -2.05601e-05 0)
(-0.0026002 -2.20874e-05 0)
(-0.00252151 -2.35373e-05 0)
(-0.00243799 -2.49028e-05 0)
(-0.00234994 -2.61769e-05 0)
(-0.0022577 -2.73519e-05 0)
(-0.00216163 -2.84201e-05 0)
(-0.00206209 -2.93744e-05 0)
(-0.0019595 -3.02082e-05 0)
(-0.00185427 -3.09148e-05 0)
(-0.00174686 -3.14873e-05 0)
(-0.00163775 -3.19192e-05 0)
(-0.00152741 -3.22038e-05 0)
(-0.00141637 -3.23344e-05 0)
(-0.00130516 -3.2305e-05 0)
(-0.00119432 -3.21102e-05 0)
(-0.00108443 -3.1745e-05 0)
(-0.000976066 -3.12045e-05 0)
(-0.000869825 -3.04841e-05 0)
(-0.000766314 -2.95798e-05 0)
(-0.00066615 -2.84877e-05 0)
(-0.00056996 -2.72042e-05 0)
(-0.00047837 -2.57268e-05 0)
(-0.00039201 -2.40542e-05 0)
(-0.000311506 -2.21862e-05 0)
(-0.00023747 -2.01236e-05 0)
(-0.000170499 -1.7869e-05 0)
(-0.000111165 -1.54281e-05 0)
(-6.00001e-05 -1.28099e-05 0)
(-1.74798e-05 -1.00286e-05 0)
(1.59994e-05 -7.10738e-06 0)
(4.01582e-05 -4.08189e-06 0)
(5.48905e-05 -1.01437e-06 0)
(6.03523e-05 1.98942e-06 0)
(5.71067e-05 4.74539e-06 0)
(4.63233e-05 6.93118e-06 0)
(3.02007e-05 7.967e-06 0)
(1.32122e-05 6.85614e-06 0)
(2.63559e-06 2.63613e-06 0)
(6.78673e-06 -1.34665e-05 0)
(2.7457e-05 -2.77572e-05 0)
(5.45891e-05 -2.8886e-05 0)
(7.52802e-05 -2.11784e-05 0)
(8.11668e-05 -8.0872e-06 0)
(6.74923e-05 8.05677e-06 0)
(3.13982e-05 2.57455e-05 0)
(-2.86539e-05 4.40059e-05 0)
(-0.000113201 6.22062e-05 0)
(-0.000222066 7.99322e-05 0)
(-0.000354599 9.69103e-05 0)
(-0.000509795 0.000112955 0)
(-0.000686412 0.000127946 0)
(-0.000883036 0.000141804 0)
(-0.00109814 0.00015448 0)
(-0.00133013 0.000165949 0)
(-0.00157734 0.000176197 0)
(-0.00183812 0.000185228 0)
(-0.00211077 0.000193051 0)
(-0.00239363 0.00019968 0)
(-0.00268505 0.00020514 0)
(-0.00298339 0.000209453 0)
(-0.00328705 0.000212646 0)
(-0.00359449 0.000214755 0)
(-0.00390416 0.00021581 0)
(-0.00421461 0.000215846 0)
(-0.00452439 0.000214895 0)
(-0.00483213 0.000212996 0)
(-0.00513649 0.000210186 0)
(-0.0054362 0.000206502 0)
(-0.00573003 0.000201985 0)
(-0.00601681 0.000196672 0)
(-0.00629541 0.000190602 0)
(-0.00656477 0.000183812 0)
(-0.00682389 0.000176342 0)
(-0.00707181 0.000168229 0)
(-0.00730762 0.000159512 0)
(-0.00753047 0.000150228 0)
(-0.00773959 0.000140414 0)
(-0.00793422 0.000130107 0)
(-0.00811368 0.000119347 0)
(-0.00827736 0.000108171 0)
(-0.00842467 9.66188e-05 0)
(-0.00855511 8.47298e-05 0)
(-0.00866821 7.25436e-05 0)
(-0.00876357 6.00986e-05 0)
(-0.00884084 4.74329e-05 0)
(-0.00889974 3.4586e-05 0)
(-0.00894004 2.15994e-05 0)
(-0.00896157 8.51444e-06 0)
(-0.00896421 -4.62862e-06 0)
(-0.00894792 -1.77887e-05 0)
(-0.00891271 -3.09236e-05 0)
(-0.00885864 -4.39892e-05 0)
(-0.00878586 -5.69402e-05 0)
(-0.00869456 -6.97316e-05 0)
(-0.00858501 -8.23193e-05 0)
(-0.00845754 -9.46582e-05 0)
(-0.00831255 -0.000106702 0)
(-0.0081505 -0.000118403 0)
(-0.00797193 -0.000129713 0)
(-0.00777743 -0.000140583 0)
(-0.00756768 -0.000150967 0)
(-0.0073434 -0.000160815 0)
(-0.00710543 -0.00017008 0)
(-0.00685462 -0.000178713 0)
(-0.00659192 -0.000186665 0)
(-0.00631836 -0.000193889 0)
(-0.006035 -0.000200336 0)
(-0.005743 -0.000205962 0)
(-0.00544356 -0.000210721 0)
(-0.00513797 -0.000214569 0)
(-0.00482755 -0.000217463 0)
(-0.0045137 -0.000219362 0)
(-0.00419787 -0.000220225 0)
(-0.00388156 -0.000220017 0)
(-0.0035663 -0.000218703 0)
(-0.0032537 -0.000216254 0)
(-0.00294539 -0.00021264 0)
(-0.00264302 -0.000207838 0)
(-0.00234828 -0.000201827 0)
(-0.00206288 -0.000194593 0)
(-0.00178853 -0.000186126 0)
(-0.00152695 -0.000176424 0)
(-0.00127985 -0.000165493 0)
(-0.00104888 -0.00015335 0)
(-0.000835669 -0.000140026 0)
(-0.000641778 -0.000125568 0)
(-0.00046865 -0.000110046 0)
(-0.000317593 -9.35607e-05 0)
(-0.000189716 -7.62559e-05 0)
(-8.58569e-05 -5.83374e-05 0)
(-6.48496e-06 -4.01007e-05 0)
(4.84476e-05 -2.19822e-05 0)
(7.97102e-05 -4.63368e-06 0)
(8.90799e-05 1.0957e-05 0)
(7.96689e-05 2.32871e-05 0)
(5.64509e-05 3.00654e-05 0)
(2.79193e-05 2.79202e-05 0)
(6.84615e-06 1.3201e-05 0)
(7.79449e-06 -3.00936e-05 0)
(2.88509e-05 -5.47646e-05 0)
(5.19054e-05 -5.18449e-05 0)
(6.1824e-05 -2.97275e-05 0)
(4.85122e-05 5.00535e-06 0)
(5.7782e-06 4.75326e-05 0)
(-7.03957e-05 9.44239e-05 0)
(-0.000182344 0.000143269 0)
(-0.000331052 0.000192401 0)
(-0.000516492 0.000240642 0)
(-0.000737893 0.000287173 0)
(-0.000993927 0.000331416 0)
(-0.00128286 0.000372969 0)
(-0.00160265 0.000411557 0)
(-0.00195107 0.000446992 0)
(-0.00232572 0.00047916 0)
(-0.0027241 0.000507991 0)
(-0.00314367 0.000533459 0)
(-0.00358184 0.000555569 0)
(-0.00403603 0.000574346 0)
(-0.00450366 0.000589831 0)
(-0.00498218 0.000602086 0)
(-0.00546908 0.000611178 0)
(-0.00596189 0.000617184 0)
(-0.00645822 0.000620191 0)
(-0.00695573 0.000620292 0)
(-0.00745215 0.000617579 0)
(-0.00794528 0.000612152 0)
(-0.008433 0.000604115 0)
(-0.00891326 0.000593572 0)
(-0.00938412 0.000580629 0)
(-0.00984368 0.000565397 0)
(-0.0102902 0.000547981 0)
(-0.0107218 0.000528491 0)
(-0.0111371 0.000507035 0)
(-0.0115344 0.000483724 0)
(-0.0119124 0.000458666 0)
(-0.0122695 0.00043197 0)
(-0.0126047 0.000403745 0)
(-0.0129166 0.0003741 0)
(-0.0132042 0.000343146 0)
(-0.0134664 0.000310993 0)
(-0.0137025 0.000277754 0)
(-0.0139114 0.000243541 0)
(-0.0140926 0.000208469 0)
(-0.0142453 0.000172649 0)
(-0.014369 0.000136196 0)
(-0.0144632 9.9226e-05 0)
(-0.0145276 6.18548e-05 0)
(-0.0145619 2.42019e-05 0)
(-0.0145659 -1.36137e-05 0)
(-0.0145395 -5.1471e-05 0)
(-0.0144829 -8.92459e-05 0)
(-0.014396 -0.000126813 0)
(-0.0142791 -0.000164044 0)
(-0.0141325 -0.000200811 0)
(-0.0139568 -0.000236982 0)
(-0.0137523 -0.000272427 0)
(-0.0135198 -0.000307012 0)
(-0.01326 -0.000340601 0)
(-0.0129737 -0.000373058 0)
(-0.012662 -0.000404245 0)
(-0.0123259 -0.000434024 0)
(-0.0119665 -0.000462257 0)
(-0.0115853 -0.000488806 0)
(-0.0111836 -0.000513533 0)
(-0.0107629 -0.000536302 0)
(-0.0103248 -0.000556976 0)
(-0.00987106 -0.000575423 0)
(-0.00940355 -0.000591511 0)
(-0.00892417 -0.000605114 0)
(-0.00843496 -0.000616108 0)
(-0.00793803 -0.000624374 0)
(-0.00743561 -0.000629798 0)
(-0.00692999 -0.000632272 0)
(-0.00642355 -0.000631697 0)
(-0.00591873 -0.00062798 0)
(-0.00541805 -0.000621041 0)
(-0.00492407 -0.000610808 0)
(-0.00443941 -0.00059722 0)
(-0.00396672 -0.000580233 0)
(-0.00350864 -0.000559818 0)
(-0.00306785 -0.000535964 0)
(-0.002647 -0.000508684 0)
(-0.0022487 -0.00047802 0)
(-0.00187551 -0.000444045 0)
(-0.00152986 -0.000406877 0)
(-0.00121408 -0.000366687 0)
(-0.000930297 -0.000323716 0)
(-0.000680381 -0.000278297 0)
(-0.000465872 -0.000230889 0)
(-0.000287861 -0.000182125 0)
(-0.000146849 -0.000132878 0)
(-4.2557e-05 -8.43674e-05 0)
(2.63278e-05 -3.83043e-05 0)
(6.24724e-05 2.89342e-06 0)
(7.02177e-05 3.58243e-05 0)
(5.60238e-05 5.57811e-05 0)
(3.01716e-05 5.64734e-05 0)
(7.97167e-06 3.01849e-05 0)
(6.65407e-06 -4.53854e-05 0)
(2.15013e-05 -7.56041e-05 0)
(3.05049e-05 -6.18707e-05 0)
(1.84044e-05 -1.7371e-05 0)
(-2.53114e-05 4.80856e-05 0)
(-0.000107478 0.000127048 0)
(-0.000232681 0.000213953 0)
(-0.00040369 0.000304722 0)
(-0.000621769 0.000396381 0)
(-0.000886992 0.000486765 0)
(-0.00119852 0.000574295 0)
(-0.00155479 0.000657831 0)
(-0.00195371 0.000736548 0)
(-0.00239278 0.000809861 0)
(-0.00286918 0.000877359 0)
(-0.00337989 0.000938768 0)
(-0.00392171 0.000993919 0)
(-0.00449135 0.00104272 0)
(-0.00508546 0.00108514 0)
(-0.00570067 0.00112121 0)
(-0.00633358 0.00115098 0)
(-0.00698084 0.00117455 0)
(-0.00763914 0.00119204 0)
(-0.00830521 0.00120358 0)
(-0.00897585 0.00120933 0)
(-0.00964794 0.00120944 0)
(-0.0103185 0.00120411 0)
(-0.0109845 0.00119352 0)
(-0.0116431 0.00117785 0)
(-0.0122916 0.0011573 0)
(-0.0129274 0.00113209 0)
(-0.013548 0.00110241 0)
(-0.0141508 0.00106847 0)
(-0.0147337 0.00103049 0)
(-0.0152944 0.000988663 0)
(-0.0158309 0.000943213 0)
(-0.0163411 0.00089435 0)
(-0.0168233 0.000842285 0)
(-0.0172758 0.000787234 0)
(-0.0176968 0.000729409 0)
(-0.0180851 0.000669027 0)
(-0.0184391 0.000606304 0)
(-0.0187576 0.00054146 0)
(-0.0190396 0.000474713 0)
(-0.0192841 0.000406285 0)
(-0.0194901 0.000336399 0)
(-0.0196569 0.00026528 0)
(-0.0197839 0.000193154 0)
(-0.0198706 0.000120252 0)
(-0.0199166 4.68028e-05 0)
(-0.0199218 -2.69563e-05 0)
(-0.0198859 -0.000100787 0)
(-0.0198091 -0.000174447 0)
(-0.0196916 -0.000247691 0)
(-0.0195335 -0.000320271 0)
(-0.0193355 -0.000391935 0)
(-0.019098 -0.000462428 0)
(-0.0188217 -0.000531492 0)
(-0.0185077 -0.000598866 0)
(-0.0181568 -0.000664287 0)
(-0.0177703 -0.00072749 0)
(-0.0173495 -0.000788208 0)
(-0.0168957 -0.000846174 0)
(-0.0164107 -0.00090112 0)
(-0.0158962 -0.000952777 0)
(-0.0153541 -0.00100088 0)
(-0.0147864 -0.00104517 0)
(-0.0141953 -0.00108537 0)
(-0.0135831 -0.00112124 0)
(-0.0129524 -0.00115253 0)
(-0.0123056 -0.00117898 0)
(-0.0116455 -0.00120038 0)
(-0.010975 -0.00121647 0)
(-0.0102971 -0.00122707 0)
(-0.0096147 -0.00123195 0)
(-0.0089311 -0.00123094 0)
(-0.00824953 -0.00122387 0)
(-0.00757333 -0.00121058 0)
(-0.00690589 -0.00119095 0)
(-0.00625069 -0.00116489 0)
(-0.00561121 -0.00113231 0)
(-0.00499094 -0.00109318 0)
(-0.00439339 -0.00104751 0)
(-0.00382201 -0.000995337 0)
(-0.0032802 -0.000936779 0)
(-0.00277123 -0.000872011 0)
(-0.00229826 -0.000801298 0)
(-0.00186421 -0.000725012 0)
(-0.00147174 -0.000643663 0)
(-0.00112317 -0.000557941 0)
(-0.000820348 -0.000468771 0)
(-0.000564535 -0.000377393 0)
(-0.00035624 -0.000285472 0)
(-0.000195018 -0.000195247 0)
(-7.92117e-05 -0.000109746 0)
(-5.65046e-06 -3.30558e-05 0)
(3.06386e-05 2.93232e-05 0)
(3.68138e-05 7.01257e-05 0)
(2.37056e-05 7.99565e-05 0)
(6.99578e-06 4.64052e-05 0)
(4.43449e-06 -5.51748e-05 0)
(8.90419e-06 -8.21048e-05 0)
(-3.20693e-06 -4.91633e-05 0)
(-4.54915e-05 2.61028e-05 0)
(-0.00012793 0.000130804 0)
(-0.00025743 0.000254959 0)
(-0.000438699 0.000390903 0)
(-0.000674613 0.000532832 0)
(-0.000966509 0.000676378 0)
(-0.00131446 0.000818261 0)
(-0.00171754 0.000956022 0)
(-0.00217397 0.00108783 0)
(-0.00268137 0.00121234 0)
(-0.00323685 0.00132855 0)
(-0.00383714 0.00143576 0)
(-0.00447866 0.00153346 0)
(-0.00515766 0.00162133 0)
(-0.0058702 0.00169919 0)
(-0.00661228 0.00176694 0)
(-0.00737983 0.00182458 0)
(-0.00816877 0.00187219 0)
(-0.00897502 0.00190987 0)
(-0.00979456 0.00193779 0)
(-0.0106234 0.00195616 0)
(-0.0114576 0.00196521 0)
(-0.0122934 0.00196519 0)
(-0.0131271 0.00195637 0)
(-0.013955 0.00193904 0)
(-0.0147736 0.00191351 0)
(-0.0155796 0.00188009 0)
(-0.0163696 0.0018391 0)
(-0.0171407 0.00179087 0)
(-0.0178897 0.00173572 0)
(-0.0186139 0.001674 0)
(-0.0193104 0.00160605 0)
(-0.0199768 0.0015322 0)
(-0.0206107 0.0014528 0)
(-0.0212097 0.0013682 0)
(-0.0217716 0.00127874 0)
(-0.0222946 0.00118477 0)
(-0.0227768 0.00108664 0)
(-0.0232164 0.000984713 0)
(-0.0236119 0.000879332 0)
(-0.0239621 0.000770858 0)
(-0.0242655 0.000659652 0)
(-0.0245212 0.000546079 0)
(-0.0247281 0.000430505 0)
(-0.0248856 0.0003133 0)
(-0.0249931 0.000194838 0)
(-0.02505 7.54983e-05 0)
(-0.0250562 -4.43359e-05 0)
(-0.0250114 -0.000164275 0)
(-0.0249158 -0.000283925 0)
(-0.0247695 -0.000402886 0)
(-0.024573 -0.000520755 0)
(-0.0243267 -0.000637122 0)
(-0.0240316 -0.000751573 0)
(-0.0236883 -0.00086369 0)
(-0.0232982 -0.000973048 0)
(-0.0228623 -0.00107922 0)
(-0.0223822 -0.00118178 0)
(-0.0218595 -0.00128029 0)
(-0.0212961 -0.00137433 0)
(-0.0206938 -0.00146346 0)
(-0.0200549 -0.00154724 0)
(-0.0193818 -0.00162526 0)
(-0.0186769 -0.00169708 0)
(-0.0179429 -0.00176228 0)
(-0.0171829 -0.00182047 0)
(-0.0163997 -0.00187123 0)
(-0.0155966 -0.00191417 0)
(-0.0147769 -0.00194892 0)
(-0.0139442 -0.00197513 0)
(-0.0131021 -0.00199245 0)
(-0.0122543 -0.00200057 0)
(-0.0114048 -0.0019992 0)
(-0.0105575 -0.00198807 0)
(-0.00971658 -0.00196697 0)
(-0.00888612 -0.0019357 0)
(-0.00807035 -0.00189412 0)
(-0.00727351 -0.00184213 0)
(-0.00649984 -0.0017797 0)
(-0.00575355 -0.00170688 0)
(-0.0050388 -0.00162376 0)
(-0.00435966 -0.00153057 0)
(-0.00372003 -0.00142763 0)
(-0.00312365 -0.00131541 0)
(-0.00257394 -0.00119456 0)
(-0.00207403 -0.00106594 0)
(-0.00162658 -0.0009307 0)
(-0.00123369 -0.000790351 0)
(-0.00089679 -0.000646864 0)
(-0.000616442 -0.000502824 0)
(-0.000392147 -0.000361618 0)
(-0.000222122 -0.000227682 0)
(-0.000103031 -0.000106828 0)
(-2.97219e-05 -6.63551e-06 0)
(5.10832e-06 6.31507e-05 0)
(1.19004e-05 9.01244e-05 0)
(4.91821e-06 5.75096e-05 0)
(1.70781e-06 -5.73621e-05 0)
(-6.68351e-06 -6.95891e-05 0)
(-4.46098e-05 -7.62214e-06 0)
(-0.000122797 0.000107453 0)
(-0.000249984 0.00026003 0)
(-0.000432715 0.000437811 0)
(-0.000675452 0.000631147 0)
(-0.0009809 0.000832556 0)
(-0.00135027 0.00103627 0)
(-0.00178351 0.00123783 0)
(-0.00227951 0.00143385 0)
(-0.0028363 0.00162172 0)
(-0.00345122 0.00179949 0)
(-0.00412102 0.00196568 0)
(-0.00484203 0.00211922 0)
(-0.00561023 0.00225934 0)
(-0.00642135 0.00238551 0)
(-0.00727092 0.00249739 0)
(-0.00815437 0.00259482 0)
(-0.00906702 0.00267775 0)
(-0.0100042 0.00274622 0)
(-0.0109611 0.00280039 0)
(-0.0119332 0.00284046 0)
(-0.0129158 0.00286669 0)
(-0.0139044 0.00287941 0)
(-0.0148945 0.00287895 0)
(-0.0158817 0.0028657 0)
(-0.0168619 0.00284007 0)
(-0.0178309 0.00280248 0)
(-0.0187848 0.00275338 0)
(-0.0197197 0.00269324 0)
(-0.0206321 0.00262251 0)
(-0.0215182 0.00254169 0)
(-0.0223749 0.00245125 0)
(-0.0231989 0.00235169 0)
(-0.0239871 0.0022435 0)
(-0.0247368 0.00212719 0)
(-0.0254452 0.00200325 0)
(-0.0261097 0.00187221 0)
(-0.0267281 0.00173456 0)
(-0.0272982 0.00159082 0)
(-0.027818 0.00144152 0)
(-0.0282857 0.00128716 0)
(-0.0286995 0.00112827 0)
(-0.0290582 0.000965389 0)
(-0.0293603 0.000799044 0)
(-0.0296048 0.000629774 0)
(-0.0297908 0.000458124 0)
(-0.0299177 0.000284642 0)
(-0.0299848 0.000109886 0)
(-0.0299918 -6.55801e-05 0)
(-0.0299386 -0.000241187 0)
(-0.0298253 -0.000416355 0)
(-0.0296521 -0.000590501 0)
(-0.0294196 -0.000763032 0)
(-0.0291283 -0.000933347 0)
(-0.0287791 -0.00110084 0)
(-0.0283731 -0.0012649 0)
(-0.0279117 -0.00142491 0)
(-0.0273963 -0.00158025 0)
(-0.0268286 -0.00173029 0)
(-0.0262106 -0.00187439 0)
(-0.0255444 -0.00201194 0)
(-0.0248323 -0.0021423 0)
(-0.024077 -0.00226484 0)
(-0.0232811 -0.00237895 0)
(-0.0224477 -0.00248401 0)
(-0.02158 -0.00257941 0)
(-0.0206813 -0.00266455 0)
(-0.0197552 -0.00273887 0)
(-0.0188055 -0.0028018 0)
(-0.017836 -0.0028528 0)
(-0.016851 -0.00289136 0)
(-0.0158546 -0.002917 0)
(-0.0148512 -0.00292927 0)
(-0.0138455 -0.00292776 0)
(-0.012842 -0.00291212 0)
(-0.0118456 -0.00288202 0)
(-0.010861 -0.00283723 0)
(-0.00989306 -0.00277755 0)
(-0.00894677 -0.00270288 0)
(-0.00802698 -0.0026132 0)
(-0.00713856 -0.0025086 0)
(-0.00628628 -0.00238928 0)
(-0.00547477 -0.0022556 0)
(-0.0047085 -0.00210807 0)
(-0.00399168 -0.00194744 0)
(-0.00332822 -0.00177468 0)
(-0.0027216 -0.00159108 0)
(-0.0021748 -0.00139832 0)
(-0.00169021 -0.00119859 0)
(-0.00126941 -0.000994667 0)
(-0.000913105 -0.000790132 0)
(-0.000620878 -0.000589569 0)
(-0.000391028 -0.000398843 0)
(-0.000220336 -0.000225449 0)
(-0.000103833 -7.89378e-05 0)
(-3.44987e-05 2.86524e-05 0)
(-2.99189e-06 8.22167e-05 0)
(2.31199e-06 6.14102e-05 0)
(-1.21922e-06 -5.09232e-05 0)
(-2.38399e-05 -3.51778e-05 0)
(-9.05035e-05 6.6844e-05 0)
(-0.000208393 0.000231433 0)
(-0.000384521 0.000440731 0)
(-0.000624728 0.000680426 0)
(-0.000932948 0.000939078 0)
(-0.00131147 0.00120763 0)
(-0.0017612 0.00147896 0)
(-0.00228182 0.00174747 0)
(-0.00287198 0.00200878 0)
(-0.00352944 0.00225949 0)
(-0.00425125 0.00249699 0)
(-0.00503382 0.00271929 0)
(-0.00587313 0.00292489 0)
(-0.00676473 0.00311269 0)
(-0.00770392 0.00328193 0)
(-0.00868574 0.0034321 0)
(-0.00970512 0.00356292 0)
(-0.0107568 0.00367427 0)
(-0.0118357 0.00376617 0)
(-0.0129363 0.00383878 0)
(-0.0140536 0.00389235 0)
(-0.0151823 0.0039272 0)
(-0.0163173 0.00394372 0)
(-0.0174535 0.00394238 0)
(-0.0185861 0.00392366 0)
(-0.0197103 0.0038881 0)
(-0.0208213 0.00383628 0)
(-0.0219148 0.00376878 0)
(-0.0229864 0.00368621 0)
(-0.0240319 0.00358921 0)
(-0.0250472 0.00347843 0)
(-0.0260287 0.00335452 0)
(-0.0269726 0.00321815 0)
(-0.0278755 0.00306999 0)
(-0.0287341 0.00291073 0)
(-0.0295454 0.00274104 0)
(-0.0303064 0.00256164 0)
(-0.0310146 0.0023732 0)
(-0.0316673 0.00217644 0)
(-0.0322624 0.00197206 0)
(-0.0327977 0.00176077 0)
(-0.0332715 0.0015433 0)
(-0.033682 0.00132036 0)
(-0.0340277 0.00109269 0)
(-0.0343075 0.000861037 0)
(-0.0345203 0.000626132 0)
(-0.0346654 0.000388735 0)
(-0.034742 0.000149608 0)
(-0.0347498 -9.04747e-05 0)
(-0.0346888 -0.000330733 0)
(-0.0345589 -0.000570377 0)
(-0.0343605 -0.000808604 0)
(-0.0340941 -0.0010446 0)
(-0.0337605 -0.00127756 0)
(-0.0333606 -0.00150664 0)
(-0.0328958 -0.00173101 0)
(-0.0323674 -0.00194982 0)
(-0.0317773 -0.00216223 0)
(-0.0311274 -0.00236738 0)
(-0.0304199 -0.00256443 0)
(-0.0296572 -0.0027525 0)
(-0.0288419 -0.00293074 0)
(-0.0279772 -0.00309831 0)
(-0.027066 -0.00325436 0)
(-0.0261118 -0.00339806 0)
(-0.0251182 -0.00352858 0)
(-0.024089 -0.00364514 0)
(-0.0230283 -0.00374693 0)
(-0.0219404 -0.00383322 0)
(-0.0208297 -0.00390329 0)
(-0.0197008 -0.00395644 0)
(-0.0185587 -0.00399203 0)
(-0.0174083 -0.00400948 0)
(-0.0162546 -0.00400824 0)
(-0.0151031 -0.00398785 0)
(-0.0139589 -0.00394791 0)
(-0.0128276 -0.00388809 0)
(-0.0117146 -0.00380819 0)
(-0.0106254 -0.00370809 0)
(-0.00956555 -0.0035878 0)
(-0.00854039 -0.00344748 0)
(-0.00755527 -0.00328745 0)
(-0.00661534 -0.00310825 0)
(-0.00572556 -0.00291063 0)
(-0.00489058 -0.00269561 0)
(-0.00411471 -0.00246458 0)
(-0.00340179 -0.0022193 0)
(-0.00275514 -0.00196204 0)
(-0.00217739 -0.00169571 0)
(-0.00167039 -0.00142394 0)
(-0.00123503 -0.00115134 0)
(-0.000871142 -0.000883681 0)
(-0.000577281 -0.000628218 0)
(-0.000350589 -0.000394029 0)
(-0.000186561 -0.000192465 0)
(-7.87957e-05 -3.75809e-05 0)
(-1.95391e-05 5.32564e-05 0)
(-5.13081e-07 5.70178e-05 0)
(-4.18208e-06 -3.53728e-05 0)
(-4.16817e-05 2.27869e-05 0)
(-0.000138743 0.000176826 0)
(-0.000298686 0.000401219 0)
(-0.000526511 0.000676357 0)
(-0.000827112 0.000986249 0)
(-0.00120367 0.00131789 0)
(-0.00165787 0.00166082 0)
(-0.00219013 0.00200663 0)
(-0.00279978 0.00234863 0)
(-0.0034851 0.00268149 0)
(-0.00424354 0.00300101 0)
(-0.00507182 0.00330389 0)
(-0.00596602 0.00358759 0)
(-0.00692174 0.00385016 0)
(-0.00793416 0.00409016 0)
(-0.00899816 0.00430655 0)
(-0.0101084 0.00449862 0)
(-0.0112592 0.00466594 0)
(-0.012445 0.00480832 0)
(-0.0136601 0.00492575 0)
(-0.0148986 0.00501836 0)
(-0.0161548 0.00508643 0)
(-0.0174231 0.00513037 0)
(-0.0186977 0.00515063 0)
(-0.0199731 0.00514779 0)
(-0.0212439 0.00512246 0)
(-0.0225049 0.00507531 0)
(-0.0237508 0.00500705 0)
(-0.0249767 0.00491846 0)
(-0.0261777 0.00481029 0)
(-0.0273493 0.00468338 0)
(-0.0284869 0.00453854 0)
(-0.0295864 0.00437662 0)
(-0.0306437 0.00419849 0)
(-0.0316549 0.00400501 0)
(-0.0326164 0.00379707 0)
(-0.0335249 0.00357556 0)
(-0.034377 0.00334139 0)
(-0.0351698 0.00309545 0)
(-0.0359005 0.00283867 0)
(-0.0365667 0.00257196 0)
(-0.0371659 0.00229626 0)
(-0.0376961 0.0020125 0)
(-0.0381555 0.00172163 0)
(-0.0385424 0.00142461 0)
(-0.0388555 0.00112239 0)
(-0.0390936 0.000815952 0)
(-0.0392558 0.00050628 0)
(-0.0393414 0.000194369 0)
(-0.0393501 -0.000118773 0)
(-0.0392817 -0.000432126 0)
(-0.0391362 -0.000744658 0)
(-0.0389141 -0.00105533 0)
(-0.0386159 -0.00136307 0)
(-0.0382424 -0.00166683 0)
(-0.0377949 -0.00196553 0)
(-0.0372746 -0.00225806 0)
(-0.0366833 -0.00254335 0)
(-0.0360228 -0.00282029 0)
(-0.0352954 -0.00308776 0)
(-0.0345035 -0.00334466 0)
(-0.0336498 -0.00358987 0)
(-0.0327373 -0.00382229 0)
(-0.0317693 -0.00404082 0)
(-0.0307492 -0.00424436 0)
(-0.0296809 -0.00443185 0)
(-0.0285683 -0.00460221 0)
(-0.0274158 -0.00475443 0)
(-0.0262278 -0.00488749 0)
(-0.025009 -0.00500044 0)
(-0.0237644 -0.00509234 0)
(-0.0224992 -0.00516233 0)
(-0.0212187 -0.00520959 0)
(-0.0199283 -0.00523336 0)
(-0.0186338 -0.00523299 0)
(-0.017341 -0.00520787 0)
(-0.0160557 -0.00515752 0)
(-0.014784 -0.00508156 0)
(-0.0135318 -0.00497974 0)
(-0.0123051 -0.00485195 0)
(-0.0111101 -0.00469826 0)
(-0.00995259 -0.0045189 0)
(-0.0088384 -0.00431435 0)
(-0.00777318 -0.00408533 0)
(-0.00676231 -0.00383286 0)
(-0.00581087 -0.00355832 0)
(-0.00492356 -0.00326348 0)
(-0.00410458 -0.00295066 0)
(-0.00335756 -0.00262274 0)
(-0.00268546 -0.00228336 0)
(-0.00209042 -0.00193704 0)
(-0.00157365 -0.00158938 0)
(-0.00113534 -0.00124732 0)
(-0.000774463 -0.000919399 0)
(-0.000488714 -0.000616157 0)
(-0.000274275 -0.000350524 0)
(-0.000125607 -0.000138255 0)
(-3.68434e-05 1.4927e-06 0)
(-3.38848e-06 4.3807e-05 0)
(-7.09737e-06 -1.05736e-05 0)
(-5.96779e-05 0.000105098 0)
(-0.000187919 0.000323767 0)
(-0.000391209 0.000618749 0)
(-0.000672389 0.000969139 0)
(-0.00103525 0.0013576 0)
(-0.00148206 0.00176983 0)
(-0.00201373 0.0021941 0)
(-0.00263009 0.00262089 0)
(-0.00332996 0.00304245 0)
(-0.00411121 0.00345257 0)
(-0.00497088 0.00384624 0)
(-0.00590532 0.0042195 0)
(-0.00691026 0.00456924 0)
(-0.00798093 0.00489306 0)
(-0.00911213 0.00518914 0)
(-0.0102983 0.00545616 0)
(-0.0115338 0.00569317 0)
(-0.0128124 0.00589961 0)
(-0.0141282 0.00607516 0)
(-0.015475 0.00621977 0)
(-0.0168465 0.00633357 0)
(-0.0182364 0.00641685 0)
(-0.0196387 0.00647008 0)
(-0.0210473 0.00649379 0)
(-0.022456 0.00648867 0)
(-0.023859 0.00645546 0)
(-0.0252505 0.00639497 0)
(-0.0266251 0.00630808 0)
(-0.0279771 0.00619572 0)
(-0.0293014 0.00605884 0)
(-0.0305929 0.00589846 0)
(-0.0318469 0.0057156 0)
(-0.0330585 0.00551131 0)
(-0.0342234 0.00528667 0)
(-0.0353375 0.00504276 0)
(-0.0363966 0.0047807 0)
(-0.0373972 0.00450159 0)
(-0.0383356 0.00420656 0)
(-0.0392087 0.00389676 0)
(-0.0400134 0.00357333 0)
(-0.0407468 0.00323744 0)
(-0.0414066 0.00289024 0)
(-0.0419903 0.00253292 0)
(-0.042496 0.00216667 0)
(-0.042922 0.0017927 0)
(-0.0432666 0.0014122 0)
(-0.0435287 0.00102642 0)
(-0.0437072 0.000636584 0)
(-0.0438015 0.000243951 0)
(-0.043811 -0.000150212 0)
(-0.0437357 -0.000544621 0)
(-0.0435756 -0.000937981 0)
(-0.0433312 -0.00132898 0)
(-0.0430029 -0.00171628 0)
(-0.0425919 -0.00209856 0)
(-0.0420994 -0.00247445 0)
(-0.0415268 -0.00284259 0)
(-0.0408759 -0.00320161 0)
(-0.040149 -0.00355012 0)
(-0.0393483 -0.00388673 0)
(-0.0384766 -0.00421005 0)
(-0.0375368 -0.0045187 0)
(-0.0365322 -0.00481128 0)
(-0.0354663 -0.00508642 0)
(-0.034343 -0.00534277 0)
(-0.0331665 -0.00557897 0)
(-0.031941 -0.00579372 0)
(-0.0306712 -0.00598573 0)
(-0.0293621 -0.00615375 0)
(-0.0280188 -0.00629659 0)
(-0.0266467 -0.00641311 0)
(-0.0252514 -0.00650223 0)
(-0.0238387 -0.00656294 0)
(-0.0224146 -0.00659433 0)
(-0.0209852 -0.00659559 0)
(-0.0195569 -0.006566 0)
(-0.018136 -0.00650498 0)
(-0.016729 -0.00641209 0)
(-0.0153424 -0.00628706 0)
(-0.0139827 -0.00612978 0)
(-0.0126565 -0.00594038 0)
(-0.0113702 -0.00571921 0)
(-0.0101299 -0.0054669 0)
(-0.00894182 -0.00518438 0)
(-0.00781173 -0.00487296 0)
(-0.00674512 -0.00453439 0)
(-0.00574705 -0.0041709 0)
(-0.00482211 -0.00378532 0)
(-0.00397429 -0.00338118 0)
(-0.00320689 -0.00296287 0)
(-0.00252243 -0.00253575 0)
(-0.00192254 -0.00210641 0)
(-0.00140784 -0.00168287 0)
(-0.000977896 -0.00127486 0)
(-0.000631093 -0.000894194 0)
(-0.000364466 -0.00055517 0)
(-0.000173495 -0.000274919 0)
(-5.43554e-05 -7.39472e-05 0)
(-6.22604e-06 2.16078e-05 0)
(-9.92595e-06 2.34105e-05 0)
(-7.7512e-05 0.000211989 0)
(-0.000237131 0.00050831 0)
(-0.000484306 0.000885042 0)
(-0.000819684 0.00132037 0)
(-0.00124586 0.00179594 0)
(-0.00176407 0.00229636 0)
(-0.00237437 0.00280885 0)
(-0.00307586 0.00332287 0)
(-0.00386676 0.00382975 0)
(-0.00474445 0.00432242 0)
(-0.00570551 0.00479514 0)
(-0.00674587 0.00524329 0)
(-0.00786086 0.00566322 0)
(-0.00904532 0.00605205 0)
(-0.0102937 0.00640759 0)
(-0.0116 0.0067282 0)
(-0.0129582 0.00701274 0)
(-0.0143617 0.00726045 0)
(-0.0158042 0.00747091 0)
(-0.0172789 0.00764399 0)
(-0.0187793 0.00777983 0)
(-0.0202987 0.00787873 0)
(-0.0218304 0.00794119 0)
(-0.023368 0.00796787 0)
(-0.024905 0.00795953 0)
(-0.026435 0.00791705 0)
(-0.027952 0.0078414 0)
(-0.0294498 0.00773362 0)
(-0.0309227 0.00759482 0)
(-0.0323649 0.00742615 0)
(-0.0337711 0.00722883 0)
(-0.0351361 0.00700409 0)
(-0.0364548 0.0067532 0)
(-0.0377224 0.00647748 0)
(-0.0389345 0.00617823 0)
(-0.0400867 0.00585681 0)
(-0.0411751 0.00551458 0)
(-0.0421958 0.0051529 0)
(-0.0431452 0.00477317 0)
(-0.0440202 0.00437679 0)
(-0.0448178 0.00396518 0)
(-0.0455351 0.00353976 0)
(-0.0461698 0.00310198 0)
(-0.0467197 0.00265329 0)
(-0.0471828 0.00219517 0)
(-0.0475575 0.00172909 0)
(-0.0478424 0.00125656 0)
(-0.0480366 0.000779088 0)
(-0.0481392 0.000298215 0)
(-0.0481497 -0.00018451 0)
(-0.048068 -0.00066752 0)
(-0.0478942 -0.00114923 0)
(-0.0476287 -0.00162803 0)
(-0.0472721 -0.0021023 0)
(-0.0468256 -0.00257041 0)
(-0.0462904 -0.00303069 0)
(-0.0456682 -0.0034815 0)
(-0.044961 -0.00392114 0)
(-0.044171 -0.00434793 0)
(-0.0433007 -0.00476018 0)
(-0.0423532 -0.00515619 0)
(-0.0413316 -0.00553428 0)
(-0.0402394 -0.00589276 0)
(-0.0390804 -0.00622996 0)
(-0.0378589 -0.00654422 0)
(-0.0365792 -0.00683392 0)
(-0.035246 -0.00709746 0)
(-0.0338643 -0.00733329 0)
(-0.0324395 -0.0075399 0)
(-0.0309771 -0.00771585 0)
(-0.0294829 -0.00785977 0)
(-0.0279629 -0.00797037 0)
(-0.0264232 -0.00804643 0)
(-0.0248705 -0.00808687 0)
(-0.0233112 -0.00809072 0)
(-0.0217521 -0.00805714 0)
(-0.0202001 -0.00798546 0)
(-0.0186621 -0.00787518 0)
(-0.0171451 -0.00772599 0)
(-0.015656 -0.00753782 0)
(-0.0142018 -0.00731085 0)
(-0.0127894 -0.00704555 0)
(-0.0114254 -0.00674271 0)
(-0.0101163 -0.00640352 0)
(-0.00886844 -0.00602958 0)
(-0.0076876 -0.00562301 0)
(-0.00657927 -0.00518651 0)
(-0.00554841 -0.00472344 0)
(-0.00459942 -0.00423798 0)
(-0.00373601 -0.00373523 0)
(-0.00296114 -0.00322139 0)
(-0.00227693 -0.00270396 0)
(-0.00168455 -0.00219194 0)
(-0.00118424 -0.00169617 0)
(-0.000775206 -0.00122956 0)
(-0.000455438 -0.00080753 0)
(-0.000221533 -0.000448305 0)
(-7.17471e-05 -0.000173356 0)
(-8.98204e-06 -9.54086e-06 0)
(-1.26496e-05 6.64092e-05 0)
(-9.50076e-05 0.000343332 0)
(-0.000285824 0.000730554 0)
(-0.0005769 0.00120046 0)
(-0.000966726 0.00173066 0)
(-0.00145667 0.00230203 0)
(-0.00204686 0.00289832 0)
(-0.0027364 0.00350588 0)
(-0.00352362 0.00411329 0)
(-0.00440605 0.00471105 0)
(-0.00538048 0.00529132 0)
(-0.00644299 0.00584767 0)
(-0.00758903 0.00637486 0)
(-0.00881352 0.00686871 0)
(-0.0101109 0.0073259 0)
(-0.0114751 0.00774386 0)
(-0.0128999 0.00812065 0)
(-0.0143788 0.00845488 0)
(-0.0159048 0.00874564 0)
(-0.0174712 0.00899238 0)
(-0.0190709 0.00919491 0)
(-0.0206969 0.00935334 0)
(-0.0223421 0.00946799 0)
(-0.0239995 0.00953943 0)
(-0.0256621 0.00956838 0)
(-0.0273232 0.00955572 0)
(-0.0289759 0.00950247 0)
(-0.0306138 0.00940975 0)
(-0.0322304 0.00927878 0)
(-0.0338196 0.00911085 0)
(-0.0353753 0.00890733 0)
(-0.0368917 0.00866964 0)
(-0.0383632 0.00839924 0)
(-0.0397846 0.00809765 0)
(-0.0411507 0.00776641 0)
(-0.0424567 0.00740709 0)
(-0.043698 0.00702128 0)
(-0.0448704 0.00661061 0)
(-0.0459697 0.00617671 0)
(-0.0469923 0.00572125 0)
(-0.0479346 0.00524589 0)
(-0.0487935 0.00475234 0)
(-0.0495659 0.00424229 0)
(-0.0502493 0.00371747 0)
(-0.0508414 0.00317962 0)
(-0.0513401 0.0026305 0)
(-0.0517437 0.00207188 0)
(-0.0520506 0.00150556 0)
(-0.0522599 0.000933351 0)
(-0.0523706 0.00035709 0)
(-0.0523822 -0.000221369 0)
(-0.0522946 -0.000800151 0)
(-0.0521079 -0.00137736 0)
(-0.0518224 -0.00195108 0)
(-0.051439 -0.00251937 0)
(-0.0509588 -0.00308027 0)
(-0.0503832 -0.00363182 0)
(-0.0497138 -0.00417202 0)
(-0.0489529 -0.00469887 0)
(-0.0481029 -0.00521037 0)
(-0.0471664 -0.00570448 0)