/*--------------------------------*- C++ -*----------------------------------*\
| =========                 |                                                 |
| \\      /  F ield         | OpenFOAM: The Open Source CFD Toolbox           |
|  \\    /   O peration     | Version:  2212                                  |
|   \\  /    A nd           | Website:  www.openfoam.com                      |
|    \\/     M anipulation  |                                                 |
\*---------------------------------------------------------------------------*/
FoamFile
{
    version     2.0;
    format      ascii;
    arch        "LSB;label=32;scalar=64";
    class       volVectorField;
    location    "0.094";
    object      U;
}
// * * * * * * * * * * * * * * * * * * * * * * * * * * * * * * * * * * * * * //

dimensions      [0 1 -1 0 0 0 0];

internalField   nonuniform List<vector> 
10000
(
(3.0152e-06 -3.00583e-06 0)
(1.49979e-05 -7.75623e-06 0)
(3.41075e-05 -8.96818e-06 0)
(5.21046e-05 -7.7443e-06 0)
(6.39371e-05 -5.23001e-06 0)
(6.71522e-05 -2.08764e-06 0)
(6.04768e-05 1.31618e-06 0)
(4.33279e-05 4.77265e-06 0)
(1.55812e-05 8.16358e-06 0)
(-2.25923e-05 1.14208e-05 0)
(-7.08317e-05 1.4505e-05 0)
(-0.00012865 1.73925e-05 0)
(-0.000195478 2.00698e-05 0)
(-0.000270688 2.25293e-05 0)
(-0.00035362 2.47686e-05 0)
(-0.000443591 2.67874e-05 0)
(-0.000539907 2.85866e-05 0)
(-0.000641871 3.01697e-05 0)
(-0.000748788 3.15404e-05 0)
(-0.000859969 3.27036e-05 0)
(-0.000974737 3.36645e-05 0)
(-0.00109243 3.44286e-05 0)
(-0.00121239 3.50013e-05 0)
(-0.00133398 3.53885e-05 0)
(-0.0014566 3.55967e-05 0)
(-0.00157964 3.56326e-05 0)
(-0.00170252 3.55028e-05 0)
(-0.00182468 3.52137e-05 0)
(-0.0019456 3.47715e-05 0)
(-0.00206474 3.41824e-05 0)
(-0.00218161 3.34526e-05 0)
(-0.00229574 3.25887e-05 0)
(-0.00240668 3.15971e-05 0)
(-0.00251399 3.04843e-05 0)
(-0.00261726 2.92566e-05 0)
(-0.0027161 2.79202e-05 0)
(-0.00281014 2.64813e-05 0)
(-0.00289904 2.49458e-05 0)
(-0.00298248 2.33205e-05 0)
(-0.00306015 2.16119e-05 0)
(-0.00313177 1.98265e-05 0)
(-0.00319709 1.79708e-05 0)
(-0.00325587 1.60511e-05 0)
(-0.0033079 1.40731e-05 0)
(-0.00335299 1.20439e-05 0)
(-0.00339098 9.97031e-06 0)
(-0.00342171 7.85875e-06 0)
(-0.00344508 5.71594e-06 0)
(-0.00346099 3.54873e-06 0)
(-0.00346936 1.36361e-06 0)
(-0.00347016 -8.32007e-07 0)
(-0.00346335 -3.02991e-06 0)
(-0.00344895 -5.22283e-06 0)
(-0.00342699 -7.40397e-06 0)
(-0.00339752 -9.56578e-06 0)
(-0.00336063 -1.17005e-05 0)
(-0.00331642 -1.38006e-05 0)
(-0.00326505 -1.58581e-05 0)
(-0.00320666 -1.78644e-05 0)
(-0.00314145 -1.98117e-05 0)
(-0.00306965 -2.16923e-05 0)
(-0.0029915 -2.34978e-05 0)
(-0.00290729 -2.52196e-05 0)
(-0.0028173 -2.68498e-05 0)
(-0.00272189 -2.83799e-05 0)
(-0.00262141 -2.98011e-05 0)
(-0.00251626 -3.11055e-05 0)
(-0.00240684 -3.22854e-05 0)
(-0.0022936 -3.33331e-05 0)
(-0.00217703 -3.42405e-05 0)
(-0.0020576 -3.49996e-05 0)
(-0.00193584 -3.56031e-05 0)
(-0.0018123 -3.60436e-05 0)
(-0.00168754 -3.63141e-05 0)
(-0.00156216 -3.64082e-05 0)
(-0.00143677 -3.63198e-05 0)
(-0.001312 -3.60425e-05 0)
(-0.00118849 -3.55705e-05 0)
(-0.00106691 -3.4899e-05 0)
(-0.000947934 -3.40245e-05 0)
(-0.000832242 -3.29433e-05 0)
(-0.000720531 -3.16514e-05 0)
(-0.000613501 -3.01454e-05 0)
(-0.00051185 -2.84238e-05 0)
(-0.000416276 -2.64869e-05 0)
(-0.000327468 -2.43355e-05 0)
(-0.000246097 -2.19714e-05 0)
(-0.000172814 -1.93988e-05 0)
(-0.000108234 -1.66256e-05 0)
(-5.29221e-05 -1.36639e-05 0)
(-7.3774e-06 -1.05318e-05 0)
(2.80004e-05 -7.25717e-06 0)
(5.29506e-05 -3.88458e-06 0)
(6.74145e-05 -4.87645e-07 0)
(7.16394e-05 2.80948e-06 0)
(6.634e-05 5.79484e-06 0)
(5.29241e-05 8.10188e-06 0)
(3.39571e-05 9.07936e-06 0)
(1.45374e-05 7.62735e-06 0)
(2.7875e-06 2.78716e-06 0)
(7.75673e-06 -1.49795e-05 0)
(3.1483e-05 -3.14645e-05 0)
(6.33514e-05 -3.36609e-05 0)
(8.89133e-05 -2.57468e-05 0)
(9.85873e-05 -1.1599e-05 0)
(8.68264e-05 6.15722e-06 0)
(5.02176e-05 2.58049e-05 0)
(-1.31243e-05 4.6223e-05 0)
(-0.000103941 6.6676e-05 0)
(-0.000222166 8.6678e-05 0)
(-0.000367157 0.000105904 0)
(-0.000537866 0.000124135 0)
(-0.000732961 0.000141223 0)
(-0.000950903 0.000157068 0)
(-0.00119001 0.000171609 0)
(-0.00144852 0.000184808 0)
(-0.00172458 0.000196645 0)
(-0.00201634 0.000207117 0)
(-0.00232191 0.00021623 0)
(-0.0026394 0.000223998 0)
(-0.00296695 0.000230441 0)
(-0.00330271 0.000235586 0)
(-0.00364488 0.000239461 0)
(-0.00399166 0.000242098 0)
(-0.00434134 0.000243533 0)
(-0.00469222 0.000243803 0)
(-0.00504267 0.000242946 0)
(-0.00539111 0.000241002 0)
(-0.00573599 0.000238012 0)
(-0.00607585 0.000234017 0)
(-0.00640928 0.000229057 0)
(-0.00673491 0.000223176 0)
(-0.00705145 0.000216415 0)
(-0.00735765 0.000208816 0)
(-0.00765234 0.000200422 0)
(-0.00793441 0.000191277 0)
(-0.00820279 0.000181424 0)
(-0.0084565 0.000170905 0)
(-0.00869461 0.000159765 0)
(-0.00891624 0.000148047 0)
(-0.00912061 0.000135798 0)
(-0.00930697 0.00012306 0)
(-0.00947464 0.000109879 0)
(-0.00962302 9.62997e-05 0)
(-0.00975158 8.23674e-05 0)
(-0.00985982 6.81286e-05 0)
(-0.00994735 5.36311e-05 0)
(-0.0100138 3.89213e-05 0)
(-0.010059 2.4047e-05 0)
(-0.0100826 9.05797e-06 0)
(-0.0100846 -5.99653e-06 0)
(-0.0100649 -2.10664e-05 0)
(-0.0100235 -3.60995e-05 0)
(-0.00996058 -5.10437e-05 0)
(-0.00987619 -6.58475e-05 0)
(-0.00977063 -8.04582e-05 0)
(-0.00964422 -9.48215e-05 0)
(-0.00949736 -0.000108883 0)
(-0.00933054 -0.000122589 0)
(-0.0091443 -0.000135884 0)
(-0.00893928 -0.000148711 0)
(-0.00871622 -0.000161015 0)
(-0.00847589 -0.000172739 0)
(-0.00821918 -0.000183829 0)
(-0.00794705 -0.000194227 0)
(-0.00766054 -0.000203879 0)
(-0.00736075 -0.000212729 0)
(-0.00704888 -0.000220726 0)
(-0.0067262 -0.000227815 0)
(-0.00639405 -0.000233946 0)
(-0.00605383 -0.000239068 0)
(-0.00570703 -0.000243133 0)
(-0.0053552 -0.000246094 0)
(-0.00499994 -0.000247906 0)
(-0.00464292 -0.00024853 0)
(-0.00428586 -0.000247925 0)
(-0.00393054 -0.000246059 0)
(-0.00357876 -0.000242898 0)
(-0.00323237 -0.000238416 0)
(-0.00289327 -0.000232591 0)
(-0.00256334 -0.000225405 0)
(-0.00224452 -0.000216848 0)
(-0.00193871 -0.000206914 0)
(-0.00164783 -0.000195607 0)
(-0.00137376 -0.000182943 0)
(-0.00111834 -0.000168948 0)
(-0.000883353 -0.000153664 0)
(-0.000670476 -0.000137154 0)
(-0.000481265 -0.000119505 0)
(-0.000317103 -0.000100842 0)
(-0.000179136 -8.13389e-05 0)
(-6.81877e-05 -6.12394e-05 0)
(1.53509e-05 -4.0893e-05 0)
(7.16851e-05 -2.08075e-05 0)
(0.000101848 -1.73358e-06 0)
(0.000108022 1.52037e-05 0)
(9.38938e-05 2.8311e-05 0)
(6.52235e-05 3.50328e-05 0)
(3.16844e-05 3.16775e-05 0)
(7.62159e-06 1.45261e-05 0)
(8.98637e-06 -3.41029e-05 0)
(3.37953e-05 -6.33671e-05 0)
(6.22635e-05 -6.20021e-05 0)
(7.71099e-05 -3.88384e-05 0)
(6.6769e-05 -1.11153e-06 0)
(2.40507e-05 4.57707e-05 0)
(-5.58014e-05 9.79178e-05 0)
(-0.000175629 0.00015258 0)
(-0.000336736 0.000207821 0)
(-0.000539261 0.00026228 0)
(-0.000782478 0.000314993 0)
(-0.00106501 0.000365277 0)
(-0.001385 0.000412651 0)
(-0.00174025 0.000456778 0)
(-0.00212828 0.000497428 0)
(-0.00254645 0.000534449 0)
(-0.002992 0.00056775 0)
(-0.00346207 0.000597285 0)
(-0.00395376 0.000623044 0)
(-0.00446416 0.000645045 0)
(-0.00499036 0.000663327 0)
(-0.00552949 0.000677945 0)
(-0.00607868 0.000688971 0)
(-0.00663514 0.000696483 0)
(-0.00719614 0.000700573 0)
(-0.00775899 0.000701338 0)
(-0.0083211 0.000698881 0)
(-0.00887995 0.000693308 0)
(-0.00943308 0.000684733 0)
(-0.00997816 0.000673267 0)
(-0.0105129 0.000659028 0)
(-0.0110352 0.000642134 0)
(-0.0115428 0.000622704 0)
(-0.0120339 0.000600859 0)
(-0.0125065 0.00057672 0)
(-0.0129589 0.000550411 0)
(-0.0133893 0.000522057 0)
(-0.0137962 0.000491781 0)
(-0.0141781 0.000459712 0)
(-0.0145335 0.000425975 0)
(-0.0148612 0.000390698 0)
(-0.0151599 0.000354012 0)
(-0.0154287 0.000316046 0)
(-0.0156666 0.000276931 0)
(-0.0158725 0.0002368 0)
(-0.0160459 0.000195788 0)
(-0.0161861 0.00015403 0)
(-0.0162924 0.000111666 0)
(-0.0163646 6.88343e-05 0)
(-0.0164022 2.56765e-05 0)
(-0.0164051 -1.76626e-05 0)
(-0.0163732 -6.10373e-05 0)
(-0.0163065 -0.000104301 0)
(-0.0162052 -0.000147302 0)
(-0.0160695 -0.000189888 0)
(-0.0159 -0.000231908 0)
(-0.015697 -0.000273206 0)
(-0.0154612 -0.000313626 0)
(-0.0151935 -0.000353009 0)
(-0.0148947 -0.000391199 0)
(-0.0145658 -0.000428034 0)
(-0.014208 -0.000463354 0)
(-0.0138226 -0.000496999 0)
(-0.013411 -0.00052881 0)
(-0.0129748 -0.000558627 0)
(-0.0125155 -0.000586294 0)
(-0.0120351 -0.000611656 0)
(-0.0115353 -0.00063456 0)
(-0.0110182 -0.000654858 0)
(-0.0104861 -0.000672404 0)
(-0.00994098 -0.000687059 0)
(-0.00938538 -0.000698687 0)
(-0.00882171 -0.000707159 0)
(-0.00825254 -0.000712353 0)
(-0.00768051 -0.000714157 0)
(-0.00710835 -0.000712466 0)
(-0.00653885 -0.000707188 0)
(-0.00597488 -0.000698242 0)
(-0.00541937 -0.000685558 0)
(-0.00487525 -0.000669084 0)
(-0.00434552 -0.000648783 0)
(-0.00383316 -0.000624638 0)
(-0.00334117 -0.000596655 0)
(-0.00287248 -0.000564867 0)
(-0.00242999 -0.00052934 0)
(-0.00201651 -0.000490178 0)
(-0.00163473 -0.000447536 0)
(-0.00128714 -0.000401631 0)
(-0.000976028 -0.000352759 0)
(-0.000703371 -0.000301325 0)
(-0.000470745 -0.000247875 0)
(-0.0002792 -0.000193153 0)
(-0.000129105 -0.000138177 0)
(-1.99298e-05 -8.43549e-05 0)
(5.0036e-05 -3.3644e-05 0)
(8.4038e-05 1.12167e-05 0)
(8.71994e-05 4.64103e-05 0)
(6.69896e-05 6.67099e-05 0)
(3.51634e-05 6.52455e-05 0)
(9.09252e-06 3.39512e-05 0)
(7.83088e-06 -5.22296e-05 0)
(2.619e-05 -8.91981e-05 0)
(3.97772e-05 -7.69881e-05 0)
(3.09758e-05 -2.97866e-05 0)
(-1.23475e-05 4.15998e-05 0)
(-9.81317e-05 0.000128822 0)
(-0.000231804 0.000225585 0)
(-0.000416732 0.000327233 0)
(-0.000654567 0.000430346 0)
(-0.000945595 0.000532417 0)
(-0.00128904 0.000631606 0)
(-0.00168331 0.000726571 0)
(-0.00212615 0.00081633 0)
(-0.00261485 0.000900179 0)
(-0.00314633 0.000977616 0)
(-0.00371724 0.0010483 0)
(-0.00432403 0.001112 0)
(-0.00496302 0.00116859 0)
(-0.00563045 0.00121802 0)
(-0.00632253 0.00126029 0)
(-0.00703543 0.00129543 0)
(-0.00776535 0.00132355 0)
(-0.00850853 0.00134476 0)
(-0.00926126 0.00135919 0)
(-0.0100199 0.00136701 0)
(-0.0107808 0.0013684 0)
(-0.0115407 0.00136353 0)
(-0.012296 0.00135262 0)
(-0.0130435 0.00133586 0)
(-0.01378 0.00131348 0)
(-0.0145026 0.0012857 0)
(-0.0152082 0.00125274 0)
(-0.0158941 0.00121483 0)
(-0.0165576 0.00117221 0)
(-0.0171961 0.00112512 0)
(-0.0178072 0.00107378 0)
(-0.0183887 0.00101845 0)
(-0.0189383 0.000959362 0)
(-0.019454 0.000896769 0)
(-0.019934 0.000830917 0)
(-0.0203766 0.000762056 0)
(-0.02078 0.00069044 0)
(-0.021143 0.000616324 0)
(-0.021464 0.000539965 0)
(-0.021742 0.000461624 0)
(-0.021976 0.000381567 0)
(-0.022165 0.000300058 0)
(-0.0223084 0.000217368 0)
(-0.0224055 0.000133775 0)
(-0.022456 4.9554e-05 0)
(-0.0224595 -3.50129e-05 0)
(-0.022416 -0.000119639 0)
(-0.0223256 -0.000204036 0)
(-0.0221884 -0.000287911 0)
(-0.0220049 -0.000370966 0)
(-0.0217755 -0.000452903 0)
(-0.021501 -0.000533418 0)
(-0.0211824 -0.000612206 0)
(-0.0208205 -0.000688961 0)
(-0.0204167 -0.000763373 0)
(-0.0199724 -0.000835132 0)
(-0.0194891 -0.000903926 0)
(-0.0189686 -0.000969445 0)
(-0.0184128 -0.00103138 0)
(-0.0178237 -0.00108942 0)
(-0.0172036 -0.00114328 0)
(-0.0165549 -0.00119263 0)
(-0.0158802 -0.0012372 0)
(-0.0151821 -0.0012767 0)
(-0.0144637 -0.00131084 0)
(-0.0137278 -0.00133937 0)
(-0.0129777 -0.00136202 0)
(-0.0122167 -0.00137855 0)
(-0.0114482 -0.00138873 0)
(-0.0106756 -0.00139235 0)
(-0.00990274 -0.00138921 0)
(-0.00913325 -0.00137915 0)
(-0.00837095 -0.00136202 0)
(-0.00761971 -0.0013377 0)
(-0.00688344 -0.0013061 0)
(-0.00616608 -0.00126717 0)
(-0.00547156 -0.0012209 0)
(-0.00480378 -0.00116732 0)
(-0.0041666 -0.00110653 0)
(-0.00356377 -0.00103868 0)
(-0.00299892 -0.000964017 0)
(-0.00247546 -0.000882879 0)
(-0.00199659 -0.000795729 0)
(-0.00156514 -0.000703188 0)
(-0.00118355 -0.000606084 0)
(-0.000853711 -0.000505511 0)
(-0.00057682 -0.00040292 0)
(-0.000353211 -0.000300241 0)
(-0.000182123 -0.000200049 0)
(-6.1413e-05 -0.000105792 0)
(1.27728e-05 -2.20935e-05 0)
(4.63069e-05 4.48854e-05 0)
(4.74839e-05 8.70812e-05 0)
(2.87724e-05 9.42079e-05 0)
(8.17833e-06 5.30348e-05 0)
(5.42321e-06 -6.44019e-05 0)
(1.24982e-05 -9.95572e-05 0)
(3.02809e-06 -6.72754e-05 0)
(-3.88984e-05 1.32858e-05 0)
(-0.0001249 0.000127861 0)
(-0.000263032 0.000265251 0)
(-0.000458878 0.000416782 0)
(-0.000715951 0.000575839 0)
(-0.00103601 0.000737407 0)
(-0.00141935 0.000897697 0)
(-0.00186513 0.00105385 0)
(-0.00237152 0.00120373 0)
(-0.00293599 0.00134572 0)
(-0.00355539 0.00147865 0)
(-0.00422613 0.00160165 0)
(-0.00494427 0.00171412 0)
(-0.00570562 0.00181562 0)
(-0.00650581 0.00190592 0)
(-0.00734033 0.00198485 0)
(-0.00820461 0.0020524 0)
(-0.00909403 0.0021086 0)
(-0.010004 0.00215355 0)
(-0.0109299 0.00218742 0)
(-0.0118673 0.0022104 0)
(-0.0128116 0.00222274 0)
(-0.0137585 0.0022247 0)
(-0.0147038 0.00221657 0)
(-0.0156433 0.00219867 0)
(-0.0165729 0.00217132 0)
(-0.0174888 0.00213485 0)
(-0.0183871 0.00208963 0)
(-0.0192643 0.00203601 0)
(-0.0201169 0.00197435 0)
(-0.0209416 0.00190504 0)
(-0.0217352 0.00182846 0)
(-0.0224947 0.00174499 0)
(-0.0232172 0.00165502 0)
(-0.0239002 0.00155895 0)
(-0.0245411 0.00145718 0)
(-0.0251374 0.0013501 0)
(-0.0256872 0.00123814 0)
(-0.0261884 0.00112169 0)
(-0.0266392 0.00100118 0)
(-0.0270379 0.000877022 0)
(-0.027383 0.00074965 0)
(-0.0276735 0.000619491 0)
(-0.027908 0.000486981 0)
(-0.0280858 0.000352562 0)
(-0.0282061 0.00021668 0)
(-0.0282685 7.97907e-05 0)
(-0.0282725 -5.76473e-05 0)
(-0.0282181 -0.000195169 0)
(-0.0281054 -0.000332304 0)
(-0.0279346 -0.000468574 0)
(-0.0277062 -0.000603497 0)
(-0.0274209 -0.000736586 0)
(-0.0270796 -0.000867351 0)
(-0.0266834 -0.000995294 0)
(-0.0262336 -0.00111992 0)
(-0.0257318 -0.00124072 0)
(-0.0251797 -0.0013572 0)
(-0.0245792 -0.00146885 0)
(-0.0239325 -0.00157518 0)
(-0.0232419 -0.00167568 0)
(-0.0225101 -0.00176987 0)
(-0.0217398 -0.00185724 0)
(-0.020934 -0.00193732 0)
(-0.0200959 -0.00200964 0)
(-0.0192288 -0.00207374 0)
(-0.0183363 -0.00212918 0)
(-0.0174221 -0.00217553 0)
(-0.0164902 -0.00221238 0)
(-0.0155445 -0.00223934 0)
(-0.0145893 -0.00225606 0)
(-0.013629 -0.0022622 0)
(-0.0126679 -0.00225746 0)
(-0.0117107 -0.00224159 0)
(-0.0107621 -0.00221436 0)
(-0.00982662 -0.0021756 0)
(-0.00890916 -0.00212519 0)
(-0.00801447 -0.00206307 0)
(-0.00714732 -0.00198925 0)
(-0.00631242 -0.00190381 0)
(-0.0055144 -0.00180696 0)
(-0.00475775 -0.00169898 0)
(-0.00404679 -0.0015803 0)
(-0.00338558 -0.00145152 0)
(-0.00277784 -0.00131343 0)
(-0.00222691 -0.00116708 0)
(-0.00173558 -0.00101384 0)
(-0.00130602 -0.000855485 0)
(-0.000939558 -0.00069431 0)
(-0.000636565 -0.000533307 0)
(-0.000396188 -0.000376356 0)
(-0.000216111 -0.000228508 0)
(-9.22616e-05 -9.63234e-05 0)
(-1.85308e-05 1.17039e-05 0)
(1.35842e-05 8.47414e-05 0)
(1.62154e-05 0.000109147 0)
(5.98324e-06 6.68e-05 0)
(2.4111e-06 -6.82394e-05 0)
(-4.72727e-06 -8.89993e-05 0)
(-4.27759e-05 -2.57551e-05 0)
(-0.00012454 9.8275e-05 0)
(-0.000260313 0.00026573 0)
(-0.00045777 0.000462783 0)
(-0.000722239 0.00067851 0)
(-0.00105706 0.000904384 0)
(-0.00146385 0.00113378 0)
(-0.00194279 0.00136158 0)
(-0.00249286 0.00158383 0)
(-0.00311201 0.00179749 0)
(-0.00379739 0.00200025 0)
(-0.00454548 0.00219038 0)
(-0.00535227 0.00236656 0)
(-0.0062133 0.00252785 0)
(-0.00712382 0.0026736 0)
(-0.00807886 0.00280336 0)
(-0.00907326 0.00291687 0)
(-0.0101018 0.00301404 0)
(-0.0111591 0.00309488 0)
(-0.0122399 0.0031595 0)
(-0.013339 0.0032081 0)
(-0.0144509 0.00324094 0)
(-0.0155706 0.00325834 0)
(-0.0166929 0.00326066 0)
(-0.0178129 0.00324832 0)
(-0.0189258 0.00322174 0)
(-0.0200267 0.00318138 0)
(-0.0211111 0.00312773 0)
(-0.0221746 0.0030613 0)
(-0.0232129 0.0029826 0)
(-0.024222 0.00289216 0)
(-0.0251979 0.00279052 0)
(-0.026137 0.00267824 0)
(-0.0270356 0.00255588 0)
(-0.0278904 0.002424 0)
(-0.0286984 0.0022832 0)
(-0.0294564 0.00213404 0)
(-0.0301618 0.00197712 0)
(-0.030812 0.00181303 0)
(-0.0314046 0.00164239 0)
(-0.0319376 0.0014658 0)
(-0.0324089 0.00128388 0)
(-0.0328169 0.00109725 0)
(-0.0331601 0.000906544 0)
(-0.0334372 0.000712408 0)
(-0.0336472 0.000515488 0)
(-0.0337891 0.000316441 0)
(-0.0338625 0.000115932 0)
(-0.0338669 -8.53651e-05 0)
(-0.0338022 -0.000286767 0)
(-0.0336686 -0.000487582 0)
(-0.0334662 -0.000687114 0)
(-0.0331958 -0.000884655 0)
(-0.0328581 -0.00107949 0)
(-0.0324542 -0.00127091 0)
(-0.0319855 -0.00145817 0)
(-0.0314534 -0.00164056 0)
(-0.0308597 -0.00181735 0)
(-0.0302066 -0.00198779 0)
(-0.0294964 -0.00215116 0)
(-0.0287315 -0.00230673 0)
(-0.0279148 -0.00245377 0)
(-0.0270493 -0.00259157 0)
(-0.0261383 -0.00271941 0)
(-0.0251853 -0.0028366 0)
(-0.024194 -0.00294246 0)
(-0.0231685 -0.00303633 0)
(-0.0221127 -0.00311756 0)
(-0.0210312 -0.00318554 0)
(-0.0199285 -0.00323968 0)
(-0.0188094 -0.00327944 0)
(-0.0176787 -0.0033043 0)
(-0.0165416 -0.0033138 0)
(-0.0154032 -0.00330751 0)
(-0.0142689 -0.00328508 0)
(-0.0131442 -0.0032462 0)
(-0.0120343 -0.00319066 0)
(-0.010945 -0.0031183 0)
(-0.00988166 -0.00302906 0)
(-0.00884985 -0.00292301 0)
(-0.00785498 -0.0028003 0)
(-0.00690237 -0.00266125 0)
(-0.00599714 -0.00250635 0)
(-0.00514422 -0.00233625 0)
(-0.00434821 -0.00215189 0)
(-0.00361333 -0.00195445 0)
(-0.00294332 -0.00174549 0)
(-0.00234132 -0.00152702 0)
(-0.00180974 -0.00130157 0)
(-0.00135012 -0.0010724 0)
(-0.00096294 -0.000843626 0)
(-0.000647418 -0.000620503 0)
(-0.000401306 -0.000409695 0)
(-0.000220638 -0.000219666 0)
(-9.94756e-05 -6.11321e-05 0)
(-2.95889e-05 5.24961e-05 0)
(1.22345e-08 0.000104531 0)
(3.15289e-06 7.27969e-05 0)
(-8.55431e-07 -6.24898e-05 0)
(-2.38663e-05 -5.41009e-05 0)
(-9.3993e-05 5.24202e-05 0)
(-0.000220125 0.000230804 0)
(-0.000410666 0.000461099 0)
(-0.000672525 0.000727175 0)
(-0.00101045 0.00101606 0)
(-0.00142732 0.00131743 0)
(-0.00192443 0.00162312 0)
(-0.00250166 0.00192667 0)
(-0.00315772 0.00222302 0)
(-0.00389027 0.0025082 0)
(-0.00469615 0.00277913 0)
(-0.00557149 0.00303345 0)
(-0.00651183 0.00326938 0)
(-0.0075123 0.00348557 0)
(-0.00856762 0.00368107 0)
(-0.0096723 0.00385523 0)
(-0.0108206 0.00400764 0)
(-0.0120067 0.00413811 0)
(-0.0132247 0.00424661 0)
(-0.0144686 0.00433324 0)
(-0.0157324 0.00439822 0)
(-0.0170103 0.00444188 0)
(-0.0182964 0.00446462 0)
(-0.019585 0.0044669 0)
(-0.0208704 0.00444925 0)
(-0.0221472 0.00441224 0)
(-0.0234099 0.00435648 0)
(-0.0246534 0.00428261 0)
(-0.0258727 0.00419131 0)
(-0.0270629 0.00408327 0)
(-0.0282194 0.00395921 0)
(-0.0293378 0.00381987 0)
(-0.0304137 0.00366598 0)
(-0.0314432 0.00349832 0)
(-0.0324225 0.00331766 0)
(-0.0333479 0.00312478 0)
(-0.034216 0.00292048 0)
(-0.0350238 0.00270558 0)
(-0.0357684 0.00248088 0)
(-0.0364469 0.00224721 0)
(-0.0370571 0.00200541 0)
(-0.0375966 0.00175633 0)
(-0.0380636 0.00150082 0)
(-0.0384563 0.00123974 0)
(-0.0387733 0.000973987 0)
(-0.0390134 0.000704437 0)
(-0.0391757 0.000431995 0)
(-0.0392594 0.000157571 0)
(-0.0392641 -0.00011791 0)
(-0.0391897 -0.000393515 0)
(-0.0390364 -0.000668297 0)
(-0.0388044 -0.0009413 0)
(-0.0384945 -0.00121156 0)
(-0.0381077 -0.0014781 0)
(-0.037645 -0.00173994 0)
(-0.0371081 -0.00199609 0)
(-0.0364987 -0.00224555 0)
(-0.0358189 -0.00248734 0)
(-0.035071 -0.00272044 0)
(-0.0342577 -0.00294387 0)
(-0.0333818 -0.00315663 0)
(-0.0324466 -0.00335774 0)
(-0.0314556 -0.00354621 0)
(-0.0304123 -0.0037211 0)
(-0.0293209 -0.00388146 0)
(-0.0281855 -0.00402636 0)
(-0.0270107 -0.00415492 0)
(-0.0258013 -0.00426626 0)
(-0.0245621 -0.00435957 0)
(-0.0232984 -0.00443405 0)
(-0.0220155 -0.00448898 0)
(-0.020719 -0.00452367 0)
(-0.0194147 -0.00453751 0)
(-0.0181084 -0.00452995 0)
(-0.0168061 -0.00450051 0)
(-0.015514 -0.00444883 0)
(-0.0142381 -0.00437461 0)
(-0.0129847 -0.0042777 0)
(-0.0117601 -0.00415806 0)
(-0.0105702 -0.00401579 0)
(-0.00942128 -0.00385118 0)
(-0.00831915 -0.00366469 0)
(-0.00726956 -0.00345702 0)
(-0.00627794 -0.00322914 0)
(-0.00534939 -0.00298233 0)
(-0.00448858 -0.00271825 0)
(-0.00369964 -0.00243904 0)
(-0.00298603 -0.00214738 0)
(-0.00235047 -0.00184665 0)
(-0.00179475 -0.00154109 0)
(-0.00131956 -0.00123599 0)
(-0.000924371 -0.000937978 0)
(-0.000607204 -0.000655281 0)
(-0.000364474 -0.000398164 0)
(-0.000190735 -0.000179379 0)
(-7.84082e-05 -1.46277e-05 0)
(-1.82127e-05 7.68211e-05 0)
(4.22236e-08 6.9706e-05 0)
(-4.18545e-06 -4.6539e-05 0)
(-4.39e-05 7.1692e-06 0)
(-0.000148153 0.000170385 0)
(-0.000321522 0.0004147 0)
(-0.000570174 0.000718119 0)
(-0.000899972 0.00106258 0)
(-0.00131482 0.00143331 0)
(-0.00181693 0.00181837 0)
(-0.00240706 0.00220814 0)
(-0.00308468 0.00259489 0)
(-0.0038481 0.00297247 0)
(-0.00469464 0.00333596 0)
(-0.00562076 0.0036815 0)
(-0.00662222 0.00400609 0)
(-0.00769418 0.0043074 0)
(-0.0088313 0.00458367 0)
(-0.0100279 0.00483363 0)
(-0.0112779 0.00505637 0)
(-0.0125752 0.00525131 0)
(-0.0139133 0.00541814 0)
(-0.0152858 0.00555675 0)
(-0.0166861 0.00566725 0)
(-0.0181078 0.00574986 0)
(-0.0195442 0.00580497 0)
(-0.020989 0.00583305 0)
(-0.0224359 0.00583467 0)
(-0.0238786 0.00581049 0)
(-0.0253111 0.00576122 0)
(-0.0267274 0.00568764 0)
(-0.0281217 0.00559055 0)
(-0.0294885 0.00547082 0)
(-0.0308225 0.00532934 0)
(-0.0321185 0.00516702 0)
(-0.0333714 0.00498482 0)
(-0.0345767 0.0047837 0)
(-0.0357298 0.00456464 0)
(-0.0368265 0.00432866 0)
(-0.0378628 0.00407678 0)
(-0.0388348 0.00381002 0)
(-0.0397392 0.00352945 0)
(-0.0405727 0.00323611 0)
(-0.0413322 0.0029311 0)
(-0.0420151 0.0026155 0)
(-0.0426189 0.00229042 0)
(-0.0431414 0.00195697 0)
(-0.0435808 0.00161629 0)
(-0.0439354 0.00126952 0)
(-0.0442039 0.000917824 0)
(-0.0443853 0.000562378 0)
(-0.0444787 0.000204371 0)
(-0.0444838 -0.000154991 0)
(-0.0444003 -0.000514491 0)
(-0.0442285 -0.000872895 0)
(-0.0439687 -0.00122896 0)
(-0.0436217 -0.00158142 0)
(-0.0431885 -0.00192902 0)
(-0.0426706 -0.00227047 0)
(-0.0420695 -0.00260448 0)
(-0.0413874 -0.00292977 0)
(-0.0406264 -0.00324504 0)
(-0.0397893 -0.003549 0)
(-0.0388789 -0.00384034 0)
(-0.0378985 -0.0041178 0)
(-0.0368516 -0.00438008 0)
(-0.035742 -0.00462593 0)
(-0.034574 -0.0048541 0)
(-0.0333519 -0.00506339 0)
(-0.0320805 -0.0052526 0)
(-0.0307647 -0.00542058 0)
(-0.0294099 -0.00556622 0)
(-0.0280215 -0.00568846 0)
(-0.0266052 -0.0057863 0)
(-0.025167 -0.00585881 0)
(-0.0237131 -0.00590512 0)
(-0.0222498 -0.00592444 0)
(-0.0207836 -0.00591611 0)
(-0.0193211 -0.00587952 0)
(-0.0178691 -0.00581423 0)
(-0.0164343 -0.00571991 0)
(-0.0150235 -0.00559637 0)
(-0.0136435 -0.00544361 0)
(-0.0123011 -0.00526182 0)
(-0.0110029 -0.0050514 0)
(-0.00975542 -0.004813 0)
(-0.00856482 -0.00454759 0)
(-0.00743707 -0.00425645 0)
(-0.00637772 -0.00394127 0)
(-0.00539185 -0.00360423 0)
(-0.00448399 -0.00324807 0)
(-0.00365796 -0.0028762 0)
(-0.00291682 -0.00249287 0)
(-0.00226267 -0.00210332 0)
(-0.00169656 -0.00171401 0)
(-0.00121832 -0.00133286 0)
(-0.000826454 -0.000969593 0)
(-0.000517966 -0.000636126 0)
(-0.000288156 -0.000347012 0)
(-0.000130382 -0.000119898 0)
(-3.74255e-05 2.38769e-05 0)
(-3.15197e-06 5.68562e-05 0)
(-7.47899e-06 -2.01747e-05 0)
(-6.42022e-05 9.58419e-05 0)
(-0.000203611 0.00032995 0)
(-0.000425855 0.000652354 0)
(-0.000734683 0.00103953 0)
(-0.00113472 0.00147184 0)
(-0.00162885 0.00193301 0)
(-0.00221842 0.00240967 0)
(-0.00290352 0.00289088 0)
(-0.00368305 0.00336773 0)
(-0.00455485 0.003833 0)
(-0.0055158 0.00428089 0)
(-0.00656195 0.00470675 0)
(-0.00768865 0.00510691 0)
(-0.00889065 0.00547849 0)
(-0.0101622 0.00581931 0)
(-0.0114971 0.00612773 0)
(-0.012889 0.00640257 0)
(-0.0143311 0.00664306 0)
(-0.0158166 0.00684875 0)
(-0.0173385 0.00701945 0)
(-0.0188896 0.00715523 0)
(-0.0204631 0.00725634 0)
(-0.0220518 0.0073232 0)
(-0.0236487 0.00735637 0)
(-0.0252471 0.00735652 0)
(-0.0268401 0.00732444 0)
(-0.0284211 0.00726099 0)
(-0.0299837 0.00716712 0)
(-0.0315217 0.00704382 0)
(-0.0330289 0.00689215 0)
(-0.0344995 0.00671322 0)
(-0.0359279 0.00650816 0)
(-0.0373086 0.00627815 0)
(-0.0386366 0.0060244 0)
(-0.0399069 0.00574813 0)
(-0.0411148 0.00545061 0)
(-0.0422561 0.00513312 0)
(-0.0433265 0.00479695 0)
(-0.0443223 0.00444342 0)
(-0.0452399 0.00407386 0)
(-0.046076 0.00368964 0)
(-0.0468277 0.00329211 0)
(-0.0474923 0.00288268 0)
(-0.0480674 0.00246275 0)
(-0.0485509 0.00203375 0)
(-0.0489411 0.00159711 0)
(-0.0492365 0.00115429 0)
(-0.049436 0.000706787 0)
(-0.0495387 0.000256085 0)
(-0.0495441 -0.000196297 0)
(-0.0494522 -0.000648826 0)
(-0.0492629 -0.00109995 0)
(-0.0489769 -0.00154811 0)
(-0.0485949 -0.00199172 0)
(-0.0481182 -0.00242919 0)
(-0.0475481 -0.00285891 0)
(-0.0468866 -0.00327928 0)
(-0.0461357 -0.00368866 0)
(-0.0452982 -0.00408544 0)
(-0.0443767 -0.004468 0)
(-0.0433746 -0.00483471 0)
(-0.0422953 -0.00518398 0)
(-0.0411427 -0.0055142 0)
(-0.0399211 -0.0058238 0)
(-0.0386349 -0.00611123 0)
(-0.037289 -0.00637498 0)
(-0.0358886 -0.00661356 0)
(-0.034439 -0.00682555 0)
(-0.0329461 -0.00700957 0)
(-0.0314158 -0.00716431 0)
(-0.0298543 -0.00728853 0)
(-0.0282681 -0.00738108 0)
(-0.026664 -0.0074409 0)
(-0.0250488 -0.00746704 0)
(-0.0234296 -0.00745866 0)
(-0.0218135 -0.00741507 0)
(-0.0202079 -0.00733574 0)
(-0.01862 -0.00722027 0)
(-0.0170573 -0.0070685 0)
(-0.0155271 -0.00688045 0)
(-0.0140367 -0.0066564 0)
(-0.0125932 -0.00639691 0)
(-0.0112037 -0.00610283 0)
(-0.00987474 -0.00577541 0)
(-0.00861287 -0.00541628 0)
(-0.00742405 -0.00502758 0)
(-0.00631377 -0.00461201 0)
(-0.00528697 -0.00417295 0)
(-0.00434787 -0.00371457 0)
(-0.00349989 -0.00324196 0)
(-0.00274558 -0.00276136 0)
(-0.0020864 -0.00228034 0)
(-0.00152271 -0.00180807 0)
(-0.00105362 -0.00135565 0)
(-0.000676916 -0.000936441 0)
(-0.000388827 -0.000566562 0)
(-0.000183836 -0.000265254 0)
(-5.69806e-05 -5.54302e-05 0)
(-6.32369e-06 3.39918e-05 0)
(-1.06857e-05 1.65768e-05 0)
(-8.4393e-05 0.000212282 0)
(-0.000259295 0.000531984 0)
(-0.000531161 0.00094508 0)
(-0.000901261 0.00142696 0)
(-0.00137288 0.00195677 0)
(-0.00194773 0.00251699 0)
(-0.00262619 0.00309303 0)
(-0.00340753 0.00367277 0)
(-0.00429 0.00424623 0)
(-0.00527085 0.00480523 0)
(-0.00634646 0.00534308 0)
(-0.0075124 0.00585438 0)
(-0.00876359 0.00633481 0)
(-0.0100943 0.00678096 0)
(-0.0114985 0.00719018 0)
(-0.0129694 0.00756047 0)
(-0.0145002 0.00789038 0)
(-0.0160837 0.00817892 0)
(-0.0177127 0.00842548 0)
(-0.0193796 0.0086298 0)
(-0.0210769 0.00879189 0)
(-0.0227971 0.00891201 0)
(-0.0245326 0.00899063 0)
(-0.026276 0.00902838 0)
(-0.02802 0.00902605 0)
(-0.0297573 0.00898454 0)
(-0.0314807 0.00890489 0)
(-0.0331835 0.00878822 0)
(-0.0348587 0.00863571 0)
(-0.0365 0.00844864 0)
(-0.0381011 0.00822833 0)
(-0.0396557 0.00797616 0)
(-0.0411582 0.00769355 0)
(-0.0426031 0.00738196 0)
(-0.0439849 0.0070429 0)
(-0.0452987 0.00667789 0)
(-0.0465398 0.00628848 0)
(-0.0477038 0.00587626 0)
(-0.0487864 0.00544284 0)
(-0.049784 0.00498984 0)
(-0.0506929 0.00451893 0)
(-0.0515099 0.00403179 0)
(-0.0522322 0.0035301 0)
(-0.0528572 0.00301559 0)
(-0.0533827 0.00249001 0)
(-0.0538067 0.00195511 0)
(-0.0541277 0.00141269 0)
(-0.0543445 0.000864562 0)
(-0.0544561 0.000312548 0)
(-0.0544621 -0.000241494 0)
(-0.0543622 -0.000795691 0)
(-0.0541566 -0.00134815 0)
(-0.0538459 -0.00189695 0)
(-0.0534309 -0.00244018 0)
(-0.0529129 -0.00297587 0)
(-0.0522935 -0.00350208 0)
(-0.0515748 -0.00401683 0)
(-0.050759 -0.00451815 0)
(-0.0498488 -0.00500407 0)
(-0.0488475 -0.0054726 0)
(-0.0477584 -0.00592179 0)
(-0.0465853 -0.00634966 0)
(-0.0453324 -0.00675429 0)
(-0.0440043 -0.00713375 0)
(-0.0426058 -0.00748618 0)
(-0.0411421 -0.00780973 0)
(-0.0396188 -0.00810261 0)
(-0.0380417 -0.00836309 0)
(-0.036417 -0.00858951 0)
(-0.0347512 -0.00878029 0)
(-0.0330508 -0.00893394 0)
(-0.031323 -0.00904908 0)
(-0.0295749 -0.00912443 0)
(-0.0278139 -0.00915887 0)
(-0.0260474 -0.00915142 0)
(-0.0242834 -0.00910126 0)
(-0.0225294 -0.00900776 0)
(-0.0207935 -0.0088705 0)
(-0.0190834 -0.00868931 0)
(-0.0174071 -0.00846427 0)
(-0.0157724 -0.00819574 0)
(-0.0141868 -0.00788446 0)
(-0.0126579 -0.0075315 0)
(-0.0111928 -0.00713839 0)
(-0.00979844 -0.00670716 0)
(-0.00848119 -0.00624039 0)
(-0.00724701 -0.00574133 0)
(-0.00610125 -0.00521399 0)
(-0.00504858 -0.00466329 0)
(-0.00409289 -0.00409517 0)
(-0.00323716 -0.00351682 0)
(-0.00248344 -0.00293686 0)
(-0.00183269 -0.00236562 0)
(-0.00128476 -0.00181541 0)
(-0.000838347 -0.00130089 0)
(-0.000490743 -0.000839477 0)
(-0.000237667 -0.000451675 0)
(-7.64831e-05 -0.000161547 0)
(-9.41841e-06 1.10579e-06 0)
(-1.37831e-05 6.35517e-05 0)
(-0.000104252 0.000356426 0)
(-0.000314521 0.000776705 0)
(-0.000636126 0.00129341 0)
(-0.00106788 0.00188121 0)
(-0.00161168 0.00251835 0)
(-0.00226799 0.00318631 0)
(-0.00303611 0.00386946 0)
(-0.00391443 0.00455469 0)
(-0.00490041 0.00523105 0)
(-0.00599067 0.00588947 0)
(-0.00718099 0.00652246 0)
(-0.00846644 0.00712391 0)
(-0.00984144 0.00768886 0)
(-0.0112998 0.00821338 0)
(-0.012835 0.00869437 0)
(-0.0144399 0.00912948 0)
(-0.0161072 0.00951694 0)
(-0.0178294 0.00985557 0)
(-0.0195986 0.0101446 0)
(-0.0214069 0.0103837 0)
(-0.0232463 0.0105727 0)
(-0.025109 0.0107121 0)
(-0.0269868 0.0108022 0)
(-0.0288719 0.0108438 0)
(-0.0307565 0.0108378 0)
(-0.0326328 0.0107852 0)
(-0.0344934 0.0106872 0)
(-0.0363309 0.0105451 0)
(-0.0381381 0.0103604 0)
(-0.039908 0.0101345 0)
(-0.041634 0.00986892 0)
(-0.0433097 0.00956537 0)
(-0.0449287 0.0092255 0)
(-0.0464853 0.00885104 0)
(-0.0479737 0.00844379 0)
(-0.0493887 0.00800555 0)
(-0.0507251 0.00753818 0)
(-0.0519783 0.00704356 0)
(-0.0531439 0.00652362 0)
(-0.0542177 0.00598031 0)
(-0.055196 0.0054156 0)
(-0.0560754 0.00483149 0)
(-0.0568528 0.00423002 0)
(-0.0575255 0.00361324 0)
(-0.058091 0.00298324 0)
(-0.0585473 0.00234213 0)
(-0.0588929 0.00169206 0)
(-0.0591262 0.00103517 0)
(-0.0592465 0.000373672 0)
(-0.0592531 -0.000290229 0)
(-0.0591459 -0.00095429 0)
(-0.0589249 -0.00161625 0)
(-0.0585909 -0.00227382 0)
(-0.0581447 -0.00292469 0)
(-0.0575877 -0.00356655 0)
(-0.0569216 -0.00419705 0)
(-0.0561486 -0.00481385 0)
(-0.0552711 -0.0054146 0)
(-0.054292 -0.00599693 0)
(-0.0532147 -0.00655849 0)
(-0.0520428 -0.00709693 0)
(-0.0507805 -0.00760994 0)
(-0.049432 -0.0080952 0)
(-0.0480024 -0.00855043 0)