/*--------------------------------*- C++ -*----------------------------------*\
| =========                 |                                                 |
| \\      /  F ield         | OpenFOAM: The Open Source CFD Toolbox           |
|  \\    /   O peration     | Version:  2212                                  |
|   \\  /    A nd           | Website:  www.openfoam.com                      |
|    \\/     M anipulation  |                                                 |
\*---------------------------------------------------------------------------*/
FoamFile
{
    version     2.0;
    format      ascii;
    arch        "LSB;label=32;scalar=64";
    class       surfaceScalarField;
    location    "0.097";
    object      phi_0;
}
// * * * * * * * * * * * * * * * * * * * * * * * * * * * * * * * * * * * * * //

dimensions      [0 3 -1 0 0 0 0];

oriented        oriented;

internalField   nonuniform List<scalar> 
19800
(
7.09166e-11
-7.0862e-11
2.43778e-10
-1.72865e-10
4.34361e-10
-1.90575e-10
5.84139e-10
-1.4978e-10
6.59601e-10
-7.5464e-11
6.42247e-10
1.73613e-11
5.22766e-10
1.19474e-10
2.97738e-10
2.25031e-10
-3.25693e-11
3.30305e-10
-4.65472e-10
4.32898e-10
-9.96729e-10
5.31251e-10
-1.62105e-09
6.24314e-10
-2.33243e-09
7.1139e-10
-3.12444e-09
7.92022e-10
-3.99036e-09
8.65923e-10
-4.9233e-09
9.32933e-10
-5.91628e-09
9.92984e-10
-6.96235e-09
1.04607e-09
-8.05458e-09
1.09223e-09
-9.18613e-09
1.13154e-09
-1.03503e-08
1.16413e-09
-1.15404e-08
1.19013e-09
-1.27501e-08
1.20971e-09
-1.39731e-08
1.22302e-09
-1.52034e-08
1.23024e-09
-1.64349e-08
1.23157e-09
-1.76622e-08
1.22721e-09
-1.88795e-08
1.21735e-09
-2.00817e-08
1.2022e-09
-2.12637e-08
1.18198e-09
-2.24206e-08
1.15689e-09
-2.35477e-08
1.12715e-09
-2.46407e-08
1.09297e-09
-2.56953e-08
1.05456e-09
-2.67074e-08
1.01215e-09
-2.76734e-08
9.65958e-10
-2.85896e-08
9.16191e-10
-2.94526e-08
8.63068e-10
-3.02594e-08
8.06815e-10
-3.10071e-08
7.47653e-10
-3.16929e-08
6.85802e-10
-3.23144e-08
6.21489e-10
-3.28693e-08
5.54937e-10
-3.33557e-08
4.8637e-10
-3.37717e-08
4.16021e-10
-3.41158e-08
3.44124e-10
-3.43868e-08
2.70912e-10
-3.45834e-08
1.96634e-10
-3.47049e-08
1.21528e-10
-3.47508e-08
4.58391e-11
-3.47206e-08
-3.01808e-11
-3.46143e-08
-1.0628e-10
-3.44321e-08
-1.82201e-10
-3.41744e-08
-2.57677e-10
-3.3842e-08
-3.32448e-10
-3.34357e-08
-4.06249e-10
-3.29569e-08
-4.78802e-10
-3.24071e-08
-5.49833e-10
-3.1788e-08
-6.19073e-10
-3.11018e-08
-6.86243e-10
-3.03507e-08
-7.51052e-10
-2.95375e-08
-8.13222e-10
-2.8665e-08
-8.72474e-10
-2.77365e-08
-9.28523e-10
-2.67554e-08
-9.81081e-10
-2.57255e-08
-1.02988e-09
-2.46509e-08
-1.07464e-09
-2.35358e-08
-1.11509e-09
-2.23848e-08
-1.15095e-09
-2.12029e-08
-1.18197e-09
-1.9995e-08
-1.20789e-09
-1.87665e-08
-1.22847e-09
-1.75231e-08
-1.24346e-09
-1.62704e-08
-1.25265e-09
-1.50146e-08
-1.25583e-09
-1.37618e-08
-1.25278e-09
-1.25185e-08
-1.24334e-09
-1.12911e-08
-1.22735e-09
-1.00864e-08
-1.20466e-09
-8.91129e-09
-1.17516e-09
-7.77255e-09
-1.13874e-09
-6.6772e-09
-1.09535e-09
-5.63223e-09
-1.04496e-09
-4.64465e-09
-9.87581e-10
-3.72138e-09
-9.23271e-10
-2.86923e-09
-8.52148e-10
-2.09481e-09
-7.74413e-10
-1.40446e-09
-6.90355e-10
-8.04091e-10
-6.00382e-10
-2.99014e-10
-5.05079e-10
1.06273e-10
-4.0528e-10
4.08449e-10
-3.0217e-10
6.05894e-10
-1.97449e-10
6.99517e-10
-9.36272e-11
6.94033e-10
5.48812e-12
6.00048e-10
9.39932e-11
4.37316e-10
1.62735e-10
2.40285e-10
1.97024e-10
6.74132e-11
1.72867e-10
6.74184e-11
1.72922e-10
-2.43782e-10
4.75532e-10
-4.75481e-10
7.66168e-10
-4.81211e-10
9.42128e-10
-3.25739e-10
9.32022e-10
-6.53678e-11
6.90113e-10
2.59282e-10
1.89664e-10
6.19918e-10
-5.82334e-10
9.97027e-10
-1.6292e-09
1.37718e-09
-2.94737e-09
1.75108e-09
-4.52838e-09
2.11227e-09
-6.36032e-09
2.45625e-09
-8.42878e-09
2.77985e-09
-1.07177e-08
3.08091e-09
-1.32097e-08
3.35795e-09
-1.58868e-08
3.61004e-09
-1.87305e-08
3.83662e-09
-2.17218e-08
4.03744e-09
-2.48421e-08
4.21249e-09
-2.80725e-08
4.36191e-09
-3.13943e-08
4.48601e-09
-3.47894e-08
4.5852e-09
-3.82397e-08
4.65999e-09
-4.17276e-08
4.71095e-09
-4.52361e-08
4.7387e-09
-4.87484e-08
4.74391e-09
-5.22485e-08
4.72729e-09
-5.57207e-08
4.68957e-09
-5.915e-08
4.63151e-09
-6.25219e-08
4.55389e-09
-6.58225e-08
4.45751e-09
-6.90386e-08
4.34317e-09
-7.21573e-08
4.21169e-09
-7.51666e-08
4.06388e-09
-7.8055e-08
3.90058e-09
-8.08117e-08
3.72262e-09
-8.34264e-08
3.53085e-09
-8.58894e-08
3.32609e-09
-8.81918e-08
3.10922e-09
-9.03252e-08
2.88107e-09
-9.22819e-08
2.64252e-09
-9.40549e-08
2.39443e-09
-9.56376e-08
2.13769e-09
-9.70244e-08
1.87317e-09
-9.82102e-08
1.60178e-09
-9.91905e-08
1.32443e-09
-9.99617e-08
1.04204e-09
-1.00521e-07
7.55538e-10
-1.00865e-07
4.65872e-10
-1.00993e-07
1.73994e-10
-1.00904e-07
-1.19127e-10
-1.00598e-07
-4.12497e-10
-1.00075e-07
-7.05118e-10
-9.93367e-08
-9.9598e-10
-9.83851e-08
-1.28405e-09
-9.7223e-08
-1.5683e-09
-9.58541e-08
-1.84768e-09
-9.42828e-08
-2.12114e-09
-9.25143e-08
-2.3876e-09
-9.05546e-08
-2.64599e-09
-8.84104e-08
-2.89524e-09
-8.60893e-08
-3.13425e-09
-8.35999e-08
-3.36193e-09
-8.09512e-08
-3.57722e-09
-7.81532e-08
-3.77904e-09
-7.52168e-08
-3.96633e-09
-7.21534e-08
-4.13802e-09
-6.89754e-08
-4.29309e-09
-6.56958e-08
-4.43052e-09
-6.23285e-08
-4.54932e-09
-5.88878e-08
-4.64854e-09
-5.5389e-08
-4.72725e-09
-5.18479e-08
-4.78459e-09
-4.82808e-08
-4.81971e-09
-4.47048e-08
-4.83184e-09
-4.11373e-08
-4.82028e-09
-3.75963e-08
-4.78437e-09
-3.41001e-08
-4.72355e-09
-3.06674e-08
-4.63733e-09
-2.73172e-08
-4.52535e-09
-2.40686e-08
-4.38733e-09
-2.09409e-08
-4.22313e-09
-1.7953e-08
-4.03277e-09
-1.51242e-08
-3.81642e-09
-1.2473e-08
-3.5745e-09
-1.00175e-08
-3.30766e-09
-7.77499e-09
-3.01688e-09
-5.76177e-09
-2.70357e-09
-3.9925e-09
-2.36965e-09
-2.47983e-09
-2.01775e-09
-1.23362e-09
-1.65149e-09
-2.59985e-10
-1.27582e-09
4.40152e-10
-8.97589e-10
8.72942e-10
-5.26415e-10
1.05436e-09
-1.75923e-10
1.01396e-09
1.34391e-10
7.99996e-10
3.76694e-10
4.85419e-10
5.11596e-10
1.72765e-10
4.85526e-10
2.40186e-10
1.91284e-10
-4.3506e-10
4.83405e-10
-7.67607e-10
7.02058e-10
-6.99863e-10
7.23559e-10
-3.47231e-10
4.58227e-10
1.9996e-10
-1.55123e-10
8.72631e-10
-1.15482e-09
1.61962e-09
-2.56152e-09
2.40372e-09
-4.38241e-09
3.19805e-09
-6.61453e-09
3.9832e-09
-9.24735e-09
4.74509e-09
-1.22647e-08
5.47358e-09
-1.56462e-08
6.16135e-09
-1.93685e-08
6.80318e-09
-2.34059e-08
7.39541e-09
-2.77314e-08
7.93554e-09
-3.23168e-08
8.42202e-09
-3.71333e-08
8.85395e-09
-4.21519e-08
9.23102e-09
-4.73433e-08
9.55331e-09
-5.26785e-08
9.82127e-09
-5.81289e-08
1.00356e-08
-6.36661e-08
1.01973e-08
-6.92625e-08
1.03073e-08
-7.48909e-08
1.03671e-08
-8.05249e-08
1.03779e-08
-8.61388e-08
1.03412e-08
-9.17078e-08
1.02585e-08
-9.72078e-08
1.01315e-08
-1.02616e-07
9.96183e-09
-1.07909e-07
9.75112e-09
-1.13067e-07
9.50113e-09
-1.18069e-07
9.21361e-09
-1.22896e-07
8.89034e-09
-1.27528e-07
8.53313e-09
-1.31949e-07
8.14379e-09
-1.36143e-07
7.72415e-09
-1.40093e-07
7.27606e-09
-1.43785e-07
6.80139e-09
-1.47206e-07
6.30201e-09
-1.50343e-07
5.77983e-09
-1.53185e-07
5.23675e-09
-1.55722e-07
4.6747e-09
-1.57945e-07
4.09564e-09
-1.59845e-07
3.50154e-09
-1.61415e-07
2.8944e-09
-1.62649e-07
2.27627e-09
-1.63542e-07
1.64917e-09
-1.64092e-07
1.01519e-09
-1.64294e-07
3.76443e-10
-1.64148e-07
-2.64948e-10
-1.63654e-07
-9.06818e-10
-1.62812e-07
-1.54696e-09
-1.61625e-07
-2.18317e-09
-1.60096e-07
-2.81318e-09
-1.5823e-07
-3.43474e-09
-1.56032e-07
-4.04553e-09
-1.5351e-07
-4.64326e-09
-1.50672e-07
-5.22558e-09
-1.47527e-07
-5.79015e-09
-1.44088e-07
-6.33461e-09
-1.40366e-07
-6.8566e-09
-1.36374e-07
-7.35377e-09
-1.32127e-07
-7.82375e-09
-1.27642e-07
-8.26423e-09
-1.22936e-07
-8.67289e-09
-1.18026e-07
-9.04746e-09
-1.12934e-07
-9.3857e-09
-1.07679e-07
-9.68542e-09
-1.02283e-07
-9.9445e-09
-9.6771e-08
-1.01609e-08
-9.11657e-08
-1.03327e-08
-8.54924e-08
-1.04579e-08
-7.97772e-08
-1.05348e-08
-7.40472e-08
-1.05619e-08
-6.83299e-08
-1.05376e-08
-6.26538e-08
-1.04605e-08
-5.70477e-08
-1.03296e-08
-5.15411e-08
-1.01439e-08
-4.61638e-08
-9.90271e-09
-4.09455e-08
-9.60557e-09
-3.59163e-08
-9.25234e-09
-3.11058e-08
-8.84325e-09
-2.65433e-08
-8.37891e-09
-2.22574e-08
-7.86045e-09
-1.82754e-08
-7.28961e-09
-1.46235e-08
-6.66884e-09
-1.13255e-08
-6.00156e-09
-8.40276e-09
-5.29238e-09
-5.87306e-09
-4.54746e-09
-3.74954e-09
-3.77501e-09
-2.03932e-09
-2.98603e-09
-7.41585e-10
-2.19532e-09
1.54864e-10
-1.42286e-09
6.74732e-10
-6.95791e-10
8.60221e-10
-5.10993e-11
7.75844e-10
4.61072e-10
5.13521e-10
7.73923e-10
1.97485e-10
8.01565e-10
4.3767e-10
1.52146e-10
-5.87202e-10
3.329e-10
-9.48356e-10
3.58227e-10
-7.25191e-10
9.62528e-11
-8.52499e-11
-5.49933e-10
8.46146e-10
-1.64845e-09
1.97115e-09
-3.24363e-09
3.21479e-09
-5.3605e-09
4.5206e-09
-8.00877e-09
5.84633e-09
-1.1186e-08
7.16042e-09
-1.48803e-08
8.43936e-09
-1.90723e-08
9.66568e-09
-2.37374e-08
1.08264e-08
-2.88464e-08
1.19122e-08
-3.43672e-08
1.29161e-08
-4.02651e-08
1.38334e-08
-4.6504e-08
1.46609e-08
-5.30466e-08
1.53966e-08
-5.98552e-08
1.60396e-08
-6.68915e-08
1.65896e-08
-7.41173e-08
1.70471e-08
-8.14948e-08
1.74131e-08
-8.89866e-08
1.7689e-08
-9.65557e-08
1.78765e-08
-1.04166e-07
1.79775e-08
-1.11782e-07
1.79943e-08
-1.1937e-07
1.79292e-08
-1.26897e-07
1.77849e-08
-1.34329e-07
1.75641e-08
-1.41637e-07
1.72694e-08
-1.4879e-07
1.69038e-08
-1.55759e-07
1.64701e-08
-1.62516e-07
1.59715e-08
-1.69037e-07
1.54109e-08
-1.75295e-07
1.47915e-08
-1.81268e-07
1.41163e-08
-1.86932e-07
1.33886e-08
-1.92268e-07
1.26115e-08
-1.97255e-07
1.17883e-08
-2.01875e-07
1.09222e-08
-2.06112e-07
1.00166e-08
-2.0995e-07
9.07465e-09
-2.13375e-07
8.09986e-09
-2.16375e-07
7.09558e-09
-2.18938e-07
6.06525e-09
-2.21056e-07
5.01236e-09
-2.22721e-07
3.94043e-09
-2.23924e-07
2.85304e-09
-2.24663e-07
1.7538e-09
-2.24933e-07
6.46368e-10
-2.24732e-07
-4.65529e-10
-2.24061e-07
-1.57814e-09
-2.2292e-07
-2.68765e-09
-2.21313e-07
-3.7902e-09
-2.19245e-07
-4.88188e-09
-2.16721e-07
-5.95876e-09
-2.13749e-07
-7.01687e-09
-2.1034e-07
-8.05219e-09
-2.06505e-07
-9.06067e-09
-2.02257e-07
-1.00383e-08
-1.97611e-07
-1.09809e-08
-1.92583e-07
-1.18845e-08
-1.87192e-07
-1.2745e-08
-1.81457e-07
-1.35584e-08
-1.75401e-07
-1.43206e-08
-1.69046e-07
-1.50277e-08
-1.62418e-07
-1.56758e-08
-1.55542e-07
-1.6261e-08
-1.48448e-07
-1.67796e-08
-1.41164e-07
-1.72281e-08
-1.33723e-07
-1.76028e-08
-1.26155e-07
-1.79006e-08
-1.18494e-07
-1.81181e-08
-1.10777e-07
-1.82526e-08
-1.03037e-07
-1.83012e-08
-9.53132e-08
-1.82616e-08
-8.76422e-08
-1.81314e-08
-8.00628e-08
-1.7909e-08
-7.26139e-08
-1.75929e-08
-6.53346e-08
-1.71819e-08
-5.82646e-08
-1.66756e-08
-5.14429e-08
-1.6074e-08
-4.49085e-08
-1.53776e-08
-3.86994e-08
-1.4588e-08
-3.28526e-08
-1.37073e-08
-2.74033e-08
-1.27389e-08
-2.23847e-08
-1.16875e-08
-1.78268e-08
-1.05594e-08
-1.37562e-08
-9.36302e-09
-1.01944e-08
-8.10926e-09
-7.15685e-09
-6.81251e-09
-4.65133e-09
-5.49155e-09
-2.67562e-09
-4.17103e-09
-1.21519e-09
-2.88329e-09
-2.40088e-10
-1.67089e-09
2.9869e-10
-5.89874e-10
4.73419e-10
2.86343e-10
3.84212e-10
8.63129e-10
1.649e-10
1.02088e-09
6.02571e-10
8.02982e-11
-6.67501e-10
7.96783e-11
-9.47734e-10
-1.76526e-10
-4.68981e-10
-8.175e-10
5.55731e-10
-1.93957e-09
1.96821e-09
-3.61163e-09
3.64322e-09
-5.87943e-09
5.48259e-09
-8.76932e-09
7.41048e-09
-1.22916e-08
9.36864e-09
-1.64436e-08
1.13124e-08
-2.12118e-08
1.32076e-08
-2.65746e-08
1.50284e-08
-3.25033e-08
1.67551e-08
-3.89642e-08
1.83732e-08
-4.59197e-08
1.98717e-08
-5.33291e-08
2.12428e-08
-6.11494e-08
2.24812e-08
-6.93362e-08
2.35834e-08
-7.78439e-08
2.45473e-08
-8.66267e-08
2.53723e-08
-9.56383e-08
2.60587e-08
-1.04833e-07
2.66076e-08
-1.14164e-07
2.70207e-08
-1.23588e-07
2.73003e-08
-1.3306e-07
2.74494e-08
-1.42537e-07
2.74709e-08
-1.51976e-07
2.73684e-08
-1.61337e-07
2.71457e-08
-1.70579e-07
2.68066e-08
-1.79665e-07
2.63554e-08
-1.88558e-07
2.57962e-08
-1.97221e-07
2.51335e-08
-2.05621e-07
2.43717e-08
-2.13726e-07
2.35156e-08
-2.21504e-07
2.25697e-08
-2.28927e-07
2.15388e-08
-2.35966e-07
2.04277e-08
-2.42595e-07
1.92413e-08
-2.48792e-07
1.79845e-08
-2.54532e-07
1.66623e-08
-2.59795e-07
1.52797e-08
-2.64562e-07
1.38418e-08
-2.68816e-07
1.23537e-08
-2.72541e-07
1.08207e-08
-2.75724e-07
9.24802e-09
-2.78352e-07
7.64095e-09
-2.80417e-07
6.00492e-09
-2.81909e-07
4.34539e-09
-2.82823e-07
2.66789e-09
-2.83155e-07
9.78035e-10
-2.82902e-07
-7.18509e-10
-2.82064e-07
-2.41598e-09
-2.80643e-07
-4.10855e-09
-2.78643e-07
-5.79035e-09
-2.7607e-07
-7.45542e-09
-2.72931e-07
-9.09774e-09
-2.69236e-07
-1.07112e-08
-2.64999e-07
-1.22898e-08
-2.60232e-07
-1.38273e-08
-2.54953e-07
-1.53176e-08
-2.49179e-07
-1.67544e-08
-2.42932e-07
-1.81316e-08
-2.36234e-07
-1.94431e-08
-2.2911e-07
-2.06826e-08
-2.21586e-07
-2.18442e-08
-2.13692e-07
-2.29217e-08
-2.05458e-07
-2.39094e-08
-1.96918e-07
-2.48015e-08
-1.88105e-07
-2.55923e-08
-1.79057e-07
-2.62764e-08
-1.69811e-07
-2.68487e-08
-1.60408e-07
-2.7304e-08
-1.50888e-07
-2.76378e-08
-1.41295e-07
-2.78456e-08
-1.31673e-07
-2.79236e-08
-1.22066e-07
-2.7868e-08
-1.12522e-07
-2.76758e-08
-1.03087e-07
-2.73443e-08
-9.38078e-08
-2.68717e-08
-8.47332e-08
-2.62565e-08
-7.59107e-08
-2.54982e-08
-6.73877e-08
-2.4597e-08
-5.9211e-08
-2.35544e-08
-5.14262e-08
-2.23727e-08
-4.40776e-08
-2.10559e-08
-3.72069e-08
-1.96096e-08
-3.08532e-08
-1.80412e-08
-2.50518e-08
-1.63608e-08
-1.98335e-08
-1.45814e-08
-1.52229e-08
-1.27198e-08
-1.12377e-08
-1.07978e-08
-7.88624e-09
-8.84298e-09
-5.16618e-09
-6.89109e-09
-3.06162e-09
-4.98785e-09
-1.54058e-09
-3.19192e-09
-5.51881e-10
-1.57857e-09
-2.155e-11
-2.43991e-10
1.51163e-10
6.90413e-10
9.90841e-11
1.07296e-09
7.01659e-10
-9.61388e-12
-6.57883e-10
-2.36936e-10
-7.20404e-10
-8.35927e-10
1.30007e-10
-1.92479e-09
1.6446e-09
-3.59319e-09
3.63662e-09
-5.90608e-09
5.95611e-09
-8.90688e-09
8.48339e-09
-1.26205e-08
1.11241e-08
-1.70559e-08
1.38041e-08
-2.22089e-08
1.64654e-08
-2.80641e-08
1.90628e-08
-3.4597e-08
2.15613e-08
-4.17758e-08
2.39339e-08
-4.95626e-08
2.616e-08
-5.79151e-08
2.82241e-08
-6.67871e-08
3.01149e-08
-7.613e-08
3.18241e-08
-8.5893e-08
3.33464e-08
-9.60241e-08
3.46784e-08
-1.0647e-07
3.58186e-08
-1.17179e-07
3.6767e-08
-1.28096e-07
3.75246e-08
-1.39169e-07
3.80936e-08
-1.50345e-07
3.84769e-08
-1.61574e-07
3.8678e-08
-1.72804e-07
3.87012e-08
-1.83987e-07
3.8551e-08
-1.95074e-07
3.82326e-08
-2.06018e-07
3.77513e-08
-2.16776e-07
3.71127e-08
-2.27302e-07
3.63227e-08
-2.37556e-07
3.53875e-08
-2.47498e-07
3.43131e-08
-2.57088e-07
3.31062e-08
-2.66292e-07
3.1773e-08
-2.75073e-07
3.03204e-08
-2.83401e-07
2.87551e-08
-2.91243e-07
2.70838e-08
-2.98572e-07
2.53134e-08
-3.05361e-07
2.34511e-08
-3.11585e-07
2.15038e-08
-3.17222e-07
1.94787e-08
-3.22251e-07
1.73831e-08
-3.26655e-07
1.52243e-08
-3.30416e-07
1.30097e-08
-3.33522e-07
1.07469e-08
-3.35961e-07
8.44341e-09
-3.37722e-07
6.107e-09
-3.388e-07
3.74546e-09
-3.39189e-07
1.36669e-09
-3.38886e-07
-1.02131e-09
-3.37891e-07
-3.41042e-09
-3.36208e-07
-5.79247e-09
-3.33839e-07
-8.15914e-09
-3.30792e-07
-1.05021e-08
-3.27077e-07
-1.28128e-08
-3.22705e-07
-1.50828e-08
-3.17692e-07
-1.73035e-08
-3.12053e-07
-1.94663e-08
-3.05808e-07
-2.15625e-08
-2.98979e-07
-2.35834e-08
-2.9159e-07
-2.55204e-08
-2.83668e-07
-2.73649e-08
-2.75243e-07
-2.91082e-08
-2.66345e-07
-3.0742e-08
-2.57009e-07
-3.22578e-08
-2.47271e-07
-3.36475e-08
-2.37169e-07
-3.49029e-08
-2.26745e-07
-3.60164e-08
-2.16041e-07
-3.69804e-08
-2.05102e-07
-3.77877e-08
-1.93975e-07
-3.84314e-08
-1.82707e-07
-3.89051e-08
-1.7135e-07
-3.92028e-08
-1.59955e-07
-3.93192e-08
-1.48573e-07
-3.92493e-08
-1.3726e-07
-3.8989e-08
-1.2607e-07
-3.85349e-08
-1.15057e-07
-3.78845e-08
-1.04277e-07
-3.70363e-08
-9.37854e-08
-3.59897e-08
-8.36368e-08
-3.47456e-08
-7.38849e-08
-3.33063e-08
-6.4582e-08
-3.16756e-08
-5.57785e-08
-2.98594e-08
-4.7522e-08
-2.78661e-08
-3.98567e-08
-2.57065e-08
-3.28224e-08
-2.3395e-08
-2.64537e-08
-2.09502e-08
-2.07781e-08
-1.83953e-08
-1.58156e-08
-1.57603e-08
-1.15762e-08
-1.30824e-08
-8.05837e-09
-1.04089e-08
-5.24693e-09
-7.79929e-09
-3.11072e-09
-5.32812e-09
-1.60006e-09
-3.08923e-09
-6.43937e-10
-1.20011e-09
-1.46959e-10
1.93433e-10
1.45346e-11
9.11471e-10
7.16198e-10
-1.0885e-10
-5.49032e-10
-5.90375e-10
-2.38875e-10
-1.57239e-09
1.11203e-09
-3.15673e-09
3.22893e-09
-5.42193e-09
5.90182e-09
-8.42529e-09
8.95947e-09
-1.22049e-08
1.2263e-08
-1.67817e-08
1.57009e-08
-2.21617e-08
1.9184e-08
-2.83377e-08
2.26414e-08
-3.52917e-08
2.60168e-08
-4.29961e-08
2.92657e-08
-5.14156e-08
3.23534e-08
-6.05085e-08
3.52529e-08
-7.02281e-08
3.79438e-08
-8.05237e-08
4.04104e-08
-9.13412e-08
4.26416e-08
-1.02624e-07
4.46296e-08
-1.14316e-07
4.63695e-08
-1.26356e-07
4.78586e-08
-1.38685e-07
4.90964e-08
-1.51244e-07
5.00839e-08
-1.63974e-07
5.08232e-08
-1.76815e-07
5.1318e-08
-1.8971e-07
5.15727e-08
-2.02601e-07
5.15924e-08
-2.15433e-07
5.1383e-08
-2.28151e-07
5.0951e-08
-2.40703e-07
5.03032e-08
-2.53037e-07
4.94471e-08
-2.65105e-07
4.83902e-08
-2.76858e-07
4.71405e-08
-2.88251e-07
4.57062e-08
-2.9924e-07
4.40957e-08
-3.09785e-07
4.23176e-08
-3.19845e-07
4.03807e-08
-3.29384e-07
3.82939e-08
-3.38366e-07
3.60662e-08
-3.4676e-07
3.37069e-08
-3.54534e-07
3.12251e-08
-3.61661e-07
2.86305e-08
-3.68114e-07
2.59324e-08
-3.73872e-07
2.31405e-08
-3.78912e-07
2.02646e-08
-3.83217e-07
1.73147e-08
-3.86771e-07
1.43007e-08
-3.8956e-07
1.12327e-08
-3.91574e-07
8.12106e-09
-3.92805e-07
4.97617e-09
-3.93247e-07
1.80855e-09
-3.92897e-07
-1.37114e-09
-3.91755e-07
-4.5521e-09
-3.89824e-07
-7.72342e-09
-3.87109e-07
-1.08741e-08
-3.83619e-07
-1.39929e-08
-3.79363e-07
-1.70687e-08
-3.74355e-07
-2.00901e-08
-3.68613e-07
-2.30458e-08
-3.62155e-07
-2.59242e-08
-3.55004e-07
-2.87139e-08
-3.47184e-07
-3.14035e-08
-3.38723e-07
-3.39813e-08
-3.29651e-07
-3.64361e-08
-3.20003e-07
-3.87566e-08
-3.09814e-07
-4.09314e-08
-2.99122e-07
-4.29496e-08
-2.87969e-07
-4.48003e-08
-2.76399e-07
-4.64731e-08
-2.64458e-07
-4.79576e-08
-2.52194e-07
-4.92441e-08
-2.39659e-07
-5.03229e-08
-2.26905e-07
-5.11853e-08
-2.13987e-07
-5.18229e-08
-2.00962e-07
-5.22278e-08
-1.87888e-07
-5.23932e-08
-1.74824e-07
-5.23129e-08
-1.61832e-07
-5.19815e-08
-1.48972e-07
-5.1395e-08
-1.36306e-07
-5.05502e-08
-1.23897e-07
-4.94455e-08
-1.11806e-07
-4.80807e-08
-1.00094e-07
-4.64572e-08
-8.88222e-08
-4.45784e-08
-7.80477e-08
-4.24501e-08
-6.78267e-08
-4.00804e-08
-5.8212e-08
-3.74808e-08
-4.92525e-08
-3.4666e-08
-4.09921e-08
-3.16554e-08
-3.3469e-08
-2.84733e-08
-2.6714e-08
-2.51503e-08
-2.07496e-08
-2.17246e-08
-1.55883e-08
-1.82437e-08
-1.12309e-08
-1.47663e-08
-7.6648e-09
-1.13654e-08
-4.862e-09
-8.13092e-09
-2.77736e-09
-5.17386e-09
-1.34645e-09
-2.63101e-09
-4.83642e-10
-6.69375e-10
-7.99614e-11
5.07792e-10
6.36241e-10
-2.12123e-10
-3.36908e-10
-9.63045e-10
5.1205e-10
-2.35276e-09
2.50175e-09
-4.46364e-09
5.33981e-09
-7.36011e-09
8.79828e-09
-1.10891e-08
1.26884e-08
-1.56808e-08
1.68547e-08
-2.11504e-08
2.11705e-08
-2.74989e-08
2.55326e-08
-3.47154e-08
2.98579e-08
-4.27779e-08
3.40793e-08
-5.16553e-08
3.81431e-08
-6.13086e-08
4.20067e-08
-7.16924e-08
4.56366e-08
-8.27555e-08
4.90069e-08
-9.44429e-08
5.20978e-08
-1.06696e-07
5.48945e-08
-1.19453e-07
5.73868e-08
-1.32651e-07
5.95679e-08
-1.46227e-07
6.14338e-08
-1.60113e-07
6.29832e-08
-1.74246e-07
6.42168e-08
-1.8856e-07
6.51372e-08
-2.0299e-07
6.57482e-08
-2.17473e-07
6.60551e-08
-2.31945e-07
6.60642e-08
-2.46344e-07
6.57825e-08
-2.60611e-07
6.52181e-08
-2.74688e-07
6.43795e-08
-2.88516e-07
6.32758e-08
-3.02043e-07
6.19165e-08
-3.15214e-07
6.03118e-08
-3.2798e-07
5.84718e-08
-3.40291e-07
5.64072e-08
-3.52102e-07
5.41289e-08
-3.6337e-07
5.16481e-08
-3.74052e-07
4.8976e-08
-3.8411e-07
4.61241e-08
-3.93507e-07
4.31042e-08
-4.0221e-07
3.99282e-08
-4.10188e-07
3.6608e-08
-4.17411e-07
3.31558e-08
-4.23854e-07
2.95839e-08
-4.29495e-07
2.59049e-08
-4.34312e-07
2.21314e-08
-4.38287e-07
1.82763e-08
-4.41407e-07
1.43524e-08
-4.43659e-07
1.0373e-08
-4.45034e-07
6.35124e-09
-4.45526e-07
2.30071e-09
-4.45132e-07
-1.76499e-09
-4.43852e-07
-5.83208e-09
-4.41689e-07
-9.88663e-09
-4.38648e-07
-1.39145e-08
-4.3474e-07
-1.79016e-08
-4.29975e-07
-2.18334e-08
-4.2437e-07
-2.56957e-08
-4.17942e-07
-2.94737e-08
-4.10713e-07
-3.3153e-08
-4.02708e-07
-3.6719e-08
-3.93954e-07
-4.01569e-08
-3.84483e-07
-4.34523e-08
-3.74329e-07
-4.65907e-08
-3.63528e-07
-4.95576e-08
-3.5212e-07
-5.23389e-08
-3.40149e-07
-5.49206e-08
-3.2766e-07
-5.72891e-08
-3.14703e-07
-5.94308e-08
-3.01327e-07
-6.13331e-08
-2.87588e-07
-6.29833e-08
-2.73541e-07
-6.43697e-08
-2.59246e-07
-6.5481e-08
-2.44762e-07
-6.63067e-08
-2.30152e-07
-6.68373e-08
-2.15481e-07
-6.70641e-08
-2.00815e-07
-6.69795e-08
-1.86219e-07
-6.65771e-08
-1.71762e-07
-6.58519e-08
-1.57512e-07
-6.48004e-08
-1.43537e-07
-6.34208e-08
-1.29904e-07
-6.17132e-08
-1.16682e-07
-5.968e-08
-1.03934e-07
-5.73259e-08
-9.17255e-08
-5.46587e-08
-8.01168e-08
-5.16891e-08
-6.91654e-08
-4.84321e-08
-5.89246e-08
-4.49068e-08
-4.94426e-08
-4.11375e-08
-4.07611e-08
-3.71549e-08
-3.29145e-08
-3.2997e-08
-2.59286e-08
-2.87105e-08
-1.98192e-08
-2.43531e-08
-1.45907e-08
-1.99948e-08
-1.02347e-08
-1.57214e-08
-6.72853e-09
-1.16371e-08
-4.03389e-09
-7.8685e-09
-2.0957e-09
-4.5692e-09
-8.4111e-10
-1.92397e-09
-1.78996e-10
-1.54319e-10
4.57246e-10
-3.16283e-10
-2.06251e-11
-1.34354e-09
1.53931e-09
-3.15433e-09
4.31254e-09
-5.81029e-09
7.99577e-09
-9.35991e-09
1.23479e-08
-1.38378e-08
1.71663e-08
-1.92646e-08
2.22815e-08
-2.56478e-08
2.75537e-08
-3.29823e-08
3.28672e-08
-4.1252e-08
3.81276e-08
-5.04302e-08
4.32575e-08
-6.04817e-08
4.81946e-08
-7.13634e-08
5.28884e-08
-8.30255e-08
5.72988e-08
-9.54132e-08
6.13945e-08
-1.08467e-07
6.51513e-08
-1.22123e-07
6.85507e-08
-1.36316e-07
7.15798e-08
-1.50978e-07
7.42296e-08
-1.66039e-07
7.64949e-08
-1.81429e-07
7.83734e-08
-1.97078e-07
7.98655e-08
-2.12914e-07
8.09738e-08
-2.28869e-07
8.17026e-08
-2.44871e-07
8.2058e-08
-2.60854e-07
8.20472e-08
-2.76751e-07
8.16788e-08
-2.92495e-07
8.09623e-08
-3.08023e-07
7.99079e-08
-3.23274e-07
7.85266e-08
-3.38188e-07
7.68301e-08
-3.52706e-07
7.48305e-08
-3.66775e-07
7.25405e-08
-3.80341e-07
6.9973e-08
-3.93353e-07
6.71415e-08
-4.05765e-07
6.40595e-08
-4.1753e-07
6.07411e-08
-4.28606e-07
5.72005e-08
-4.38954e-07
5.3452e-08
-4.48536e-07
4.95104e-08
-4.57319e-07
4.53904e-08
-4.6527e-07
4.11073e-08
-4.72363e-07
3.66762e-08
-4.7857e-07
3.21127e-08
-4.83871e-07
2.74323e-08
-4.88246e-07
2.2651e-08
-4.91678e-07
1.77849e-08
-4.94156e-07
1.28502e-08
-4.95668e-07
7.86335e-09
-4.96208e-07
2.84113e-09
-4.95774e-07
-2.19964e-09
-4.94364e-07
-7.24187e-09
-4.91982e-07
-1.22683e-08
-4.88635e-07
-1.72616e-08
-4.84333e-07
-2.2204e-08
-4.79088e-07
-2.70779e-08
-4.72918e-07
-3.18655e-08
-4.65843e-07
-3.65487e-08
-4.57887e-07
-4.11096e-08
-4.49076e-07
-4.55301e-08
-4.3944e-07
-4.97922e-08
-4.29015e-07
-5.3878e-08
-4.17836e-07
-5.77696e-08
-4.05944e-07
-6.14493e-08
-3.93383e-07
-6.48997e-08
-3.802e-07
-6.81035e-08
-3.66445e-07
-7.10441e-08
-3.52171e-07
-7.37049e-08
-3.37434e-07
-7.60702e-08
-3.22293e-07
-7.81248e-08
-3.06808e-07
-7.98542e-08
-2.91044e-07
-8.12448e-08
-2.75067e-07
-8.22839e-08
-2.58945e-07
-8.29597e-08
-2.42747e-07
-8.3262e-08
-2.26545e-07
-8.31816e-08
-2.10411e-07
-8.2711e-08
-1.94419e-07
-8.18443e-08
-1.78641e-07
-8.05776e-08
-1.63153e-07
-7.89091e-08
-1.48027e-07
-7.68393e-08
-1.33335e-07
-7.43716e-08
-1.19149e-07
-7.15122e-08
-1.05536e-07
-6.82711e-08
-9.25636e-08
-6.4662e-08
-8.02924e-08
-6.07034e-08
-6.87804e-08
-5.64188e-08
-5.80798e-08
-5.1838e-08
-4.82365e-08
-4.69982e-08
-3.92888e-08
-4.19447e-08
-3.12664e-08
-3.67329e-08
-2.41895e-08
-3.143e-08
-1.80671e-08
-2.61171e-08
-1.28966e-08
-2.08919e-08
-8.66206e-09
-1.58716e-08
-5.33404e-09
-1.11965e-08
-2.86866e-09
-7.0346e-09
-1.20769e-09
-3.58493e-09
-2.79308e-10
-1.0827e-09
1.77939e-10
-4.19475e-10
3.98842e-10
-1.72456e-09
2.84439e-09
-3.96186e-09
6.54984e-09
-7.17215e-09
1.1206e-08
-1.13871e-08
1.65628e-08
-1.66278e-08
2.2407e-08
-2.29041e-08
2.85578e-08
-3.02144e-08
3.4864e-08
-3.85465e-08
4.11993e-08
-4.78778e-08
4.74589e-08
-5.81764e-08
5.35561e-08
-6.9402e-08
5.94202e-08
-8.1507e-08
6.49933e-08
-9.44373e-08
7.02292e-08
-1.08134e-07
7.50909e-08
-1.22532e-07
7.95496e-08
-1.37565e-07
8.35836e-08
-1.53162e-07
8.71768e-08
-1.6925e-07
9.03181e-08
-1.85756e-07
9.30008e-08
-2.02605e-07
9.52218e-08
-2.1972e-07
9.69808e-08
-2.37027e-07
9.82806e-08
-2.5445e-07
9.91259e-08
-2.71916e-07
9.95236e-08
-2.89351e-07
9.94819e-08
-3.06683e-07
9.90108e-08
-3.23842e-07
9.81213e-08
-3.40759e-07
9.68256e-08
-3.5737e-07
9.51366e-08
-3.73608e-07
9.30682e-08
-3.89412e-07
9.06348e-08
-4.04723e-07
8.78515e-08
-4.19484e-07
8.47338e-08
-4.3364e-07
8.12977e-08
-4.4714e-07
7.75596e-08
-4.59935e-07
7.35364e-08
-4.7198e-07
6.92451e-08
-4.83231e-07
6.4703e-08
-4.93649e-07
5.99279e-08
-5.03196e-07
5.49377e-08
-5.11839e-07
4.97505e-08
-5.19548e-07
4.43849e-08
-5.26294e-07
3.88594e-08
-5.32055e-07
3.31931e-08
-5.36809e-07
2.74051e-08
-5.40539e-07
2.15149e-08
-5.43231e-07
1.55421e-08
-5.44874e-07
9.50655e-09
-5.45462e-07
3.42852e-09
-5.4499e-07
-2.67164e-09
-5.43458e-07
-8.77334e-09
-5.40871e-07
-1.48557e-08
-5.37235e-07
-2.08978e-08
-5.3256e-07
-2.68783e-08
-5.26862e-07
-3.27758e-08
-5.20159e-07
-3.85689e-08
-5.12472e-07
-4.42359e-08
-5.03826e-07
-4.97551e-08
-4.94252e-07
-5.51048e-08
-4.8378e-07
-6.02634e-08
-4.72449e-07
-6.52091e-08
-4.60298e-07
-6.99207e-08
-4.47371e-07
-7.43767e-08
-4.33714e-07
-7.85563e-08
-4.19379e-07
-8.24389e-08
-4.04419e-07
-8.60042e-08
-3.88891e-07
-8.92328e-08
-3.72855e-07
-9.21058e-08
-3.56375e-07
-9.46048e-08
-3.39517e-07
-9.67128e-08
-3.22348e-07
-9.84134e-08
-3.0494e-07
-9.96917e-08
-2.87366e-07
-1.00534e-07
-2.69701e-07
-1.00927e-07
-2.5202e-07
-1.00862e-07
-2.34403e-07
-1.00329e-07
-2.16926e-07
-9.93208e-08
-1.9967e-07
-9.78341e-08
-1.82712e-07
-9.58667e-08
-1.66132e-07
-9.34196e-08
-1.50006e-07
-9.04974e-08
-1.34411e-07
-8.71079e-08
-1.19418e-07
-8.32632e-08
-1.051e-07
-7.89803e-08
-9.15223e-08
-7.42812e-08
-7.87468e-08
-6.91942e-08
-6.68302e-08
-6.37546e-08
-5.58227e-08
-5.80058e-08
-4.57669e-08
-5.20005e-08
-3.66973e-08
-4.58024e-08
-2.86392e-08
-3.94881e-08
-2.16076e-08
-3.31488e-08
-1.56063e-08
-2.68932e-08
-1.06279e-08
-2.085e-08
-6.65284e-09
-1.51716e-08
-3.6497e-09
-1.00377e-08
-1.57586e-09
-5.65877e-09
-3.78959e-10
-2.2796e-09
-2.0102e-10
-5.20658e-10
9.19495e-10
-2.10156e-09
4.42528e-09
-4.76533e-09
9.21361e-09
-8.53248e-09
1.49732e-08
-1.34177e-08
2.1448e-08
-1.94279e-08
2.84172e-08
-2.65612e-08
3.56911e-08
-3.48062e-08
4.3109e-08
-4.41423e-08
5.05354e-08
-5.45399e-08
5.78564e-08
-6.59609e-08
6.49771e-08
-7.83594e-08
7.18187e-08
-9.16828e-08
7.83168e-08
-1.05872e-07
8.44188e-08
-1.20864e-07
9.00827e-08
-1.3659e-07
9.52753e-08
-1.52977e-07
9.99711e-08
-1.69952e-07
1.04151e-07
-1.87437e-07
1.07803e-07
-2.05353e-07
1.10917e-07
-2.23622e-07
1.1349e-07
-2.42162e-07
1.15521e-07
-2.60895e-07
1.17013e-07
-2.7974e-07
1.17971e-07
-2.98619e-07
1.18403e-07
-3.17455e-07
1.18317e-07
-3.3617e-07
1.17726e-07
-3.5469e-07
1.16642e-07
-3.72943e-07
1.15079e-07
-3.90858e-07
1.13051e-07
-4.08367e-07
1.10577e-07
-4.25403e-07
1.07671e-07
-4.41903e-07
1.04352e-07
-4.57807e-07
1.00638e-07
-4.73056e-07
9.65473e-08
-4.87597e-07
9.21e-08
-5.01376e-07
8.73155e-08
-5.14345e-07
8.2214e-08
-5.26458e-07
7.6816e-08
-5.37672e-07
7.11424e-08
-5.47949e-07
6.52144e-08
-5.57252e-07
5.90534e-08
-5.65548e-07
5.26814e-08
-5.7281e-07
4.61204e-08
-5.79009e-07
3.93929e-08
-5.84126e-07
3.25216e-08
-5.8814e-07
2.55294e-08
-5.91038e-07
1.84398e-08
-5.92808e-07
1.12761e-08
-5.93442e-07
4.06237e-09
-5.92936e-07
-3.17734e-09
-5.91291e-07
-1.04186e-08
-5.88509e-07
-1.76368e-08
-5.846e-07
-2.48071e-08
-5.79574e-07
-3.19043e-08
-5.73447e-07
-3.89031e-08
-5.66237e-07
-4.57782e-08
-5.57969e-07
-5.2504e-08
-5.4867e-07
-5.90549e-08
-5.38369e-07
-6.54052e-08
-5.27103e-07
-7.15294e-08
-5.1491e-07
-7.74019e-08
-5.01833e-07
-8.29976e-08
-4.87919e-07
-8.82913e-08
-4.73217e-07
-9.32583e-08
-4.57781e-07
-9.78746e-08
-4.41669e-07
-1.02116e-07
-4.24942e-07
-1.0596e-07
-4.07663e-07
-1.09385e-07
-3.89899e-07
-1.12368e-07
-3.71722e-07
-1.1489e-07
-3.53203e-07
-1.16932e-07
-3.34418e-07
-1.18477e-07
-3.15444e-07
-1.19507e-07
-2.96362e-07
-1.2001e-07
-2.77252e-07
-1.19972e-07
-2.58196e-07
-1.19384e-07
-2.39278e-07
-1.18239e-07
-2.20582e-07
-1.1653e-07
-2.02191e-07
-1.14257e-07
-1.84189e-07
-1.11422e-07
-1.66657e-07
-1.08029e-07
-1.49676e-07
-1.04089e-07
-1.33324e-07
-9.96156e-08
-1.17675e-07
-9.46291e-08
-1.02801e-07
-8.91552e-08
-8.8768e-08
-8.3227e-08
-7.56376e-08
-7.68851e-08
-6.34643e-08
-7.01791e-08
-5.22959e-08
-6.31689e-08
-4.21722e-08
-5.59262e-08
-3.31242e-08
-4.85361e-08
-2.51737e-08
-4.10994e-08
-1.83323e-08
-3.37345e-08
-1.26017e-08
-2.65806e-08
-7.97322e-09
-1.98001e-08
-4.42856e-09
-1.35824e-08
-1.9409e-09
-8.14644e-09
-4.76833e-10
-3.74367e-09
-6.77853e-10
-6.19271e-10
1.53877e-09
-2.47183e-09
6.27784e-09
-5.55841e-09
1.23002e-08
-9.88025e-09
1.9295e-08
-1.54353e-08
2.70031e-08
-2.22162e-08
3.51981e-08
-3.02088e-08
4.36836e-08
-3.93911e-08
5.22914e-08
-4.97337e-08
6.0878e-08
-6.1199e-08
6.93218e-08
-7.37422e-08
7.75202e-08
-8.73112e-08
8.53878e-08
-1.01848e-07
9.28536e-08
-1.17289e-07
9.98595e-08
-1.33565e-07
1.06358e-07
-1.50602e-07
1.12313e-07
-1.68326e-07
1.17695e-07
-1.86657e-07
1.22482e-07
-2.05512e-07
1.26658e-07
-2.2481e-07
1.30215e-07
-2.44467e-07
1.33147e-07
-2.64398e-07
1.35452e-07
-2.84519e-07
1.37135e-07
-3.04746e-07
1.38199e-07
-3.24997e-07
1.38654e-07
-3.45189e-07
1.38509e-07
-3.65243e-07
1.37779e-07
-3.85079e-07
1.36478e-07
-4.0462e-07
1.3462e-07
-4.23793e-07
1.32224e-07
-4.42525e-07
1.29308e-07
-4.60746e-07
1.25892e-07
-4.78389e-07
1.21995e-07
-4.95391e-07
1.1764e-07
-5.1169e-07
1.12847e-07
-5.27229e-07
1.07638e-07
-5.41951e-07
1.02038e-07
-5.55806e-07
9.6069e-08
-5.68745e-07
8.97551e-08
-5.80724e-07
8.31205e-08
-5.91699e-07
7.61899e-08
-6.01634e-07
6.89884e-08
-6.10494e-07
6.15413e-08
-6.18248e-07
5.38744e-08
-6.24869e-07
4.60139e-08
-6.30333e-07
3.7986e-08
-6.34622e-07
2.98177e-08
-6.37718e-07
2.15361e-08
-6.3961e-07
1.31685e-08
-6.40291e-07
4.74286e-09
-6.39755e-07
-3.71282e-09
-6.38004e-07
-1.21701e-08
-6.3504e-07
-2.06004e-08
-6.30873e-07
-2.89746e-08
-6.25513e-07
-3.72637e-08
-6.18978e-07
-4.54381e-08
-6.11288e-07
-5.34684e-08