/*--------------------------------*- C++ -*----------------------------------*\
| =========                 |                                                 |
| \\      /  F ield         | OpenFOAM: The Open Source CFD Toolbox           |
|  \\    /   O peration     | Version:  2212                                  |
|   \\  /    A nd           | Website:  www.openfoam.com                      |
|    \\/     M anipulation  |                                                 |
\*---------------------------------------------------------------------------*/
FoamFile
{
    version     2.0;
    format      ascii;
    arch        "LSB;label=32;scalar=64";
    class       volScalarField;
    location    "0.0125";
    object      p;
}
// * * * * * * * * * * * * * * * * * * * * * * * * * * * * * * * * * * * * * //

dimensions      [0 2 -2 0 0 0 0];

internalField   nonuniform List<scalar> 
10000
(
9.02696e-08
-0.00117269
-0.00310704
-0.00514053
-0.00699987
-0.00876711
-0.0104526
-0.0120506
-0.0135506
-0.0149414
-0.016211
-0.0173483
-0.0183449
-0.0191952
-0.0198943
-0.0204368
-0.0208187
-0.0210385
-0.0210963
-0.0209931
-0.0207299
-0.0203087
-0.0197321
-0.0190029
-0.0181232
-0.0170957
-0.0159239
-0.0146118
-0.0131642
-0.0115859
-0.00988164
-0.00805621
-0.00611442
-0.00406128
-0.00190232
0.000356448
0.00270877
0.00514829
0.00766875
0.0102643
0.0129294
0.0156581
0.018444
0.021281
0.0241629
0.0270838
0.0300377
0.0330188
0.0360213
0.0390391
0.0420658
0.0450947
0.0481197
0.051135
0.0541345
0.0571118
0.0600601
0.0629728
0.0658438
0.0686674
0.0714375
0.0741472
0.0767897
0.0793582
0.0818461
0.0842473
0.0865557
0.088765
0.0908688
0.0928611
0.0947366
0.0964905
0.0981187
0.0996168
0.10098
0.102205
0.103286
0.104222
0.105011
0.105651
0.106142
0.106484
0.106677
0.106721
0.106621
0.106379
0.106004
0.105503
0.104886
0.104166
0.103359
0.102484
0.101565
0.100633
0.0997214
0.0988748
0.0981447
0.0975921
0.0972875
0.09725
-0.00110087
-0.00218669
-0.00373116
-0.00537681
-0.00697599
-0.00852031
-0.010004
-0.0114178
-0.0127503
-0.0139895
-0.0151243
-0.0161427
-0.0170344
-0.0177922
-0.0184109
-0.0188858
-0.0192129
-0.0193896
-0.0194154
-0.0192905
-0.0190152
-0.0185906
-0.0180181
-0.0172997
-0.0164381
-0.0154359
-0.0142956
-0.0130208
-0.0116152
-0.010083
-0.00842881
-0.00665737
-0.00477308
-0.0027807
-0.000685835
0.00150584
0.00378885
0.00615735
0.00860513
0.0111262
0.0137151
0.016366
0.0190731
0.0218304
0.0246321
0.0274722
0.0303443
0.0332427
0.0361619
0.0390963
0.0420397
0.0449854
0.0479269
0.0508583
0.0537739
0.0566678
0.0595335
0.0623646
0.0651549
0.0678984
0.0705891
0.0732206
0.0757866
0.0782807
0.0806965
0.0830281
0.0852693
0.0874142
0.0894572
0.0913927
0.0932157
0.0949215
0.0965061
0.0979654
0.0992955
0.100493
0.101554
0.102477
0.103261
0.103904
0.104407
0.104769
0.104992
0.105077
0.105028
0.104851
0.10455
0.104137
0.10362
0.103014
0.102332
0.101593
0.100819
0.100037
0.099277
0.0985755
0.0979719
0.0975104
0.0972463
0.0972091
-0.00243644
-0.00321251
-0.00433309
-0.00564326
-0.00700246
-0.00835485
-0.00967355
-0.0109405
-0.01214
-0.0132588
-0.0142852
-0.0152079
-0.0160156
-0.0166991
-0.0172526
-0.0176719
-0.017953
-0.0180929
-0.0180904
-0.0179454
-0.0176579
-0.0172283
-0.0166573
-0.0159461
-0.015097
-0.0141129
-0.0129962
-0.0117495
-0.0103764
-0.00888052
-0.00726592
-0.005537
-0.00369809
-0.00175387
0.000290196
0.00242859
0.00465612
0.00696743
0.00935668
0.0118181
0.0143459
0.0169344
0.0195779
0.022271
0.025008
0.0277829
0.0305893
0.0334212
0.0362733
0.0391403
0.0420164
0.0448948
0.0477692
0.0506333
0.0534815
0.056308
0.0591071
0.0618723
0.0645977
0.0672768
0.0699038
0.0724726
0.0749772
0.0774116
0.0797697
0.0820456
0.0842333
0.0863272
0.0883219
0.0902124
0.091994
0.0936623
0.0952132
0.0966427
0.0979472
0.0991237
0.10017
0.101084
0.101865
0.102512
0.103025
0.103405
0.103652
0.103769
0.10376
0.103631
0.103388
0.103041
0.102598
0.102074
0.101481
0.100838
0.100162
0.0994783
0.098813
0.0981961
0.0976598
0.0972382
0.0969745
0.096898
-0.00338153
-0.00395043
-0.00481449
-0.00588259
-0.00704648
-0.00823944
-0.00942233
-0.01057
-0.0116628
-0.0126842
-0.0136215
-0.014464
-0.015201
-0.0158226
-0.0163219
-0.016694
-0.0169355
-0.0170433
-0.0170155
-0.0168515
-0.0165513
-0.0161152
-0.0155433
-0.0148365
-0.0139966
-0.0130257
-0.0119264
-0.0107014
-0.00935381
-0.00788691
-0.0063045
-0.00461054
-0.00280893
-0.00090422
0.00109813
0.00319269
0.00537448
0.00763834
0.0099787
0.0123901
0.0148672
0.0174043
0.0199954
0.0226351
0.025318
0.0280385
0.0307903
0.0335672
0.0363639
0.039175
0.0419949
0.0448171
0.0476352
0.0504434
0.0532358
0.0560067
0.0587502
0.0614605
0.0641312
0.0667566
0.0693307
0.0718475
0.0743011
0.0766857
0.0789956
0.0812252
0.0833688
0.085421
0.0873764
0.0892302
0.0909782
0.0926161
0.09414
0.0955461
0.096831
0.0979919
0.0990267
0.0999344
0.100714
0.101365
0.101888
0.102282
0.102548
0.102691
0.102714
0.102623
0.102424
0.102126
0.101738
0.101273
0.100742
0.100163
0.0995514
0.098928
0.0983156
0.0977396
0.0972266
0.0968047
0.096502
0.0963365
-0.00379888
-0.00435922
-0.00511796
-0.00603944
-0.00706198
-0.00812859
-0.00919845
-0.0102442
-0.0112452
-0.0121832
-0.0130434
-0.0138147
-0.0144874
-0.0150525
-0.0155023
-0.0158312
-0.0160358
-0.0161134
-0.0160619
-0.0158798
-0.0155667
-0.0151228
-0.0145484
-0.0138442
-0.0130114
-0.0120518
-0.0109674
-0.00976086
-0.00843541
-0.00699399
-0.00543993
-0.00377694
-0.00200884
-0.000139985
0.00182449
0.00387951
0.00602024
0.00824145
0.0105376
0.0129036
0.0153345
0.017825
0.020369
0.0229608
0.0255951
0.0282663
0.0309684
0.0336955
0.0364422
0.0392032
0.0419725
0.0447437
0.0475107
0.0502679
0.0530098
0.0557306
0.0584243
0.0610847
0.0637058
0.0662821
0.0688081
0.0712778
0.0736855
0.0760252
0.0782913
0.0804789
0.0825826
0.0845973
0.0865178
0.0883393
0.0900574
0.0916682
0.0931683
0.0945539
0.0958219
0.0969698
0.0979957
0.0988984
0.0996775
0.100332
0.100863
0.10127
0.101554
0.101719
0.101769
0.101709
0.101547
0.101289
0.100946
0.100526
0.100044
0.099511
0.0989438
0.0983595
0.0977771
0.0972172
0.0967024
0.0962553
0.0958857
0.0955962
-0.00388645
-0.00451366
-0.00525249
-0.00610027
-0.00703424
-0.00801136
-0.00899499
-0.00995857
-0.0108829
-0.0117505
-0.0125458
-0.0132565
-0.0138732
-0.0143881
-0.0147934
-0.0150836
-0.0152548
-0.0153044
-0.0152305
-0.0150314
-0.014706
-0.0142542
-0.0136763
-0.012973
-0.0121453
-0.0111947
-0.0101228
-0.00893238
-0.00762617
-0.00620685
-0.00467743
-0.00304151
-0.00130288
0.000534207
0.00246491
0.00448454
0.00658858
0.00877193
0.011029
0.0133548
0.0157446
0.0181934
0.0206954
0.0232447
0.025836
0.0284635
0.0311214
0.0338041
0.0365064
0.0392229
0.0419474
0.0446736
0.0473952
0.050107
0.0528038
0.0554801
0.0581294
0.0607455
0.0633225
0.0658551
0.0683381
0.070766
0.0731328
0.0754327
0.0776602
0.0798105
0.0818788
0.0838603
0.0857499
0.087543
0.0892352
0.0908227
0.0923021
0.09367
0.0949236
0.0960605
0.0970791
0.0979782
0.0987572
0.0994155
0.0999532
0.100371
0.10067
0.100854
0.100926
0.100893
0.10076
0.100534
0.100225
0.0998407
0.0993923
0.0988917
0.0983523
0.0977889
0.0972174
0.0966541
0.0961177
0.0956263
0.0951712
0.0947385
-0.00375453
-0.00448341
-0.00525064
-0.00607526
-0.00696365
-0.00788504
-0.00880951
-0.00971284
-0.010577
-0.011387
-0.0121286
-0.0127891
-0.0133589
-0.0138305
-0.0141972
-0.0144535
-0.0145954
-0.01462
-0.0145255
-0.0143103
-0.0139732
-0.0135137
-0.012932
-0.0122284
-0.011404
-0.0104601
-0.00939853
-0.00822148
-0.00693152
-0.00553099
-0.00402271
-0.00241015
-0.000696955
0.00111277
0.00301434
0.00500323
0.0070752
0.00922543
0.0114485
0.0137395
0.0160939
0.0185066
0.0209718
0.023484
0.0260378
0.0286275
0.0312474
0.0338918
0.0365554
0.0392331
0.0419186
0.0446057
0.0472882
0.0499609
0.0526188
0.0552561
0.0578665
0.060444
0.0629827
0.0654777
0.0679237
0.0703153
0.0726465
0.0749119
0.0771061
0.0792245
0.0812623
0.0832151
0.085078
0.0868465
0.0885164
0.0900842
0.0915464
0.0928996
0.0941413
0.0952691
0.0962816
0.0971777
0.0979567
0.0986181
0.0991619
0.0995888
0.0999006
0.1001
0.100191
0.100179
0.100069
0.0998676
0.0995828
0.099223
0.0987973
0.0983159
0.0977901
0.0972325
0.0966559
0.0960732
0.0955
0.0949505
0.0943981
0.0938142
-0.00348223
-0.00432854
-0.005151
-0.00598559
-0.00686031
-0.00775294
-0.00864097
-0.00950394
-0.0103248
-0.0110903
-0.0117887
-0.0124084
-0.0129397
-0.013375
-0.0137087
-0.013936
-0.0140526
-0.0140555
-0.0139427
-0.0137126
-0.0133644
-0.0128973
-0.0123113
-0.0116066
-0.0107841
-0.00984531
-0.00879175
-0.0076255
-0.00634876
-0.00496371
-0.00347312
-0.00188038
-0.000188887
0.00159758
0.00347453
0.00543749
0.00748221
0.00960404
0.011798
0.0140593
0.0163837
0.0187658
0.0211998
0.0236801
0.0262016
0.0287591
0.0313467
0.0339587
0.0365895
0.039234
0.0418862
0.0445398
0.0471891
0.0498286
0.0524533
0.0550574
0.0576345
0.0601788
0.0626849
0.0651479
0.0675627
0.0699236
0.0722249
0.0744609
0.0766268
0.0787181
0.0807303
0.0826589
0.0844992
0.086247
0.0878982
0.0894495
0.0908973
0.0922385
0.0934704
0.0945909
0.0955984
0.096492
0.0972709
0.0979349
0.098484
0.0989189
0.0992412
0.0994536
0.0995597
0.0995637
0.0994707
0.0992868
0.0990191
0.0986748
0.098262
0.0977892
0.0972657
0.0967018
0.0961077
0.0954937
0.0948726
0.0942557
0.0936002
0.092864
-0.00312831
-0.00409793
-0.00498984
-0.00585526
-0.00673968
-0.00762491
-0.00849431
-0.00933277
-0.0101252
-0.0108591
-0.0115246
-0.012112
-0.0126125
-0.0130186
-0.013325
-0.0135277
-0.0136226
-0.0136068
-0.0134779
-0.0132347
-0.0128761
-0.0124015
-0.0118108
-0.0111041
-0.0102823
-0.00934687
-0.00829927
-0.00714129
-0.00587489
-0.00450214
-0.0030258
-0.00144921
0.000224488
0.00199179
0.00384839
0.00578991
0.00781218
0.00991066
0.0120805
0.0143173
0.0166166
0.0189733
0.0213813
0.0238352
0.0263299
0.0288605
0.0314212
0.034006
0.0366096
0.0392265
0.0418509
0.0444767
0.0470981
0.0497099
0.0523068
0.0548831
0.0574324
0.0599491
0.062428
0.0648644
0.0672534
0.0695891
0.0718656
0.0740776
0.0762202
0.0782891
0.0802801
0.0821888
0.0840107
0.0857415
0.0873775
0.0889151
0.0903511
0.0916825
0.0929065
0.0940211
0.0950247
0.0959162
0.0966952
0.0973614
0.097915
0.0983566
0.0986875
0.0989101
0.0990273
0.0990433
0.0989625
0.0987905
0.0985334
0.0981975
0.0977894
0.0973162
0.0967857
0.0962061
0.0955854
0.0949313
0.0942547
0.0935649
0.0928044
0.0919194
-0.00273708
-0.00383061
-0.00479933
-0.00570774
-0.00661772
-0.00751246
-0.00837799
-0.00920469
-0.00998061
-0.0106943
-0.0113367
-0.0118999
-0.0123764
-0.0127596
-0.0130446
-0.013227
-0.0133036
-0.0132716
-0.0131289
-0.012874
-0.0125059
-0.0120238
-0.0114278
-0.0107182
-0.00989587
-0.00896215
-0.0079183
-0.00676597
-0.0055071
-0.00414364
-0.00267819
-0.00111394
0.000546094
0.0022985
0.00413903
0.00606349
0.00806797
0.0101481
0.0122991
0.0145165
0.0167958
0.019132
0.021519
0.0239517
0.0264252
0.0289343
0.0314732
0.034036
0.0366174
0.0392121
0.041814
0.0444174
0.0470162
0.0496054
0.0521797
0.0547333
0.0572601
0.0597546
0.0622117
0.064627
0.0669952
0.0693108
0.0715677
0.0737605
0.0758847
0.077936
0.0799103
0.0818033
0.0836106
0.0853281
0.086952
0.0884788
0.0899055
0.091229
0.0924468
0.0935568
0.0945574
0.0954476
0.0962269
0.0968952
0.0974525
0.0978995
0.0982371
0.0984673
0.0985928
0.0986169
0.098544
0.0983788
0.0981267
0.0977928
0.0973825
0.0969017
0.0963566
0.0957538
0.0950995
0.094399
0.0936622
0.0928966
0.092032
0.0910046
-0.00234192
-0.0035581
-0.00460755
-0.00556559
-0.00651051
-0.00742708
-0.00830122
-0.00912687
-0.00989588
-0.0105987
-0.0112267
-0.0117731
-0.0122321
-0.0125982
-0.0128664
-0.0130328
-0.0130943
-0.0130487
-0.012894
-0.0126286
-0.0122514
-0.0117619
-0.0111602
-0.0104468
-0.00962262
-0.00868873
-0.00764631
-0.00649701
-0.00524277
-0.00388547
-0.0024275
-0.000871816
0.000778637
0.00252042
0.00434932
0.00626127
0.00825267
0.0103194
0.0124565
0.0146595
0.0169239
0.0192446
0.0216158
0.0240324
0.0264897
0.0289825
0.0315048
0.0340508
0.036615
0.0391923
0.0417769
0.044363
0.0469445
0.0495162
0.0520729
0.0546088
0.0571183
0.0595958
0.0620365
0.0644357
0.0667883
0.0690886
0.0713307
0.0735092
0.0756197
0.077658
0.07962
0.0815015
0.0832981
0.0850056
0.0866204
0.0881391
0.0895588
0.0908765
0.0920898
0.0931966
0.0941953
0.095085
0.095865
0.0965352
0.0970956
0.0975466
0.0978891
0.0981247
0.0982555
0.0982846
0.0982157
0.0980529
0.0978007
0.0974632
0.0970448
0.0965501
0.0959842
0.0953524
0.0946592
0.0939082
0.0931084
0.0922662
0.0913003
0.0901383
-0.00196933
-0.00330468
-0.0044371
-0.00544953
-0.00643461
-0.00738057
-0.00827304
-0.00910694
-0.00987711
-0.0105763
-0.0111973
-0.011734
-0.0121815
-0.0125352
-0.0127908
-0.0129447
-0.0129943
-0.0129374
-0.0127722
-0.012497
-0.0121111
-0.0116141
-0.0110063
-0.0102881
-0.00946048
-0.00852449
-0.00748124
-0.0063324
-0.00507987
-0.0037254
-0.00227129
-0.000720429
0.000924324
0.00265963
0.00448131
0.00638542
0.00836852
0.0104265
0.0125546
0.0147481
0.0170025
0.0193128
0.0216733
0.0240789
0.026525
0.0290064
0.0315172
0.0340513
0.0366033
0.0391683
0.0417406
0.0443143
0.0468834
0.0494427
0.0519868
0.0545104
0.0570078
0.0594735
0.0619029
0.0642911
0.066633
0.0689228
0.0711548
0.0733238
0.0754252
0.077455
0.0794091
0.0812832
0.0830728
0.0847737
0.0863822
0.0878954
0.0893103
0.0906243
0.0918349
0.0929401
0.0939382
0.094828
0.0956091
0.0962812
0.0968441
0.0972981
0.0976438
0.0978825
0.0980162
0.0980474
0.0979789
0.0978144
0.0975573
0.0972112
0.0967794
0.0962656
0.095674
0.0950086
0.0942727
0.0934687
0.0926047
0.091687
0.0906242
0.0893361
-0.00164178
-0.00309013
-0.00430568
-0.00537635
-0.00640547
-0.00738527
-0.00830263
-0.00915234
-0.00993058
-0.0106324
-0.0112524
-0.0117853
-0.0122266
-0.0125722
-0.0128188
-0.0129635
-0.0130037
-0.0129374
-0.0127628
-0.0124786
-0.0120842
-0.0115795
-0.0109649
-0.0102408
-0.0094081
-0.00846804
-0.00742176
-0.00627086
-0.00501709
-0.00366213
-0.00220828
-0.000658475
0.000984429
0.00271723
0.00453595
0.00643677
0.00841626
0.0104703
0.012594
0.0147826
0.0170319
0.0193367
0.0216915
0.0240911
0.026531
0.029006
0.0315101
0.0340371
0.0365819
0.0391396
0.0417047
0.0442711
0.0468328
0.0493847
0.0519215
0.054438
0.0569286
0.0593879
0.0618109
0.0641931
0.0665291
0.0688134
0.0710401
0.0732042
0.0753011
0.0773267
0.0792771
0.0811477
0.082934
0.0846315
0.0862368
0.087747
0.0891596
0.0904721
0.0916821
0.0927873
0.0937861
0.094677
0.0954596
0.0961335
0.0966984
0.0971545
0.0975021
0.0977422
0.0978764
0.0979067
0.0978354
0.0976652
0.0973991
0.0970399
0.0965902
0.0960531
0.0954318
0.0947296
0.0939485
0.0930901
0.0921624
0.0911713
0.0900166
0.0886114
-0.00137881
-0.00293197
-0.00422791
-0.00535921
-0.00643616
-0.0074531
-0.00839925
-0.00927026
-0.0100625
-0.0107726
-0.0113967
-0.0119305
-0.0123697
-0.0127112
-0.0129522
-0.0130904
-0.0131234
-0.0130491
-0.012866
-0.0125733
-0.0121707
-0.011658
-0.0110358
-0.0103045
-0.00946514
-0.00851909
-0.00746751
-0.00631193
-0.00505402
-0.00369538
-0.00223837
-0.000686026
0.000958845
0.00269315
0.00451307
0.00641488
0.0083952
0.0104498
0.0125736
0.0147621
0.0170109
0.019315
0.021669
0.0240676
0.0265062
0.0289797
0.0314818
0.0340067
0.0365492
0.0391046
0.0416676
0.0442318
0.0467913
0.0493409
0.0518757
0.0543906
0.0568798
0.0593379
0.0617598
0.0641409
0.066476
0.0687596
0.0709859
0.0731497
0.0752465
0.0772724
0.0792231
0.0810941
0.0828806
0.0845781
0.0861833
0.0876935
0.0891065
0.09042
0.0916315
0.0927386
0.0937394
0.0946325
0.0954172
0.0960931
0.0966599
0.0971174
0.0974658
0.0977058
0.0978385
0.0978652
0.0977878
0.0976086
0.0973298
0.0969536
0.0964824
0.0959186
0.0952648
0.0945234
0.0936958
0.0927828
0.0917925
0.0907309
0.0894897
0.0879757
-0.00119563
-0.00284555
-0.00421738
-0.00540949
-0.00653711
-0.00759426
-0.00857201
-0.00946799
-0.0102791
-0.0110024
-0.0116348
-0.0121731
-0.0126139
-0.0129547
-0.0131932
-0.0133271
-0.0133543
-0.0132731
-0.0130825
-0.0127819
-0.012371
-0.01185
-0.0112192
-0.0104795
-0.00963207
-0.0086782
-0.00761906
-0.00645613
-0.00519115
-0.0038258
-0.00236245
-0.000804137
0.000846397
0.00258618
0.00441141
0.00631839
0.00830372
0.0103631
0.0124916
0.0146844
0.0169374
0.0192457
0.0216035
0.0240059
0.026448
0.0289247
0.0314298
0.0339575
0.0365028
0.0390611
0.0416269
0.0441941
0.0467567
0.0493094
0.0518477
0.0543664
0.0568596
0.0593218
0.0617479
0.0641332
0.0664725
0.0687603
0.0709908
0.0731589
0.0752603
0.0772907
0.0792459
0.0811211
0.0829115
0.0846126
0.0862211
0.0877347
0.0891512
0.0904683
0.0916836
0.0927946
0.0937991
0.0946956
0.0954834
0.0961619
0.0967307
0.0971893
0.0975377
0.0977762
0.0979054
0.0979262
0.0978401
0.0976488
0.0973542
0.0969583
0.0964628
0.0958697
0.0951812
0.0943992
0.0935246
0.0925576
0.0915065
0.0903774
0.0890547
0.0874391
-0.00110185
-0.00284297
-0.00428665
-0.00553774
-0.00671706
-0.00781704
-0.00882921
-0.00975295
-0.0105864
-0.0113265
-0.0119708
-0.0125169
-0.0129626
-0.0133056
-0.0135438
-0.0136751
-0.0136979
-0.0136111
-0.0134137
-0.0131055
-0.0126863
-0.0121562
-0.0115161
-0.0107669
-0.00990991
-0.00894638
-0.00787742
-0.00670458
-0.00542974
-0.00405471
-0.00258192
-0.0010143
0.000645523
0.00239462
0.00422918
0.00614541
0.00813987
0.0102083
0.0123457
0.0145474
0.0168092
0.0191262
0.0214927
0.0239035
0.0263539
0.0288387
0.0313517
0.0338873
0.0364405
0.0390068
0.0415808
0.0441563
0.0467272
0.0492886
0.0518359
0.0543638
0.0568665
0.0593382
0.0617738
0.0641685
0.0665172
0.0688142
0.0710538
0.0732309
0.0753411
0.0773804
0.0793443
0.0812279
0.083026
0.0847345
0.0863501
0.0878706
0.0892939
0.0906178
0.0918395
0.0929565
0.0939665
0.094868
0.0956601
0.0963421
0.0969134
0.097373
0.0977208
0.0979566
0.0980808
0.0980938
0.0979968
0.0977911
0.0974785
0.0970605
0.0965386
0.0959145
0.0951899
0.0943667
0.0934451
0.0924249
0.0913147
0.0901208
0.0887207
0.0870097
-0.00110322
-0.00293257
-0.00444566
-0.00575358
-0.00698421
-0.00812869
-0.00917786
-0.0101319
-0.0109899
-0.0117497
-0.012409
-0.0129659
-0.0134191
-0.0137664
-0.0140061
-0.0141363
-0.0141561
-0.0140645
-0.0138611
-0.0135454
-0.0131176
-0.012578
-0.0119278
-0.0111679
-0.0102998
-0.00932465
-0.00824364
-0.00705846
-0.00577115
-0.00438357
-0.00289818
-0.00131787
0.000354829
0.00211702
0.00396478
0.00589425
0.00790195
0.00998364
0.0121343
0.0143493
0.0166245
0.0189549
0.0213348
0.0237588
0.0262223
0.02872
0.031246
0.0337947
0.0363611
0.0389408
0.0415282
0.0441173
0.046702
0.0492776
0.0518393
0.054382
0.0568996
0.0593863
0.0618366
0.064246
0.0666092
0.0689204
0.071174
0.0733648
0.0754885
0.077541
0.0795178
0.0814139
0.083224
0.084944
0.0865707
0.0881019
0.0895355
0.0908691
0.0920999
0.0932254
0.0942431
0.0951514
0.0959493
0.0966358
0.09721
0.0976708
0.0980175
0.0982499
0.0983679
0.0983718
0.0982623
0.0980406
0.0977083
0.0972665
0.0967167
0.0960604
0.0952991
0.0944341
0.0934656
0.0923932
0.0912252
0.0899686
0.0884942
0.0866927
-0.00120456
-0.00312002
-0.00470155
-0.00606516
-0.0073462
-0.00853594
-0.00962392
-0.0106103
-0.011495
-0.0122766
-0.0129533
-0.0135236
-0.0139862
-0.0143395
-0.0145821
-0.0147127
-0.0147305
-0.0146351
-0.0144259
-0.0141027
-0.0136659
-0.0131164
-0.0124552
-0.0116835
-0.0108025
-0.00981379
-0.00871853
-0.00751864
-0.0062163
-0.00481335
-0.00331219
-0.00171571
-2.64904e-05
0.00175251
0.0036173
0.00556398
0.00758907
0.00968832
0.0118567
0.0140895
0.0163827
0.0187312
0.0211292
0.0235713
0.0260527
0.0285685
0.0311128
0.0336798
0.0362648
0.0388632
0.0414695
0.0440776
0.0466817
0.0492769
0.0518586
0.0544214
0.0569593
0.0594662
0.0619366
0.0643658
0.0667485
0.069079
0.0713513
0.0735605
0.0757023
0.0777725
0.0797665
0.0816793
0.0835057
0.0852414
0.0868833
0.088429
0.0898764
0.0912229
0.0924657
0.0936021
0.0946298
0.095547
0.0963521
0.0970442
0.0976219
0.098084
0.0984296
0.0986581
0.0987692
0.0987631
0.0986401
0.0984014
0.0980481
0.0975815
0.0970028
0.0963134
0.0955147
0.0946078
0.0935925
0.0924681
0.0912434
0.0899253
0.0883792
0.0864911
-0.00141148
-0.00341027
-0.00505941
-0.00647876
-0.00780985
-0.00904481
-0.0101726
-0.011193
-0.0121062
-0.0129114
-0.0136075
-0.0141929
-0.0146665
-0.0150272
-0.015274
-0.0154061
-0.015423
-0.015324
-0.0151091
-0.0147783
-0.0143323
-0.0137722
-0.013099
-0.012314
-0.0114186
-0.0104142
-0.00930253
-0.00808559
-0.00676558
-0.00534431
-0.00382415
-0.00220804
-0.000498665
0.0013009
0.00318661
0.00515452
0.00720119
0.00932237
0.0115129
0.0137682
0.016084
0.0184554
0.0208763
0.0233414
0.025846
0.0283852
0.0309531
0.033544
0.036153
0.0387756
0.0414063
0.0440389
0.0466678
0.0492881
0.0518951
0.0544833
0.0570467
0.0595789
0.0620746
0.0645286
0.0669357
0.0692902
0.0715862
0.0738186
0.075983
0.0780753
0.080091
0.0820249
0.0838718
0.0856273
0.0872883
0.0888523
0.0903169
0.0916796
0.0929373
0.0940874
0.0951274
0.0960552
0.0968693
0.0975679
0.0981499
0.0986136
0.0989582
0.0991829
0.099287
0.0992703
0.0991332
0.0988765
0.0985015
0.0980093
0.097401
0.096678
0.0958413
0.094892
0.0938296
0.0926533
0.0913722
0.0899937
0.0883777
0.0864064
-0.00172985
-0.00380849
-0.00552369
-0.00699894
-0.00838057
-0.00966068
-0.0108288
-0.0118845
-0.0128277
-0.0136581
-0.0143748
-0.0149767
-0.0154626
-0.0158318
-0.016084
-0.0162185
-0.0162348
-0.0161325
-0.0159119
-0.0155733
-0.0151177
-0.0145461
-0.0138597
-0.0130598
-0.012148
-0.0111261
-0.00999592
-0.00875948
-0.00741901
-0.00597635
-0.00443389
-0.00279469
-0.00106157
0.000762323
0.00267289
0.00466618
0.00673871
0.00888622
0.0111035
0.0133859
0.0157291
0.0181281
0.0205769
0.0230701
0.0256032
0.0281712
0.0307683
0.0333886
0.0360272
0.0386794
0.04134
0.0440027
0.046662
0.0493127
0.0519503
0.0545692
0.057163
0.0597257
0.0622514
0.0647352
0.0671717
0.069555
0.0718795
0.0741398
0.0763316
0.0784506
0.0804922
0.0824514
0.084323
0.0861025
0.0877865
0.0893723
0.0908576
0.0922396
0.0935153
0.0946818
0.0957363
0.0966766
0.0975009
0.0982074
0.0987944
0.0992606
0.0996047
0.0998258
0.0999229
0.0998956
0.0997439
0.0994688
0.0990715
0.0985532
0.0979148
0.0971574
0.0962822
0.0952898
0.0941797
0.0929512
0.0916138
0.0901756
0.0884915
0.0864399
-0.00216425
-0.00431968
-0.00609901
-0.00762971
-0.00906237
-0.0103882
-0.0115969
-0.0126886
-0.0136632
-0.01452
-0.0152583
-0.0158775
-0.0163769
-0.0167559
-0.0170142
-0.0171515
-0.0171675
-0.017062
-0.0168356
-0.0164889
-0.0160229
-0.0154387
-0.0147377
-0.0139213
-0.0129914
-0.0119501
-0.0107991
-0.00954056
-0.00817674
-0.00670952
-0.00514145
-0.00347573
-0.00171529
0.000136695
0.00207611
0.00409894
0.00620166
0.00837995
0.0106286
0.0129427
0.0153181
0.0177497
0.0202314
0.022758
0.025325
0.0279273
0.0305591
0.0332143
0.0358879
0.0385754
0.0412714
0.0439699
0.046665
0.0493516
0.052025
0.0546797
0.0573092
0.0599072
0.0624679
0.0649863
0.067457
0.0698743
0.0722322
0.0745253
0.0767491
0.0788993
0.0809713
0.0829601
0.0848605
0.0866678
0.0883786
0.0899899
0.0914993
0.0929038
0.0942004
0.0953859
0.0964572
0.0974118
0.0982477
0.0989632
0.0995566
0.100026
0.100371
0.100589
0.100679
0.100641
0.100474
0.100181
0.0997608
0.0992158
0.0985467
0.0977543
0.0968397
0.0958035
0.0946452
0.0933642
0.0919707
0.0904735
0.0887231
0.0865937
-0.00271734
-0.00494777
-0.00678977
-0.00837508
-0.00985882
-0.0112311
-0.0124811
-0.0136095
-0.0146162
-0.0155003
-0.0162612
-0.0168987
-0.0174124
-0.0178019
-0.018067
-0.0182074
-0.0182231
-0.0181145
-0.017882
-0.0175266
-0.0170493
-0.0164513
-0.0157342
-0.0148997
-0.01395
-0.0128871
-0.011713
-0.0104297
-0.00903958
-0.00754468
-0.00594773
-0.00425209
-0.00246074
-0.000576862
0.0013954
0.00345194
0.00558917
0.00780269
0.0100872
0.0124378
0.0148502
0.0173193
0.0198391
0.0224044
0.0250107
0.0276528
0.0303248
0.0330204
0.0357346
0.0384629
0.0412001
0.0439399
0.0466763
0.0494042
0.0521189
0.0548146
0.0574848
0.0601232
0.0627239
0.065282
0.0677921
0.0702484
0.0726448
0.0749758
0.0772364
0.0794225
0.0815293
0.083552
0.0854853
0.0873245
0.0890658
0.0907063
0.0922431
0.0936733
0.0949936
0.0962005
0.0972907
0.0982615
0.0991108
0.0998369
0.100438
0.100912
0.101258
0.101473
0.101557
0.101508
0.101327
0.101015
0.100572
0.0999998
0.0992993
0.0984713
0.0975166
0.0964359
0.0952291
0.0938957
0.0924466
0.0908915
0.0890762
0.0868711
-0.00339051
-0.00569558
-0.00759973
-0.00923905
-0.0107737
-0.0121932
-0.0134854
-0.014651
-0.0156903
-0.0166025
-0.017387
-0.0180437
-0.0185724
-0.018973
-0.0192452
-0.0193888
-0.0194044
-0.0192925
-0.0190536
-0.0186888
-0.018199
-0.0175859
-0.0168513
-0.0159972
-0.0150258
-0.0139393
-0.0127396
-0.0114288
-0.0100094
-0.00848374
-0.00685471
-0.00512573
-0.00329984
-0.00138026
0.00062884
0.00272327
0.00489932
0.00715252
0.00947749
0.0118693
0.0143235
0.0168351
0.0193983
0.0220077
0.0246586
0.027346
0.0300635
0.032805
0.0355654
0.0383402
0.041124
0.0439107
0.0466941
0.0494689
0.0522301
0.0549722
0.0576885
0.0603724
0.0630184
0.0656214
0.0681763
0.0706771
0.0731174
0.0754913
0.0777938
0.0800205
0.0821669
0.0842279
0.0861983
0.0880733
0.0898491
0.0915224
0.0930902
0.0945493
0.0958961
0.0971269
0.0982383
0.0992275
0.100092
0.100831
0.101441
0.101921
0.102269
0.102483
0.102561
0.102501
0.102306
0.101974
0.101508
0.100909
0.100176
0.099312
0.0983168
0.0971916
0.0959363
0.0945507
0.0930468
0.0914346
0.0895553
0.0872754
-0.0041853
-0.00656536
-0.0085322
-0.0102257
-0.0118113
-0.0132783
-0.0146136
-0.0158172
-0.0168897
-0.0178308
-0.0186398
-0.0193165
-0.0198608
-0.0202728
-0.0205523
-0.0206995
-0.020715
-0.0205994
-0.0203535
-0.0199782
-0.0194749
-0.0188455
-0.0180922
-0.0172169
-0.0162219
-0.0151095
-0.0138815
-0.0125404
-0.0110889
-0.00952946
-0.00786511
-0.00609933
-0.00423522
-0.00227605
-0.000226079
0.00191043
0.00412965
0.00642701
0.00879706
0.0112348
0.0137357
0.0162951
0.0189069
0.0215657
0.0242667
0.0270046
0.0297731
0.0325659
0.035378
0.0382048
0.0410409
0.0438801
0.0467161
0.0495432
0.0523566
0.0551504
0.0579182
0.0606532
0.06335
0.0660037
0.068609
0.0711598
0.0736493
0.0760715
0.0784209
0.0806933
0.0828841
0.0849881
0.0870002
0.0889153
0.0907295
0.0924393
0.0940417
0.0955329
0.0969092
0.0981667
0.0993018
0.100312
0.101194
0.101947
0.102569
0.103056
0.103408
0.10362
0.103693
0.103623
0.103413
0.103063
0.102574
0.101946
0.101182
0.100281
0.0992456
0.098076
0.0967725
0.0953353
0.0937768
0.0921078
0.0901647
0.0878095
-0.00510434
-0.00755981
-0.00959025
-0.0113389
-0.0129761
-0.0144909
-0.0158698
-0.0171124
-0.0182191
-0.0191899
-0.0200241
-0.0207215
-0.0212819
-0.0217056
-0.0219927
-0.0221436
-0.0221588
-0.0220391
-0.0217852
-0.0213986
-0.0208808
-0.020234
-0.0194604
-0.0185621
-0.0175414
-0.0164006
-0.0151418
-0.0137677
-0.0122811
-0.0106848
-0.00898179
-0.00717562
-0.00526949
-0.00326677
-0.00117178
0.00101111
0.00327794
0.00562405
0.0080439
0.0105325
0.0130854
0.0156976
0.0183633
0.0210769
0.0238332
0.026627
0.0294518
0.0323015
0.0351709
0.0380552
0.0409492
0.0438465
0.0467405
0.0496257
0.0524967
0.0553479
0.0581727
0.0609646
0.063718
0.0664281
0.0690895
0.0716958
0.0742402
0.076716
0.0791177
0.081441
0.0836811
0.0858331
0.0878915
0.0898512
0.0917079
0.0934583
0.0950987
0.0966255
0.0980345
0.0993217
0.100483
0.101517
0.10242
0.103189
0.103824
0.104321
0.104676
0.104889
0.104956
0.104878
0.104654
0.104285
0.103772
0.103117
0.102321
0.101384
0.100308
0.0990945
0.0977431
0.0962543
0.094641
0.0929145
0.0909061
0.088474
-0.00615111
-0.00868266
-0.0107775
-0.0125827
-0.0142727
-0.0158359
-0.0172592
-0.0185418
-0.0196839
-0.0206851
-0.0215452
-0.0222637
-0.0228407
-0.0232764
-0.0235712
-0.0237256
-0.0237402
-0.0236156
-0.023353
-0.0229541
-0.0224208
-0.0217552
-0.0209597
-0.0200364
-0.0189877
-0.017816
-0.0165236
-0.0151136
-0.0135889
-0.0119524
-0.0102071
-0.00835677
-0.00640466
-0.00435424
-0.00220993
2.37948e-05
0.00234283
0.00474242
0.00721702
0.00976157
0.0123716
0.0150422
0.0177671
0.0205407
0.0233577
0.0262128
0.0290995
0.0320115
0.0349437
0.0378912
0.0408486
0.0438095
0.0467672
0.049716
0.0526504
0.0555646
0.0584522
0.0613068
0.0641229
0.0668952
0.0696184
0.0722858
0.0748904
0.0774252
0.0798847
0.0822642
0.084559
0.0867639
0.0888734
0.0908822
0.0927859
0.0945808
0.0962631
0.097829
0.0992742
0.100594
0.101786
0.102846
0.103771
0.10456
0.10521
0.105717
0.106078
0.106292
0.106355
0.106268
0.10603
0.105643
0.105108
0.104425
0.103597
0.102625
0.101509
0.100251
0.0988516
0.0973104
0.0956409
0.093855
0.0917791
0.0892678
-0.00732917
-0.00993827
-0.0120984
-0.0139614
-0.0157056
-0.0173188
-0.0187873
-0.0201109
-0.0212894
-0.022322
-0.0232084
-0.0239486
-0.0245425
-0.0249905
-0.025293
-0.0254505
-0.0254636
-0.0253335
-0.0250613
-0.0246491
-0.0240989
-0.0234129
-0.0225934
-0.0216428
-0.0205635
-0.0193582
-0.0180295
-0.0165805
-0.0150143
-0.013334
-0.0115427
-0.0096442
-0.00764194
-0.00553949
-0.00334138
-0.0010522
0.00132382
0.00378185
0.00631635
0.00892219
0.0115948
0.014329
0.0171186
0.0199576
0.0228407
0.0257626
0.0287167
0.0316968
0.0346973
0.0377136
0.0407401
0.0437703
0.0467974
0.0498154
0.052819
0.0558021
0.0587586
0.0616819
0.0645664
0.0674069
0.0701975
0.0729315
0.0756017
0.078201
0.0807237
0.0831648
0.0855195
0.0877824
0.0899479
0.0920105
0.0939655
0.0958091
0.0975373
0.0991461
0.100631
0.101988
0.103213
0.104302
0.105253
0.106063
0.106729
0.107248
0.107616
0.107832
0.107893
0.107798
0.107547
0.107142
0.106584
0.105875
0.105015
0.104007
0.102851
0.101548
0.100099
0.0985039
0.096776
0.0949282
0.0927822
0.090189
-0.00864162
-0.0113309
-0.0135582
-0.0154798
-0.0172801
-0.0189449
-0.0204602
-0.0218258
-0.0230415
-0.0241062
-0.0250196
-0.0257818
-0.0263929
-0.0268532
-0.027163
-0.027323
-0.027334
-0.0271974
-0.0269147
-0.0264878
-0.025919
-0.0252106
-0.0243649
-0.0233843
-0.0222718
-0.02103
-0.0196619
-0.0181706
-0.0165594
-0.0148314
-0.01299
-0.0110392
-0.00898243
-0.00682347
-0.00456691
-0.00221748
0.000220488
0.00274212
0.00534182
0.00801432
0.0107549
0.0135581
0.0164177
0.0193277
0.0222826
0.025277
0.0283042
0.031358
0.0344327
0.0375236
0.040625
0.0437302
0.0468325
0.0499257
0.0530043
0.0560626
0.059094
0.0620922
0.0650513
0.0679656
0.0708293
0.0736355
0.0763768
0.0790461
0.0816373
0.0841454
0.0865653
0.0888913
0.0911177
0.0932388
0.0952498
0.0971465
0.0989248
0.100581
0.102109
0.103506
0.104767
0.105889
0.106867
0.1077
0.108385
0.108918
0.109295
0.109514
0.109573
0.109471
0.109208
0.108786
0.108206
0.107469
0.106578
0.105534
0.104336
0.102988
0.101487
0.0998348
0.0980458
0.0961333
0.0939149
0.0912374
-0.0100914
-0.0128644
-0.0151615
-0.0171438
-0.0190014
-0.0207199
-0.0222835
-0.0236922
-0.0249459
-0.0260435
-0.0269846
-0.0277692