/*--------------------------------*- C++ -*----------------------------------*\
| =========                 |                                                 |
| \\      /  F ield         | OpenFOAM: The Open Source CFD Toolbox           |
|  \\    /   O peration     | Version:  2212                                  |
|   \\  /    A nd           | Website:  www.openfoam.com                      |
|    \\/     M anipulation  |                                                 |
\*---------------------------------------------------------------------------*/
FoamFile
{
    version     2.0;
    format      ascii;
    arch        "LSB;label=32;scalar=64";
    class       volVectorField;
    location    "0.0125";
    object      U_0;
}
// * * * * * * * * * * * * * * * * * * * * * * * * * * * * * * * * * * * * * //

dimensions      [0 1 -1 0 0 0 0];

internalField   nonuniform List<vector> 
10000
(
(3.47909e-06 -2.94786e-06 0)
(1.10805e-05 -3.03186e-06 0)
(1.62669e-05 -9.30262e-07 0)
(1.57773e-05 6.70341e-07 0)
(8.64771e-06 2.40455e-06 0)
(-5.36795e-06 4.45839e-06 0)
(-2.67827e-05 6.71137e-06 0)
(-5.56942e-05 8.95448e-06 0)
(-9.18118e-05 1.11221e-05 0)
(-0.000134681 1.31229e-05 0)
(-0.00018373 1.49224e-05 0)
(-0.000238317 1.65491e-05 0)
(-0.000297823 1.7965e-05 0)
(-0.000361602 1.91595e-05 0)
(-0.000429002 2.01724e-05 0)
(-0.000499458 2.10059e-05 0)
(-0.000572406 2.16762e-05 0)
(-0.000647286 2.22079e-05 0)
(-0.000723627 2.25799e-05 0)
(-0.000800955 2.27754e-05 0)
(-0.00087881 2.28358e-05 0)
(-0.000956809 2.27911e-05 0)
(-0.00103459 2.26552e-05 0)
(-0.00111181 2.24427e-05 0)
(-0.00118815 2.21589e-05 0)
(-0.00126334 2.17938e-05 0)
(-0.00133711 2.13412e-05 0)
(-0.00140924 2.08171e-05 0)
(-0.00147949 2.02359e-05 0)
(-0.00154768 1.96016e-05 0)
(-0.00161363 1.89148e-05 0)
(-0.00167717 1.81816e-05 0)
(-0.00173815 1.74111e-05 0)
(-0.00179644 1.66003e-05 0)
(-0.00185191 1.5753e-05 0)
(-0.00190446 1.48778e-05 0)
(-0.00195397 1.39834e-05 0)
(-0.00200036 1.30751e-05 0)
(-0.00204356 1.21389e-05 0)
(-0.00208348 1.11711e-05 0)
(-0.00212005 1.01796e-05 0)
(-0.0021532 9.16371e-06 0)
(-0.00218288 8.13708e-06 0)
(-0.00220905 7.11038e-06 0)
(-0.00223166 6.07577e-06 0)
(-0.00225066 5.02969e-06 0)
(-0.00226605 3.96509e-06 0)
(-0.00227776 2.87712e-06 0)
(-0.00228579 1.7836e-06 0)
(-0.00229013 6.99509e-07 0)
(-0.00229075 -3.80174e-07 0)
(-0.00228765 -1.46161e-06 0)
(-0.00228085 -2.54769e-06 0)
(-0.00227032 -3.64107e-06 0)
(-0.00225607 -4.73492e-06 0)
(-0.00223814 -5.81687e-06 0)
(-0.00221653 -6.88535e-06 0)
(-0.00219127 -7.9469e-06 0)
(-0.00216239 -9.00154e-06 0)
(-0.00212994 -1.00447e-05 0)
(-0.00209395 -1.10762e-05 0)
(-0.00205449 -1.20943e-05 0)
(-0.00201161 -1.30891e-05 0)
(-0.00196539 -1.40529e-05 0)
(-0.00191592 -1.49887e-05 0)
(-0.00186327 -1.59015e-05 0)
(-0.00180756 -1.6789e-05 0)
(-0.00174889 -1.7644e-05 0)
(-0.0016874 -1.84594e-05 0)
(-0.00162321 -1.92287e-05 0)
(-0.00155649 -1.99475e-05 0)
(-0.00148741 -2.06152e-05 0)
(-0.00141615 -2.12314e-05 0)
(-0.00134293 -2.17892e-05 0)
(-0.00126796 -2.22759e-05 0)
(-0.0011915 -2.26802e-05 0)
(-0.00111383 -2.29975e-05 0)
(-0.00103523 -2.32269e-05 0)
(-0.000956029 -2.33653e-05 0)
(-0.00087658 -2.34032e-05 0)
(-0.000797259 -2.33248e-05 0)
(-0.000718477 -2.3111e-05 0)
(-0.000640684 -2.27485e-05 0)
(-0.000564364 -2.22317e-05 0)
(-0.000490031 -2.15572e-05 0)
(-0.000418226 -2.07163e-05 0)
(-0.000349523 -1.96928e-05 0)
(-0.000284531 -1.84693e-05 0)
(-0.000223895 -1.70341e-05 0)
(-0.000168281 -1.53763e-05 0)
(-0.000118372 -1.34827e-05 0)
(-7.48578e-05 -1.13445e-05 0)
(-3.84175e-05 -8.95962e-06 0)
(-9.69011e-06 -6.34046e-06 0)
(1.07874e-05 -3.52712e-06 0)
(2.26897e-05 -5.94401e-07 0)
(2.60578e-05 2.26931e-06 0)
(2.16691e-05 4.63131e-06 0)
(1.21842e-05 5.55985e-06 0)
(3.36322e-06 3.34465e-06 0)
(7.8159e-06 -1.24736e-05 0)
(2.04026e-05 -1.38752e-05 0)
(2.60281e-05 -3.32788e-06 0)
(1.59343e-05 8.72354e-06 0)
(-1.27876e-05 2.1911e-05 0)
(-6.08186e-05 3.61887e-05 0)
(-0.000128863 5.07764e-05 0)
(-0.000216748 6.51422e-05 0)
(-0.000323693 7.877e-05 0)
(-0.000448557 9.13883e-05 0)
(-0.000589859 0.000102871 0)
(-0.000746076 0.00011312 0)
(-0.00091556 0.000122131 0)
(-0.00109661 0.000129924 0)
(-0.00128766 0.000136505 0)
(-0.0014871 0.000141948 0)
(-0.0016934 0.000146323 0)
(-0.00190514 0.000149701 0)
(-0.00212095 0.000152122 0)
(-0.00233953 0.00015365 0)
(-0.0025597 0.000154335 0)
(-0.00278036 0.000154256 0)
(-0.00300047 0.000153475 0)
(-0.00321909 0.000152069 0)
(-0.00343533 0.000150087 0)
(-0.00364838 0.000147566 0)
(-0.00385751 0.000144545 0)
(-0.00406203 0.000141073 0)
(-0.00426132 0.000137192 0)
(-0.00445482 0.000132931 0)
(-0.004642 0.000128327 0)
(-0.00482239 0.000123412 0)
(-0.00499556 0.000118215 0)
(-0.00516112 0.000112757 0)
(-0.00531871 0.000107059 0)
(-0.005468 0.000101156 0)
(-0.00560869 9.50637e-05 0)
(-0.00574051 8.87983e-05 0)
(-0.00586324 8.23801e-05 0)
(-0.00597665 7.5811e-05 0)
(-0.00608054 6.91079e-05 0)
(-0.00617474 6.22848e-05 0)
(-0.00625908 5.53506e-05 0)
(-0.00633344 4.83352e-05 0)
(-0.00639769 4.12519e-05 0)
(-0.00645171 3.40955e-05 0)
(-0.00649543 2.68737e-05 0)
(-0.00652877 1.95967e-05 0)
(-0.00655166 1.22751e-05 0)
(-0.00656406 4.92932e-06 0)
(-0.00656594 -2.42562e-06 0)
(-0.00655727 -9.78853e-06 0)
(-0.00653805 -1.71555e-05 0)
(-0.0065083 -2.45122e-05 0)
(-0.00646803 -3.18453e-05 0)
(-0.00641727 -3.91481e-05 0)
(-0.00635611 -4.64082e-05 0)
(-0.00628462 -5.36067e-05 0)
(-0.00620289 -6.07303e-05 0)
(-0.00611101 -6.77718e-05 0)
(-0.00600913 -7.47185e-05 0)
(-0.0058974 -8.155e-05 0)
(-0.00577602 -8.82456e-05 0)
(-0.00564517 -9.47869e-05 0)
(-0.0055051 -0.000101155 0)
(-0.00535606 -0.000107328 0)
(-0.00519836 -0.000113287 0)
(-0.00503232 -0.000119014 0)
(-0.00485831 -0.000124478 0)
(-0.00467674 -0.000129642 0)
(-0.00448805 -0.000134475 0)
(-0.00429275 -0.000138954 0)
(-0.00409137 -0.000143046 0)
(-0.00388452 -0.000146709 0)
(-0.00367284 -0.000149892 0)
(-0.00345703 -0.000152552 0)
(-0.00323788 -0.000154647 0)
(-0.00301623 -0.000156132 0)
(-0.002793 -0.000156954 0)
(-0.00256917 -0.000157057 0)
(-0.00234581 -0.000156377 0)
(-0.00212409 -0.000154847 0)
(-0.00190523 -0.0001524 0)
(-0.00169055 -0.000148972 0)
(-0.00148145 -0.000144501 0)
(-0.0012794 -0.000138927 0)
(-0.00108598 -0.00013219 0)
(-0.000902791 -0.000124235 0)
(-0.000731525 -0.000115012 0)
(-0.0005739 -0.000104481 0)
(-0.00043164 -9.26226e-05 0)
(-0.000306417 -7.94517e-05 0)
(-0.000199786 -6.50459e-05 0)
(-0.000113102 -4.95749e-05 0)
(-4.73582e-05 -3.33648e-05 0)
(-2.91863e-06 -1.69989e-05 0)
(2.08216e-05 -1.53595e-06 0)
(2.60093e-05 1.11367e-05 0)
(1.7806e-05 1.76698e-05 0)
(5.64113e-06 1.21975e-05 0)
(8.24499e-06 -2.57803e-05 0)
(1.84206e-05 -2.3881e-05 0)
(1.51772e-05 3.92355e-06 0)
(-1.27506e-05 3.78844e-05 0)
(-6.94018e-05 7.54207e-05 0)
(-0.000156081 0.000115051 0)
(-0.000273335 0.000155154 0)
(-0.00042068 0.000194293 0)
(-0.000596959 0.000231449 0)
(-0.000800324 0.000265994 0)
(-0.00102875 0.000297473 0)
(-0.00127993 0.000325712 0)
(-0.00155141 0.000350662 0)
(-0.00184076 0.000372286 0)
(-0.00214552 0.000390677 0)
(-0.00246329 0.000405963 0)
(-0.00279179 0.000418267 0)
(-0.00312878 0.000427765 0)
(-0.00347218 0.000434634 0)
(-0.00382 0.000439023 0)
(-0.00417037 0.000441092 0)
(-0.00452155 0.000441013 0)
(-0.00487193 0.000438942 0)
(-0.00522 0.00043504 0)
(-0.00556436 0.000429458 0)
(-0.00590373 0.000422328 0)
(-0.00623693 0.000413778 0)
(-0.00656286 0.000403931 0)
(-0.00688053 0.000392897 0)
(-0.00718902 0.000380774 0)
(-0.0074875 0.000367657 0)
(-0.00777521 0.000353638 0)
(-0.00805144 0.000338794 0)
(-0.00831557 0.0003232 0)
(-0.00856702 0.000306922 0)
(-0.00880525 0.000290024 0)
(-0.00902978 0.000272572 0)
(-0.00924019 0.000254607 0)
(-0.00943609 0.000236182 0)
(-0.00961712 0.000217349 0)
(-0.00978297 0.000198137 0)
(-0.00993335 0.000178588 0)
(-0.010068 0.000158742 0)
(-0.0101867 0.000138629 0)
(-0.0102893 0.000118295 0)
(-0.0103756 9.77714e-05 0)
(-0.0104454 7.70726e-05 0)
(-0.0104986 5.62308e-05 0)
(-0.0105352 3.52874e-05 0)
(-0.010555 1.42631e-05 0)
(-0.0105581 -6.81907e-06 0)
(-0.0105443 -2.79201e-05 0)
(-0.0105137 -4.90108e-05 0)
(-0.0104662 -7.00702e-05 0)
(-0.010402 -9.10636e-05 0)
(-0.0103211 -0.000111954 0)
(-0.0102236 -0.000132718 0)
(-0.0101096 -0.00015332 0)
(-0.00997934 -0.000173712 0)
(-0.0098329 -0.00019385 0)
(-0.00967054 -0.000213699 0)
(-0.00949249 -0.000233218 0)
(-0.00929908 -0.000252352 0)
(-0.00909063 -0.000271041 0)
(-0.0088675 -0.000289231 0)
(-0.00863012 -0.000306865 0)
(-0.00837899 -0.000323876 0)
(-0.00811463 -0.000340194 0)
(-0.00783762 -0.000355741 0)
(-0.00754861 -0.000370433 0)
(-0.00724835 -0.000384182 0)
(-0.00693763 -0.000396897 0)
(-0.0066173 -0.000408477 0)
(-0.00628833 -0.00041881 0)
(-0.00595176 -0.000427777 0)
(-0.00560873 -0.000435258 0)
(-0.00526047 -0.000441121 0)
(-0.00490832 -0.000445226 0)
(-0.00455376 -0.000447426 0)
(-0.00419834 -0.00044757 0)
(-0.00384374 -0.000445493 0)
(-0.00349177 -0.000441025 0)
(-0.00314435 -0.000433995 0)
(-0.00280353 -0.000424235 0)
(-0.00247148 -0.000411583 0)
(-0.00215048 -0.000395884 0)
(-0.00184288 -0.000376991 0)
(-0.00155114 -0.000354781 0)
(-0.00127777 -0.000329165 0)
(-0.0010253 -0.000300097 0)
(-0.000796212 -0.000267599 0)
(-0.000592879 -0.000231804 0)
(-0.000417443 -0.000193017 0)
(-0.000271691 -0.000151807 0)
(-0.000156817 -0.000109146 0)
(-7.31069e-05 -6.66248e-05 0)
(-1.95554e-05 -2.6825e-05 0)
(6.70405e-06 6.17939e-06 0)
(1.15112e-05 2.60001e-05 0)
(4.76992e-06 2.18205e-05 0)
(5.29946e-06 -3.49292e-05 0)
(5.68045e-06 -2.33114e-05 0)
(-1.58263e-05 2.89223e-05 0)
(-6.95426e-05 9.38231e-05 0)
(-0.000160207 0.000165344 0)
(-0.000289487 0.000240233 0)
(-0.000457915 0.000315494 0)
(-0.00066484 0.000388748 0)
(-0.000908624 0.000458365 0)
(-0.00118719 0.000523141 0)
(-0.0014979 0.000582354 0)
(-0.00183787 0.000635637 0)
(-0.00220413 0.000682791 0)
(-0.00259355 0.000723819 0)
(-0.00300303 0.000758846 0)
(-0.00342953 0.000788023 0)
(-0.00387006 0.000811595 0)
(-0.00432176 0.000829838 0)
(-0.0047819 0.000843054 0)
(-0.00524791 0.000851537 0)
(-0.00571733 0.000855613 0)
(-0.00618788 0.000855559 0)
(-0.00665739 0.000851678 0)
(-0.00712386 0.00084426 0)
(-0.00758544 0.000833574 0)
(-0.00804042 0.000819875 0)
(-0.00848719 0.000803416 0)
(-0.00892431 0.000784427 0)
(-0.00935042 0.000763113 0)
(-0.00976429 0.000739671 0)
(-0.0101648 0.000714288 0)
(-0.0105509 0.000687136 0)
(-0.0109217 0.000658364 0)
(-0.0112762 0.000628118 0)
(-0.0116138 0.000596542 0)
(-0.0119337 0.000563752 0)
(-0.0122352 0.000529859 0)
(-0.0125178 0.000494966 0)
(-0.0127809 0.000459161 0)
(-0.013024 0.000422547 0)
(-0.0132468 0.000385209 0)
(-0.0134488 0.000347211 0)
(-0.0136297 0.000308636 0)
(-0.0137892 0.000269557 0)
(-0.0139269 0.00023002 0)
(-0.0140428 0.000190099 0)
(-0.0141365 0.000149861 0)
(-0.014208 0.000109354 0)
(-0.0142571 6.86372e-05 0)
(-0.0142837 2.77762e-05 0)
(-0.0142877 -1.31883e-05 0)
(-0.0142691 -5.42066e-05 0)
(-0.0142278 -9.52054e-05 0)
(-0.014164 -0.000136119 0)
(-0.0140777 -0.000176899 0)
(-0.013969 -0.000217486 0)
(-0.013838 -0.000257814 0)
(-0.0136848 -0.000297807 0)
(-0.0135098 -0.000337389 0)
(-0.013313 -0.000376484 0)
(-0.013095 -0.000415007 0)
(-0.012856 -0.000452867 0)
(-0.0125963 -0.000489966 0)
(-0.0123165 -0.000526204 0)
(-0.012017 -0.00056147 0)
(-0.0116985 -0.000595643 0)
(-0.0113616 -0.000628592 0)
(-0.0110071 -0.000660179 0)
(-0.0106356 -0.000690255 0)
(-0.0102481 -0.000718661 0)
(-0.00984559 -0.000745226 0)
(-0.00942912 -0.000769768 0)
(-0.00899987 -0.00079209 0)
(-0.00855914 -0.000811979 0)
(-0.00810832 -0.000829216 0)
(-0.00764893 -0.000843562 0)
(-0.00718261 -0.000854767 0)
(-0.0067112 -0.000862567 0)
(-0.00623661 -0.000866684 0)
(-0.00576093 -0.000866824 0)
(-0.00528636 -0.000862686 0)
(-0.00481531 -0.000853964 0)
(-0.00435029 -0.000840358 0)
(-0.00389399 -0.000821572 0)
(-0.0034492 -0.000797315 0)
(-0.00301887 -0.000767311 0)
(-0.00260603 -0.000731321 0)
(-0.00221382 -0.000689154 0)
(-0.00184538 -0.000640694 0)
(-0.00150386 -0.000585924 0)
(-0.00119232 -0.00052497 0)
(-0.000913647 -0.000458179 0)
(-0.000670394 -0.000386221 0)
(-0.000464639 -0.000310224 0)
(-0.000297732 -0.000231997 0)
(-0.000169994 -0.000154346 0)
(-8.03429e-05 -8.15481e-05 0)
(-2.57854e-05 -1.99255e-05 0)
(-9.31952e-07 2.11827e-05 0)
(2.47402e-06 2.65017e-05 0)
(1.44544e-06 -3.54711e-05 0)
(-1.15306e-05 -4.78265e-06 0)
(-5.68112e-05 7.92268e-05 0)
(-0.000141946 0.000182412 0)
(-0.000271099 0.000295529 0)
(-0.000446093 0.000413247 0)
(-0.000667353 0.000531107 0)
(-0.000933862 0.00064577 0)
(-0.00124388 0.000754722 0)
(-0.00159489 0.000856267 0)
(-0.0019839 0.000949333 0)
(-0.00240764 0.00103323 0)
(-0.00286257 0.00110766 0)
(-0.00334511 0.00117259 0)
(-0.00385163 0.00122812 0)
(-0.00437854 0.00127452 0)
(-0.00492231 0.00131211 0)
(-0.00547953 0.00134128 0)
(-0.00604694 0.00136246 0)
(-0.00662143 0.0013761 0)
(-0.00720003 0.00138269 0)
(-0.00777999 0.00138268 0)
(-0.00835869 0.00137654 0)
(-0.00893369 0.00136471 0)
(-0.00950271 0.0013476 0)
(-0.0100636 0.00132564 0)
(-0.0106145 0.0012992 0)
(-0.0111536 0.00126866 0)
(-0.0116791 0.00123434 0)
(-0.0121897 0.00119657 0)
(-0.0126838 0.00115564 0)
(-0.0131602 0.00111182 0)
(-0.0136177 0.00106537 0)
(-0.0140553 0.00101652 0)
(-0.014472 0.000965489 0)
(-0.0148668 0.000912481 0)
(-0.015239 0.000857668 0)
(-0.0155879 0.000801231 0)
(-0.0159127 0.000743317 0)
(-0.016213 0.000684062 0)
(-0.016488 0.00062362 0)
(-0.0167374 0.000562116 0)
(-0.0169608 0.000499663 0)
(-0.0171577 0.000436387 0)
(-0.0173278 0.000372389 0)
(-0.0174708 0.000307749 0)
(-0.0175865 0.000242577 0)
(-0.0176747 0.000176986 0)
(-0.0177352 0.00011106 0)
(-0.0177679 4.48818e-05 0)
(-0.0177727 -2.14516e-05 0)
(-0.0177496 -8.78451e-05 0)
(-0.0176985 -0.00015421 0)
(-0.0176196 -0.000220452 0)
(-0.0175128 -0.000286464 0)
(-0.0173783 -0.000352143 0)
(-0.0172164 -0.000417385 0)
(-0.0170271 -0.000482075 0)
(-0.0168108 -0.000546091 0)
(-0.0165678 -0.000609306 0)
(-0.0162985 -0.000671586 0)
(-0.0160032 -0.000732779 0)
(-0.0156826 -0.000792724 0)
(-0.0153372 -0.00085126 0)
(-0.0149676 -0.000908209 0)
(-0.0145746 -0.000963373 0)
(-0.0141589 -0.00101654 0)
(-0.0137214 -0.0010675 0)
(-0.0132632 -0.00111599 0)
(-0.0127853 -0.00116177 0)
(-0.012289 -0.00120455 0)
(-0.0117756 -0.00124404 0)
(-0.0112465 -0.00127994 0)
(-0.0107033 -0.0013119 0)
(-0.0101477 -0.00133956 0)
(-0.00958174 -0.00136254 0)
(-0.00900729 -0.00138045 0)
(-0.0084266 -0.00139287 0)
(-0.00784203 -0.00139937 0)
(-0.00725611 -0.00139948 0)
(-0.00667154 -0.00139275 0)
(-0.00609121 -0.00137871 0)
(-0.00551817 -0.0013569 0)
(-0.00495562 -0.00132688 0)
(-0.00440691 -0.00128821 0)
(-0.00387553 -0.00124052 0)
(-0.00336507 -0.00118345 0)
(-0.0028792 -0.00111678 0)
(-0.00242158 -0.00104037 0)
(-0.00199585 -0.000954281 0)
(-0.00160552 -0.000858809 0)
(-0.00125385 -0.000754584 0)
(-0.000943735 -0.00064272 0)
(-0.000677508 -0.000524999 0)
(-0.000456731 -0.000404141 0)
(-0.00028193 -0.000284188 0)
(-0.000152245 -0.000171028 0)
(-6.50265e-05 -7.29952e-05 0)
(-1.61465e-05 -1.92118e-06 0)
(-3.31069e-07 2.35409e-05 0)
(-2.25831e-06 -2.6113e-05 0)
(-2.94845e-05 3.53099e-05 0)
(-0.000101147 0.000159211 0)
(-0.000220692 0.000307905 0)
(-0.000391031 0.000469404 0)
(-0.00061368 0.000636446 0)
(-0.000888625 0.000803271 0)
(-0.00121468 0.000965346 0)
(-0.00158967 0.00111941 0)
(-0.00201082 0.00126319 0)
(-0.00247484 0.00139514 0)
(-0.00297805 0.00151434 0)
(-0.00351657 0.00162032 0)
(-0.00408637 0.00171293 0)
(-0.00468339 0.00179229 0)
(-0.0053036 0.0018587 0)
(-0.00594302 0.0019126 0)
(-0.00659779 0.00195451 0)
(-0.0072642 0.001985 0)
(-0.00793867 0.0020047 0)
(-0.00861782 0.00201423 0)
(-0.00929844 0.00201424 0)
(-0.00997754 0.00200539 0)
(-0.0106523 0.00198828 0)
(-0.01132 0.00196353 0)
(-0.0119783 0.00193172 0)
(-0.0126248 0.00189339 0)
(-0.0132576 0.00184906 0)
(-0.0138745 0.00179922 0)
(-0.0144738 0.00174434 0)
(-0.0150539 0.00168483 0)
(-0.0156133 0.00162109 0)
(-0.0161506 0.0015535 0)
(-0.0166645 0.00148238 0)
(-0.0171538 0.00140806 0)
(-0.0176176 0.00133082 0)
(-0.0180548 0.00125095 0)
(-0.0184646 0.00116867 0)
(-0.0188462 0.00108424 0)
(-0.0191989 0.000997848 0)
(-0.0195221 0.000909691 0)
(-0.0198151 0.000819977 0)
(-0.0200775 0.000728881 0)
(-0.0203087 0.000636553 0)
(-0.0205085 0.000543157 0)
(-0.0206765 0.000448851 0)
(-0.0208124 0.000353769 0)
(-0.0209159 0.000258047 0)
(-0.0209868 0.000161836 0)
(-0.0210251 6.52705e-05 0)
(-0.0210306 -3.15236e-05 0)
(-0.0210032 -0.000128402 0)
(-0.020943 -0.00022522 0)
(-0.0208501 -0.000321846 0)
(-0.0207244 -0.000418135 0)
(-0.0205662 -0.000513929 0)
(-0.0203757 -0.000609065 0)
(-0.0201531 -0.000703378 0)
(-0.0198988 -0.000796691 0)
(-0.0196132 -0.000888816 0)
(-0.0192966 -0.000979559 0)
(-0.0189497 -0.0010687 0)
(-0.0185729 -0.00115602 0)
(-0.0181671 -0.00124125 0)
(-0.017733 -0.00132414 0)
(-0.0172713 -0.00140441 0)
(-0.0167832 -0.00148176 0)
(-0.0162696 -0.00155586 0)
(-0.0157316 -0.00162635 0)
(-0.0151707 -0.00169286 0)
(-0.0145882 -0.001755 0)
(-0.0139857 -0.00181233 0)
(-0.0133648 -0.0018644 0)
(-0.0127276 -0.00191073 0)
(-0.0120759 -0.0019508 0)
(-0.0114119 -0.00198407 0)
(-0.0107382 -0.00200996 0)
(-0.0100571 -0.00202788 0)
(-0.00937141 -0.00203722 0)
(-0.00868412 -0.00203734 0)
(-0.00799831 -0.00202761 0)
(-0.00731728 -0.00200738 0)
(-0.00664455 -0.001976 0)
(-0.00598379 -0.00193289 0)
(-0.00533878 -0.00187746 0)
(-0.00471347 -0.00180922 0)
(-0.0041119 -0.00172773 0)
(-0.00353818 -0.00163273 0)
(-0.00299642 -0.00152412 0)
(-0.00249064 -0.00140206 0)
(-0.0020247 -0.00126703 0)
(-0.0016022 -0.00112002 0)
(-0.00122635 -0.00096261 0)
(-0.00089976 -0.000797272 0)
(-0.00062429 -0.000627622 0)
(-0.000400846 -0.000458856 0)
(-0.000229061 -0.00029828 0)
(-0.000106994 -0.000155907 0)
(-3.22593e-05 -4.54723e-05 0)
(-3.21805e-06 1.21676e-05 0)
(-5.54565e-06 -7.28088e-06 0)
(-4.6867e-05 9.74911e-05 0)
(-0.000145429 0.00027039 0)
(-0.000300513 0.000472047 0)
(-0.000513171 0.000688436 0)
(-0.000784142 0.000910841 0)
(-0.00111299 0.0011321 0)
(-0.001498 0.00134679 0)
(-0.00193664 0.00155087 0)
(-0.00242581 0.00174142 0)
(-0.00296189 0.0019165 0)
(-0.00354088 0.00207489 0)
(-0.00415857 0.00221592 0)
(-0.00481059 0.00233936 0)
(-0.0054925 0.0024453 0)
(-0.00619989 0.00253408 0)
(-0.00692841 0.00260621 0)
(-0.00767381 0.00266235 0)
(-0.00843199 0.00270322 0)
(-0.009199 0.00272963 0)
(-0.00997109 0.00274238 0)
(-0.0107447 0.00274232 0)
(-0.0115164 0.00273028 0)
(-0.0122831 0.00270708 0)
(-0.0130418 0.00267352 0)
(-0.0137898 0.00263037 0)
(-0.0145244 0.00257836 0)
(-0.0152434 0.00251819 0)
(-0.0159444 0.00245051 0)
(-0.0166255 0.00237594 0)
(-0.0172848 0.00229506 0)
(-0.0179206 0.00220839 0)
(-0.0185313 0.00211645 0)
(-0.0191154 0.00201969 0)
(-0.0196717 0.00191854 0)
(-0.0201989 0.0018134 0)
(-0.020696 0.00170463 0)
(-0.0211619 0.00159258 0)
(-0.0215957 0.00147754 0)
(-0.0219967 0.00135984 0)
(-0.0223641 0.00123973 0)
(-0.0226972 0.00111747 0)
(-0.0229955 0.000993302 0)
(-0.0232585 0.000867459 0)
(-0.0234856 0.00074014 0)
(-0.0236765 0.000611564 0)
(-0.0238309 0.00048194 0)
(-0.0239485 0.000351453 0)
(-0.024029 0.000220283 0)
(-0.0240723 8.86256e-05 0)
(-0.0240784 -4.33292e-05 0)
(-0.0240471 -0.000175392 0)
(-0.0239784 -0.00030737 0)
(-0.0238725 -0.000439068 0)
(-0.0237294 -0.000570289 0)
(-0.0235493 -0.000700823 0)
(-0.0233325 -0.000830447 0)
(-0.0230791 -0.000958926 0)
(-0.0227898 -0.00108602 0)
(-0.0224648 -0.00121148 0)
(-0.0221047 -0.00133504 0)
(-0.0217101 -0.00145638 0)
(-0.0212817 -0.0015752 0)
(-0.0208202 -0.00169118 0)
(-0.0203266 -0.00180395 0)
(-0.0198018 -0.00191312 0)
(-0.0192469 -0.00201828 0)
(-0.0186632 -0.00211899 0)
(-0.0180518 -0.00221477 0)
(-0.0174144 -0.00230512 0)
(-0.0167526 -0.00238949 0)
(-0.0160681 -0.00246732 0)
(-0.0153628 -0.00253797 0)
(-0.0146389 -0.0026008 0)
(-0.0138987 -0.00265512 0)
(-0.0131446 -0.00270019 0)
(-0.0123793 -0.00273527 0)
(-0.0116057 -0.00275956 0)
(-0.0108268 -0.00277225 0)
(-0.0100459 -0.0027725 0)
(-0.00926653 -0.00275948 0)
(-0.00849234 -0.00273237 0)
(-0.0077272 -0.00269035 0)
(-0.00697518 -0.00263263 0)
(-0.00624046 -0.00255851 0)
(-0.00552737 -0.00246736 0)
(-0.00484033 -0.0023587 0)
(-0.00418383 -0.00223223 0)
(-0.00356231 -0.0020879 0)
(-0.00298014 -0.00192599 0)
(-0.00244152 -0.00174724 0)
(-0.00195034 -0.00155293 0)
(-0.00151014 -0.00134518 0)
(-0.00112385 -0.00112708 0)
(-0.000793752 -0.000903094 0)
(-0.000521281 -0.000679418 0)
(-0.00030677 -0.000464532 0)
(-0.000149222 -0.000269737 0)
(-4.82374e-05 -0.00011007 0)
(-5.98584e-06 -7.64381e-06 0)
(-8.46025e-06 2.03137e-05 0)
(-6.30982e-05 0.000181323 0)
(-0.000188084 0.000412868 0)
(-0.000378523 0.000675135 0)
(-0.000633339 0.00095299 0)
(-0.000952444 0.00123633 0)
(-0.00133461 0.0015171 0)
(-0.00177753 0.001789 0)
(-0.00227828 0.00204727 0)
(-0.00283335 0.00228847 0)
(-0.00343877 0.00251024 0)
(-0.00409023 0.00271105 0)
(-0.0047832 0.00289003 0)
(-0.00551301 0.00304687 0)
(-0.00627491 0.00318162 0)
(-0.00706416 0.00329465 0)
(-0.00787607 0.00338656 0)
(-0.00870607 0.00345812 0)
(-0.00954974 0.00351022 0)
(-0.0104028 0.00354381 0)
(-0.0112611 0.00355992 0)
(-0.0121209 0.00355958 0)
(-0.0129784 0.00354384 0)
(-0.0138302 0.00351372 0)
(-0.0146731 0.00347023 0)
(-0.0155039 0.00341434 0)
(-0.01632 0.00334698 0)
(-0.0171185 0.00326905 0)
(-0.0178972 0.00318138 0)
(-0.0186538 0.00308475 0)
(-0.0193861 0.0029799 0)
(-0.0200924 0.00286755 0)
(-0.0207707 0.0027483 0)
(-0.0214197 0.00262278 0)
(-0.0220377 0.00249155 0)
(-0.0226234 0.0023551 0)
(-0.0231756 0.00221392 0)
(-0.0236933 0.00206845 0)
(-0.0241753 0.00191909 0)
(-0.0246208 0.00176622 0)
(-0.025029 0.00161022 0)
(-0.0253991 0.00145143 0)
(-0.0257305 0.00129013 0)
(-0.0260226 0.00112662 0)
(-0.0262749 0.000961213 0)
(-0.026487 0.000794159 0)
(-0.0266584 0.000625727 0)
(-0.0267889 0.000456172 0)
(-0.0268782 0.00028574 0)
(-0.0269263 0.000114674 0)
(-0.0269328 -5.67758e-05 0)
(-0.0268978 -0.000228353 0)
(-0.0268213 -0.000399812 0)
(-0.0267034 -0.000570902 0)
(-0.0265442 -0.000741352 0)
(-0.0263438 -0.000910882 0)
(-0.0261027 -0.00107921 0)
(-0.025821 -0.00124604 0)
(-0.0254993 -0.00141106 0)
(-0.025138 -0.00157392 0)
(-0.0247377 -0.00173427 0)
(-0.0242991 -0.00189173 0)
(-0.023823 -0.00204589 0)
(-0.0233102 -0.00219633 0)
(-0.0227618 -0.00234258 0)
(-0.0221787 -0.00248413 0)
(-0.0215622 -0.00262045 0)
(-0.0209138 -0.00275096 0)
(-0.0202347 -0.00287506 0)
(-0.0195268 -0.0029921 0)
(-0.0187918 -0.00310137 0)
(-0.0180316 -0.00320213 0)
(-0.0172484 -0.00329358 0)
(-0.0164445 -0.00337489 0)
(-0.0156225 -0.00344517 0)
(-0.0147851 -0.00350351 0)
(-0.0139352 -0.00354893 0)
(-0.013076 -0.00358044 0)
(-0.0122107 -0.00359701 0)
(-0.0113431 -0.00359761 0)
(-0.0104769 -0.00358119 0)
(-0.00961611 -0.00354672 0)
(-0.00876492 -0.0034932 0)
(-0.00792772 -0.00341968 0)
(-0.00710903 -0.00332532 0)
(-0.00631351 -0.00320937 0)
(-0.00554593 -0.0030713 0)
(-0.00481107 -0.00291078 0)
(-0.0041137 -0.00272783 0)
(-0.0034585 -0.00252287 0)
(-0.00284995 -0.00229685 0)
(-0.0022923 -0.00205142 0)
(-0.00178939 -0.00178913 0)
(-0.00134459 -0.00151367 0)
(-0.000960665 -0.00123021 0)
(-0.000639704 -0.000945796 0)
(-0.000382882 -0.000669788 0)
(-0.00019027 -0.000414394 0)
(-6.35367e-05 -0.000195429 0)
(-8.54685e-06 -3.55678e-05 0)
(-1.09978e-05 5.59676e-05 0)
(-7.81091e-05 0.000285828 0)
(-0.000228402 0.00058578 0)
(-0.000453119 0.000916612 0)
(-0.000749199 0.00126233 0)
(-0.00111544 0.00161214 0)
(-0.00154974 0.00195719 0)
(-0.00204916 0.00229048 0)
(-0.00261024 0.00260669 0)
(-0.00322901 0.00290192 0)
(-0.00390115 0.00317342 0)
(-0.00462203 0.00341936 0)
(-0.0053868 0.00363873 0)
(-0.00619048 0.00383108 0)
(-0.00702806 0.00399646 0)
(-0.00789449 0.00413526 0)
(-0.00878481 0.00424816 0)
(-0.00969416 0.00433605 0)
(-0.0106178 0.00439997 0)
(-0.0115512 0.00444106 0)
(-0.01249 0.00446053 0)
(-0.01343 0.00445963 0)
(-0.0143673 0.00443962 0)
(-0.0152981 0.00440174 0)
(-0.016219 0.00434722 0)
(-0.0171267 0.00427725 0)
(-0.0180182 0.00419297 0)
(-0.0188905 0.00409546 0)
(-0.0197411 0.00398577 0)
(-0.0205675 0.00386487 0)
(-0.0213674 0.00373366 0)
(-0.0221388 0.00359303 0)
(-0.0228799 0.00344377 0)
(-0.0235887 0.00328662 0)
(-0.0242637 0.00312226 0)
(-0.0249035 0.00295137 0)
(-0.0255068 0.00277452 0)
(-0.0260722 0.00259225 0)
(-0.0265988 0.00240511 0)
(-0.0270854 0.00221356 0)
(-0.0275313 0.00201804 0)
(-0.0279356 0.001819 0)
(-0.0282975 0.00161681 0)
(-0.0286166 0.00141186 0)
(-0.0288921 0.00120449 0)
(-0.0291236 0.000995061 0)
(-0.0293108 0.0007839 0)
(-0.0294533 0.000571317 0)
(-0.0295507 0.000357636 0)
(-0.029603 0.000143176 0)
(-0.02961 -7.17562e-05 0)
(-0.0295716 -0.000286851 0)
(-0.0294879 -0.000501787 0)
(-0.0293589 -0.000716239 0)
(-0.0291847 -0.00092987 0)
(-0.0289657 -0.00114233 0)
(-0.028702 -0.00135327 0)
(-0.0283941 -0.00156231 0)
(-0.0280425 -0.00176904 0)
(-0.0276476 -0.00197305 0)
(-0.0272102 -0.00217389 0)
(-0.026731 -0.00237108 0)
(-0.0262108 -0.00256412 0)
(-0.0256505 -0.00275245 0)
(-0.0250514 -0.0029355 0)
(-0.0244144 -0.00311265 0)
(-0.023741 -0.00328322 0)
(-0.0230327 -0.0034465 0)
(-0.0222911 -0.00360173 0)
(-0.0215179 -0.00374809 0)
(-0.0207151 -0.00388472 0)
(-0.0198849 -0.00401069 0)
(-0.0190295 -0.00412502 0)
(-0.0181516 -0.00422667 0)
(-0.0172538 -0.00431455 0)
(-0.0163391 -0.00438753 0)
(-0.0154107 -0.00444443 0)
(-0.0144719 -0.00448402 0)
(-0.0135264 -0.00450507 0)
(-0.0125781 -0.00450632 0)
(-0.0116309 -0.0044865 0)
(-0.0106892 -0.00444437 0)
(-0.0097575 -0.00437876 0)
(-0.00884041 -0.00428853 0)
(-0.00794278 -0.0041727 0)
(-0.00706953 -0.00403044 0)
(-0.00622573 -0.00386113 0)
(-0.00541646 -0.00366445 0)
(-0.00464678 -0.00344047 0)
(-0.00392164 -0.00318974 0)
(-0.00324586 -0.00291342 0)
(-0.00262399 -0.00261347 0)
(-0.0020603 -0.00229285 0)
(-0.00155858 -0.00195577 0)
(-0.00112219 -0.00160797 0)
(-0.000753938 -0.00125712 0)
(-0.000455931 -0.000913233 0)
(-0.000229345 -0.000589049 0)
(-7.78869e-05 -0.000300766 0)
(-1.08665e-05 -7.11069e-05 0)
(-1.32398e-05 9.8972e-05 0)
(-9.19103e-05 0.000409739 0)
(-0.000266066 0.000787904 0)
(-0.000523621 0.00119511 0)
(-0.000859467 0.00161521 0)
(-0.0012713 0.00203692 0)
(-0.00175616 0.00245084 0)
(-0.00231033 0.00284949 0)
(-0.00292974 0.00322711 0)
(-0.00360996 0.00357939 0)
(-0.00434629 0.00390327 0)
(-0.00513372 0.00419671 0)
(-0.0059671 0.00445851 0)
(-0.00684116 0.00468815 0)
(-0.00775059 0.00488564 0)
(-0.00869009 0.00505141 0)
(-0.00965445 0.00518624 0)
(-0.0106385 0.00529113 0)
(-0.0116374 0.00536728 0)
(-0.0126461 0.005416 0)
(-0.0136602 0.00543872 0)
(-0.0146753 0.00543688 0)
(-0.015687 0.00541198 0)
(-0.0166916 0.00536549 0)
(-0.0176853 0.00529885 0)
(-0.0186645 0.00521348 0)
(-0.0196261 0.00511075 0)
(-0.020567 0.00499196 0)
(-0.0214844 0.00485834 0)
(-0.0223756 0.00471108 0)
(-0.0232383 0.00455129 0)
(-0.0240702 0.00437998 0)
(-0.0248693 0.00419814 0)
(-0.0256337 0.00400668 0)
(-0.0263617 0.00380641 0)
(-0.0270516 0.00359814 0)
(-0.0277021 0.00338259 0)
(-0.0283118 0.00316043 0)
(-0.0288796 0.00293229 0)
(-0.0294044 0.00269876 0)
(-0.0298852 0.00246039 0)
(-0.0303211 0.00221768 0)
(-0.0307114 0.00197112 0)
(-0.0310553 0.00172118 0)
(-0.0313524 0.0014683 0)
(-0.031602 0.00121289 0)
(-0.0318037 0.000955352 0)
(-0.0319572 0.000696091 0)
(-0.0320622 0.000435492 0)
(-0.0321185 0.00017394 0)
(-0.0321258 -8.81795e-05 0)
(-0.0320843 -0.000350481 0)
(-0.0319938 -0.000612578 0)
(-0.0318545 -0.000874073 0)
(-0.0316666 -0.00113455 0)
(-0.0314302 -0.00139359 0)
(-0.0311457 -0.00165074 0)
(-0.0308136 -0.00190555 0)
(-0.0304342 -0.00215753 0)
(-0.0300083 -0.00240616 0)
(-0.0295365 -0.0026509 0)
(-0.0290196 -0.00289117 0)
(-0.0284585 -0.00312634 0)
(-0.0278543 -0.00335575 0)
(-0.0272081 -0.0035787 0)
(-0.0265212 -0.00379443 0)
(-0.025795 -0.00400213 0)
(-0.0250312 -0.00420092 0)
(-0.0242314 -0.0043899 0)
(-0.0233977 -0.00456806 0)
(-0.022532 -0.00473435 0)
(-0.0216367 -0.00488767 0)
(-0.0207143 -0.00502683 0)
(-0.0197675 -0.00515058 0)
(-0.0187992 -0.00525763 0)
(-0.0178126 -0.00534661 0)
(-0.016811 -0.00541611 0)
(-0.015798 -0.00546468 0)
(-0.0147776 -0.00549085 0)
(-0.0137537 -0.00549313 0)
(-0.0127307 -0.00547003 0)
(-0.0117131 -0.00542013 0)
(-0.0107056 -0.00534201 0)
(-0.00971328 -0.00523441 0)
(-0.00874108 -0.00509617 0)
(-0.00779423 -0.00492638 0)
(-0.00687806 -0.00472434 0)
(-0.00599793 -0.00448973 0)
(-0.00515916 -0.00422266 0)
(-0.004367 -0.00392379 0)
(-0.00362659 -0.00359448 0)
(-0.00294285 -0.00323695 0)
(-0.00232046 -0.0028545 0)
(-0.00176374 -0.00245174 0)
(-0.00127662 -0.00203486 0)
(-0.000862744 -0.00161199 0)
(-0.000525131 -0.00119351 0)
(-0.000266075 -0.00079244 0)
(-9.12033e-05 -0.000425035 0)
(-1.296e-05 -0.000113712 0)
(-1.52418e-05 0.000148681 0)
(-0.000104546 0.000551806 0)
(-0.000301107 0.00101759 0)
(-0.000589753 0.00150899 0)
(-0.000963536 0.00200994 0)
(-0.00141916 0.00250889 0)
(-0.00195267 0.00299619 0)
(-0.00255959 0.00346404 0)
(-0.00323523 0.00390634 0)
(-0.00397465 0.00431848 0)
(-0.00477267 0.00469716 0)
(-0.00562395 0.00504017 0)
(-0.00652301 0.00534618 0)
(-0.00746427 0.00561459 0)
(-0.00844215 0.00584542 0)
(-0.0094511 0.00603914 0)
(-0.0104857 0.00619661 0)
(-0.0115404 0.00631897 0)
(-0.0126103 0.00640758 0)
(-0.0136901 0.00646394 0)
(-0.014775 0.00648966 0)
(-0.0158605 0.00648645 0)
(-0.0169422 0.00645599 0)
(-0.0180159 0.00639999 0)
(-0.0190776 0.00632015 0)
(-0.0201238 0.00621811 0)
(-0.0211509 0.00609546 0)
(-0.0221558 0.00595374 0)
(-0.0231355 0.00579439 0)
(-0.0240872 0.0056188 0)
(-0.0250084 0.00542828 0)
(-0.0258967 0.00522405 0)
(-0.0267498 0.00500725 0)
(-0.0275659 0.00477895 0)
(-0.0283431 0.00454017 0)
(-0.0290797 0.00429181 0)
(-0.0297741 0.00403474 0)
(-0.030425 0.00376977 0)
(-0.0310311 0.00349766 0)
(-0.0315913 0.0032191 0)
(-0.0321045 0.00293474 0)
(-0.0325698 0.00264519 0)
(-0.0329864 0.00235105 0)
(-0.0333535 0.00205285 0)
(-0.0336706 0.00175114 0)
(-0.0339369 0.0014464 0)
(-0.0341522 0.00113913 0)
(-0.034316 0.000829794 0)
(-0.0344279 0.000518865 0)
(-0.0344879 0.000206808 0)
(-0.0344957 -0.000105921 0)
(-0.0344512 -0.000418864 0)
(-0.0343545 -0.000731549 0)
(-0.0342057 -0.0010435 0)
(-0.0340049 -0.00135421 0)
(-0.0337524 -0.00166319 0)
(-0.0334486 -0.00196991 0)