/*--------------------------------*- C++ -*----------------------------------*\
| =========                 |                                                 |
| \\      /  F ield         | OpenFOAM: The Open Source CFD Toolbox           |
|  \\    /   O peration     | Version:  2212                                  |
|   \\  /    A nd           | Website:  www.openfoam.com                      |
|    \\/     M anipulation  |                                                 |
\*---------------------------------------------------------------------------*/
FoamFile
{
    version     2.0;
    format      ascii;
    arch        "LSB;label=32;scalar=64";
    class       surfaceScalarField;
    location    "0.0505";
    object      phi_0;
}
// * * * * * * * * * * * * * * * * * * * * * * * * * * * * * * * * * * * * * //

dimensions      [0 3 -1 0 0 0 0];

oriented        oriented;

internalField   nonuniform List<scalar> 
19800
(
6.5298e-11
-6.5315e-11
2.17409e-10
-1.52128e-10
3.85196e-10
-1.67765e-10
5.1356e-10
-1.28388e-10
5.73096e-10
-5.9531e-11
5.47495e-10
2.56076e-11
4.28765e-10
1.18732e-10
2.14186e-10
2.14583e-10
-9.56844e-11
3.09873e-10
-4.98159e-10
4.0248e-10
-9.89185e-10
4.91025e-10
-1.56378e-09
5.74603e-10
-2.2164e-09
6.52621e-10
-2.94109e-09
7.24699e-10
-3.7317e-09
7.90611e-10
-4.58192e-09
8.50219e-10
-5.48541e-09
9.03485e-10
-6.43583e-09
9.50424e-10
-7.42692e-09
9.9109e-10
-8.4525e-09
1.02557e-09
-9.5065e-09
1.05399e-09
-1.0583e-08
1.07648e-09
-1.16762e-08
1.09321e-09
-1.27805e-08
1.10433e-09
-1.38905e-08
1.11001e-09
-1.5001e-08
1.11042e-09
-1.61067e-08
1.10575e-09
-1.72029e-08
1.09619e-09
-1.82848e-08
1.08192e-09
-1.9348e-08
1.06315e-09
-2.0388e-08
1.04007e-09
-2.14009e-08
1.01288e-09
-2.23827e-08
9.81758e-10
-2.33296e-08
9.46908e-10
-2.42381e-08
9.08548e-10
-2.5105e-08
8.66859e-10
-2.5927e-08
8.22021e-10
-2.67012e-08
7.74235e-10
-2.74249e-08
7.23713e-10
-2.80956e-08
6.70651e-10
-2.87108e-08
6.15237e-10
-2.92685e-08
5.57677e-10
-2.97667e-08
4.98171e-10
-3.02036e-08
4.36909e-10
-3.05777e-08
3.74086e-10
-3.08876e-08
3.09908e-10
-3.11322e-08
2.44588e-10
-3.13105e-08
1.7834e-10
-3.14219e-08
1.1136e-10
-3.14657e-08
4.38533e-11
-3.14418e-08
-2.39617e-11
-3.13499e-08
-9.18636e-11
-3.11903e-08
-1.59624e-10
-3.09633e-08
-2.27019e-10
-3.06694e-08
-2.93829e-10
-3.03096e-08
-3.59825e-10
-2.98849e-08
-4.24763e-10
-2.93965e-08
-4.88404e-10
-2.8846e-08
-5.50506e-10
-2.82351e-08
-6.10823e-10
-2.7566e-08
-6.69117e-10
-2.68409e-08
-7.25146e-10
-2.60622e-08
-7.78648e-10
-2.52328e-08
-8.29366e-10
-2.43558e-08
-8.77053e-10
-2.34343e-08
-9.21457e-10
-2.2472e-08
-9.62328e-10
-2.14726e-08
-9.99427e-10
-2.04401e-08
-1.03251e-09
-1.93787e-08
-1.06133e-09
-1.82931e-08
-1.08565e-09
-1.71878e-08
-1.10525e-09
-1.60679e-08
-1.1199e-09
-1.49385e-08
-1.1294e-09
-1.3805e-08
-1.13354e-09
-1.26728e-08
-1.13214e-09
-1.15478e-08
-1.12502e-09
-1.04358e-08
-1.11201e-09
-9.34282e-09
-1.09298e-09
-8.27501e-09
-1.06781e-09
-7.23863e-09
-1.03638e-09
-6.24e-09
-9.98631e-10
-5.2855e-09
-9.54505e-10
-4.3815e-09
-9.03995e-10
-3.53438e-09
-8.47129e-10
-2.7504e-09
-7.8398e-10
-2.0357e-09
-7.14695e-10
-1.3962e-09
-6.39505e-10
-8.37448e-10
-5.58752e-10
-3.64521e-10
-4.72929e-10
1.82278e-11
-3.82747e-10
3.07465e-10
-2.89235e-10
5.01326e-10
-1.93862e-10
6.00166e-10
-9.88447e-11
6.07725e-10
-7.56134e-12
5.32992e-10
7.47316e-11
3.93207e-10
1.39785e-10
2.18938e-10
1.74269e-10
6.28412e-11
1.56095e-10
6.28407e-11
1.58109e-10
-2.23444e-10
4.24755e-10
-4.18768e-10
6.73065e-10
-4.1607e-10
8.13176e-10
-2.6849e-10
7.81116e-10
-2.74771e-11
5.36571e-10
2.70152e-10
5.64036e-11
5.98878e-10
-6.70205e-10
9.41191e-10
-1.64546e-09
1.28511e-09
-2.86541e-09
1.62242e-09
-4.32182e-09
1.94743e-09
-6.00344e-09
2.2562e-09
-7.89685e-09
2.54602e-09
-9.98718e-09
2.81503e-09
-1.22586e-08
3.06199e-09
-1.46945e-08
3.28614e-09
-1.7278e-08
3.48705e-09
-1.99922e-08
3.66458e-09
-2.28199e-08
3.81876e-09
-2.57441e-08
3.94981e-09
-2.87481e-08
4.05804e-09
-3.18155e-08
4.14387e-09
-3.49301e-08
4.20779e-09
-3.80761e-08
4.25036e-09
-4.12383e-08
4.27219e-09
-4.44018e-08
4.2739e-09
-4.75522e-08
4.25615e-09
-5.06756e-08
4.21962e-09
-5.37587e-08
4.16503e-09
-5.67886e-08
4.0931e-09
-5.97531e-08
4.00456e-09
-6.26404e-08
3.90015e-09
-6.54392e-08
3.78059e-09
-6.81389e-08
3.64664e-09
-7.07294e-08
3.49906e-09
-7.32012e-08
3.33859e-09
-7.55452e-08
3.16599e-09
-7.7753e-08
2.98203e-09
-7.98167e-08
2.78745e-09
-8.1729e-08
2.58302e-09
-8.34833e-08
2.36949e-09
-8.50732e-08
2.14764e-09
-8.64933e-08
1.91824e-09
-8.77385e-08
1.68206e-09
-8.88043e-08
1.43987e-09
-8.96869e-08
1.19248e-09
-9.03829e-08
9.40678e-10
-9.08899e-08
6.85269e-10
-9.12056e-08
4.27063e-10
-9.13286e-08
1.66875e-10
-9.12581e-08
-9.4454e-11
-9.09939e-08
-3.56069e-10
-9.05364e-08
-6.17112e-10
-8.98868e-08
-8.76708e-10
-8.90466e-08
-1.13397e-09
-8.80184e-08
-1.38802e-09
-8.68052e-08
-1.63794e-09
-8.54108e-08
-1.88279e-09
-8.38397e-08
-2.12165e-09
-8.20969e-08
-2.35359e-09
-8.01884e-08
-2.57765e-09
-7.81207e-08
-2.79288e-09
-7.5901e-08
-2.99833e-09
-7.35373e-08
-3.19303e-09
-7.10384e-08
-3.376e-09
-6.84135e-08
-3.54631e-09
-6.56728e-08
-3.70301e-09
-6.28271e-08
-3.84515e-09
-5.98878e-08
-3.97182e-09
-5.6867e-08
-4.08211e-09
-5.37775e-08
-4.17513e-09
-5.06327e-08
-4.25004e-09
-4.74466e-08
-4.30601e-09
-4.42338e-08
-4.34226e-09
-4.10092e-08
-4.35807e-09
-3.77886e-08
-4.35272e-09
-3.45881e-08
-4.3256e-09
-3.14239e-08
-4.27613e-09
-2.83131e-08
-4.20383e-09
-2.52726e-08
-4.10829e-09
-2.23198e-08
-3.98918e-09
-1.94721e-08
-3.84632e-09
-1.6747e-08
-3.67963e-09
-1.41618e-08
-3.48919e-09
-1.17337e-08
-3.27527e-09
-9.47932e-09
-3.03835e-09
-7.41479e-09
-2.77923e-09
-5.55525e-09
-2.49904e-09
-3.9146e-09
-2.19941e-09
-2.50494e-09
-1.88259e-09
-1.33598e-09
-1.55171e-09
-4.14126e-10
-1.21109e-09
2.58765e-10
-8.66756e-10
6.87138e-10
-5.27219e-10
8.84201e-10
-2.04632e-10
8.75427e-10
8.35004e-11
7.03211e-10
3.12001e-10
4.32555e-10
4.44925e-10
1.55963e-10
4.32687e-10
2.18809e-10
1.68623e-10
-3.92043e-10
4.20449e-10
-6.70598e-10
5.96315e-10
-5.91915e-10
5.87069e-10
-2.59255e-10
3.13264e-10
2.46351e-10
-2.79054e-10
8.62464e-10
-1.22311e-09
1.54295e-09
-2.53629e-09
2.25437e-09
-4.22389e-09
2.97271e-09
-6.28222e-09
3.68075e-09
-8.70086e-09
4.36608e-09
-1.14645e-08
5.01981e-09
-1.4554e-08
5.63557e-09
-1.79479e-08
6.2089e-09
-2.16226e-08
6.73667e-09
-2.55533e-08
7.21684e-09
-2.97144e-08
7.64814e-09
-3.40797e-08
8.02992e-09
-3.8623e-08
8.36203e-09
-4.33179e-08
8.64469e-09
-4.81382e-08
8.87838e-09
-5.30582e-08
9.06386e-09
-5.80525e-08
9.20207e-09
-6.30962e-08
9.29409e-09
-6.81652e-08
9.34111e-09
-7.32357e-08
9.34444e-09
-7.8285e-08
9.30546e-09
-8.3291e-08
9.22561e-09
-8.82323e-08
9.10636e-09
-9.30885e-08
8.94926e-09
-9.78398e-08
8.75588e-09
-1.02467e-07
8.52779e-09
-1.06953e-07
8.26658e-09
-1.11281e-07
7.97388e-09
-1.15433e-07
7.65131e-09
-1.19395e-07
7.3005e-09
-1.23152e-07
6.92311e-09
-1.26691e-07
6.5208e-09
-1.29999e-07
6.09521e-09
-1.33064e-07
5.64803e-09
-1.35875e-07
5.18091e-09
-1.38423e-07
4.69555e-09
-1.40698e-07
4.19362e-09
-1.42693e-07
3.67684e-09
-1.444e-07
3.14693e-09
-1.45813e-07
2.60562e-09
-1.46927e-07
2.05466e-09
-1.47738e-07
1.49583e-09
-1.48242e-07
9.30922e-10
-1.48436e-07
3.6174e-10
-1.48321e-07
-2.09881e-10
-1.47895e-07
-7.82071e-10
-1.47159e-07
-1.35294e-09
-1.46115e-07
-1.92056e-09
-1.44766e-07
-2.48301e-09
-1.43116e-07
-3.0383e-09
-1.4117e-07
-3.58446e-09
-1.38933e-07
-4.11948e-09
-1.36413e-07
-4.64129e-09
-1.33619e-07
-5.14787e-09
-1.30559e-07
-5.63713e-09
-1.27245e-07
-6.10701e-09
-1.23688e-07
-6.5554e-09
-1.19901e-07
-6.98023e-09
-1.15898e-07
-7.37941e-09
-1.11693e-07
-7.75087e-09
-1.07304e-07
-8.09255e-09
-1.02746e-07
-8.40245e-09
-9.80395e-08
-8.67856e-09
-9.32027e-08
-8.91893e-09
-8.82561e-08
-9.12168e-09
-8.32211e-08
-9.28499e-09
-7.812e-08
-9.40711e-09
-7.29759e-08
-9.48638e-09
-6.78128e-08
-9.52124e-09
-6.26552e-08
-9.51025e-09
-5.75287e-08
-9.45212e-09
-5.24591e-08
-9.34568e-09
-4.7473e-08
-9.18996e-09
-4.25971e-08
-8.98418e-09
-3.78585e-08
-8.72778e-09
-3.32844e-08
-8.42047e-09
-2.89017e-08
-8.06226e-09
-2.47374e-08
-7.65354e-09
-2.08175e-08
-7.19512e-09
-1.71675e-08
-6.68836e-09
-1.38115e-08
-6.13525e-09
-1.07719e-08
-5.53863e-09
-8.0689e-09
-4.90243e-09
-5.71955e-09
-4.23194e-09
-3.73694e-09
-3.53433e-09
-2.1288e-09
-2.81923e-09
-8.9586e-10
-2.09969e-09
-2.95837e-11
-1.3935e-09
4.9071e-10
-7.24931e-10
7.01493e-10
-1.27275e-10
6.59522e-10
3.53982e-10
4.4665e-10
6.57796e-10
1.74648e-10
7.04696e-10
3.93461e-10
1.30442e-10
-5.22503e-10
2.75062e-10
-8.15216e-10
2.68746e-10
-5.85605e-10
-5.14342e-12
1.46438e-11
-6.32166e-10
8.73364e-10
-1.67221e-09
1.90251e-09
-3.16371e-09
3.03445e-09
-5.12783e-09
4.21849e-09
-7.57195e-09
5.41683e-09
-1.04926e-08
6.60142e-09
-1.3878e-08
7.75148e-09
-1.77099e-08
8.85165e-09
-2.19649e-08
9.89066e-09
-2.66164e-08
1.08603e-08
-3.16346e-08
1.17549e-08
-3.6988e-08
1.25702e-08
-4.26436e-08
1.33038e-08
-4.85677e-08
1.3954e-08
-5.47259e-08
1.45203e-08
-6.10839e-08
1.50027e-08
-6.76073e-08
1.54017e-08
-7.42619e-08
1.57185e-08
-8.10143e-08
1.59544e-08
-8.78313e-08
1.61111e-08
-9.46808e-08
1.61906e-08
-1.01531e-07
1.61949e-08
-1.08352e-07
1.61263e-08
-1.15114e-07
1.59872e-08
-1.21787e-07
1.57802e-08
-1.28346e-07
1.55077e-08
-1.34762e-07
1.51725e-08
-1.41012e-07
1.47771e-08
-1.4707e-07
1.43245e-08
-1.52913e-07
1.38173e-08
-1.5852e-07
1.32583e-08
-1.6387e-07
1.26503e-08
-1.68943e-07
1.19963e-08
-1.73721e-07
1.12989e-08
-1.78187e-07
1.05612e-08
-1.82325e-07
9.78606e-09
-1.86121e-07
8.9763e-09
-1.8956e-07
8.13487e-09
-1.92631e-07
7.26471e-09
-1.95323e-07
6.3688e-09
-1.97626e-07
5.45013e-09
-1.99532e-07
4.51172e-09
-2.01034e-07
3.55661e-09
-2.02126e-07
2.5879e-09
-2.02804e-07
1.6087e-09
-2.03065e-07
6.22174e-10
-2.02906e-07
-3.68487e-10
-2.02328e-07
-1.36004e-09
-2.01332e-07
-2.3492e-09
-1.9992e-07
-3.33264e-09
-1.98096e-07
-4.30698e-09
-1.95865e-07
-5.26881e-09
-1.93235e-07
-6.21468e-09
-1.90213e-07
-7.14111e-09
-1.8681e-07
-8.04456e-09
-1.83036e-07
-8.92148e-09
-1.78905e-07
-9.7683e-09
-1.74431e-07
-1.05814e-08
-1.69629e-07
-1.13573e-08
-1.64517e-07
-1.20923e-08
-1.59113e-07
-1.27828e-08
-1.53439e-07
-1.34253e-08
-1.47515e-07
-1.40162e-08
-1.41366e-07
-1.45522e-08
-1.35015e-07
-1.50297e-08
-1.28488e-07
-1.54455e-08
-1.21813e-07
-1.57964e-08
-1.15019e-07
-1.60793e-08
-1.08135e-07
-1.62911e-08
-1.01192e-07
-1.64292e-08
-9.42223e-08
-1.64909e-08
-8.72587e-08
-1.64739e-08
-8.03349e-08
-1.63759e-08
-7.34854e-08
-1.61952e-08
-6.67453e-08
-1.59301e-08
-6.01499e-08
-1.55795e-08
-5.37351e-08
-1.51427e-08
-4.75363e-08
-1.46192e-08
-4.1589e-08
-1.40096e-08
-3.5928e-08
-1.33145e-08
-3.05872e-08
-1.25359e-08
-2.55993e-08
-1.16763e-08
-2.09949e-08
-1.07396e-08
-1.68024e-08
-9.73118e-09
-1.30467e-08
-8.65813e-09
-9.74869e-09
-7.52994e-09
-6.92384e-09
-6.35918e-09
-4.5807e-09
-5.16236e-09
-2.71911e-09
-3.96129e-09
-1.3278e-09
-2.78481e-09
-3.81665e-10
-1.67106e-09
1.61636e-10
-6.70565e-10
3.65567e-10
1.5005e-10
3.19026e-10
7.0433e-10
1.41789e-10
8.81939e-10
5.35248e-10
6.33292e-11
-5.85823e-10
3.95155e-11
-7.9141e-10
-2.26917e-10
-3.19149e-10
-8.49738e-10
6.37448e-10
-1.91355e-09
1.93718e-09
-3.47861e-09
3.46757e-09
-5.58445e-09
5.14029e-09
-8.25324e-09
6.88728e-09
-1.14928e-08
8.65642e-09
-1.52994e-08
1.04079e-08
-1.96596e-08
1.21117e-08
-2.45527e-08
1.37448e-08
-2.99521e-08
1.52901e-08
-3.58267e-08
1.67349e-08
-4.21418e-08
1.807e-08
-4.88602e-08
1.92886e-08
-5.59427e-08
2.03864e-08
-6.33492e-08
2.13605e-08
-7.10384e-08
2.22095e-08
-7.89688e-08
2.29331e-08
-8.70988e-08
2.35318e-08
-9.53871e-08
2.40068e-08
-1.03793e-07
2.43601e-08
-1.12276e-07
2.45939e-08
-1.20796e-07
2.47109e-08
-1.29315e-07
2.47142e-08
-1.37796e-07
2.4607e-08
-1.46202e-07
2.43929e-08
-1.54497e-07
2.40756e-08
-1.62648e-07
2.36588e-08
-1.70622e-07
2.31466e-08
-1.78388e-07
2.25429e-08
-1.85915e-07
2.18518e-08
-1.93176e-07
2.10776e-08
-2.00142e-07
2.02245e-08
-2.06788e-07
1.92967e-08
-2.13091e-07
1.82986e-08
-2.19026e-07
1.72345e-08
-2.24574e-07
1.61088e-08
-2.29714e-07
1.49258e-08
-2.34427e-07
1.36901e-08
-2.38699e-07
1.24061e-08
-2.42512e-07
1.10782e-08
-2.45854e-07
9.71105e-09
-2.48713e-07
8.3092e-09
-2.51079e-07
6.87727e-09
-2.52942e-07
5.41993e-09
-2.54296e-07
3.94191e-09
-2.55136e-07
2.44796e-09
-2.55456e-07
9.42928e-10
-2.55256e-07
-5.68291e-10
-2.54536e-07
-2.08074e-09
-2.53296e-07
-3.58941e-09
-2.51539e-07
-5.0892e-09
-2.49271e-07
-6.57498e-09
-2.46498e-07
-8.04153e-09
-2.43229e-07
-9.48359e-09
-2.39475e-07
-1.08958e-08
-2.35246e-07
-1.22729e-08
-2.30558e-07
-1.36094e-08
-2.25427e-07
-1.48999e-08
-2.19869e-07
-1.6139e-08
-2.13905e-07
-1.73211e-08
-2.07557e-07
-1.84408e-08
-2.00847e-07
-1.94928e-08
-1.938e-07
-2.04716e-08
-1.86445e-07
-2.1372e-08
-1.78808e-07
-2.21886e-08
-1.70921e-07
-2.29165e-08
-1.62816e-07
-2.35505e-08
-1.54527e-07
-2.40859e-08
-1.46088e-07
-2.4518e-08
-1.37537e-07
-2.48425e-08
-1.28911e-07
-2.50552e-08
-1.20249e-07
-2.51523e-08
-1.11593e-07
-2.51303e-08
-1.02983e-07
-2.49861e-08
-9.44611e-08
-2.4717e-08
-8.60703e-08
-2.43208e-08
-7.78538e-08
-2.37961e-08
-6.98546e-08
-2.31418e-08
-6.2116e-08
-2.23579e-08
-5.46805e-08
-2.1445e-08
-4.759e-08
-2.04051e-08
-4.08849e-08
-1.9241e-08
-3.46039e-08
-1.79572e-08
-2.87834e-08
-1.65602e-08
-2.34563e-08
-1.50582e-08
-1.86519e-08
-1.34626e-08
-1.43939e-08
-1.17879e-08
-1.07e-08
-1.00531e-08
-7.57974e-09
-8.28265e-09
-5.03283e-09
-6.50822e-09
-3.04706e-09
-4.77059e-09
-1.59572e-09
-3.1224e-09
-6.34734e-10
-1.63155e-09
-9.93963e-11
-3.85297e-10
9.93237e-11
5.05606e-10
7.9532e-11
9.01731e-10
6.14775e-10
-1.92446e-11
-5.66573e-10
-2.50818e-10
-5.59841e-10
-8.30735e-10
2.60757e-10
-1.86253e-09
1.66925e-09
-3.42445e-09
3.49912e-09
-5.5729e-09
5.61602e-09
-8.34513e-09
7.91252e-09
-1.17618e-08
1.0304e-08
-1.58296e-08
1.27242e-08
-2.05431e-08
1.51215e-08
-2.58873e-08
1.74558e-08
-3.18388e-08
1.96963e-08
-3.8368e-08
2.18193e-08
-4.54399e-08
2.38068e-08
-5.30156e-08
2.56456e-08
-6.1053e-08
2.7326e-08
-6.95077e-08
2.88411e-08
-7.83337e-08
3.01865e-08
-8.74839e-08
3.13597e-08
-9.69107e-08
3.23598e-08
-1.06566e-07
3.3187e-08
-1.16402e-07
3.38428e-08
-1.26371e-07
3.43294e-08
-1.36427e-07
3.46497e-08
-1.46523e-07
3.48072e-08
-1.56615e-07
3.4806e-08
-1.66659e-07
3.46504e-08
-1.76611e-07
3.43452e-08
-1.86431e-07
3.38954e-08
-1.96078e-07
3.33063e-08
-2.05515e-07
3.25833e-08
-2.14704e-07
3.17319e-08
-2.2361e-07
3.07579e-08
-2.32199e-07
2.96671e-08
-2.4044e-07
2.84653e-08
-2.48302e-07
2.71586e-08
-2.55756e-07
2.5753e-08
-2.62777e-07
2.42546e-08
-2.69337e-07
2.26694e-08
-2.75415e-07
2.10038e-08
-2.80989e-07
1.92639e-08
-2.86039e-07
1.74561e-08
-2.90547e-07
1.55866e-08
-2.94498e-07
1.36618e-08
-2.97877e-07
1.16883e-08
-3.00673e-07
9.67257e-09
-3.02874e-07
7.62113e-09
-3.04473e-07
5.54066e-09
-3.05462e-07
3.43791e-09
-3.05839e-07
1.3197e-09
-3.056e-07
-8.07086e-10
-3.04746e-07
-2.93545e-09
-3.03277e-07
-5.05833e-09
-3.01197e-07
-7.16856e-09
-2.98514e-07
-9.2589e-09
-2.95233e-07
-1.1322e-08
-2.91366e-07
-1.33505e-08
-2.86925e-07
-1.53369e-08
-2.81924e-07
-1.72738e-08
-2.7638e-07
-1.91534e-08
-2.70312e-07
-2.09682e-08
-2.6374e-07
-2.27105e-08
-2.56689e-07
-2.43728e-08
-2.49182e-07
-2.59473e-08
-2.41248e-07
-2.74267e-08
-2.32917e-07
-2.88032e-08
-2.24219e-07
-3.00696e-08
-2.15189e-07
-3.12185e-08
-2.05863e-07
-3.22429e-08
-1.96278e-07
-3.31358e-08
-1.86473e-07
-3.38906e-08
-1.7649e-07
-3.45009e-08
-1.66372e-07
-3.49606e-08
-1.56163e-07
-3.52641e-08
-1.45909e-07
-3.54062e-08
-1.35657e-07
-3.53821e-08
-1.25456e-07
-3.51877e-08
-1.15353e-07
-3.48194e-08
-1.054e-07
-3.42746e-08
-9.56444e-08
-3.35512e-08
-8.61379e-08
-3.26484e-08
-7.69295e-08
-3.15662e-08
-6.80684e-08
-3.03061e-08
-5.96025e-08
-2.8871e-08
-5.15779e-08
-2.72656e-08
-4.40386e-08
-2.54965e-08
-3.70258e-08
-2.3573e-08
-3.05767e-08
-2.15073e-08
-2.47239e-08
-1.93153e-08
-1.94944e-08
-1.70175e-08
-1.49077e-08
-1.46397e-08
-1.09751e-08
-1.22153e-08
-7.69727e-09
-9.78602e-09
-5.06287e-09
-7.40499e-09
-3.04607e-09
-5.1392e-09
-1.60437e-09
-3.07325e-09
-6.76041e-10
-1.31363e-09
-1.77256e-10
6.82465e-12
1.0002e-12
7.23471e-10
6.15774e-10
-1.09532e-10
-4.57035e-10
-5.72312e-10
-9.70724e-11
-1.50026e-09
1.18872e-09
-2.982e-09
3.15098e-09
-5.0855e-09
5.60262e-09
-7.86003e-09
8.39057e-09
-1.13379e-08
1.13904e-08
-1.5536e-08
1.45022e-08
-2.04583e-08
1.76464e-08
-2.60967e-08
2.07599e-08
-3.24335e-08
2.37927e-08
-3.94428e-08
2.67055e-08
-4.70916e-08
2.9468e-08
-5.53414e-08
3.20567e-08
-6.41495e-08
3.44537e-08
-7.34692e-08
3.66458e-08
-8.32517e-08
3.86235e-08
-9.34459e-08
4.03806e-08
-1.03999e-07
4.19131e-08
-1.14859e-07
4.32193e-08
-1.25971e-07
4.42991e-08
-1.37282e-07
4.51538e-08
-1.48738e-07
4.5786e-08
-1.60288e-07
4.61993e-08
-1.71879e-07
4.63979e-08
-1.8346e-07
4.63869e-08
-1.94981e-07
4.6172e-08
-2.06395e-07
4.57591e-08
-2.17655e-07
4.51548e-08
-2.28714e-07
4.43659e-08
-2.3953e-07
4.33993e-08
-2.50061e-07
4.22625e-08
-2.60266e-07
4.09629e-08
-2.70107e-07
3.95081e-08
-2.79547e-07
3.79059e-08
-2.88553e-07
3.61643e-08
-2.97091e-07
3.42911e-08
-3.05131e-07
3.22945e-08
-3.12644e-07
3.01827e-08
-3.19604e-07
2.79637e-08
-3.25986e-07
2.5646e-08
-3.31768e-07
2.32379e-08
-3.36929e-07
2.07478e-08
-3.41452e-07
1.81843e-08
-3.45319e-07
1.55559e-08
-3.48518e-07
1.28714e-08
-3.51037e-07
1.01396e-08
-3.52865e-07
7.36923e-09
-3.53997e-07
4.56936e-09
-3.54426e-07
1.74906e-09
-3.54151e-07
-1.08247e-09
-3.5317e-07
-3.91594e-09
-3.51487e-07
-6.74193e-09
-3.49104e-07
-9.55091e-09
-3.4603e-07
-1.23332e-08
-3.42273e-07
-1.50792e-08
-3.37844e-07
-1.77789e-08
-3.32759e-07
-2.04224e-08
-3.27033e-07
-2.29999e-08
-3.20685e-07
-2.55011e-08
-3.13737e-07
-2.7916e-08
-3.06213e-07
-3.02346e-08
-2.98139e-07
-3.24466e-08
-2.89545e-07
-3.4542e-08
-2.8046e-07
-3.65109e-08
-2.7092e-07
-3.83433e-08
-2.6096e-07
-4.00295e-08
-2.50619e-07
-4.15598e-08
-2.39937e-07
-4.2925e-08
-2.28957e-07
-4.4116e-08
-2.17723e-07
-4.5124e-08
-2.06284e-07
-4.59408e-08
-1.94686e-07
-4.65584e-08
-1.82981e-07
-4.69695e-08
-1.71219e-07
-4.71673e-08
-1.59456e-07
-4.71459e-08
-1.47743e-07
-4.68999e-08
-1.36138e-07
-4.6425e-08
-1.24695e-07
-4.57177e-08
-1.1347e-07
-4.47759e-08
-1.0252e-07
-4.35987e-08
-9.18992e-08
-4.21866e-08
-8.16634e-08
-4.0542e-08
-7.18654e-08
-3.8669e-08
-6.25566e-08
-3.65744e-08
-5.37858e-08
-3.42673e-08
-4.55983e-08
-3.17605e-08
-3.80353e-08
-2.90703e-08
-3.11329e-08
-2.62177e-08
-2.49208e-08
-2.32295e-08
-1.94214e-08
-2.01391e-08
-1.46481e-08
-1.69886e-08
-1.06038e-08
-1.38302e-08
-7.27974e-09
-1.07291e-08
-4.65303e-09
-7.76591e-09
-2.6855e-09
-5.04079e-09
-1.32161e-09
-2.67752e-09
-4.86902e-10
-8.27882e-10
-8.59199e-11
3.22485e-10
5.29857e-10
-2.02952e-10
-2.54084e-10
-9.09505e-10
6.09471e-10
-2.20629e-09
2.48551e-09
-4.16432e-09
5.109e-09
-6.8387e-09
8.27701e-09
-1.02692e-08
1.18211e-08
-1.4481e-08
1.56021e-08
-1.94857e-08
1.95068e-08
-2.52825e-08
2.34433e-08
-3.186e-08
2.73374e-08
-3.9197e-08
3.11297e-08
-4.72642e-08
3.47727e-08
-5.60253e-08
3.82291e-08
-6.54383e-08
4.14697e-08
-7.54566e-08
4.44719e-08
-8.60296e-08
4.72188e-08
-9.71041e-08
4.9698e-08
-1.08624e-07
5.19009e-08
-1.20533e-07
5.38221e-08
-1.32773e-07
5.54588e-08
-1.45284e-07
5.68105e-08
-1.58009e-07
5.78784e-08
-1.70888e-07
5.86652e-08
-1.83864e-07
5.91751e-08
-1.96879e-07
5.94132e-08
-2.09878e-07
5.93856e-08
-2.22805e-07
5.90992e-08
-2.35607e-07
5.85614e-08
-2.48233e-07
5.77802e-08
-2.60631e-07
5.67642e-08
-2.72754e-07
5.55221e-08
-2.84555e-07
5.40632e-08
-2.95989e-07
5.23969e-08
-3.07013e-07
5.05327e-08
-3.17588e-07
4.84807e-08
-3.27674e-07
4.62506e-08
-3.37236e-07
4.38528e-08
-3.46239e-07
4.12975e-08
-3.54651e-07
3.8595e-08
-3.62443e-07
3.57559e-08
-3.69588e-07
3.27907e-08
-3.7606e-07
2.97101e-08
-3.81837e-07
2.65248e-08
-3.86899e-07
2.32459e-08
-3.91227e-07
1.98843e-08
-3.94807e-07
1.6451e-08
-3.97625e-07
1.29574e-08
-3.9967e-07
9.41474e-09
-4.00935e-07
5.83455e-09
-4.01415e-07
2.22843e-09
-4.01105e-07
-1.39187e-09
-4.00007e-07
-5.01445e-09
-3.98122e-07
-8.62727e-09
-3.95454e-07
-1.22182e-08
-3.92013e-07
-1.57749e-08
-3.87807e-07
-1.92849e-08
-3.8285e-07
-2.27357e-08
-3.77158e-07
-2.61147e-08
-3.70749e-07
-2.94091e-08
-3.63644e-07
-3.26061e-08
-3.55867e-07
-3.56928e-08
-3.47445e-07
-3.86565e-08
-3.38407e-07
-4.14843e-08
-3.28786e-07
-4.41633e-08
-3.18616e-07
-4.66809e-08
-3.07935e-07
-4.90245e-08
-2.96782e-07
-5.11819e-08
-2.85201e-07
-5.31408e-08
-2.73237e-07
-5.48895e-08
-2.60936e-07
-5.64166e-08
-2.48349e-07
-5.77111e-08
-2.35527e-07
-5.87624e-08
-2.22525e-07
-5.95609e-08
-2.09397e-07
-6.00972e-08
-1.96201e-07
-6.0363e-08
-1.82996e-07
-6.0351e-08
-1.69842e-07
-6.00545e-08
-1.56798e-07
-5.94685e-08
-1.43927e-07
-5.85888e-08
-1.3129e-07
-5.7413e-08
-1.18948e-07
-5.59405e-08
-1.06963e-07
-5.41722e-08
-9.53932e-08
-5.21115e-08
-8.42978e-08
-4.97644e-08
-7.37326e-08
-4.71396e-08
-6.37506e-08
-4.42493e-08
-5.44014e-08
-4.11097e-08
-4.57299e-08
-3.77418e-08
-3.77757e-08
-3.4172e-08
-3.05717e-08
-3.04335e-08
-2.41434e-08
-2.65674e-08
-1.85073e-08
-2.26247e-08
-1.36699e-08
-1.86677e-08
-9.62603e-09
-1.4773e-08
-6.35788e-09
-1.10341e-08
-3.83364e-09
-7.56502e-09
-2.00645e-09
-4.5047e-09
-8.13677e-10
-2.02067e-09
-1.76438e-10
-3.14753e-10
3.53418e-10
-2.96786e-10
4.27114e-11
-1.25252e-09
1.56519e-09
-2.92906e-09
4.16206e-09
-5.37877e-09
7.55872e-09
-8.64241e-09
1.15407e-08
-1.27486e-08
1.59272e-08
-1.77137e-08
2.05673e-08
-2.35424e-08
2.53356e-08
-3.02285e-08
3.01294e-08
-3.77556e-08
3.48645e-08
-4.60985e-08
3.94725e-08
-5.52239e-08
4.38981e-08
-6.50918e-08
4.80971e-08
-7.56566e-08
5.20345e-08
-8.68678e-08
5.56831e-08
-9.86709e-08
5.90219e-08
-1.11009e-07
6.20356e-08
-1.23821e-07
6.47132e-08
-1.37046e-07
6.70475e-08
-1.50622e-07
6.90348e-08
-1.64485e-07
7.06736e-08
-1.78572e-07
7.19652e-08
-1.9282e-07
7.29125e-08
-2.07164e-07
7.352e-08
-2.21545e-07
7.37938e-08
-2.359e-07
7.37409e-08
-2.50171e-07
7.33696e-08
-2.64298e-07
7.26888e-08
-2.78226e-07
7.17082e-08
-2.919e-07
7.04379e-08
-3.05266e-07
6.88888e-08
-3.18275e-07
6.7072e-08
-3.30877e-07
6.4999e-08
-3.43026e-07
6.26817e-08
-3.54678e-07
6.01321e-08
-3.6579e-07
5.73625e-08
-3.76322e-07
5.43855e-08
-3.86238e-07
5.12136e-08
-3.95503e-07
4.78598e-08
-4.04084e-07
4.43369e-08
-4.11951e-07
4.0658e-08
-4.19078e-07
3.68364e-08
-4.25438e-07
3.28853e-08
-4.31011e-07
2.88184e-08
-4.35776e-07
2.46492e-08
-4.39716e-07
2.03915e-08
-4.42818e-07
1.60591e-08
-4.45069e-07
1.16663e-08
-4.46462e-07
7.22708e-09
-4.46989e-07
2.75598e-09
-4.46649e-07
-1.73249e-09
-4.4544e-07
-6.22358e-09
-4.43365e-07
-1.07024e-08
-4.40429e-07
-1.51539e-08
-4.36641e-07
-1.95629e-08
-4.32012e-07
-2.39139e-08
-4.26556e-07
-2.81915e-08
-4.20291e-07
-3.23801e-08
-4.13236e-07
-3.64638e-08
-4.05415e-07
-4.0427e-08
-3.96854e-07
-4.42537e-08
-3.87583e-07
-4.79281e-08
-3.77632e-07
-5.14344e-08
-3.67039e-07
-5.47569e-08
-3.5584e-07
-5.78799e-08
-3.44076e-07
-6.0788e-08
-3.31792e-07
-6.3466e-08
-3.19034e-07
-6.58992e-08
-3.0585e-07
-6.8073e-08
-2.92294e-07
-6.99734e-08
-2.78418e-07
-7.15871e-08
-2.64279e-07
-7.29013e-08
-2.49935e-07
-7.39041e-08
-2.35448e-07
-7.45843e-08
-2.2088e-07
-7.49318e-08
-2.06293e-07
-7.49377e-08
-1.91753e-07
-7.45944e-08
-1.77326e-07
-7.38956e-08
-1.63078e-07
-7.28369e-08
-1.49075e-07
-7.14155e-08
-1.35385e-07
-6.96309e-08
-1.22072e-07
-6.74849e-08
-1.09201e-07
-6.49821e-08
-9.68359e-08
-6.213e-08
-8.50357e-08
-5.89398e-08
-7.38581e-08
-5.54268e-08
-6.33567e-08
-5.16112e-08
-5.35802e-08
-4.75183e-08
-4.45719e-08
-4.31804e-08
-3.63683e-08
-3.8637e-08
-2.89987e-08
-3.3937e-08
-2.24835e-08
-2.91399e-08
-1.68335e-08
-2.43177e-08
-1.20489e-08
-1.95576e-08
-8.1181e-09
-1.49648e-08
-5.01738e-09
-1.06657e-08
-2.71022e-09
-6.81186e-09
-1.1474e-09
-3.5835e-09
-2.67716e-10
-1.19443e-09
8.56958e-11
-3.89481e-10
4.32191e-10
-1.59512e-09
2.77081e-09
-3.65549e-09
6.22245e-09
-6.60428e-09
1.05075e-08
-1.04672e-08
1.54035e-08
-1.52606e-08
2.07207e-08
-2.09912e-08
2.62978e-08
-2.76555e-08
3.19999e-08
-3.52406e-08
3.77145e-08
-4.37246e-08
4.33485e-08
-5.30772e-08
4.88251e-08
-6.32608e-08
5.40817e-08
-7.42312e-08
5.90675e-08
-8.59388e-08
6.37421e-08
-9.83291e-08
6.80734e-08
-1.11344e-07
7.20366e-08
-1.24921e-07
7.56132e-08
-1.38998e-07
7.87899e-08
-1.53508e-07
8.15576e-08
-1.68385e-07
8.39113e-08
-1.8356e-07
8.58491e-08
-1.98967e-07
8.73717e-08
-2.14537e-07
8.84823e-08
-2.30203e-07
8.9186e-08
-2.45898e-07
8.94895e-08
-2.61559e-07
8.94012e-08
-2.77119e-07
8.89304e-08
-2.92518e-07
8.80876e-08
-3.07694e-07
8.68843e-08
-3.22589e-07
8.53325e-08
-3.37145e-07
8.3445e-08
-3.51308e-07
8.12351e-08
-3.65026e-07
7.87166e-08
-3.78248e-07
7.59035e-08
-3.90926e-07
7.28104e-08
-4.03015e-07
6.9452e-08
-4.14473e-07
6.58433e-08
-4.25259e-07
6.19996e-08
-4.35336e-07
5.79362e-08
-4.44668e-07
5.36688e-08
-4.53223e-07
4.92131e-08
-4.60972e-07
4.45852e-08
-4.67887e-07
3.98012e-08
-4.73946e-07
3.48772e-08
-4.79127e-07
2.98299e-08
-4.83411e-07
2.46757e-08
-4.86784e-07
1.94317e-08
-4.89232e-07
1.41146e-08
-4.90747e-07
8.74181e-09
-4.91321e-07
3.33063e-09
-4.90953e-07
-2.10134e-09
-4.8964e-07
-7.53631e-09
-4.87386e-07
-1.29563e-08
-4.84197e-07
-1.83431e-08
-4.80081e-07
-2.36783e-08
-4.75052e-07
-2.89435e-08
-4.69123e-07
-3.41198e-08
-4.62315e-07
-3.91885e-08
-4.54648e-07
-4.41306e-08
-4.46148e-07
-4.89271e-08
-4.36843e-07
-5.35588e-08
-4.26764e-07
-5.80068e-08
-4.15947e-07
-6.2252e-08
-4.04428e-07
-6.62754e-08
-3.9225e-07
-7.00583e-08
-3.79456e-07
-7.35823e-08
-3.66092e-07
-7.68291e-08
-3.52211e-07
-7.9781e-08
-3.37863e-07
-8.24206e-08
-3.23105e-07
-8.47312e-08
-3.07996e-07
-8.66969e-08
-2.92594e-07
-8.83025e-08
-2.76965e-07
-8.95337e-08
-2.61171e-07
-9.03775e-08
-2.45281e-07
-9.08219e-08
-2.29363e-07
-9.08563e-08
-2.13485e-07
-9.0472e-08
-1.97719e-07
-8.96617e-08
-1.82136e-07
-8.84204e-08
-1.66806e-07
-8.67452e-08
-1.51801e-07
-8.46358e-08
-1.37191e-07
-8.20947e-08
-1.23045e-07
-7.91278e-08
-1.09431e-07
-7.57445e-08
-9.64121e-08
-7.19585e-08
-8.40506e-08
-6.77884e-08
-7.24039e-08
-6.32579e-08
-6.15246e-08
-5.83975e-08
-5.14601e-08
-5.32449e-08
-4.22511e-08
-4.7846e-08
-3.3931e-08
-4.22571e-08
-2.6525e-08
-3.65459e-08
-2.00493e-08
-3.07934e-08
-1.45101e-08
-2.50968e-08
-9.90358e-09
-1.95714e-08
-6.21506e-09
-1.43543e-08
-3.4194e-09
-9.60752e-09
-1.48158e-09
-5.52133e-09
-3.58108e-10
-2.31791e-09
-2.72415e-10
-4.80203e-10
9.12402e-10
-1.93353e-09
4.22413e-09
-4.37719e-09
8.66611e-09
-7.82676e-09
1.39571e-08
-1.22928e-08
1.98696e-08
-1.7779e-08
2.62069e-08
-2.42815e-08
3.28003e-08
-3.17879e-08
3.95064e-08
-4.02779e-08
4.62046e-08
-4.97231e-08
5.27937e-08
-6.00876e-08
5.91896e-08
-7.13288e-08
6.53229e-08
-8.3398e-08
7.11367e-08
-9.62412e-08
7.65853e-08
-1.098e-07
8.1632e-08
-1.24011e-07
8.62482e-08
-1.38811e-07
9.04124e-08
-1.5413e-07
9.41088e-08
-1.69898e-07
9.73266e-08
-1.86047e-07
1.00059e-07
-2.02502e-07
1.02305e-07
-2.19193e-07
1.04063e-07
-2.36048e-07
1.05337e-07
-2.52995e-07
1.06133e-07
-2.69964e-07
1.06458e-07
-2.86885e-07
1.06323e-07
-3.03691e-07
1.05737e-07
-3.20316e-07
1.04712e-07
-3.36694e-07
1.03262e-07
-3.52763e-07
1.01401e-07
-3.68462e-07
9.91445e-08
-3.83734e-07
9.65068e-08
-3.98522e-07
9.35044e-08
-4.12772e-07
9.01541e-08
-4.26435e-07
8.64727e-08
-4.3946e-07
8.24778e-08
-4.51804e-07
7.81868e-08
-4.63422e-07
7.36178e-08
-4.74275e-07
6.8789e-08
-4.84325e-07
6.37189e-08
-4.93538e-07
5.84261e-08
-5.01882e-07
5.29295e-08
-5.09329e-07
4.72481e-08
-5.15853e-07
4.14013e-08
-5.21432e-07
3.54085e-08
-5.26046e-07
2.92894e-08
-5.29678e-07
2.3064e-08
-5.32316e-07
1.67523e-08
-5.33949e-07
1.03748e-08
-5.3457e-07
3.95199e-09
-5.34176e-07
-2.49526e-09
-5.32766e-07
-8.9459e-09
-5.30344e-07
-1.53786e-08
-5.26915e-07
-2.17719e-08
-5.2249e-07
-2.81041e-08
-5.1708e-07
-3.43531e-08
-5.10703e-07
-4.0497e-08
-5.03378e-07
-4.65133e-08
-4.95129e-07
-5.23798e-08
-4.85982e-07
-5.8074e-08
-4.75967e-07
-6.35733e-08
-4.65119e-07
-6.88552e-08
-4.53474e-07
-7.38973e-08
-4.41072e-07
-7.86773e-08
-4.27957e-07
-8.31732e-08
-4.14176e-07
-8.7363e-08
-3.9978e-07
-9.12255e-08
-3.84821e-07
-9.47397e-08
-3.69356e-07
-9.78854e-08
-3.53444e-07
-1.00643e-07
-3.37148e-07
-1.02994e-07
-3.20531e-07
-1.04919e-07
-3.0366e-07
-1.06404e-07
-2.86605e-07
-1.07432e-07
-2.69437e-07
-1.0799e-07
-2.52227e-07
-1.08066e-07
-2.35051e-07
-1.07648e-07
-2.17982e-07
-1.0673e-07
-2.01097e-07
-1.05306e-07
-1.84471e-07
-1.03372e-07
-1.68179e-07
-1.00928e-07
-1.52295e-07
-9.79779e-08
-1.36894e-07
-9.45288e-08
-1.22047e-07
-9.05919e-08
-1.07822e-07
-8.61835e-08
-9.42851e-08
-8.13254e-08
-8.14978e-08
-7.60452e-08
-6.95172e-08
-7.03782e-08
-5.83948e-08
-6.43672e-08
-4.81759e-08
-5.80649e-08
-3.88989e-08
-5.15341e-08
-3.05944e-08
-4.48504e-08
-2.32846e-08
-3.81033e-08
-1.69828e-08
-3.13985e-08
-1.16936e-08
-2.48606e-08
-7.41217e-09
-1.86357e-08
-4.12528e-09
-1.28944e-08
-1.81224e-09
-7.83438e-09
-4.46691e-10
-3.68346e-09
-7.19099e-10
-5.68539e-10
1.48095e-09
-2.26561e-09
5.92119e-09
-5.08903e-09
1.14895e-08
-9.03721e-09
1.79053e-08
-1.41059e-08
2.49382e-08
-2.02859e-08
3.2387e-08
-2.75624e-08
4.00767e-08
-3.59137e-08
4.78577e-08
-4.53112e-08
5.56021e-08
-5.57195e-08
6.3202e-08
-6.70967e-08
7.05667e-08
-7.93944e-08
7.76207e-08
-9.25591e-08
8.43014e-08
-1.06532e-07
9.05582e-08
-1.2125e-07
9.63502e-08
-1.36647e-07
1.01645e-07
-1.52653e-07
1.06419e-07
-1.69197e-07
1.10652e-07
-1.86204e-07
1.14334e-07
-2.036e-07
1.17455e-07
-2.21309e-07
1.20014e-07
-2.39256e-07
1.22009e-07
-2.57364e-07
1.23445e-07
-2.7556e-07
1.24328e-07
-2.93767e-07
1.24666e-07
-3.11914e-07
1.24469e-07
-3.29928e-07
1.23751e-07
-3.47739e-07
1.22524e-07
-3.6528e-07
1.20803e-07
-3.82484e-07
1.18606e-07
-3.99288e-07
1.15948e-07
-4.15629e-07
1.12848e-07
-4.31448e-07
1.09324e-07
-4.4669e-07
1.05396e-07
-4.61299e-07
1.01082e-07
-4.75226e-07
9.64043e-08
-4.88421e-07
9.1382e-08
-5.0084e-07
8.60363e-08
-5.12439e-07
8.03882e-08
-5.23179e-07
7.44593e-08
-5.33024e-07
6.82712e-08
-5.41941e-07
6.18459e-08
-5.49898e-07
5.52056e-08
-5.5687e-07
4.83728e-08
-5.62831e-07
4.137e-08
-5.67762e-07
3.42204e-08
-5.71645e-07
2.6947e-08
-5.74466e-07
1.95734e-08
-5.76215e-07
1.21231e-08
-5.76883e-07
4.6203e-09
-5.76467e-07
-2.91086e-09
-5.74967e-07
-1.04458e-08
-5.72386e-07
-1.79599e-08
-5.6873e-07
-2.54279e-08
-5.6401e-07
-3.28246e-08
-5.58238e-07
-4.01245e-08
-5.51434e-07
-4.73018e-08
-5.43616e-07
-5.43308e-08
-5.34811e-07