/*--------------------------------*- C++ -*----------------------------------*\
| =========                 |                                                 |
| \\      /  F ield         | OpenFOAM: The Open Source CFD Toolbox           |
|  \\    /   O peration     | Version:  2212                                  |
|   \\  /    A nd           | Website:  www.openfoam.com                      |
|    \\/     M anipulation  |                                                 |
\*---------------------------------------------------------------------------*/
FoamFile
{
    version     2.0;
    format      ascii;
    arch        "LSB;label=32;scalar=64";
    class       volScalarField;
    location    "0.0585";
    object      p;
}
// * * * * * * * * * * * * * * * * * * * * * * * * * * * * * * * * * * * * * //

dimensions      [0 2 -2 0 0 0 0];

internalField   nonuniform List<scalar> 
10000
(
-2.13088e-08
8.3672e-05
-0.000129216
-0.0006773
-0.00151399
-0.00258722
-0.00384395
-0.00523343
-0.00670951
-0.0082315
-0.00976372
-0.0112751
-0.0127387
-0.0141311
-0.015432
-0.0166239
-0.017692
-0.0186236
-0.019408
-0.0200366
-0.0205022
-0.0207993
-0.0209237
-0.0208723
-0.0206432
-0.0202355
-0.0196495
-0.0188863
-0.0179479
-0.0168369
-0.0155567
-0.0141113
-0.0125055
-0.0107445
-0.00883398
-0.00678019
-0.00458972
-0.0022697
0.000172345
0.00272847
0.0053904
0.00814958
0.0109971
0.013924
0.0169207
0.0199777
0.0230851
0.0262328
0.0294107
0.0326084
0.0358155
0.0390214
0.0422154
0.0453869
0.0485252
0.0516198
0.0546601
0.0576357
0.0605361
0.0633512
0.0660709
0.0686858
0.0711863
0.0735634
0.0758082
0.0779127
0.0798688
0.0816695
0.0833081
0.0847787
0.0860758
0.0871947
0.0881319
0.0888842
0.0894499
0.089828
0.090019
0.0900241
0.0898458
0.089488
0.088956
0.0882569
0.087399
0.0863929
0.0852506
0.0839867
0.0826176
0.0811623
0.0796427
0.0780836
0.0765131
0.0749633
0.0734702
0.0720746
0.070822
0.0697619
0.0689453
0.0684213
0.0682312
0.068329
-8.47432e-05
6.21962e-07
-0.000203856
-0.00069151
-0.00141507
-0.0023378
-0.0034208
-0.00462365
-0.0059081
-0.00723907
-0.00858499
-0.00991773
-0.0112123
-0.0124467
-0.0136017
-0.0146606
-0.0156088
-0.0164339
-0.0171255
-0.0176747
-0.0180744
-0.0183188
-0.0184036
-0.0183253
-0.0180819
-0.017672
-0.0170954
-0.016353
-0.015446
-0.0143771
-0.0131491
-0.0117656
-0.010231
-0.00854992
-0.00672767
-0.00476997
-0.00268299
-0.000473441
0.00185162
0.00428472
0.00681802
0.00944347
0.0121526
0.0149369
0.0177875
0.020695
0.0236503
0.0266438
0.0296657
0.0327063
0.0357555
0.0388033
0.0418397
0.0448545
0.0478376
0.0507791
0.0536688
0.0564969
0.0592536
0.0619292
0.0645145
0.0670002
0.0693777
0.0716383
0.0737739
0.0757768
0.0776397
0.0793561
0.0809199
0.0823255
0.0835681
0.0846436
0.0855487
0.0862809
0.0868387
0.0872217
0.0874305
0.0874667
0.0873332
0.0870338
0.0865742
0.0859613
0.0852037
0.0843114
0.0832965
0.0821729
0.0809565
0.0796655
0.0783203
0.0769443
0.0755632
0.0742061
0.0729047
0.071694
0.0706116
0.0696968
0.0689867
0.0685158
0.0683284
0.0684266
0.00012751
0.000207298
3.82857e-06
-0.000452938
-0.00111245
-0.00194405
-0.00291602
-0.00399468
-0.0051474
-0.00634365
-0.00755539
-0.00875723
-0.00992618
-0.0110418
-0.012086
-0.0130428
-0.0138984
-0.0146409
-0.01526
-0.0157469
-0.0160946
-0.0162974
-0.0163506
-0.0162509
-0.015996
-0.0155844
-0.0150155
-0.0142897
-0.0134083
-0.0123733
-0.0111876
-0.00985438
-0.00837753
-0.00676144
-0.00501099
-0.00313153
-0.00112889
0.000990595
0.00322021
0.00555289
0.00798117
0.0104974
0.0130935
0.0157614
0.0184925
0.021278
0.024109
0.0269765
0.029871
0.0327832
0.0357036
0.0386226
0.0415304
0.0444175
0.0472742
0.0500909
0.0528581
0.0555663
0.0582062
0.0607686
0.0632447
0.0656259
0.0679037
0.07007
0.0721172
0.0740381
0.0758258
0.0774742
0.0789777
0.0803312
0.08153
0.0825706
0.08345
0.084166
0.0847175
0.0851042
0.0853269
0.0853876
0.0852891
0.0850355
0.0846324
0.0840866
0.0834066
0.0826021
0.0816849
0.0806681
0.0795671
0.0783991
0.0771831
0.0759409
0.074696
0.0734747
0.0723052
0.0712179
0.0702448
0.0694187
0.0687698
0.0683271
0.0681403
0.0682375
0.000677171
0.000699138
0.000465538
7.93015e-06
-0.00062723
-0.00141226
-0.00231938
-0.00331955
-0.00438444
-0.0054873
-0.00660317
-0.00770912
-0.00878425
-0.00980973
-0.0107687
-0.0116462
-0.0124291
-0.0131061
-0.0136672
-0.0141043
-0.0144102
-0.0145793
-0.0146071
-0.0144901
-0.0142259
-0.0138129
-0.0132505
-0.012539
-0.0116793
-0.0106732
-0.00952331
-0.00823259
-0.00680467
-0.00524363
-0.00355402
-0.00174095
0.000190058
0.002233
0.00438147
0.00662869
0.00896761
0.0113908
0.0138908
0.0164595
0.0190889
0.0217706
0.0244959
0.0272561
0.0300422
0.0328453
0.0356562
0.0384656
0.0412643
0.0440429
0.0467924
0.0495034
0.0521668
0.0547736
0.0573147
0.0597814
0.0621654
0.0644583
0.0666521
0.0687391
0.070712
0.0725639
0.0742885
0.07588
0.0773329
0.0786427
0.079805
0.0808163
0.0816741
0.0823764
0.0829222
0.0833116
0.0835454
0.0836256
0.083555
0.083338
0.0829798
0.0824873
0.0818686
0.081133
0.0802918
0.0793575
0.0783446
0.0772693
0.0761494
0.0750047
0.0738571
0.0727299
0.0716484
0.0706392
0.0697304
0.0689504
0.0683258
0.0678829
0.0676691
0.0677159
0.00151812
0.00142922
0.00113107
0.000645824
7.93048e-06
-0.000757795
-0.00162708
-0.00257481
-0.0035766
-0.00460912
-0.00565029
-0.00667967
-0.00767833
-0.00862909
-0.00951653
-0.0103268
-0.0110475
-0.0116681
-0.012179
-0.0125725
-0.0128418
-0.0129814
-0.012987
-0.012855
-0.012583
-0.0121693
-0.0116134
-0.0109152
-0.0100757
-0.00909658
-0.00797999
-0.00672878
-0.00534628
-0.00383631
-0.0022032
-0.00045176
0.00141271
0.00338451
0.00545755
0.00762533
0.00988114
0.0122179
0.0146284
0.017105
0.0196399
0.0222249
0.0248518
0.0275123
0.0301978
0.0328995
0.0356087
0.0383164
0.0410138
0.0436919
0.046342
0.0489551
0.0515225
0.0540353
0.0564851
0.0588635
0.0611624
0.0633739
0.0654903
0.0675042
0.0694086
0.0711972
0.0728638
0.0744029
0.0758094
0.077079
0.0782076
0.079192
0.0800298
0.0807193
0.0812595
0.0816507
0.0818937
0.0819907
0.0819444
0.081759
0.0814398
0.0809933
0.0804272
0.0797505
0.0789737
0.0781089
0.0771695
0.0761705
0.0751284
0.0740615
0.0729893
0.0719329
0.0709146
0.0699578
0.0690869
0.0683265
0.0677002
0.0672317
0.0669578
0.0669021
0.00259971
0.00236232
0.00197127
0.00143453
0.00077018
-2.47142e-07
-0.000855323
-0.00177384
-0.00273478
-0.0037179
-0.00470393
-0.00567472
-0.00661337
-0.00750432
-0.00833349
-0.0090882
-0.00975709
-0.0103302
-0.0107987
-0.0111551
-0.0113931
-0.0115076
-0.0114943
-0.0113497
-0.0110714
-0.0106579
-0.0101083
-0.00942285
-0.00860229
-0.00764806
-0.00656225
-0.00534748
-0.00400682
-0.00254389
-0.000962815
0.000731831
0.00253501
0.00444125
0.00644475
0.00853933
0.0107185
0.0129757
0.0153037
0.0176954
0.0201431
0.0226391
0.0251754
0.0277441
0.0303368
0.0329452
0.0355608
0.0381751
0.0407794
0.0433652
0.045924
0.0484473
0.0509265
0.0533533
0.0557195
0.0580171
0.0602382
0.0623753
0.064421
0.0663681
0.0682102
0.069941
0.0715548
0.0730462
0.0744105
0.0756434
0.0767412
0.0777009
0.0785203
0.0791976
0.0797322
0.0801242
0.0803748
0.0804857
0.0804598
0.0803012
0.0800148
0.079607
0.0790849
0.0784572
0.0777337
0.0769256
0.0760456
0.0751073
0.074126
0.0731181
0.0721013
0.0710943
0.0701169
0.0691894
0.068333
0.0675688
0.0669176
0.0664004
0.0660385
0.0658425
0.00387239
0.00346226
0.00295714
0.00234903
0.00163757
0.000841462
-2.05964e-05
-0.00093072
-0.00187109
-0.00282426
-0.0037734
-0.00470261
-0.00559693
-0.0064424
-0.00722629
-0.00793704
-0.00856431
-0.00909887
-0.00953268
-0.00985872
-0.0100711
-0.0101648
-0.0101359
-0.00998121
-0.00969831
-0.00928568
-0.00874264
-0.00806926
-0.00726624
-0.00633495
-0.00527732
-0.00409578
-0.00279326
-0.00137317
0.00016055
0.00180349
0.00355087
0.00539743
0.00733761
0.00936555
0.0114751
0.0136597
0.0159127
0.018227
0.0205954
0.0230105
0.0254645
0.0279496
0.0304581
0.0329817
0.0355123
0.0380417
0.0405616
0.0430637
0.0455399
0.0479818
0.0503813
0.0527303
0.055021
0.0572456
0.0593966
0.0614666
0.0634486
0.0653357
0.0671217
0.0688006
0.0703669
0.0718154
0.0731416
0.0743416
0.0754116
0.0763489
0.0771513
0.0778173
0.0783462
0.0787382
0.0789943
0.0791163
0.079107
0.0789701
0.0787104
0.0783339
0.0778474
0.0772589
0.0765776
0.075814
0.0749795
0.074087
0.07315
0.0721836
0.0712034
0.0702261
0.069269
0.06835
0.0674871
0.0666982
0.0660018
0.0654162
0.0649452
0.064584
0.00528984
0.0046926
0.00405837
0.00336323
0.00258803
0.0017487
0.00086192
-5.75855e-05
-0.000994867
-0.00193497
-0.00286334
-0.0037661
-0.00463009
-0.00544299
-0.00619338
-0.00687082
-0.00746593
-0.00797033
-0.00837665
-0.0086785
-0.00887037
-0.00894761
-0.0089065
-0.00874408
-0.00845813
-0.00804725
-0.00751083
-0.00684894
-0.00606224
-0.00515203
-0.00412012
-0.00296881
-0.00170091
-0.000319694
0.00117108
0.00276717
0.00446396
0.00625645
0.00813929
0.0101069
0.0121533
0.0142723
0.0164573
0.0187017
0.0209983
0.02334
0.0257195
0.0281292
0.0305615
0.0330085
0.0354624
0.0379152
0.0403589
0.0427856
0.0451874
0.0475561
0.0498839
0.052163
0.054386
0.0565451
0.0586332
0.0606431
0.0625681
0.0644016
0.0661375
0.0677701
0.0692939
0.0707042
0.0719965
0.0731669
0.074212
0.075129
0.0759159
0.0765713
0.0770944
0.0774855
0.0777454
0.0778758
0.0778793
0.0777594
0.0775208
0.0771688
0.07671
0.0761517
0.0755025
0.0747719
0.0739707
0.0731102
0.072203
0.0712623
0.0703022
0.0693373
0.068383
0.0674545
0.0665672
0.0657362
0.064978
0.0643082
0.0637127
0.0631713
0.00681134
0.00601927
0.00524595
0.00445205
0.00359985
0.00270317
0.00177693
0.000833093
-0.000115935
-0.00105753
-0.00197918
-0.00286882
-0.00371497
-0.00450682
-0.00523428
-0.00588807
-0.00645969
-0.00694162
-0.00732718
-0.00761055
-0.0077867
-0.0078514
-0.0078012
-0.00763336
-0.00734591
-0.00693761
-0.00640793
-0.00575697
-0.00498544
-0.00409455
-0.00308605
-0.00196215
-0.000725532
0.000620609
0.00207264
0.00362648
0.00527769
0.00702145
0.00885267
0.0107659
0.0127555
0.0148154
0.0169393
0.0191207
0.0213528
0.0236286
0.0259411
0.028283
0.0306469
0.0330252
0.0354102
0.0377944
0.04017
0.0425292
0.0448643
0.0471676
0.0494315
0.0516484
0.0538109
0.0559118
0.0579439
0.0599005
0.061775
0.0635609
0.0652525
0.066844
0.0683303
0.0697066
0.0709688
0.072113
0.0731358
0.0740346
0.0748075
0.0754529
0.0759703
0.0763596
0.0766216
0.076758
0.0767709
0.0766638
0.0764409
0.0761073
0.0756689
0.0751326
0.0745062
0.0737986
0.0730193
0.0721788
0.0712882
0.0703594
0.069405
0.0684377
0.0674708
0.0665177
0.0655912
0.0647038
0.0638702
0.0631044
0.062374
0.061644
0.00840175
0.0074118
0.00649311
0.00559186
0.00465246
0.00368707
0.00270921
0.00172855
0.000755133
-0.000200433
-0.00112752
-0.00201575
-0.00285515
-0.00363629
-0.00435035
-0.00498915
-0.00554518
-0.00601166
-0.00638263
-0.00665284
-0.00681772
-0.00687352
-0.00681708
-0.00664597
-0.00635846
-0.00595349
-0.00543065
-0.0047901
-0.0040326
-0.00315935
-0.00217201
-0.00107276
0.00013576
0.00145046
0.0028678
0.00438385
0.00599431
0.00769452
0.00947963
0.0113444
0.0132833
0.0152904
0.0173597
0.0194849
0.0216594
0.0238765
0.0261294
0.0284109
0.0307139
0.033031
0.0353549
0.0376782
0.0399933
0.0422926
0.0445688
0.0468143
0.0490217
0.0511836
0.0532929
0.0553425
0.0573254
0.0592352
0.0610653
0.0628096
0.0644623
0.0660179
0.0674714
0.0688181
0.0700539
0.0711751
0.0721783
0.073061
0.0738212
0.0744574
0.0749691
0.0753559
0.0756187
0.0757586
0.0757779
0.0756797
0.0754677
0.0751468
0.0747223
0.0742005
0.0735886
0.0728947
0.0721273
0.0712958
0.0704103
0.0694813
0.0685198
0.0675372
0.0665449
0.0655542
0.0645761
0.0636206
0.0627013
0.0618305
0.0609587
0.0600365
0.0100307
0.00884286
0.00777538
0.00676073
0.00572647
0.00468338
0.00364406
0.00261611
0.00160763
0.000627442
-0.000315562
-0.00121255
-0.00205493
-0.00283457
-0.00354378
-0.00417542
-0.00472295
-0.00518034
-0.0055423
-0.00580416
-0.0059619
-0.00601212
-0.00595206
-0.00577964
-0.00549338
-0.00509238
-0.0045764
-0.00394573
-0.00320112
-0.00234381
-0.00137546
-0.000298226
0.000885299
0.00217211
0.0035587
0.00504125
0.00661563
0.00827738
0.0100217
0.0118436
0.0137377
0.0156982
0.0177194
0.0197949
0.0219186
0.0240839
0.0262842
0.0285125
0.0307619
0.0330253
0.0352955
0.0375653
0.0398274
0.0420744
0.044299
0.0464941
0.0486522
0.0507662
0.0528292
0.0548342
0.0567746
0.0586438
0.0604357
0.062144
0.0637632
0.0652879
0.0667131
0.0680343
0.0692475
0.0703488
0.0713351
0.0722037
0.0729527
0.0735806
0.0740866
0.0744705
0.0747326
0.0748742
0.0748971
0.0748042
0.0745989
0.0742856
0.0738691
0.073355
0.0727501
0.0720614
0.0712969
0.0704649
0.0695742
0.0686343
0.0676549
0.0666458
0.065617
0.0645781
0.0635381
0.0625052
0.0614921
0.06051
0.0594929
0.058378
0.0116722
0.0102883
0.00907057
0.00793854
0.00680371
0.00567598
0.0045673
0.0034835
0.00243099
0.00141708
0.000449144
-0.00046539
-0.00131925
-0.00210546
-0.00281741
-0.00344893
-0.00399429
-0.00444829
-0.00480627
-0.00506413
-0.00521838
-0.00526604
-0.00520474
-0.00503274
-0.00474883
-0.00435236
-0.0038432
-0.00322176
-0.00248889
-0.00164587
-0.000694367
0.000363479
0.00152506
0.00278737
0.00414705
0.00560035
0.00714325
0.00877142
0.0104802
0.0122647
0.0141197
0.0160396
0.0180187
0.0200511
0.0221306
0.0242509
0.0264054
0.0285876
0.0307905
0.0330073
0.035231
0.0374546
0.0396709
0.0418728
0.0440531
0.0462047
0.0483206
0.0503937
0.0524171
0.0543842
0.0562883
0.0581232
0.0598826
0.0615605
0.0631514
0.0646501
0.0660516
0.0673514
0.0685455
0.0696302
0.0706022
0.0714588
0.0721982
0.0728187
0.0733194
0.0736998
0.0739603
0.0741018
0.074126
0.0740354
0.073833
0.0735226
0.0731087
0.0725963
0.0719916
0.0713009
0.0705314
0.0696902
0.0687854
0.0678253
0.0668185
0.0657734
0.0646987
0.0636025
0.0624923
0.0613747
0.0602618
0.0591641
0.0579999
0.0566937
0.0133039
0.0117268
0.0103588
0.00910687
0.00786734
0.00664964
0.00546527
0.00431864
0.00321469
0.00215937
0.00115879
0.000219112
-0.000653591
-0.00145342
-0.00217475
-0.00281232
-0.00336117
-0.00381684
-0.00417529
-0.00443305
-0.00458706
-0.00463481
-0.00457438
-0.00440434
-0.00412372
-0.0037321
-0.0032296
-0.00261674
-0.00189442
-0.00106395
-0.00012714
0.000913857
0.00205645
0.00329768
0.00463422
0.00606239
0.00757828
0.00917766
0.010856
0.0126085
0.0144299
0.016315
0.0182582
0.0202536
0.0222954
0.0243772
0.0264928
0.0286356
0.0307989
0.0329761
0.0351604
0.0373448
0.0395224
0.0416862
0.0438292
0.0459444
0.0480248
0.0500637
0.0520542
0.0539897
0.0558638
0.0576703
0.059403
0.0610559
0.0626237
0.0641011
0.0654834
0.0667659
0.0679446
0.0690157
0.0699761
0.070823
0.0715543
0.0721685
0.0726643
0.0730412
0.0732993
0.0734394
0.0734629
0.0733718
0.0731689
0.0728573
0.0724413
0.0719254
0.071315
0.0706158
0.0698341
0.0689764
0.0680497
0.0670614
0.0660189
0.0649298
0.0638013
0.0626404
0.0614532
0.0602451
0.059028
0.0578117
0.0564999
0.0550049
0.0149062
0.0131396
0.011622
0.0102489
0.00890182
0.00759008
0.00632507
0.00510996
0.00394844
0.0028453
0.0018055
0.000834119
-6.37977e-05
-0.000883372
-0.00161989
-0.00226886
-0.00282614
-0.00328793
-0.00365082
-0.00391183
-0.00406844
-0.00411866
-0.00406091
-0.00389404
-0.00361743
-0.00323093
-0.00273481
-0.0021297
-0.00141663
-0.00059704
0.000327213
0.00135393
0.00248053
0.00370403
0.00502112
0.00642824
0.00792153
0.00949683
0.0111497
0.0128753
0.0146688
0.0165248
0.0184379
0.0204025
0.0224128
0.0244626
0.0265457
0.0286558
0.0307863
0.0329308
0.0350825
0.0372346
0.0393804
0.041513
0.0436255
0.0457111
0.0477628
0.049774
0.0517379
0.0536482
0.0554985
0.0572824
0.058994
0.0606273
0.0621771
0.0636381
0.0650054
0.0662747
0.0674416
0.0685024
0.0694539
0.0702934
0.0710185
0.0716275
0.072119
0.0724924
0.0727477
0.0728854
0.0729065
0.0728127
0.0726063
0.0722902
0.071868
0.0713439
0.0707225
0.0700091
0.0692091
0.0683284
0.067373
0.0663495
0.0652645
0.0641244
0.0629354
0.0617037
0.0604341
0.059131
0.0578062
0.0564696
0.0550105
0.0533298
0.0164626
0.0145101
0.0128443
0.0113493
0.00989271
0.00848393
0.00713438
0.00584623
0.00462212
0.00346581
0.00238129
0.00137265
0.000444015
-0.000400577
-0.00115725
-0.00182232
-0.00239232
-0.00286406
-0.00323476
-0.00350199
-0.00366371
-0.00371837
-0.00366475
-0.00350208
-0.00323004
-0.00284869
-0.00235846
-0.00176018
-0.00105505
-0.000244585
0.000669306
0.00168434
0.00279787
0.00400695
0.00530831
0.00669841
0.00817342
0.00972924
0.0113615
0.0130655
0.0148363
0.0166688
0.0185577
0.0204975
0.0224824
0.0245065
0.0265636
0.0286475
0.0307519
0.0328703
0.0349961
0.0371227
0.0392435
0.0413517
0.0434404
0.045503
0.0475325
0.0495225
0.0514663
0.0533575
0.0551898
0.056957
0.058653
0.0602721
0.0618089
0.0632582
0.0646151
0.065875
0.0670338
0.0680876
0.0690332
0.0698676
0.0705883
0.0711935
0.0716817
0.0720521
0.0723045
0.072439
0.0724564
0.0723579
0.0721455
0.0718218
0.07139
0.0708536
0.0702169
0.0694844
0.0686608
0.0677513
0.0667614
0.0656968
0.0645633
0.0633663
0.0621114
0.0608037
0.0594473
0.0580456
0.0566108
0.0551527
0.0535471
0.0516842
0.0179582
0.0158235
0.0140111
0.012394
0.0108267
0.00931864
0.00788151
0.00651668
0.00522585
0.00401193
0.00287807
0.00182752
0.000863561
-1.05722e-05
-0.000791695
-0.00147683
-0.0020632
-0.00254821
-0.00292964
-0.00320557
-0.00337449
-0.00343522
-0.00338694
-0.00322923
-0.00296204
-0.00258566
-0.00210075
-0.0015083
-0.000809639
-6.44106e-06
0.000899289
0.00190522
0.00300867
0.00420667
0.00549595
0.00687299
0.00833401
0.00987491
0.0114913
0.0131787
0.0149321
0.0167467
0.0186171
0.020538
0.0225036
0.0245081
0.0265455
0.0286098
0.0306945
0.0327934
0.0348999
0.0370077
0.0391102
0.0412005
0.0432721
0.0453181
0.047332
0.0493071
0.051237
0.0531153
0.0549356
0.0566917
0.0583777
0.0599879
0.0615168
0.0629591
0.0643099
0.0655646
0.066719
0.0677693
0.0687118
0.0695436
0.070262
0.070865
0.0713511
0.0717191
0.0719686
0.0720995
0.0721122
0.0720075
0.0717873
0.0714536
0.0710092
0.0704572
0.0698012
0.0690452
0.0681934
0.0672504
0.066221
0.0651102
0.063923
0.0626643
0.0613388
0.0599509
0.0585041
0.0570012
0.0554545
0.0538743
0.0521234
0.0500813
0.0193797
0.0170665
0.0151092
0.0133703
0.0116914
0.0100824
0.00855543
0.00711097
0.00575004
0.00447488
0.00328787
0.00219145
0.00118826
0.000280861
-0.000528308
-0.00123692
-0.00184274
-0.0023438
-0.00273838
-0.00302513
-0.00320296
-0.00327106
-0.003229
-0.00307673
-0.00281447
-0.00244272
-0.00196234
-0.00137455
-0.00068084
0.000116999
0.00101687
0.00201637
0.00311272
0.00430297
0.00558383
0.00695178
0.00840305
0.00993351
0.0115389
0.0132146
0.0149559
0.016758
0.0186156
0.0205233
0.0224755
0.0244666
0.0264906
0.0285414
0.0306129
0.0326987
0.0347926
0.0368882
0.0389788
0.0410579
0.0431187
0.0451548
0.0471593
0.049126
0.0510482
0.0529195
0.0547336
0.0564845
0.0581661
0.0597726
0.0612985
0.0627385
0.0640877
0.0653414
0.0664953
0.0675454
0.0684879
0.0693198
0.0700382
0.0706409
0.0711262
0.0714927
0.0717398
0.0718669
0.0718742
0.0717624
0.0715328
0.0711872
0.0707277
0.0701572
0.0694787
0.0686956
0.0678118
0.0668311
0.0657579
0.0645966
0.0633515
0.0620268
0.0606267
0.0591553
0.0576152
0.0560088
0.0543489
0.0526462
0.0507511
0.048533
0.0207155
0.018227
0.0161264
0.0142661
0.0124753
0.0107643
0.00914552
0.00761915
0.00618546
0.004846
0.00360264
0.00245718
0.00141157
0.000467731
-0.000372522
-0.00110739
-0.00173522
-0.00225462
-0.00266442
-0.00296368
-0.0031517
-0.00322812
-0.00319294
-0.00304635
-0.0027888
-0.00242109
-0.00194434
-0.00135994
-0.000669516
0.000125009
0.0010214
0.00201713
0.00310943
0.00429529
0.00557141
0.00693423
0.0083799
0.00990438
0.0115034
0.0131725
0.014907
0.0167019
0.0185521
0.0204524
0.0223973
0.0243809
0.0263976
0.0284412
0.0305058
0.032585
0.0346727
0.0367624
0.0388477
0.040922
0.0429786
0.0450111
0.0470127
0.0489771
0.0508976
0.052768
0.0545819
0.0563333
0.0580159
0.0596241
0.0611521
0.0625947
0.0639468
0.0652037
0.066361
0.0674144
0.0683602
0.0691949
0.0699158
0.0705203
0.0710064
0.0713726
0.0716179
0.0717415
0.0717433
0.0716237
0.0713837
0.0710245
0.0705482
0.0699568
0.069253
0.0684399
0.0675207
0.0664989
0.0653783
0.0641627
0.062856
0.0614619
0.0599841
0.0584262
0.0567905
0.0550788
0.0533046
0.0514793
0.0494412
0.0470496
0.021955
0.0192939
0.0170517
0.0150706
0.0131676
0.0113537
0.00964179
0.00803164
0.00652299
0.00511686
0.00381458
0.00261744
0.00152673
0.000543856
-0.000329886
-0.00109327
-0.00174526
-0.0022849
-0.00271147
-0.00302448
-0.00322371
-0.00330918
-0.00328117
-0.00314017
-0.00288693
-0.00252255
-0.00204833
-0.00146584
-0.000776889
1.64343e-05
0.000911764
0.00190653
0.00299789
0.00418278
0.00545782
0.00681939
0.00826369
0.00978668
0.0113841
0.0130515
0.0147842
0.0165773
0.0184258
0.0203243
0.0222676
0.0242498
0.0262652
0.0283078
0.0303717
0.0324506
0.0345385
0.0366288
0.0387152
0.0407911
0.04285
0.0448852
0.0468902
0.0488585
0.0507836
0.052659
0.0544787
0.0562362
0.0579255
0.0595406
0.0610759
0.0625259
0.0638856
0.0651501
0.0663147
0.0673752
0.0683275
0.0691682
0.0698942
0.0705027
0.0709915
0.0713589
0.0716033
0.071724
0.0717205
0.071593
0.0713418
0.0709682
0.0704734
0.0698592
0.0691281
0.0682824
0.0673251
0.0662593
0.0650883
0.0638155
0.0624441
0.0609776
0.0594194
0.0577725
0.0560391
0.0542207
0.0523314
0.0503833
0.048203
0.0456401
0.0230885
0.0202573
0.0178747
0.0157732
0.0137581
0.0118406
0.0100346
0.00833921
0.00675388
0.00527919
0.00391592
0.00266491
0.00152701
0.000503058
-0.000406167
-0.00119997
-0.00187776
-0.00243907
-0.00288362
-0.00321134
-0.00342245
-0.00351731
-0.00349647
-0.00336075
-0.00311123
-0.00274922
-0.00227623
-0.00169403
-0.00100464
-0.000210295
0.000686547
0.00168323
0.00277683
0.00396417
0.0052418
0.00660611
0.00805327
0.00957926
0.0111798
0.0128504
0.0145864
0.016383
0.0182352
0.0201376
0.022085
0.0240717
0.0260918
0.0281396
0.0302091
0.032294
0.0343883
0.0364856
0.0385796
0.0406635
0.042731
0.0447753
0.04679
0.0487684
0.0507042
0.0525909
0.0544221
0.0561915
0.057893
0.0595205
0.0610682
0.0625308
0.0639027
0.0651792
0.0663554
0.0674268
0.0683893
0.0692392
0.0699732
0.0705882
0.0710818
0.0714519
0.071697
0.0718158
0.0718075
0.0716721
0.0714096
0.0710207
0.0705064
0.0698682
0.069108
0.0682278
0.0672303
0.0661182
0.0648942
0.0635613
0.0621227
0.0605814
0.0589404
0.0572026
0.0553698
0.0534433
0.0514381
0.0493671
0.0470453
0.0443126
0.0241072
0.0211078
0.0185859
0.0163645
0.0142371
0.0122157
0.0103146
0.00853295
0.00686958
0.00532476
0.0038989
0.00259237
0.00140558
0.000338895
-0.00060737
-0.00143302
-0.00213787
-0.00272192
-0.0031853
-0.00352837
-0.00375169
-0.00385594
-0.00384202
-0.00371108
-0.00346443
-0.00310361
-0.00263037
-0.00204671
-0.00135482
-0.000557063
0.000343996
0.00134557
0.00244461
0.00363785
0.00492184
0.00629291
0.00774723
0.00928069
0.010889
0.0125677
0.0143122
0.0161176
0.0179788
0.0198908
0.0218481
0.023845
0.025876
0.027935
0.0300162
0.0321134
0.0342205
0.0363312
0.038439
0.0405374
0.0426198
0.0446796
0.0467103
0.0487052
0.0506578
0.0525617
0.0544104
0.0561976
0.0579169
0.0595623
0.0611279
0.062608
0.0639971
0.0652901
0.0664822
0.0675687
0.0685451
0.0694077
0.0701527
0.070777
0.0712778
0.0716528
0.0719001
0.0720182
0.0720061
0.0718633
0.0715896
0.0711852
0.0706508
0.0699876
0.0691971
0.068281
0.0672415
0.066081
0.0648019
0.063407
0.061899
0.0602807
0.0585549
0.0567243
0.0547906
0.0527549
0.0506331
0.0484388
0.0459758
0.0430745
0.0250025
0.0218364
0.0191762
0.0168351
0.0145954
0.0124698
0.0104731
0.00860416
0.0068617
0.00524558
0.00375585
0.00239249
0.00115549
4.48093e-05
-0.0009397
-0.00179823
-0.00253104
-0.00313854
-0.00362128
-0.00397998
-0.00421553
-0.00432893
-0.00432144
-0.00419447
-0.0039496
-0.00358861
-0.00311349
-0.00252644
-0.00182981
-0.0010261
-0.000118035
0.000891464
0.00199923
0.00320196
0.00449613
0.00587805
0.00734379
0.00888924
0.0105101
0.0122018
0.0139598
0.0157792
0.0176551
0.0195821
0.021555
0.0235682
0.0256159
0.0276922
0.0297913
0.031907
0.0340332
0.0361635
0.0382916
0.0404108
0.0425146
0.0445963
0.0466493
0.0486669
0.0506426
0.0525698
0.0544421
0.0562529
0.0579959
0.0596648
0.0612536
0.0627564
0.0641678
0.0654822
0.0666947
0.0678005
0.0687948
0.0696736
0.070433
0.0710696
0.0715803
0.0719625
0.072214
0.0723331
0.0723185
0.0721691
0.0718846
0.0714649
0.0709103
0.0702216
0.0694
0.0684469
0.0673641
0.0661537
0.0648178
0.063359
0.0617798
0.0600827
0.0582704
0.0563455
0.0543094
0.0521633
0.0499241
0.0476061
0.0450019
0.0419325
0.0257664
0.0224347
0.0196368
0.0171763
0.0148242
0.012594
0.0105012
0.00854438
0.00672199
0.00503365
0.00347906
0.00205789
0.000769699
-0.000385925
-0.00140952
-0.00230165
-0.00306298
-0.00369433
-0.00419662
-0.00457091
-0.0048184
-0.00494046
-0.00493863
-0.00481461
-0.00457021
-0.00420749
-0.00372865
-0.00313609
-0.00243233
-0.00162002
-0.000702055
0.000318516
0.00143844
0.00265432
0.00396257
0.00535945
0.00684096
0.00840293
0.010041
0.0117507
0.0135274
0.0153662
0.017262
0.0192098
0.021204
0.0232392
0.0253096
0.0274093
0.0295324
0.0316729
0.0338244
0.0359808
0.0381354
0.0402819
0.0424135
0.0445235
0.0466051
0.0486518
0.0506569
0.0526137
0.0545156
0.0563561
0.0581285
0.0598266
0.0614442
0.0629752
0.0644139
0.0657548
0.0669925
0.0681219
0.0691384
0.0700373
0.0708148
0.071467
0.0719906
0.0723827
0.0726407
0.0727627
0.072747
0.0725923
0.0722979
0.0718634
0.0712888
0.0705745
0.0697214
0.0687306
0.0676036
0.0663422
0.0649482
0.0634241
0.0617722
0.0599948
0.0580944
0.0560737
0.053934
0.0516764
0.0493187
0.0468763
0.0441306
0.040893
0.0263912
0.0228946
0.0199592
0.0173795
0.014915
0.0125798
0.0103905
0.00834525
0.00644228
0.00468101
0.00306084
0.00158107
0.00024099
-0.000960208
-0.00202339
-0.00294953
-0.00373966
-0.00439494
-0.00491666
-0.00530619
-0.00556507
-0.00569503
-0.00569785
-0.0055755
-0.00533006
-0.00496384
-0.00447926
-0.00387889
-0.00316543
-0.00234175
-0.00141086
-0.000375953
0.00075964
0.00199244
0.00331878
0.00473479
0.00623646
0.00781956
0.00947971
0.0112124
0.0130128
0.0148762
0.0167976
0.0187716
0.0207929
0.022856
0.0249551
0.0270843
0.0292376
0.031409
0.0335922
0.0357809
0.0379686
0.0401487
0.0423145
0.0444592
0.046576
0.0486582
0.0506989
0.0526916
0.0546293
0.0565055
0.0583134
0.0600466
0.0616987
0.0632635
0.064735
0.0661074
0.0673752
0.0685331
0.069576
0.0704994
0.0712988
0.0719702
0.07251
0.0729149
0.0731821
0.0733092
0.0732944
0.073136
0.0728329
0.0723845
0.0717905
0.0710509
0.0701663
0.0691375
0.0679657
0.0666524
0.0651995
0.063609
0.0618831
0.060024
0.0580343
0.0559164
0.0536717
0.0513014
0.0488242
0.0462565
0.0433684
0.039962
0.0268697
0.0232082
0.0201354
0.0174364
0.0148592
0.0124188
0.0101325
0.00799845
0.00601441
0.00417964
0.00249331
0.000954451
-0.000437968
-0.00168509
-0.00278811
-0.00374839
-0.00456728
-0.00524627
-0.00578698
-0.00619114
-0.00646063
-0.00659745
-0.00660365
-0.00648147
-0.00623327
-0.00586157
-0.00536902
-0.00475837
-0.00403252
-0.00319453
-0.00224757
-0.00119491
-3.99964e-05
0.00121359
0.00256207
0.00400151
0.0055278
0.00713667
0.00882371
0.0105843
0.0124138
0.0143072
0.0162595
0.0182654
0.0203196
0.0224164
0.0245502
0.0267149
0.0289046
0.0311132
0.0333343
0.0355618
0.0377889
0.0400092
0.0422157
0.0444016
0.04656
0.0486841
0.050767
0.0528018
0.0547817
0.0566998
0.0585494
0.0603237
0.0620162
0.0636204
0.0651303
0.0665396
0.0678427
0.069034
0.0701082
0.0710605
0.071886
0.0725806
0.0731401
0.0735611
0.0738404
0.0739753
0.0739637
0.0738035
0.0734934
0.0730324
0.0724198
0.0716556
0.0707397
0.069673
0.0684562
0.0670907
0.0655781
0.0639203
0.0621194
0.0601775
0.0580971
0.0558808
0.0535298
0.0510455
0.0484476
0.0457534
0.0427218
0.0391452
0.0271945
0.0233678
0.0201574
0.0173387
0.0146486
0.0121027
0.00971908
0.00749567
0.00543013
0.00352145
0.0017686
0.000170342
-0.00127464
-0.0025678
-0.00371067
-0.00470492
-0.00555223
-0.00625443
-0.00681346
-0.0072314
-0.00751043
-0.00765281
-0.00766087
-0.00753714
-0.00728423
-0.00690488
-0.00640192
-0.00577835
-0.00503727
-0.0041819
-0.00321554
-0.00214157
-0.00096357
0.000314768
0.00168955
0.00315675
0.00471221
0.0063516
0.00807044
0.0098641
0.0117278
0.0136565
0.0156453
0.0176888
0.0197816
0.0219182
0.0240926
0.026299
0.0285313
0.0307833
0.0330488
0.0353213
0.0375944
0.0398613
0.042115
0.0443486
0.0465553
0.0487278
0.0508594
0.0529429
0.0549714
0.0569378
0.0588352
0.0606568
0.0623957
0.0640454
0.0655994
0.0670513
0.0683951
0.069625
0.0707356
0.0717214
0.0725776
0.0732995
0.0738827
0.0743234
0.0746181
0.0747639
0.0747581
0.0745985
0.0742833
0.0738113
0.0731815
0.0723935
0.0714471
0.0703428
0.0690811
0.0676632
0.0660906
0.0643649
0.0624881
0.0604624
0.0582902
0.0559742
0.0535156
0.0509159
0.0481958
0.0453737
0.0421969
0.0384486
0.0273581
0.0233657
0.0200172
0.0170784
0.014275
0.0116231
0.00914171
0.00682857
0.00468114
0.00269828
0.000878703
-0.000779067
-0.00227665
-0.00361573
-0.00479819
-0.00582598
-0.00670112
-0.00742578
-0.00800222
-0.00843284
-0.00872007
-0.00886646
-0.00887466
-0.00874745
-0.00848765
-0.00809823
-0.00758227
-0.00694299
-0.00618366
-0.00530766
-0.00431841
-0.00321944
-0.00201447
-0.000707325
0.000698005
0.00219742
0.00378669
0.00546142
0.00721705
0.00904886
0.010952
0.0129215
0.0149523
0.0170391
0.0191765
0.0213587
0.0235798
0.025834
0.0281151
0.0304169
0.0327332
0.0350574
0.0373829
0.0397028
0.0420103
0.0442984
0.0465598
0.0487875
0.0509744
0.0531132
0.0551968
0.057218
0.0591698
0.061045
0.0628367
0.064538
0.066142
0.0676423
0.0690326
0.0703067
0.0714588
0.0724833
0.073375
0.0741287
0.0747399
0.0752043
0.0755182
0.0756781
0.0756812
0.0755248
0.0752069
0.0747259
0.0740806
0.0732701
0.0722942
0.0711529
0.0698468
0.0683766
0.0667437
0.0649496
0.0629964
0.060886
0.058621
0.0562041
0.0536365
0.0509199
0.048076
0.0451241
0.0418004
0.0378779
0.0273532
0.0231942
0.0197067
0.0166473
0.0137299
0.0109716
0.00839194
0.0059887
0.00375913
0.00170188
-0.000184491
-0.00190173
-0.00345171
-0.0048364
-0.00605795
-0.00711862
-0.0080208
-0.00876694
-0.00935963
-0.00980153
-0.0100954
-0.0102441
-0.0102505
-0.0101176
-0.00984848
-0.00944641
-0.00891467
-0.0082567
-0.00747593
-0.00657587
-0.00556008
-0.0044323
-0.00319638
-0.00185626
-0.000416012
0.00112018
0.002748
0.00446296
0.0062604
0.00813556
0.0100835
0.0120993
0.0141778
0.0163137
0.0185014
0.0207352
0.0230092
0.0253174
0.0276536
0.0300117
0.0323851
0.0347674
0.0371519
0.0395316
0.0418996
0.0442487
0.0465717
0.0488613
0.0511102
0.0533111
0.0554566
0.0575393
0.0595521
0.0614875
0.0633384
0.0650975
0.0667579
0.0683128
0.0697554
0.0710795
0.0722788
0.0733474
0.0742796
0.0750701
0.0757139
0.0762064