/*--------------------------------*- C++ -*----------------------------------*\
| =========                 |                                                 |
| \\      /  F ield         | OpenFOAM: The Open Source CFD Toolbox           |
|  \\    /   O peration     | Version:  2212                                  |
|   \\  /    A nd           | Website:  www.openfoam.com                      |
|    \\/     M anipulation  |                                                 |
\*---------------------------------------------------------------------------*/
FoamFile
{
    version     2.0;
    format      ascii;
    arch        "LSB;label=32;scalar=64";
    class       volVectorField;
    location    "0.0585";
    object      U_0;
}
// * * * * * * * * * * * * * * * * * * * * * * * * * * * * * * * * * * * * * //

dimensions      [0 1 -1 0 0 0 0];

internalField   nonuniform List<vector> 
10000
(
(2.8511e-06 -2.89851e-06 0)
(1.41922e-05 -7.52045e-06 0)
(3.23538e-05 -8.70769e-06 0)
(4.9366e-05 -7.42943e-06 0)
(6.03619e-05 -4.91697e-06 0)
(6.30298e-05 -1.85946e-06 0)
(5.62606e-05 1.40469e-06 0)
(3.95774e-05 4.68515e-06 0)
(1.29109e-05 7.88302e-06 0)
(-2.35419e-05 1.09444e-05 0)
(-6.94219e-05 1.38347e-05 0)
(-0.000124254 1.65329e-05 0)
(-0.000187489 1.90313e-05 0)
(-0.000258537 2.13219e-05 0)
(-0.00033677 2.34039e-05 0)
(-0.000421541 2.52799e-05 0)
(-0.000512203 2.69486e-05 0)
(-0.000608099 2.84132e-05 0)
(-0.000708575 2.96799e-05 0)
(-0.000812989 3.07525e-05 0)
(-0.000920707 3.1635e-05 0)
(-0.00103111 3.23353e-05 0)
(-0.00114358 3.28576e-05 0)
(-0.00125753 3.32057e-05 0)
(-0.00137239 3.33867e-05 0)
(-0.00148761 3.3407e-05 0)
(-0.00160263 3.32722e-05 0)
(-0.00171695 3.29885e-05 0)
(-0.00183006 3.25633e-05 0)
(-0.00194148 3.20027e-05 0)
(-0.00205076 3.13121e-05 0)
(-0.00215744 3.04966e-05 0)
(-0.00226113 2.95629e-05 0)
(-0.0023614 2.8517e-05 0)
(-0.00245789 2.73651e-05 0)
(-0.00255023 2.61129e-05 0)
(-0.00263809 2.47661e-05 0)
(-0.00272114 2.3331e-05 0)
(-0.00279909 2.18127e-05 0)
(-0.00287166 2.02172e-05 0)
(-0.00293859 1.85508e-05 0)
(-0.00299965 1.68195e-05 0)
(-0.00305461 1.50298e-05 0)
(-0.00310329 1.31868e-05 0)
(-0.00314551 1.12952e-05 0)
(-0.00318112 9.36257e-06 0)
(-0.00320998 7.39551e-06 0)
(-0.00323198 5.39931e-06 0)
(-0.00324704 3.38076e-06 0)
(-0.00325509 1.34608e-06 0)
(-0.00325609 -6.99055e-07 0)
(-0.00325001 -2.74735e-06 0)
(-0.00323686 -4.79207e-06 0)
(-0.00321667 -6.82714e-06 0)
(-0.00318948 -8.84471e-06 0)
(-0.00315537 -1.08367e-05 0)
(-0.00311445 -1.27966e-05 0)
(-0.00306682 -1.47183e-05 0)
(-0.00301266 -1.65947e-05 0)
(-0.00295212 -1.84181e-05 0)
(-0.00288541 -2.01803e-05 0)
(-0.00281277 -2.18728e-05 0)
(-0.00273443 -2.3488e-05 0)
(-0.00265069 -2.50191e-05 0)
(-0.00256184 -2.6459e-05 0)
(-0.00246823 -2.77998e-05 0)
(-0.0023702 -2.90332e-05 0)
(-0.00226815 -3.01515e-05 0)
(-0.00216248 -3.11471e-05 0)
(-0.00205362 -3.20125e-05 0)
(-0.00194204 -3.27409e-05 0)
(-0.00182822 -3.33253e-05 0)
(-0.00171266 -3.37591e-05 0)
(-0.00159589 -3.40353e-05 0)
(-0.00147846 -3.4147e-05 0)
(-0.00136094 -3.40883e-05 0)
(-0.00124392 -3.3854e-05 0)
(-0.00112799 -3.34386e-05 0)
(-0.00101377 -3.28368e-05 0)
(-0.000901909 -3.20442e-05 0)
(-0.000793038 -3.10568e-05 0)
(-0.000687811 -2.98708e-05 0)
(-0.000586887 -2.8483e-05 0)
(-0.000490928 -2.68914e-05 0)
(-0.000400592 -2.50957e-05 0)
(-0.000316532 -2.30961e-05 0)
(-0.000239389 -2.08942e-05 0)
(-0.000169781 -1.84933e-05 0)
(-0.000108296 -1.59e-05 0)
(-5.54811e-05 -1.31251e-05 0)
(-1.18175e-05 -1.01849e-05 0)
(2.23004e-05 -7.10514e-06 0)
(4.66069e-05 -3.92645e-06 0)
(6.10232e-05 -7.16145e-07 0)
(6.57541e-05 2.41143e-06 0)
(6.14385e-05 5.25869e-06 0)
(4.93602e-05 7.48441e-06 0)
(3.18891e-05 8.47753e-06 0)
(1.37814e-05 7.19718e-06 0)
(2.69037e-06 2.69035e-06 0)
(7.03233e-06 -1.40408e-05 0)
(2.89989e-05 -2.96382e-05 0)
(5.85114e-05 -3.17956e-05 0)
(8.20115e-05 -2.40525e-05 0)
(9.03687e-05 -1.0372e-05 0)
(7.83187e-05 6.60992e-06 0)
(4.27384e-05 2.5254e-05 0)
(-1.80602e-05 4.45244e-05 0)
(-0.000104689 6.37543e-05 0)
(-0.000217029 8.25071e-05 0)
(-0.000354425 0.000100494 0)
(-0.000515856 0.000117522 0)
(-0.000700045 0.000133455 0)
(-0.000905529 0.000148211 0)
(-0.00113071 0.000161736 0)
(-0.00137393 0.000173995 0)
(-0.00163345 0.000184974 0)
(-0.00190751 0.000194672 0)
(-0.00219435 0.000203096 0)
(-0.00249221 0.000210259 0)
(-0.00279934 0.000216184 0)
(-0.00311401 0.000220896 0)
(-0.00343453 0.000224424 0)
(-0.00375925 0.000226797 0)
(-0.00408654 0.000228052 0)
(-0.00441485 0.000228222 0)
(-0.00474264 0.000227343 0)
(-0.00506845 0.000225454 0)
(-0.00539084 0.000222594 0)
(-0.00570847 0.000218801 0)
(-0.00602 0.000214115 0)
(-0.0063242 0.000208575 0)
(-0.00661984 0.000202221 0)
(-0.00690579 0.000195093 0)
(-0.00718096 0.000187231 0)
(-0.00744432 0.000178675 0)
(-0.0076949 0.000169466 0)
(-0.00793177 0.000159645 0)
(-0.00815409 0.000149251 0)
(-0.00836106 0.000138324 0)
(-0.00855193 0.000126907 0)
(-0.00872603 0.00011504 0)
(-0.00888273 0.000102764 0)
(-0.00902148 9.01215e-05 0)
(-0.00914178 7.71534e-05 0)
(-0.00924319 6.39017e-05 0)
(-0.00932533 5.04108e-05 0)
(-0.00938789 3.67237e-05 0)
(-0.00943062 2.28836e-05 0)
(-0.00945334 8.93555e-06 0)
(-0.00945592 -5.07503e-06 0)
(-0.00943832 -1.91023e-05 0)
(-0.00940053 -3.31002e-05 0)
(-0.00934265 -4.70216e-05 0)
(-0.00926483 -6.08175e-05 0)
(-0.00916728 -7.44387e-05 0)
(-0.0090503 -8.78362e-05 0)
(-0.00891424 -0.000100961 0)
(-0.00875955 -0.000113762 0)
(-0.00858673 -0.000126189 0)
(-0.00839636 -0.000138191 0)
(-0.00818909 -0.000149714 0)
(-0.00796566 -0.000160705 0)
(-0.00772687 -0.000171116 0)
(-0.00747359 -0.000180894 0)
(-0.00720678 -0.000189986 0)
(-0.00692746 -0.000198342 0)
(-0.00663673 -0.000205911 0)
(-0.00633575 -0.000212643 0)
(-0.00602576 -0.000218488 0)
(-0.00570807 -0.000223401 0)
(-0.00538404 -0.000227334 0)
(-0.00505511 -0.000230245 0)
(-0.00472277 -0.000232091 0)
(-0.00438857 -0.00023283 0)
(-0.00405411 -0.000232427 0)
(-0.00372103 -0.000230847 0)
(-0.00339105 -0.000228058 0)
(-0.00306587 -0.000224032 0)
(-0.00274728 -0.000218748 0)
(-0.00243704 -0.000212186 0)
(-0.00213697 -0.000204333 0)
(-0.00184887 -0.000195181 0)
(-0.00157454 -0.000184732 0)
(-0.00131576 -0.000172997 0)
(-0.00107429 -0.000159999 0)
(-0.000851801 -0.000145773 0)
(-0.00064991 -0.000130376 0)
(-0.000470106 -0.000113885 0)
(-0.00031372 -9.64143e-05 0)
(-0.000181871 -7.81214e-05 0)
(-7.53799e-05 -5.92312e-05 0)
(5.33126e-06 -4.00659e-05 0)
(6.03949e-05 -2.10955e-05 0)
(9.07135e-05 -3.01684e-06 0)
(9.82615e-05 1.31194e-05 0)
(8.64246e-05 2.57267e-05 0)
(6.05405e-05 3.24e-05 0)
(2.96371e-05 2.96337e-05 0)
(7.19004e-06 1.37706e-05 0)
(7.98447e-06 -3.13926e-05 0)
(3.04152e-05 -5.87454e-05 0)
(5.59079e-05 -5.75572e-05 0)
(6.85226e-05 -3.53357e-05 0)
(5.73519e-05 7.03804e-07 0)
(1.5591e-05 4.52347e-05 0)
(-6.11689e-05 9.45244e-05 0)
(-0.000175522 0.000146008 0)
(-0.000328626 0.000197888 0)
(-0.000520542 0.000248919 0)
(-0.000750526 0.000298226 0)
(-0.00101724 0.000345184 0)
(-0.00131892 0.000389364 0)
(-0.00165344 0.000430464 0)
(-0.00201848 0.000468275 0)
(-0.00241154 0.000502666 0)
(-0.00283002 0.00053356 0)
(-0.00327123 0.000560918 0)
(-0.00373245 0.000584736 0)
(-0.00421096 0.000605035 0)
(-0.00470404 0.000621855 0)
(-0.00520899 0.000635253 0)
(-0.00572315 0.000645297 0)
(-0.00624391 0.000652067 0)
(-0.00676871 0.00065565 0)
(-0.00729508 0.000656139 0)
(-0.00782058 0.000653632 0)
(-0.00834288 0.000648231 0)
(-0.00885971 0.000640041 0)
(-0.00936889 0.000629171 0)
(-0.00986831 0.000615732 0)
(-0.010356 0.000599834 0)
(-0.0108299 0.000581589 0)
(-0.0112883 0.000561113 0)
(-0.0117295 0.000538518 0)
(-0.0121517 0.00051392 0)
(-0.0125534 0.000487436 0)
(-0.0129332 0.000459181 0)
(-0.0132895 0.000429273 0)
(-0.0136213 0.000397827 0)
(-0.0139273 0.000364963 0)
(-0.0142063 0.0003308 0)
(-0.0144574 0.000295458 0)
(-0.0146797 0.000259057 0)
(-0.0148724 0.000221719 0)
(-0.0150348 0.000183567 0)
(-0.0151663 0.000144725 0)
(-0.0152664 0.000105321 0)
(-0.0153346 6.54815e-05 0)
(-0.0153708 2.53358e-05 0)
(-0.0153746 -1.49846e-05 0)
(-0.0153461 -5.53459e-05 0)
(-0.0152852 -9.56138e-05 0)
(-0.0151921 -0.000135653 0)
(-0.0150671 -0.000175323 0)
(-0.0149104 -0.000214482 0)
(-0.0147226 -0.000252989 0)
(-0.0145043 -0.000290701 0)
(-0.0142561 -0.000327473 0)
(-0.0139789 -0.000363157 0)
(-0.0136736 -0.000397607 0)
(-0.0133413 -0.000430672 0)
(-0.0129831 -0.000462206 0)
(-0.0126004 -0.00049206 0)
(-0.0121945 -0.000520088 0)
(-0.011767 -0.000546142 0)
(-0.0113195 -0.000570075 0)
(-0.0108537 -0.000591745 0)
(-0.0103716 -0.000611012 0)
(-0.00987513 -0.000627736 0)
(-0.00936632 -0.000641787 0)
(-0.00884739 -0.000653035 0)
(-0.00832061 -0.000661358 0)
(-0.00778836 -0.000666637 0)
(-0.00725309 -0.000668764 0)
(-0.00671735 -0.000667638 0)
(-0.00618375 -0.000663166 0)
(-0.00565496 -0.000655266 0)
(-0.0051337 -0.000643869 0)
(-0.00462275 -0.000628919 0)
(-0.0041249 -0.000610376 0)
(-0.00364297 -0.000588216 0)
(-0.00317975 -0.000562438 0)
(-0.00273804 -0.000533064 0)
(-0.00232056 -0.000500149 0)
(-0.00192999 -0.000463783 0)
(-0.00156887 -0.000424103 0)
(-0.0012396 -0.000381303 0)
(-0.000944364 -0.000335651 0)
(-0.000685068 -0.000287516 0)
(-0.000463256 -0.000237398 0)
(-0.000279988 -0.000185985 0)
(-0.000135688 -0.000134218 0)
(-2.99464e-05 -8.34032e-05 0)
(3.87479e-05 -3.53665e-05 0)
(7.33412e-05 7.33102e-06 0)
(7.85448e-05 4.11052e-05 0)
(6.12864e-05 6.1026e-05 0)
(3.25186e-05 6.05627e-05 0)
(8.48729e-06 3.18794e-05 0)
(6.91597e-06 -4.75725e-05 0)
(2.30732e-05 -8.15714e-05 0)
(3.40993e-05 -7.0023e-05 0)
(2.38891e-05 -2.50956e-05 0)
(-1.88482e-05 4.26962e-05 0)
(-0.00010157 0.000125212 0)
(-0.000229313 0.000216462 0)
(-0.000405176 0.000312053 0)
(-0.000630638 0.000408807 0)
(-0.000905901 0.000504405 0)
(-0.00123018 0.000597153 0)
(-0.00160191 0.000685825 0)
(-0.00201896 0.000769528 0)
(-0.00247875 0.00084762 0)
(-0.00297834 0.000919651 0)
(-0.00351458 0.000985315 0)
(-0.00408413 0.00104441 0)
(-0.00468353 0.00109684 0)
(-0.00530927 0.00114255 0)
(-0.00595777 0.00118155 0)
(-0.00662547 0.0012139 0)
(-0.00730881 0.00123968 0)
(-0.00800428 0.00125901 0)
(-0.00870842 0.00127202 0)
(-0.00941784 0.00127888 0)
(-0.0101292 0.00127974 0)
(-0.0108393 0.0012748 0)
(-0.011545 0.00126424 0)
(-0.0122432 0.00124826 0)
(-0.012931 0.00122706 0)
(-0.0136056 0.00120086 0)
(-0.0142643 0.00116986 0)
(-0.0149044 0.00113429 0)
(-0.0155236 0.00109436 0)
(-0.0161194 0.0010503 0)
(-0.0166896 0.00100232 0)
(-0.0172322 0.000950656 0)
(-0.017745 0.000895532 0)
(-0.0182262 0.000837175 0)
(-0.0186742 0.000775816 0)
(-0.0190873 0.000711685 0)
(-0.019464 0.000645014 0)
(-0.019803 0.00057604 0)
(-0.0201031 0.000504999 0)
(-0.0203631 0.00043213 0)
(-0.0205822 0.000357675 0)
(-0.0207595 0.000281878 0)
(-0.0208944 0.000204986 0)
(-0.0209863 0.00012725 0)
(-0.0210348 4.8925e-05 0)
(-0.0210397 -2.97329e-05 0)
(-0.0210009 -0.000108463 0)
(-0.0209183 -0.000187001 0)
(-0.0207923 -0.000265079 0)
(-0.0206232 -0.000342426 0)
(-0.0204113 -0.000418767 0)
(-0.0201575 -0.000493824 0)
(-0.0198624 -0.000567318 0)
(-0.0195271 -0.000638966 0)
(-0.0191527 -0.000708481 0)
(-0.0187403 -0.000775577 0)
(-0.0182916 -0.000839967 0)
(-0.0178079 -0.000901362 0)
(-0.0172912 -0.000959477 0)
(-0.0167432 -0.00101402 0)
(-0.0161661 -0.00106472 0)
(-0.0155621 -0.00111128 0)
(-0.0149334 -0.00115344 0)
(-0.0142828 -0.00119092 0)
(-0.0136127 -0.00122345 0)
(-0.012926 -0.0012508 0)
(-0.0122256 -0.00127269 0)
(-0.0115145 -0.00128892 0)
(-0.0107961 -0.00129925 0)
(-0.0100734 -0.00130347 0)
(-0.00934997 -0.00130141 0)
(-0.00862923 -0.00129289 0)
(-0.00791474 -0.00127776 0)
(-0.00721011 -0.00125591 0)
(-0.00651901 -0.00122723 0)
(-0.00584512 -0.00119167 0)
(-0.00519215 -0.0011492 0)
(-0.00456377 -0.00109984 0)
(-0.00396363 -0.00104367 0)
(-0.00339525 -0.000980822 0)
(-0.00286209 -0.0009115 0)
(-0.0023674 -0.000836008 0)
(-0.00191422 -0.000754765 0)
(-0.00150528 -0.000668337 0)
(-0.00114293 -0.000577479 0)
(-0.000829025 -0.000483198 0)
(-0.000564785 -0.000386834 0)
(-0.000350617 -0.000290177 0)
(-0.000185913 -0.000195623 0)
(-6.87749e-05 -0.000106389 0)
(4.29856e-06 -2.68041e-05 0)
(3.87057e-05 3.73418e-05 0)
(4.21329e-05 7.84401e-05 0)
(2.61649e-05 8.67242e-05 0)
(7.55542e-06 4.94579e-05 0)
(4.73708e-06 -5.81597e-05 0)
(1.02753e-05 -8.96235e-05 0)
(-5.76319e-07 -5.88543e-05 0)
(-4.22452e-05 1.75919e-05 0)
(-0.000125443 0.000126048 0)
(-0.000257668 0.000255731 0)
(-0.000444082 0.00039839 0)
(-0.000687917 0.000547808 0)
(-0.000990741 0.000699303 0)
(-0.00135278 0.000849354 0)
(-0.00177317 0.000995323 0)
(-0.00225015 0.00113524 0)
(-0.00278129 0.00126763 0)
(-0.00336359 0.00139143 0)
(-0.00399368 0.00150584 0)
(-0.00466782 0.00161032 0)
(-0.00538208 0.00170449 0)
(-0.00613234 0.00178813 0)
(-0.00691438 0.00186113 0)
(-0.00772391 0.00192347 0)
(-0.00855663 0.00197519 0)
(-0.00940822 0.00201641 0)
(-0.0102744 0.00204729 0)
(-0.011151 0.00206802 0)
(-0.0120338 0.00207884 0)
(-0.0129188 0.00208 0)
(-0.0138019 0.00207179 0)
(-0.0146794 0.00205449 0)
(-0.0155475 0.00202842 0)
(-0.0164026 0.00199391 0)
(-0.0172411 0.00195128 0)
(-0.0180598 0.00190088 0)
(-0.0188554 0.00184305 0)
(-0.0196249 0.00177815 0)
(-0.0203653 0.00170652 0)
(-0.0210738 0.00162854 0)
(-0.0217479 0.00154456 0)
(-0.022385 0.00145496 0)
(-0.0229829 0.0013601 0)
(-0.0235394 0.00126035 0)
(-0.0240526 0.0011561 0)
(-0.0245205 0.00104772 0)
(-0.0249415 0.000935599 0)
(-0.0253141 0.000820115 0)
(-0.0256369 0.000701664 0)
(-0.0259089 0.000580638 0)
(-0.0261289 0.000457436 0)
(-0.0262961 0.000332463 0)
(-0.02641 0.000206128 0)
(-0.02647 7.88426e-05 0)
(-0.0264757 -4.89716e-05 0)
(-0.0264272 -0.000176891 0)
(-0.0263244 -0.000304485 0)
(-0.0261675 -0.000431318 0)
(-0.0259571 -0.000556947 0)
(-0.0256937 -0.000680927 0)
(-0.0253781 -0.000802808 0)
(-0.0250114 -0.000922134 0)
(-0.0245947 -0.00103845 0)
(-0.0241294 -0.00115128 0)
(-0.0236171 -0.00126018 0)
(-0.0230596 -0.00136467 0)
(-0.0224588 -0.00146429 0)
(-0.0218169 -0.00155857 0)
(-0.0211364 -0.00164706 0)
(-0.0204196 -0.0017293 0)
(-0.0196694 -0.00180483 0)
(-0.0188887 -0.00187322 0)
(-0.0180806 -0.00193403 0)
(-0.0172483 -0.00198684 0)
(-0.0163954 -0.00203125 0)
(-0.0155253 -0.00206685 0)
(-0.014642 -0.00209329 0)
(-0.0137493 -0.00211022 0)
(-0.0128512 -0.00211731 0)
(-0.0119518 -0.00211427 0)
(-0.0110555 -0.00210085 0)
(-0.0101666 -0.00207681 0)
(-0.00928947 -0.00204198 0)
(-0.00842859 -0.00199623 0)
(-0.00758844 -0.00193949 0)
(-0.00677351 -0.00187174 0)
(-0.00598823 -0.00179304 0)
(-0.00523696 -0.00170355 0)
(-0.00452397 -0.00160353 0)
(-0.00385334 -0.00149335 0)
(-0.00322894 -0.00137354 0)
(-0.00265432 -0.00124483 0)
(-0.00213268 -0.00110817 0)
(-0.00166673 -0.000964808 0)
(-0.0012586 -0.000816386 0)
(-0.00090963 -0.00066503 0)
(-0.000620286 -0.000513515 0)
(-0.000389885 -0.000365455 0)
(-0.000216379 -0.000225565 0)
(-9.60737e-05 -9.99945e-05 0)
(-2.33638e-05 3.27585e-06 0)
(9.61543e-06 7.40308e-05 0)
(1.40932e-05 9.93428e-05 0)
(5.43923e-06 6.18711e-05 0)
(1.97967e-06 -6.10224e-05 0)
(-5.77233e-06 -7.80219e-05 0)
(-4.35043e-05 -1.76494e-05 0)
(-0.000122736 9.98878e-05 0)
(-0.000252845 0.00025812 0)
(-0.000440944 0.000443844 0)
(-0.000691927 0.00064672 0)
(-0.00100884 0.000858738 0)
(-0.00139313 0.00107371 0)
(-0.0018449 0.00128688 0)
(-0.00236311 0.00149457 0)
(-0.0029458 0.00169399 0)
(-0.00359024 0.00188303 0)
(-0.0042931 0.00206007 0)
(-0.00505057 0.00222394 0)
(-0.00585846 0.00237377 0)
(-0.0067123 0.00250899 0)
(-0.0076074 0.00262919 0)
(-0.00853894 0.00273418 0)
(-0.00950201 0.00282385 0)
(-0.0104916 0.00289826 0)
(-0.0115029 0.00295752 0)
(-0.0125307 0.00300184 0)
(-0.0135703 0.00303146 0)
(-0.0146169 0.00304671 0)
(-0.0156656 0.00304793 0)
(-0.0167118 0.00303551 0)
(-0.017751 0.00300987 0)
(-0.0187789 0.00297145 0)
(-0.0197912 0.00292071 0)
(-0.0207837 0.00285813 0)
(-0.0217527 0.00278418 0)
(-0.0226942 0.00269938 0)
(-0.0236046 0.00260423 0)
(-0.0244806 0.00249925 0)
(-0.0253189 0.00238497 0)
(-0.0261163 0.00226191 0)
(-0.0268699 0.00213062 0)
(-0.0275771 0.00199162 0)
(-0.0282353 0.00184547 0)
(-0.0288421 0.00169273 0)
(-0.0293954 0.00153394 0)
(-0.0298932 0.00136966 0)
(-0.0303337 0.00120047 0)
(-0.0307153 0.00102694 0)
(-0.0310367 0.000849647 0)
(-0.0312967 0.000669175 0)
(-0.0314942 0.000486118 0)
(-0.0316286 0.000301077 0)
(-0.0316992 0.00011466 0)
(-0.0317057 -7.25187e-05 0)
(-0.031648 -0.000259836 0)
(-0.0315262 -0.00044666 0)
(-0.0313404 -0.000632352 0)
(-0.0310913 -0.000816266 0)
(-0.0307796 -0.000997748 0)
(-0.0304062 -0.00117614 0)
(-0.0299724 -0.00135077 0)
(-0.0294794 -0.00152098 0)
(-0.0289291 -0.00168609 0)
(-0.0283232 -0.00184541 0)
(-0.0276639 -0.00199829 0)
(-0.0269534 -0.00214402 0)
(-0.0261944 -0.00228195 0)
(-0.0253896 -0.0024114 0)
(-0.024542 -0.00253172 0)
(-0.0236548 -0.00264223 0)
(-0.0227316 -0.00274232 0)
(-0.0217758 -0.00283134 0)
(-0.0207915 -0.00290869 0)
(-0.0197826 -0.00297379 0)
(-0.0187533 -0.00302608 0)
(-0.0177081 -0.00306503 0)
(-0.0166515 -0.00309015 0)
(-0.0155882 -0.00310098 0)
(-0.0145232 -0.0030971 0)
(-0.0134613 -0.00307817 0)
(-0.0124075 -0.00304387 0)
(-0.0113672 -0.00299397 0)
(-0.0103453 -0.00292831 0)
(-0.00934707 -0.0028468 0)
(-0.00837772 -0.00274947 0)
(-0.00744233 -0.00263644 0)
(-0.00654591 -0.00250798 0)
(-0.00569333 -0.0023645 0)
(-0.00488924 -0.00220659 0)
(-0.00413804 -0.00203509 0)
(-0.00344374 -0.00185107 0)
(-0.00280993 -0.00165597 0)
(-0.00223966 -0.0014516 0)
(-0.0017353 -0.00124034 0)
(-0.0012984 -0.00102517 0)
(-0.000929529 -0.000809939 0)
(-0.000628086 -0.000599531 0)
(-0.000392094 -0.000400179 0)
(-0.000217972 -0.000219811 0)
(-0.000100286 -6.8495e-05 0)
(-3.14448e-05 4.11361e-05 0)
(-1.32794e-06 9.33003e-05 0)
(2.74371e-06 6.68621e-05 0)
(-1.03097e-06 -5.49731e-05 0)
(-2.3605e-05 -4.36328e-05 0)
(-9.13987e-05 5.79926e-05 0)
(-0.000212275 0.000226897 0)
(-0.000393831 0.000444271 0)
(-0.000642412 0.000694804 0)
(-0.000962349 0.000966272 0)
(-0.00135625 0.00124899 0)
(-0.00182525 0.00153534 0)
(-0.00236916 0.0018193 0)
(-0.0029867 0.00209618 0)
(-0.00367563 0.00236232 0)
(-0.00443293 0.00261488 0)
(-0.00525491 0.00285169 0)
(-0.00613738 0.00307111 0)
(-0.00707574 0.00327194 0)
(-0.00806502 0.00345332 0)
(-0.00910007 0.00361466 0)
(-0.0101755 0.00375563 0)
(-0.0112859 0.00387604 0)
(-0.0124256 0.00397592 0)
(-0.0135892 0.00405536 0)
(-0.014771 0.00411462 0)
(-0.0159656 0.004154 0)
(-0.0171675 0.00417389 0)
(-0.0183714 0.00417476 0)
(-0.019572 0.0041571 0)
(-0.0207642 0.00412146 0)
(-0.021943 0.00406843 0)
(-0.0231038 0.0039986 0)
(-0.0242416 0.00391263 0)
(-0.0253522 0.00381117 0)
(-0.0264312 0.00369488 0)
(-0.0274745 0.00356447 0)
(-0.0284782 0.00342063 0)
(-0.0294385 0.00326407 0)
(-0.030352 0.00309552 0)
(-0.0312152 0.00291571 0)
(-0.0320252 0.00272537 0)
(-0.032779 0.00252525 0)
(-0.0334738 0.00231611 0)
(-0.0341073 0.0020987 0)
(-0.0346773 0.0018738 0)
(-0.0351815 0.00164218 0)
(-0.0356184 0.00140463 0)
(-0.0359862 0.00116194 0)
(-0.0362836 0.00091491 0)
(-0.0365096 0.000664361 0)
(-0.0366632 0.000411112 0)
(-0.0367439 0.000155996 0)
(-0.0367511 -0.000100144 0)
(-0.0366848 -0.000356455 0)
(-0.036545 -0.000612073 0)
(-0.0363322 -0.000866123 0)
(-0.0360467 -0.00111772 0)
(-0.0356897 -0.00136598 0)
(-0.035262 -0.00160999 0)
(-0.0347651 -0.00184884 0)
(-0.0342006 -0.00208163 0)
(-0.0335704 -0.00230742 0)
(-0.0328767 -0.00252531 0)
(-0.0321217 -0.00273436 0)
(-0.0313082 -0.00293366 0)
(-0.030439 -0.00312229 0)
(-0.0295175 -0.00329933 0)
(-0.0285469 -0.0034639 0)
(-0.0275309 -0.0036151 0)
(-0.0264735 -0.00375207 0)
(-0.0253788 -0.00387397 0)
(-0.0242512 -0.00397997 0)
(-0.0230952 -0.0040693 0)
(-0.0219157 -0.00414119 0)
(-0.0207177 -0.00419494 0)
(-0.0195063 -0.00422991 0)
(-0.0182868 -0.00424547 0)
(-0.0170647 -0.0042411 0)
(-0.0158457 -0.00421633 0)
(-0.0146354 -0.00417076 0)
(-0.0134395 -0.00410411 0)
(-0.012264 -0.00401619 0)
(-0.0111146 -0.00390692 0)
(-0.00999704 -0.00377636 0)
(-0.0089171 -0.00362473 0)
(-0.00788034 -0.00345244 0)
(-0.00689217 -0.0032601 0)
(-0.00595776 -0.00304856 0)
(-0.00508196 -0.00281898 0)
(-0.0042692 -0.00257287 0)
(-0.00352347 -0.00231218 0)
(-0.00284812 -0.00203939 0)
(-0.00224581 -0.00175762 0)
(-0.00171832 -0.00147078 0)
(-0.00126646 -0.00118382 0)
(-0.000889848 -0.000902878 0)
(-0.000586775 -0.000635672 0)
(-0.000354025 -0.000391811 0)
(-0.00018664 -0.000183267 0)
(-7.76548e-05 -2.48156e-05 0)
(-1.85817e-05 6.53543e-05 0)
(-2.01231e-07 6.32312e-05 0)
(-4.1168e-06 -3.94241e-05 0)
(-4.2279e-05 1.54004e-05 0)
(-0.00014198 0.00017091 0)
(-0.000307096 0.000402073 0)
(-0.000543106 0.000688248 0)
(-0.000855365 0.00101237 0)
(-0.00124741 0.00136056 0)
(-0.00172119 0.00172164 0)
(-0.00227734 0.00208663 0)
(-0.00291529 0.00244835 0)
(-0.00363338 0.00280106 0)
(-0.00442904 0.00314024 0)
(-0.00529891 0.00346233 0)
(-0.00623894 0.00376456 0)
(-0.00724458 0.00404479 0)
(-0.0083108 0.00430144 0)
(-0.00943223 0.00453335 0)
(-0.0106032 0.00473971 0)
(-0.011818 0.00492001 0)
(-0.0130704 0.00507399 0)
(-0.0143546 0.0052016 0)
(-0.0156644 0.00530294 0)
(-0.0169937 0.00537827 0)
(-0.0183364 0.00542797 0)
(-0.0196865 0.00545249 0)
(-0.0210382 0.00545241 0)
(-0.0223857 0.00542834 0)
(-0.0237233 0.00538097 0)
(-0.0250455 0.00531104 0)
(-0.026347 0.00521932 0)
(-0.0276226 0.00510662 0)
(-0.0288674 0.00497379 0)
(-0.0300765 0.00482169 0)
(-0.0312455 0.00465122 0)
(-0.0323698 0.00446326 0)
(-0.0334455 0.00425876 0)
(-0.0344686 0.00403864 0)
(-0.0354353 0.00380385 0)
(-0.0363423 0.00355535 0)
(-0.0371863 0.00329411 0)
(-0.0379642 0.00302112 0)
(-0.0386734 0.00273736 0)
(-0.0393114 0.00244384 0)
(-0.0398758 0.00214158 0)
(-0.0403647 0.00183159 0)
(-0.0407763 0.00151492 0)
(-0.0411091 0.00119261 0)
(-0.0413619 0.000865725 0)
(-0.0415337 0.000535338 0)
(-0.0416238 0.000202535 0)
(-0.0416317 -0.000131584 0)
(-0.0415574 -0.000465905 0)
(-0.0414008 -0.000799301 0)
(-0.0411624 -0.00113063 0)
(-0.0408428 -0.00145875 0)
(-0.0404431 -0.00178249 0)
(-0.0399643 -0.00210068 0)
(-0.0394081 -0.00241214 0)
(-0.0387762 -0.00271567 0)
(-0.0380708 -0.00301008 0)
(-0.0372942 -0.00329419 0)
(-0.0364491 -0.00356678 0)
(-0.0355384 -0.00382666 0)
(-0.0345655 -0.00407266 0)
(-0.0335337 -0.00430358 0)
(-0.032447 -0.00451827 0)
(-0.0313094 -0.00471559 0)
(-0.0301253 -0.00489442 0)
(-0.0288992 -0.00505367 0)
(-0.027636 -0.00519229 0)
(-0.0263407 -0.00530927 0)
(-0.0250188 -0.00540365 0)
(-0.0236758 -0.00547453 0)
(-0.0223172 -0.00552108 0)
(-0.0209492 -0.00554253 0)
(-0.0195776 -0.00553821 0)
(-0.0182086 -0.00550753 0)
(-0.0168486 -0.00545004 0)
(-0.0155039 -0.00536536 0)
(-0.0141809 -0.0052533 0)
(-0.0128858 -0.0051138 0)
(-0.0116252 -0.00494698 0)
(-0.0104053 -0.00475317 0)
(-0.00923203 -0.00453293 0)
(-0.00811145 -0.0042871 0)
(-0.00704914 -0.00401684 0)
(-0.00605038 -0.00372368 0)
(-0.00512005 -0.00340958 0)
(-0.00426246 -0.00307707 0)
(-0.00348133 -0.00272929 0)
(-0.00277962 -0.00237015 0)
(-0.00215946 -0.00200453 0)
(-0.00162195 -0.00163842 0)
(-0.00116708 -0.00127922 0)
(-0.000793595 -0.000936003 0)
(-0.000498839 -0.000619936 0)
(-0.000278566 -0.000344673 0)
(-0.000126699 -0.000126804 0)
(-3.67096e-05 1.35638e-05 0)
(-3.21435e-06 5.03804e-05 0)
(-7.17771e-06 -1.41725e-05 0)
(-6.12061e-05 0.000100025 0)
(-0.000193745 0.000322724 0)
(-0.000404561 0.000627563 0)
(-0.000696879 0.000992522 0)
(-0.00107489 0.00139912 0)
(-0.00154116 0.00183209 0)
(-0.00209684 0.00227893 0)
(-0.00274192 0.00272945 0)
(-0.0034753 0.00317536 0)
(-0.00429487 0.00360996 0)
(-0.00519765 0.00402787 0)
(-0.00617988 0.00442481 0)
(-0.00723715 0.00479739 0)
(-0.00836451 0.005143 0)
(-0.00955654 0.00545962 0)
(-0.0108074 0.00574578 0)
(-0.0121112 0.00600043 0)
(-0.0134614 0.00622287 0)
(-0.0148517 0.00641274 0)
(-0.0162756 0.0065699 0)
(-0.0177264 0.00669444 0)
(-0.0191977 0.00678663 0)
(-0.0206827 0.0068469 0)
(-0.022175 0.0068758 0)
(-0.0236683 0.00687398 0)
(-0.0251563 0.0068422 0)
(-0.0266327 0.00678129 0)
(-0.0280916 0.00669215 0)
(-0.0295273 0.00657573 0)
(-0.030934 0.00643303 0)
(-0.0323064 0.00626509 0)
(-0.0336393 0.00607299 0)
(-0.0349276 0.00585782 0)
(-0.0361666 0.00562073 0)
(-0.0373517 0.00536285 0)
(-0.0384788 0.00508536 0)
(-0.0395437 0.00478945 0)
(-0.0405426 0.00447631 0)
(-0.041472 0.00414718 0)
(-0.0423287 0.00380327 0)
(-0.0431096 0.00344585 0)
(-0.0438119 0.00307616 0)
(-0.0444333 0.00269549 0)
(-0.0449715 0.00230512 0)
(-0.0454246 0.00190636 0)
(-0.0457909 0.00150053 0)
(-0.0460691 0.00108896 0)
(-0.0462582 0.000673014 0)
(-0.0463573 0.000254046 0)
(-0.0463661 -0.000166556 0)
(-0.0462842 -0.00058739 0)
(-0.0461118 -0.00100704 0)
(-0.0458494 -0.00142408 0)
(-0.0454976 -0.00183705 0)
(-0.0450576 -0.0022445 0)
(-0.0445306 -0.00264495 0)
(-0.0439184 -0.00303693 0)
(-0.0432229 -0.00341893 0)
(-0.0424464 -0.00378947 0)
(-0.0415915 -0.00414704 0)
(-0.0406611 -0.00449015 0)
(-0.0396585 -0.0048173 0)
(-0.0385872 -0.00512701 0)
(-0.0374511 -0.0054178 0)
(-0.0362544 -0.00568824 0)
(-0.0350014 -0.00593689 0)
(-0.0336969 -0.00616236 0)
(-0.032346 -0.0063633 0)
(-0.0309539 -0.00653841 0)
(-0.0295261 -0.00668643 0)
(-0.0280686 -0.00680619 0)
(-0.0265872 -0.00689657 0)
(-0.0250882 -0.00695654 0)
(-0.023578 -0.00698518 0)
(-0.0220632 -0.00698167 0)
(-0.0205504 -0.0069453 0)
(-0.0190465 -0.00687551 0)
(-0.0175584 -0.00677192 0)
(-0.0160929 -0.00663428 0)
(-0.014657 -0.00646256 0)
(-0.0132574 -0.00625698 0)
(-0.0119011 -0.00601797 0)
(-0.0105944 -0.00574629 0)
(-0.00934393 -0.00544303 0)
(-0.00815559 -0.00510965 0)
(-0.00703514 -0.0047481 0)
(-0.00598782 -0.00436082 0)
(-0.00501837 -0.00395093 0)
(-0.00413085 -0.00352225 0)
(-0.00332863 -0.0030795 0)
(-0.00261419 -0.00262847 0)
(-0.00198907 -0.00217619 0)
(-0.00145375 -0.00173122 0)
(-0.00100754 -0.00130392 0)
(-0.00064854 -0.000906819 0)
(-0.000373375 -0.000555011 0)
(-0.000177035 -0.000266574 0)
(-5.51184e-05 -6.30746e-05 0)
(-6.19866e-06 2.80945e-05 0)
(-1.01604e-05 2.07633e-05 0)
(-8.00333e-05 0.00021056 0)
(-0.000245702 0.000514213 0)
(-0.000502875 0.000904544 0)
(-0.000852482 0.00135856 0)
(-0.00129745 0.00185668 0)
(-0.00183927 0.0023825 0)
(-0.00247815 0.0029224 0)
(-0.00321334 0.00346509 0)
(-0.0040431 0.0040013 0)
(-0.00496478 0.00452342 0)
(-0.00597493 0.00502527 0)
(-0.00706935 0.00550186 0)
(-0.00824321 0.00594921 0)
(-0.00949114 0.00636419 0)
(-0.0108073 0.00674439 0)
(-0.0121856 0.00708799 0)
(-0.0136194 0.00739368 0)
(-0.015102 0.0076606 0)
(-0.0166267 0.00788821 0)
(-0.0181863 0.00807634 0)
(-0.019774 0.00822502 0)
(-0.0213825 0.00833454 0)
(-0.023005 0.00840538 0)
(-0.0246344 0.00843816 0)
(-0.026264 0.00843364 0)
(-0.0278869 0.00839271 0)
(-0.0294966 0.00831636 0)
(-0.0310866 0.00820565 0)
(-0.0326507 0.00806172 0)
(-0.0341829 0.00788577 0)
(-0.0356772 0.00767905 0)
(-0.0371282 0.00744286 0)
(-0.0385304 0.00717853 0)
(-0.0398787 0.00688744 0)
(-0.0411683 0.00657097 0)
(-0.0423944 0.00623056 0)
(-0.0435527 0.00586765 0)
(-0.0446391 0.0054837 0)
(-0.0456499 0.00508021 0)
(-0.0465815 0.00465868 0)
(-0.0474306 0.00422062 0)
(-0.0481942 0.0037676 0)
(-0.0488698 0.00330115 0)
(-0.0494549 0.00282287 0)
(-0.0499475 0.00233434 0)
(-0.0503457 0.00183718 0)
(-0.0506482 0.00133303 0)
(-0.0508538 0.000823538 0)
(-0.0509616 0.000310377 0)
(-0.0509712 -0.00020476 0)
(-0.0508823 -0.000720159 0)
(-0.0506951 -0.00123409 0)
(-0.05041 -0.0017448 0)
(-0.0500279 -0.00225053 0)
(-0.0495498 -0.00274949 0)
(-0.0489772 -0.00323988 0)
(-0.0483119 -0.00371989 0)
(-0.0475561 -0.00418771 0)
(-0.0467121 -0.00464151 0)
(-0.0457829 -0.00507946 0)
(-0.0447716 -0.00549975 0)
(-0.0436817 -0.00590054 0)
(-0.042517 -0.00628004 0)
(-0.0412816 -0.00663646 0)
(-0.0399801 -0.00696805 0)
(-0.0386172 -0.00727306 0)
(-0.037198 -0.00754983 0)
(-0.035728 -0.00779671 0)
(-0.0342127 -0.00801212 0)
(-0.0326583 -0.00819457 0)
(-0.0310708 -0.00834261 0)
(-0.0294569 -0.00845493 0)
(-0.027823 -0.00853028 0)
(-0.0261762 -0.00856757 0)
(-0.0245235 -0.00856582 0)
(-0.0228719 -0.00852421 0)
(-0.021229 -0.0084421 0)
(-0.0196019 -0.00831902 0)
(-0.0179981 -0.00815474 0)
(-0.0164251 -0.00794927 0)
(-0.01489 -0.00770288 0)
(-0.0134001 -0.00741618 0)
(-0.0119625 -0.00709009 0)
(-0.010584 -0.00672598 0)
(-0.00927109 -0.00632566 0)
(-0.00802985 -0.00589146 0)
(-0.00686599 -0.00542637 0)
(-0.00578462 -0.00493405 0)
(-0.00479025 -0.00441904 0)
(-0.00388665 -0.00388683 0)
(-0.00307678 -0.00334409 0)
(-0.00236268 -0.00279885 0)
(-0.00174542 -0.00226073 0)
(-0.00122501 -0.00174123 0)
(-0.000800406 -0.00125408 0)
(-0.000469235 -0.000815582 0)
(-0.000227654 -0.000444996 0)
(-7.34493e-05 -0.000164939 0)
(-9.1051e-06 -3.61488e-06 0)
(-1.30446e-05 6.52298e-05 0)
(-9.8552e-05 0.000346942 0)
(-0.000297225 0.00074556 0)
(-0.000600855 0.00123348 0)
(-0.00100809 0.00178707 0)
(-0.00152057 0.00238594 0)
(-0.0021386 0.00301277 0)
(-0.00286142 0.00365299 0)
(-0.00368741 0.0042944 0)
(-0.00461413 0.00492681 0)
(-0.00563831 0.0055418 0)
(-0.00675596 0.00613245 0)
(-0.00796237 0.0066931 0)
(-0.00925226 0.0072192 0)
(-0.0106198 0.00770713 0)
(-0.0120589 0.00815406 0)
(-0.0135627 0.00855784 0)
(-0.0151245 0.00891692 0)
(-0.0167371 0.00923021 0)
(-0.0183932 0.00949707 0)
(-0.0200854 0.00971721 0)
(-0.0218063 0.00989065 0)
(-0.0235483 0.0100177 0)
(-0.0253042 0.0100988 0)
(-0.0270664 0.0101348 0)
(-0.0288277 0.0101264 0)
(-0.0305809 0.0100748 0)
(-0.0323191 0.009981 0)
(-0.0340353 0.0098463 0)
(-0.035723 0.00967203 0)
(-0.0373757 0.00945959 0)
(-0.0389872 0.00921047 0)
(-0.0405516 0.0089262 0)
(-0.042063 0.00860835 0)
(-0.043516 0.00825855 0)
(-0.0449054 0.00787847 0)
(-0.0462263 0.00746979 0)
(-0.047474 0.00703423 0)
(-0.0486442 0.00657355 0)
(-0.0497327 0.00608952 0)
(-0.0507359 0.00558393 0)
(-0.0516501 0.00505862 0)
(-0.0524724 0.00451541 0)
(-0.0531998 0.00395617 0)
(-0.0538297 0.0033828 0)
(-0.0543601 0.0027972 0)
(-0.0547889 0.00220129 0)
(-0.0551147 0.00159704 0)
(-0.0553362 0.00098643 0)
(-0.0554525 0.000371449 0)
(-0.0554631 -0.000245873 0)
(-0.0553677 -0.000863491 0)
(-0.0551666 -0.00147933 0)
(-0.0548601 -0.00209131 0)
(-0.0544491 -0.00269731 0)
(-0.0539349 -0.0032952 0)
(-0.053319 -0.00388284 0)
(-0.0526034 -0.00445806 0)
(-0.0517902 -0.0050187 0)
(-0.0508821 -0.00556259 0)
(-0.0498822 -0.00608754 0)
(-0.0487938 -0.00659138 0)