/*--------------------------------*- C++ -*----------------------------------*\
| =========                 |                                                 |
| \\      /  F ield         | OpenFOAM: The Open Source CFD Toolbox           |
|  \\    /   O peration     | Version:  2212                                  |
|   \\  /    A nd           | Website:  www.openfoam.com                      |
|    \\/     M anipulation  |                                                 |
\*---------------------------------------------------------------------------*/
FoamFile
{
    version     2.0;
    format      ascii;
    arch        "LSB;label=32;scalar=64";
    class       surfaceScalarField;
    location    "0.04";
    object      phi_0;
}
// * * * * * * * * * * * * * * * * * * * * * * * * * * * * * * * * * * * * * //

dimensions      [0 3 -1 0 0 0 0];

oriented        oriented;

internalField   nonuniform List<scalar> 
19800
(
6.26544e-11
-6.27211e-11
2.11698e-10
-1.49027e-10
3.65104e-10
-1.53414e-10
4.77841e-10
-1.12729e-10
5.22513e-10
-4.4673e-11
4.85004e-10
3.75079e-11
3.58788e-10
1.26219e-10
1.41963e-10
2.16827e-10
-1.64402e-10
3.06369e-10
-5.5737e-10
3.92974e-10
-1.03282e-09
4.75456e-10
-1.58586e-09
5.53053e-10
-2.21112e-09
6.25262e-10
-2.90288e-09
6.91754e-10
-3.65523e-09
7.52349e-10
-4.4622e-09
8.06974e-10
-5.31782e-09
8.55614e-10
-6.21612e-09
8.98294e-10
-7.1512e-09
9.35077e-10
-8.11726e-09
9.66064e-10
-9.10864e-09
9.91373e-10
-1.01198e-08
1.01114e-09
-1.11453e-08
1.02553e-09
-1.218e-08
1.0347e-09
-1.32189e-08
1.03883e-09
-1.42569e-08
1.03809e-09
-1.52896e-08
1.03268e-09
-1.63124e-08
1.02278e-09
-1.7321e-08
1.00856e-09
-1.83112e-08
9.90207e-10
-1.92791e-08
9.67919e-10
-2.0221e-08
9.41883e-10
-2.11333e-08
9.12273e-10
-2.20125e-08
8.79288e-10
-2.28557e-08
8.43129e-10
-2.36596e-08
8.03971e-10
-2.44216e-08
7.61977e-10
-2.51389e-08
7.17334e-10
-2.58092e-08
6.70234e-10
-2.643e-08
6.20853e-10
-2.69994e-08
5.69363e-10
-2.75153e-08
5.15945e-10
-2.79761e-08
4.60795e-10
-2.83802e-08
4.04087e-10
-2.87262e-08
3.45987e-10
-2.90129e-08
2.86673e-10
-2.92392e-08
2.26329e-10
-2.94044e-08
1.65152e-10
-2.95077e-08
1.03328e-10
-2.95487e-08
4.10376e-11
-2.95272e-08
-2.15261e-11
-2.9443e-08
-8.41628e-11
-2.92964e-08
-1.46678e-10
-2.90875e-08
-2.0887e-10
-2.8817e-08
-2.70544e-10
-2.84855e-08
-3.315e-10
-2.80939e-08
-3.91519e-10
-2.76436e-08
-4.50382e-10
-2.71357e-08
-5.07879e-10
-2.65719e-08
-5.63792e-10
-2.5954e-08
-6.17902e-10
-2.5284e-08
-6.6999e-10
-2.45642e-08
-7.19823e-10
-2.3797e-08
-7.67167e-10
-2.29852e-08
-8.11796e-10
-2.21317e-08
-8.53486e-10
-2.12397e-08
-8.92004e-10
-2.03126e-08
-9.27125e-10
-1.9354e-08
-9.58625e-10
-1.83677e-08
-9.86273e-10
-1.73579e-08
-1.00984e-09
-1.63287e-08
-1.02911e-09
-1.52849e-08
-1.04389e-09
-1.42309e-08
-1.05396e-09
-1.31718e-08
-1.05913e-09
-1.21126e-08
-1.0592e-09
-1.10586e-08
-1.054e-09
-1.00153e-08
-1.04333e-09
-8.98819e-09
-1.02706e-09
-7.98313e-09
-1.00506e-09
-7.00592e-09
-9.77212e-10
-6.0625e-09
-9.43432e-10
-5.15885e-09
-9.03651e-10
-4.30101e-09
-8.57835e-10
-3.49503e-09
-8.05988e-10
-2.74688e-09
-7.48151e-10
-2.06245e-09
-6.84431e-10
-1.44744e-09
-6.15008e-10
-9.07279e-10
-5.40163e-10
-4.46975e-10
-4.60311e-10
-7.09133e-11
-3.76063e-10
2.17408e-10
-2.88321e-10
4.15812e-10
-1.98407e-10
5.24118e-10
-1.08308e-10
5.45227e-10
-2.11088e-11
4.86881e-10
5.83473e-11
3.64504e-10
1.22378e-10
2.06072e-10
1.58432e-10
6.06465e-11
1.45421e-10
6.06441e-11
1.39829e-10
-2.02529e-10
3.82552e-10
-3.9178e-10
6.03605e-10
-3.74459e-10
7.13769e-10
-2.22902e-10
6.55714e-10
1.33859e-11
3.93442e-10
2.99769e-10
-9.30153e-11
6.12678e-10
-8.12376e-10
9.36176e-10
-1.76548e-09
1.25947e-09
-2.94768e-09
1.57516e-09
-4.35042e-09
1.87819e-09
-5.96248e-09
2.16512e-09
-7.77079e-09
2.43357e-09
-9.76098e-09
2.68194e-09
-1.19178e-08
2.90921e-09
-1.42256e-08
3.11477e-09
-1.66683e-08
3.29833e-09
-1.92298e-08
3.45981e-09
-2.18941e-08
3.59932e-09
-2.46451e-08
3.71711e-09
-2.74672e-08
3.81354e-09
-3.03451e-08
3.88904e-09
-3.32637e-08
3.94412e-09
-3.62084e-08
3.97937e-09
-3.9165e-08
3.99538e-09
-4.21197e-08
3.99281e-09
-4.50593e-08
3.9723e-09
-4.79711e-08
3.93454e-09
-5.08427e-08
3.88021e-09
-5.36625e-08
3.81e-09
-5.64192e-08
3.72461e-09
-5.9102e-08
3.62474e-09
-6.17009e-08
3.51112e-09
-6.42061e-08
3.38446e-09
-6.66084e-08
3.24546e-09
-6.88993e-08
3.09483e-09
-7.10706e-08
2.93328e-09
-7.31148e-08
2.7615e-09
-7.50247e-08
2.58019e-09
-7.67939e-08
2.39004e-09
-7.84162e-08
2.19173e-09
-7.98863e-08
1.98597e-09
-8.1199e-08
1.77348e-09
-8.23498e-08
1.55495e-09
-8.33349e-08
1.33106e-09
-8.41507e-08
1.10252e-09
-8.47944e-08
8.70042e-10
-8.52636e-08
6.34338e-10
-8.55565e-08
3.9614e-10
-8.56716e-08
1.5618e-10
-8.56083e-08
-8.47976e-11
-8.53665e-08
-3.2603e-10
-8.49464e-08
-5.66759e-10
-8.4349e-08
-8.06223e-10
-8.3576e-08
-1.04363e-09
-8.26293e-08
-1.27819e-09
-8.15117e-08
-1.50909e-09
-8.02266e-08
-1.73551e-09
-7.87779e-08
-1.9566e-09
-7.71701e-08
-2.17154e-09
-7.54086e-08
-2.37946e-09
-7.3499e-08
-2.57952e-09
-7.1448e-08
-2.77083e-09
-6.92626e-08
-2.95254e-09
-6.69507e-08
-3.12375e-09
-6.45206e-08
-3.28359e-09
-6.19814e-08
-3.4312e-09
-5.93428e-08
-3.5657e-09
-5.66152e-08
-3.68622e-09
-5.38096e-08
-3.79193e-09
-5.09374e-08
-3.88199e-09
-4.8011e-08
-3.95557e-09
-4.5043e-08
-4.01189e-09
-4.20468e-08
-4.05019e-09
-3.90362e-08
-4.06975e-09
-3.60255e-08
-4.06985e-09
-3.30296e-08
-4.04986e-09
-3.00638e-08
-4.00917e-09
-2.71436e-08
-3.94728e-09
-2.42849e-08
-3.86373e-09
-2.1504e-08
-3.75815e-09
-1.88171e-08
-3.63028e-09
-1.62408e-08
-3.47999e-09
-1.37914e-08
-3.30723e-09
-1.14852e-08
-3.11217e-09
-9.33816e-09
-2.89518e-09
-7.36574e-09
-2.65685e-09
-5.58262e-09
-2.39814e-09
-4.00238e-09
-2.12041e-09
-2.63709e-09
-1.8256e-09
-1.49668e-09
-1.51648e-09
-5.88118e-10
-1.19688e-09
8.57269e-11
-8.72251e-10
5.27765e-10
-5.50341e-10
7.48986e-10
-2.42328e-10
7.7179e-10
3.55418e-11
6.34499e-10
2.59673e-10
3.96904e-10
3.96028e-10
1.45344e-10
3.96978e-10
2.05995e-10
1.52812e-10
-3.55348e-10
3.71483e-10
-6.10436e-10
5.11749e-10
-5.14729e-10
4.68607e-10
-1.79752e-10
1.6892e-10
3.13073e-10
-4.35701e-10
9.04401e-10
-1.37435e-09
1.55134e-09
-2.66145e-09
2.22328e-09
-4.30035e-09
2.89838e-09
-6.28623e-09
3.56104e-09
-8.60818e-09
4.20015e-09
-1.12508e-08
4.80775e-09
-1.41955e-08
5.37825e-09
-1.74213e-08
5.90774e-09
-2.09056e-08
6.39354e-09
-2.46248e-08
6.83399e-09
-2.85546e-08
7.22809e-09
-3.26702e-08
7.5754e-09
-3.69468e-08
7.87593e-09
-4.13597e-08
8.13002e-09
-4.58844e-08
8.33827e-09
-5.04969e-08
8.50149e-09
-5.51734e-08
8.62067e-09
-5.9891e-08
8.69694e-09
-6.46271e-08
8.73151e-09
-6.936e-08
8.7257e-09
-7.40686e-08
8.6809e-09
-7.87326e-08
8.59853e-09
-8.33324e-08
8.48001e-09
-8.78492e-08
8.32682e-09
-9.22651e-08
8.1405e-09
-9.65629e-08
7.92256e-09
-1.00726e-07
7.67451e-09
-1.0474e-07
7.3979e-09
-1.08589e-07
7.09426e-09
-1.12259e-07
6.76513e-09
-1.15738e-07
6.41204e-09
-1.19013e-07
6.03653e-09
-1.22073e-07
5.64011e-09
-1.24907e-07
5.22432e-09
-1.27506e-07
4.79067e-09
-1.29861e-07
4.3407e-09
-1.31963e-07
3.87594e-09
-1.33806e-07
3.39794e-09
-1.35383e-07
2.90822e-09
-1.36689e-07
2.40834e-09
-1.37719e-07
1.89986e-09
-1.38469e-07
1.38435e-09
-1.38936e-07
8.63418e-10
-1.39119e-07
3.38673e-10
-1.39015e-07
-1.8825e-10
-1.38625e-07
-7.157e-10
-1.3795e-07
-1.242e-09
-1.36991e-07
-1.76545e-09
-1.3575e-07
-2.28434e-09
-1.34232e-07
-2.79691e-09
-1.32439e-07
-3.30139e-09
-1.30379e-07
-3.79599e-09
-1.28057e-07
-4.27888e-09
-1.2548e-07
-4.74822e-09
-1.22657e-07
-5.20215e-09
-1.19598e-07
-5.6388e-09
-1.16312e-07
-6.05626e-09
-1.12812e-07
-6.45265e-09
-1.0911e-07
-6.82607e-09
-1.05219e-07
-7.17459e-09
-1.01154e-07
-7.49634e-09
-9.69301e-08
-7.78944e-09
-9.25643e-08
-8.05202e-09
-8.8074e-08
-8.28226e-09
-8.34776e-08
-8.47835e-09
-7.87946e-08
-8.63856e-09
-7.40453e-08
-8.76121e-09
-6.92508e-08
-8.84468e-09
-6.44332e-08
-8.88741e-09
-5.9615e-08
-8.88798e-09
-5.48198e-08
-8.84505e-09
-5.00716e-08
-8.75741e-09
-4.53949e-08
-8.62401e-09
-4.08146e-08
-8.44398e-09
-3.63561e-08
-8.21665e-09
-3.20448e-08
-7.94157e-09
-2.79063e-08
-7.61856e-09
-2.39657e-08
-7.2478e-09
-2.0248e-08
-6.82983e-09
-1.67776e-08
-6.36568e-09
-1.35774e-08
-5.85698e-09
-1.06695e-08
-5.30611e-09
-8.07343e-09
-4.71643e-09
-5.80646e-09
-4.09259e-09
-3.88202e-09
-3.44092e-09
-2.30881e-09
-2.77008e-09
-1.08912e-09
-2.09194e-09
-2.16706e-10
-1.42275e-09
3.2591e-10
-7.84948e-10
5.70993e-10
-2.09533e-10
5.69917e-10
2.6076e-10
3.97907e-10
5.68035e-10
1.58917e-10
6.35973e-10
3.64917e-10
1.14346e-10
-4.69688e-10
2.28303e-10
-7.24409e-10
1.89627e-10
-4.76038e-10
-1.11325e-10
1.21177e-10
-7.53166e-10
9.54926e-10
-1.78971e-09
1.94093e-09
-3.25457e-09
3.0162e-09
-5.16534e-09
4.13404e-09
-7.52694e-09
5.25999e-09
-1.03345e-08
6.36858e-09
-1.35753e-08
7.44103e-09
-1.72312e-08
8.46359e-09
-2.12792e-08
9.42626e-09
-2.56933e-08
1.03219e-08
-3.04451e-08
1.11453e-08
-3.55043e-08
1.18932e-08
-4.08397e-08
1.25635e-08
-4.64194e-08
1.31551e-08
-5.2211e-08
1.36675e-08
-5.81821e-08
1.41012e-08
-6.43006e-08
1.44568e-08
-7.05347e-08
1.47356e-08
-7.68531e-08
1.49391e-08
-8.32252e-08
1.5069e-08
-8.9621e-08
1.51273e-08
-9.60114e-08
1.51162e-08
-1.02368e-07
1.50379e-08
-1.08665e-07
1.48948e-08
-1.14874e-07
1.46893e-08
-1.20971e-07
1.44239e-08
-1.26932e-07
1.41012e-08
-1.32733e-07
1.37238e-08
-1.38353e-07
1.32942e-08
-1.4377e-07
1.28152e-08
-1.48965e-07
1.22893e-08
-1.53919e-07
1.17191e-08
-1.58614e-07
1.11075e-08
-1.63035e-07
1.04569e-08
-1.67165e-07
9.76998e-09
-1.7099e-07
9.04947e-09
-1.74497e-07
8.29798e-09
-1.77675e-07
7.51818e-09
-1.80511e-07
6.71273e-09
-1.82998e-07
5.88429e-09
-1.85125e-07
5.03556e-09
-1.86886e-07
4.16923e-09
-1.88274e-07
3.28801e-09
-1.89284e-07
2.39468e-09
-1.89913e-07
1.49198e-09
-1.90157e-07
5.82733e-10
-1.90015e-07
-3.30219e-10
-1.89487e-07
-1.24401e-09
-1.88573e-07
-2.15572e-09
-1.87276e-07
-3.06241e-09
-1.85599e-07
-3.96108e-09
-1.83548e-07
-4.84871e-09
-1.81127e-07
-5.72221e-09
-1.78344e-07
-6.57846e-09
-1.75209e-07
-7.41433e-09
-1.7173e-07
-8.22662e-09
-1.6792e-07
-9.01212e-09
-1.63792e-07
-9.76757e-09
-1.59358e-07
-1.04897e-08
-1.54635e-07
-1.11753e-08
-1.4964e-07
-1.18211e-08
-1.44391e-07
-1.24237e-08
-1.38908e-07
-1.298e-08
-1.33211e-07
-1.34866e-08
-1.27322e-07
-1.39405e-08
-1.21266e-07
-1.43385e-08
-1.15067e-07
-1.46776e-08
-1.0875e-07
-1.49547e-08
-1.02344e-07
-1.51671e-08
-9.58771e-08
-1.5312e-08
-8.93777e-08
-1.53869e-08
-8.28764e-08
-1.53892e-08
-7.64045e-08
-1.5317e-08
-6.99938e-08
-1.51681e-08
-6.36768e-08
-1.4941e-08
-5.74866e-08
-1.46342e-08
-5.14564e-08
-1.42468e-08
-4.56197e-08
-1.37783e-08
-4.00097e-08
-1.32285e-08
-3.46595e-08
-1.2598e-08
-2.96013e-08
-1.18881e-08
-2.48661e-08
-1.11008e-08
-2.04836e-08
-1.02394e-08
-1.64813e-08
-9.30841e-09
-1.28838e-08
-8.31395e-09
-9.71196e-09
-7.26443e-09
-6.98183e-09
-6.17104e-09
-4.70321e-09
-5.0487e-09
-2.87789e-09
-3.91726e-09
-1.49743e-09
-2.80321e-09
-5.40532e-10
-1.74184e-09
3.0238e-11
-7.80289e-10
2.72203e-10
1.8794e-11
2.66711e-10
5.7352e-10
1.24457e-10
7.78232e-10
4.89372e-10
4.98446e-11
-5.19529e-10
1.34703e-12
-6.75907e-10
-2.87789e-10
-1.86905e-10
-9.23332e-10
7.56729e-10
-1.98278e-09
2.01437e-09
-3.52018e-09
3.47834e-09
-5.57004e-09
5.06606e-09
-8.1507e-09
6.7147e-09
-1.12673e-08
8.37657e-09
-1.49142e-08
1.00155e-08
-1.90772e-08
1.16041e-08
-2.37356e-08
1.31219e-08
-2.88629e-08
1.45536e-08
-3.44291e-08
1.5888e-08
-4.04008e-08
1.7117e-08
-4.67424e-08
1.82348e-08
-5.34167e-08
1.92379e-08
-6.03857e-08
2.0124e-08
-6.76105e-08
2.08923e-08
-7.50522e-08
2.15428e-08
-8.26718e-08
2.20764e-08
-9.04307e-08
2.24945e-08
-9.82908e-08
2.27992e-08
-1.06215e-07
2.29929e-08
-1.14166e-07
2.30784e-08
-1.22109e-07
2.30589e-08
-1.30008e-07
2.29375e-08
-1.37831e-07
2.27178e-08
-1.45545e-07
2.24034e-08
-1.53119e-07
2.1998e-08
-1.60524e-07
2.15053e-08
-1.67729e-07
2.09294e-08
-1.74709e-07
2.02741e-08
-1.81437e-07
1.95433e-08
-1.87889e-07
1.87411e-08
-1.94041e-07
1.78715e-08
-1.99872e-07
1.69384e-08
-2.05361e-07
1.5946e-08
-2.10489e-07
1.48981e-08
-2.15239e-07
1.3799e-08
-2.19594e-07
1.26526e-08
-2.23538e-07
1.1463e-08
-2.2706e-07
1.02342e-08
-2.30146e-07
8.97041e-09
-2.32786e-07
7.67564e-09
-2.34971e-07
6.35406e-09
-2.36693e-07
5.00983e-09
-2.37945e-07
3.64715e-09
-2.38724e-07
2.27028e-09
-2.39024e-07
8.83494e-10
-2.38846e-07
-5.08853e-10
-2.38187e-07
-1.90237e-09
-2.3705e-07
-3.29261e-09
-2.35438e-07
-4.67506e-09
-2.33354e-07
-6.04516e-09
-2.30804e-07
-7.39827e-09
-2.27797e-07
-8.72971e-09
-2.2434e-07
-1.00347e-08
-2.20446e-07
-1.13085e-08
-2.16127e-07
-1.25463e-08
-2.11396e-07
-1.3743e-08
-2.06269e-07
-1.48939e-08
-2.00765e-07
-1.59939e-08
-1.94902e-07
-1.70382e-08
-1.88702e-07
-1.80217e-08
-1.82186e-07
-1.89394e-08
-1.75379e-07
-1.97866e-08
-1.68308e-07
-2.05582e-08
-1.60999e-07
-2.12496e-08
-1.53481e-07
-2.1856e-08
-1.45786e-07
-2.23729e-08
-1.37945e-07
-2.27958e-08
-1.29991e-07
-2.31205e-08
-1.21961e-07
-2.33429e-08
-1.13888e-07
-2.34592e-08
-1.05811e-07
-2.3466e-08
-9.77685e-08
-2.336e-08
-8.97982e-08
-2.31384e-08
-8.19402e-08
-2.2799e-08
-7.42346e-08
-2.23398e-08
-6.67218e-08
-2.17596e-08
-5.94423e-08
-2.10578e-08
-5.24361e-08
-2.02347e-08
-4.57428e-08
-1.92913e-08
-3.94009e-08
-1.823e-08
-3.34473e-08
-1.70544e-08
-2.7917e-08
-1.57697e-08
-2.28421e-08
-1.43833e-08
-1.82513e-08
-1.29048e-08
-1.41685e-08
-1.13473e-08
-1.06119e-08
-9.72762e-09
-7.59251e-09
-8.06807e-09
-5.11232e-09
-6.39745e-09
-3.16221e-09
-4.75331e-09
-1.71963e-09
-3.18443e-09
-7.45782e-10
-1.75413e-09
-1.82577e-10
-5.44422e-10
5.09618e-11
3.3998e-10
6.30915e-11
7.66103e-10
5.52461e-10
-2.89041e-11
-4.90627e-10
-2.75888e-10
-4.28925e-10
-8.6422e-10
4.01438e-10
-1.88894e-09
1.78145e-09
-3.42122e-09
3.54665e-09
-5.51143e-09
5.56855e-09
-8.19189e-09
7.74652e-09
-1.14795e-08
1.00023e-08
-1.53779e-08
1.2275e-08
-1.98802e-08
1.45178e-08
-2.49702e-08
1.66941e-08
-3.06245e-08
1.87762e-08
-3.68138e-08
2.0743e-08
-4.35043e-08
2.25785e-08
-5.06583e-08
2.42711e-08
-5.82359e-08
2.58124e-08
-6.61947e-08
2.71967e-08
-7.44912e-08
2.84206e-08
-8.30811e-08
2.94822e-08
-9.19195e-08
3.03813e-08
-1.00962e-07
3.11185e-08
-1.10163e-07
3.16956e-08
-1.19479e-07
3.21151e-08
-1.28866e-07
3.23802e-08
-1.38282e-07
3.24946e-08
-1.47686e-07
3.24622e-08
-1.57036e-07
3.22876e-08
-1.66293e-07
3.19754e-08
-1.7542e-07
3.15306e-08
-1.84381e-07
3.09582e-08
-1.93139e-07
3.02635e-08
-2.01661e-07
2.9452e-08
-2.09916e-07
2.85289e-08
-2.17873e-07
2.74999e-08
-2.25502e-07
2.63704e-08
-2.32777e-07
2.51462e-08
-2.39671e-07
2.38327e-08
-2.46161e-07
2.24357e-08
-2.52224e-07
2.09609e-08
-2.57838e-07
1.94138e-08
-2.62986e-07
1.78002e-08
-2.67649e-07
1.61257e-08
-2.71811e-07
1.43963e-08
-2.75458e-07
1.26175e-08
-2.78577e-07
1.07952e-08
-2.81159e-07
8.93524e-09
-2.83192e-07
7.04347e-09
-2.84671e-07
5.12583e-09
-2.85589e-07
3.1883e-09
-2.85942e-07
1.23695e-09
-2.85729e-07
-7.22118e-10
-2.84949e-07
-2.68271e-09
-2.83603e-07
-4.63855e-09
-2.81695e-07
-6.58329e-09
-2.79229e-07
-8.51051e-09
-2.76214e-07
-1.04137e-08
-2.72657e-07
-1.22862e-08
-2.68571e-07
-1.41214e-08
-2.63967e-07
-1.59126e-08
-2.5886e-07
-1.76529e-08
-2.53268e-07
-1.93355e-08
-2.47208e-07
-2.09535e-08
-2.40702e-07
-2.25e-08
-2.33772e-07
-2.39679e-08
-2.26443e-07
-2.53505e-08
-2.18742e-07
-2.66407e-08
-2.10697e-07
-2.78318e-08
-2.02338e-07
-2.89169e-08
-1.93699e-07
-2.98894e-08
-1.84812e-07
-3.07428e-08
-1.75714e-07
-3.14708e-08
-1.66442e-07
-3.20672e-08
-1.57037e-07
-3.25263e-08
-1.47537e-07
-3.28424e-08
-1.37986e-07
-3.30104e-08
-1.28427e-07
-3.30255e-08
-1.18903e-07
-3.28835e-08
-1.09461e-07
-3.25806e-08
-1.00146e-07
-3.21139e-08
-9.10047e-08
-3.1481e-08
-8.20839e-08
-3.06804e-08
-7.34301e-08
-2.97116e-08
-6.50894e-08
-2.85754e-08
-5.7107e-08
-2.72737e-08
-4.95269e-08
-2.58102e-08
-4.2391e-08
-2.41902e-08
-3.5739e-08
-2.24218e-08
-2.96071e-08
-2.05152e-08
-2.40272e-08
-1.84846e-08
-1.90264e-08
-1.63481e-08
-1.46249e-08
-1.41291e-08
-1.08354e-08
-1.18575e-08
-7.66109e-09
-9.5718e-09
-5.0937e-09
-7.32071e-09
-3.11175e-09
-5.16637e-09
-1.67823e-09
-3.18766e-09
-7.38144e-10
-1.48451e-09
-2.16013e-10
-1.82145e-10
-1.2813e-11
5.62899e-10
5.39651e-10
-1.14624e-10
-3.76002e-10
-5.81085e-10
3.75372e-11
-1.4996e-09
1.31995e-09
-2.95019e-09
3.23203e-09
-4.99404e-09
5.59051e-09
-7.67473e-09
8.24924e-09
-1.10198e-08
1.10916e-08
-1.50428e-08
1.40252e-08
-1.97446e-08
1.69769e-08
-2.51157e-08
1.98889e-08
-3.11375e-08
2.27159e-08
-3.77838e-08
2.54225e-08
-4.50222e-08
2.79814e-08
-5.28156e-08
3.03718e-08
-6.11226e-08
3.2578e-08
-6.98989e-08
3.45886e-08
-7.90978e-08
3.63957e-08
-8.86711e-08
3.79939e-08
-9.85695e-08
3.93806e-08
-1.08743e-07
4.05547e-08
-1.19141e-07
4.15169e-08
-1.29715e-07
4.22689e-08
-1.40413e-07
4.28138e-08
-1.51188e-07
4.31553e-08
-1.61992e-07
4.32981e-08
-1.72777e-07
4.32472e-08
-1.83498e-07
4.30082e-08
-1.94109e-07
4.25873e-08
-2.0457e-07
4.19908e-08
-2.14837e-07
4.12252e-08
-2.24871e-07
4.02976e-08
-2.34633e-07
3.92147e-08
-2.44088e-07
3.79839e-08
-2.53201e-07
3.66123e-08
-2.61938e-07
3.51073e-08
-2.70268e-07
3.34763e-08
-2.78162e-07
3.17267e-08
-2.85592e-07
2.9866e-08
-2.92533e-07
2.79017e-08
-2.9896e-07
2.58413e-08
-3.04853e-07
2.36925e-08
-3.1019e-07
2.14627e-08
-3.14953e-07
1.91598e-08
-3.19127e-07
1.67913e-08
-3.22697e-07
1.43649e-08
-3.2565e-07
1.18885e-08
-3.27976e-07
9.36982e-09
-3.29667e-07
6.81684e-09
-3.30717e-07
4.23751e-09
-3.3112e-07
1.6399e-09
-3.30874e-07
-9.67827e-10
-3.29979e-07
-3.57744e-09
-3.28437e-07
-6.18058e-09
-3.26252e-07
-8.76878e-09
-3.23429e-07
-1.13335e-08
-3.19976e-07
-1.38661e-08
-3.15905e-07
-1.63577e-08
-3.11227e-07
-1.87996e-08
-3.05956e-07
-2.11827e-08
-3.00111e-07
-2.34981e-08
-2.9371e-07
-2.57367e-08
-2.86774e-07
-2.78892e-08
-2.79328e-07
-2.99466e-08
-2.71396e-07
-3.18996e-08
-2.63007e-07
-3.37391e-08
-2.54192e-07
-3.5456e-08
-2.44983e-07
-3.70412e-08
-2.35414e-07
-3.84858e-08
-2.25522e-07
-3.97812e-08
-2.15346e-07
-4.09186e-08
-2.04927e-07
-4.18899e-08
-1.94307e-07
-4.2687e-08
-1.83531e-07
-4.33024e-08
-1.72645e-07
-4.37288e-08
-1.61695e-07
-4.39596e-08
-1.50732e-07
-4.39886e-08
-1.39805e-07
-4.38105e-08
-1.28965e-07
-4.34205e-08
-1.18264e-07
-4.2815e-08
-1.07754e-07
-4.19911e-08
-9.74873e-08
-4.09473e-08
-8.75157e-08
-3.96833e-08
-7.78907e-08
-3.82004e-08
-6.86628e-08
-3.65017e-08
-5.98806e-08
-3.45923e-08
-5.15907e-08
-3.24801e-08
-4.38368e-08
-3.01757e-08
-3.66587e-08
-2.76933e-08
-3.0092e-08
-2.50514e-08
-2.41662e-08
-2.22739e-08
-1.89045e-08
-1.93909e-08
-1.43215e-08
-1.64405e-08
-1.04228e-08
-1.34706e-08
-7.20246e-09
-1.0541e-08
-4.64216e-09
-7.72667e-09
-2.70908e-09
-5.12074e-09
-1.35443e-09
-2.83916e-09
-5.11847e-10
-1.02472e-09
-9.59146e-11
1.46964e-10
4.43743e-10
-2.02909e-10
-1.73089e-10
-8.99641e-10
7.34261e-10
-2.16634e-09
2.58666e-09
-4.06583e-09
5.13152e-09
-6.64686e-09
8.17154e-09
-9.94395e-09
1.15463e-08
-1.3978e-08
1.51256e-08
-1.87572e-08
1.88045e-08
-2.42786e-08
2.24983e-08
-3.0529e-08
2.61393e-08
-3.74867e-08
2.96735e-08
-4.51223e-08
3.30581e-08
-5.34002e-08
3.62594e-08
-6.22799e-08
3.92515e-08
-7.17165e-08
4.20146e-08
-8.16617e-08
4.45338e-08
-9.20649e-08
4.67988e-08
-1.02873e-07
4.88025e-08
-1.14034e-07
5.05408e-08
-1.25491e-07
5.2012e-08
-1.3719e-07
5.32162e-08
-1.49077e-07
5.41555e-08
-1.61096e-07
5.48332e-08
-1.73195e-07
5.52537e-08
-1.85319e-07
5.54225e-08
-1.97418e-07
5.53459e-08
-2.0944e-07
5.50306e-08
-2.21337e-07
5.44843e-08
-2.33061e-07
5.37147e-08
-2.44566e-07
5.27301e-08
-2.55808e-07
5.15392e-08
-2.66744e-07
5.01507e-08
-2.77333e-07
4.85736e-08
-2.87538e-07
4.68171e-08
-2.97321e-07
4.48904e-08
-3.06648e-07
4.2803e-08
-3.15485e-07
4.05642e-08
-3.23803e-07
3.81837e-08
-3.31572e-07
3.56709e-08
-3.38766e-07
3.30355e-08
-3.45361e-07
3.02871e-08
-3.51334e-07
2.74355e-08
-3.56664e-07
2.44904e-08
-3.61335e-07
2.14616e-08
-3.65329e-07
1.8359e-08
-3.68633e-07
1.51926e-08
-3.71235e-07
1.19723e-08
-3.73127e-07
8.70824e-09
-3.743e-07
5.41069e-09
-3.7475e-07
2.08993e-09
-3.74474e-07
-1.24362e-09
-3.73472e-07
-4.5794e-09
-3.71746e-07
-7.90675e-09
-3.693e-07
-1.12149e-08
-3.66141e-07
-1.44928e-08
-3.62277e-07
-1.77295e-08
-3.57721e-07
-2.09138e-08
-3.52486e-07
-2.40345e-08
-3.46589e-07
-2.708e-08
-3.40048e-07
-3.00388e-08
-3.32886e-07
-3.28995e-08
-3.25124e-07
-3.56504e-08
-3.16791e-07
-3.82798e-08
-3.07915e-07
-4.0776e-08
-2.98527e-07
-4.31274e-08
-2.8866e-07
-4.53225e-08
-2.78351e-07
-4.73499e-08
-2.67639e-07
-4.91982e-08
-2.56564e-07
-5.08564e-08
-2.45169e-07
-5.23137e-08
-2.33499e-07
-5.35597e-08
-2.21601e-07
-5.45844e-08
-2.09525e-07
-5.53782e-08
-1.97322e-07
-5.59322e-08
-1.85044e-07
-5.6238e-08
-1.72744e-07
-5.62881e-08
-1.60479e-07
-5.60759e-08
-1.48304e-07
-5.55957e-08
-1.36275e-07
-5.48431e-08
-1.24452e-07
-5.38149e-08
-1.1289e-07
-5.25094e-08
-1.01646e-07
-5.09267e-08
-9.07775e-08
-4.90689e-08
-8.03388e-08
-4.69403e-08
-7.03831e-08
-4.4548e-08
-6.09611e-08
-4.19022e-08
-5.21202e-08
-3.90166e-08
-4.3904e-08
-3.59094e-08
-3.63513e-08
-3.26042e-08
-2.94948e-08
-2.91304e-08
-2.33605e-08
-2.55252e-08
-1.79662e-08
-2.18347e-08
-1.33207e-08
-1.81161e-08
-9.42193e-09
-1.44398e-08
-6.25619e-09
-1.08924e-08
-3.79693e-09
-7.57999e-09
-2.00377e-09
-4.63231e-09
-8.21885e-10
-2.20662e-09
-1.81816e-10
-4.93101e-10
2.61927e-10
-2.91213e-10
1.18127e-10
-1.22229e-09
1.66532e-09
-2.84597e-09
4.21035e-09
-5.20718e-09
7.49272e-09
-8.34082e-09
1.13052e-08
-1.22708e-08
1.54763e-08
-1.70098e-08
1.98647e-08
-2.25597e-08
2.43543e-08
-2.8912e-08
2.88506e-08
-3.60493e-08
3.32766e-08
-4.39458e-08
3.757e-08
-5.25686e-08
4.16809e-08
-6.18786e-08
4.55695e-08
-7.18317e-08
4.92046e-08
-8.23793e-08
5.25622e-08
-9.34696e-08
5.56241e-08
-1.05048e-07
5.83773e-08
-1.17058e-07
6.08126e-08
-1.29442e-07
6.29245e-08
-1.4214e-07
6.47105e-08
-1.55095e-07
6.61704e-08
-1.68245e-07
6.73061e-08
-1.81533e-07
6.81213e-08
-1.949e-07
6.8621e-08
-2.0829e-07
6.88116e-08
-2.21644e-07
6.87006e-08
-2.3491e-07
6.8296e-08
-2.48032e-07
6.76068e-08
-2.6096e-07
6.66426e-08
-2.73643e-07
6.54134e-08
-2.86033e-07
6.39295e-08
-2.98085e-07
6.22017e-08
-3.09752e-07
6.02411e-08
-3.20994e-07
5.80588e-08
-3.3177e-07
5.56662e-08
-3.42041e-07
5.30748e-08
-3.51774e-07
5.02964e-08
-3.60932e-07
4.73425e-08
-3.69487e-07
4.42251e-08
-3.77407e-07
4.0956e-08
-3.84667e-07
3.75471e-08
-3.91242e-07
3.40104e-08
-3.9711e-07
3.03581e-08
-4.0225e-07
2.66023e-08
-4.06647e-07
2.27552e-08
-4.10283e-07
1.88291e-08
-4.13147e-07
1.48365e-08
-4.15229e-07
1.07899e-08
-4.1652e-07
6.70189e-09
-4.17016e-07
2.58531e-09
-4.16712e-07
-1.54695e-09
-4.1561e-07
-5.68182e-09
-4.13711e-07
-9.80608e-09
-4.11019e-07
-1.39064e-08
-4.07543e-07
-1.79691e-08
-4.03292e-07
-2.19807e-08
-3.98278e-07
-2.59273e-08
-3.92518e-07
-2.97949e-08
-3.86028e-07
-3.35695e-08
-3.7883e-07
-3.72368e-08
-3.70947e-07
-4.07825e-08
-3.62405e-07
-4.41923e-08
-3.53233e-07
-4.74519e-08
-3.43462e-07
-5.05468e-08
-3.33127e-07
-5.34627e-08
-3.22264e-07
-5.61856e-08
-3.10913e-07
-5.87012e-08
-2.99115e-07
-6.09958e-08
-2.86916e-07
-6.30558e-08
-2.74361e-07
-6.48681e-08
-2.61501e-07
-6.64199e-08
-2.48387e-07
-6.76989e-08
-2.35071e-07
-6.86936e-08
-2.2161e-07
-6.93931e-08
-2.08061e-07
-6.97874e-08
-1.94482e-07
-6.98675e-08
-1.80932e-07
-6.96253e-08
-1.67473e-07
-6.90544e-08
-1.54167e-07
-6.81494e-08
-1.41075e-07
-6.69069e-08
-1.28259e-07
-6.53252e-08
-1.15781e-07
-6.34047e-08
-1.03702e-07
-6.11485e-08
-9.208e-08
-5.85622e-08
-8.09731e-08
-5.5655e-08
-7.04357e-08
-5.24395e-08
-6.05192e-08
-4.89331e-08
-5.12706e-08
-4.5158e-08
-4.27322e-08
-4.11426e-08
-3.49403e-08
-3.69223e-08
-2.79244e-08
-3.25411e-08
-2.1706e-08
-2.8053e-08
-1.6298e-08
-2.35241e-08
-1.17035e-08
-1.90344e-08
-7.91471e-09
-1.46812e-08
-4.91289e-09
-1.05818e-08
-2.66755e-09
-6.87766e-09
-1.13675e-09
-3.73742e-09
-2.67942e-10
-1.36191e-09
-6.02219e-12
-3.78106e-10
4.9624e-10
-1.54329e-09
2.8305e-09
-3.52649e-09
6.19356e-09
-6.35479e-09
1.0321e-08
-1.00488e-08
1.49992e-08
-1.46209e-08
2.00484e-08
-2.00745e-08
2.53182e-08
-2.64038e-08
3.06837e-08
-3.35944e-08
3.60412e-08
-4.16233e-08
4.13056e-08
-5.04604e-08
4.6407e-08
-6.00683e-08
5.12889e-08
-7.04044e-08
5.59055e-08
-8.14205e-08
6.02207e-08
-9.30645e-08
6.42062e-08
-1.05281e-07
6.78405e-08
-1.18011e-07
7.11077e-08
-1.31195e-07
7.39967e-08
-1.44772e-07
7.65006e-08
-1.58677e-07
7.86157e-08
-1.72848e-07
8.03415e-08
-1.87221e-07
8.16798e-08
-2.01735e-07
8.26345e-08
-2.16325e-07
8.32115e-08
-2.30932e-07
8.34179e-08
-2.45493e-07
8.32623e-08
-2.59952e-07
8.27543e-08
-2.74249e-07
8.19043e-08
-2.8833e-07
8.07236e-08
-3.02141e-07
7.92239e-08
-3.15629e-07
7.74178e-08
-3.28745e-07
7.53179e-08
-3.41441e-07
7.29374e-08
-3.53672e-07
7.02897e-08
-3.65395e-07
6.73884e-08
-3.76567e-07
6.42474e-08
-3.87151e-07
6.08807e-08
-3.97111e-07
5.73023e-08
-4.06413e-07
5.35266e-08
-4.15024e-07
4.95677e-08
-4.22918e-07
4.54401e-08
-4.30066e-07
4.11584e-08
-4.36444e-07
3.6737e-08
-4.42033e-07
3.21907e-08
-4.46812e-07
2.75342e-08
-4.50765e-07
2.27825e-08
-4.53879e-07
1.79504e-08
-4.56142e-07
1.30533e-08
-4.57547e-07
8.10635e-09
-4.58087e-07
3.125e-09
-4.57758e-07
-1.87513e-09
-4.56562e-07
-6.87826e-09
-4.545e-07
-1.18684e-08
-4.51576e-07
-1.68295e-08
-4.478e-07
-2.17451e-08
-4.43182e-07
-2.65988e-08
-4.37736e-07
-3.13738e-08
-4.31477e-07
-3.60534e-08
-4.24426e-07
-4.06206e-08
-4.16605e-07
-4.50581e-08
-4.08039e-07
-4.93489e-08
-3.98755e-07
-5.34757e-08
-3.88786e-07
-5.74212e-08
-3.78164e-07
-6.11681e-08
-3.66928e-07
-6.46992e-08
-3.55116e-07
-6.79975e-08
-3.42771e-07
-7.10462e-08
-3.29938e-07
-7.38286e-08
-3.16666e-07
-7.63285e-08
-3.03003e-07
-7.85303e-08
-2.89005e-07
-8.04186e-08
-2.74725e-07
-8.1979e-08
-2.60221e-07
-8.31976e-08
-2.45552e-07
-8.40616e-08
-2.3078e-07
-8.45591e-08
-2.15968e-07
-8.46796e-08
-2.0118e-07
-8.44137e-08
-1.8648e-07
-8.37538e-08
-1.71936e-07
-8.2694e-08
-1.57612e-07
-8.12303e-08
-1.43576e-07
-7.93612e-08
-1.29894e-07
-7.70875e-08
-1.16629e-07
-7.44133e-08
-1.03845e-07
-7.13457e-08
-9.16043e-08
-6.78959e-08
-7.99643e-08
-6.40795e-08
-6.89805e-08
-5.99169e-08
-5.87038e-08
-5.54348e-08
-4.918e-08
-5.06664e-08
-4.04493e-08
-4.5653e-08
-3.25453e-08
-4.04451e-08
-2.54941e-08
-3.51043e-08
-1.93134e-08
-2.97047e-08
-1.40123e-08
-2.43355e-08
-9.59034e-09
-1.91032e-08
-6.03727e-09
-1.41349e-08
-3.33351e-09
-9.58143e-09
-1.45061e-09
-5.62032e-09
-3.52829e-10
-2.45969e-09
-3.58853e-10
-4.6284e-10
9.59085e-10
-1.85929e-09
4.22694e-09
-4.2003e-09
8.53457e-09
-7.49595e-09
1.36167e-08
-1.17525e-08
1.92557e-08
-1.69703e-08
2.52662e-08
-2.31429e-08
3.14908e-08
-3.02563e-08
3.77971e-08
-3.82889e-08
4.40738e-08
-4.7212e-08
5.02287e-08
-5.699e-08
5.6185e-08
-6.75811e-08
6.18799e-08
-7.89381e-08
6.72625e-08
-9.1009e-08
7.22916e-08
-1.03738e-07
7.6935e-08
-1.17065e-07
8.11679e-08
-1.30929e-07
8.49717e-08
-1.45266e-07
8.83331e-08
-1.60009e-07
9.12439e-08
-1.75093e-07
9.36994e-08
-1.9045e-07
9.56985e-08
-2.06013e-07
9.7243e-08
-2.21716e-07
9.83372e-08
-2.37491e-07
9.89874e-08
-2.53275e-07
9.92019e-08
-2.69003e-07
9.89903e-08
-2.84613e-07
9.83637e-08
-3.00043e-07
9.7334e-08
-3.15233e-07
9.59144e-08
-3.30128e-07
9.41186e-08
-3.44671e-07
9.19609e-08
-3.5881e-07
8.94565e-08
-3.72493e-07
8.66205e-08
-3.85672e-07
8.34688e-08
-3.98301e-07
8.00174e-08
-4.10336e-07
7.62825e-08
-4.21736e-07
7.22807e-08
-4.32462e-07
6.80286e-08
-4.42479e-07
6.35429e-08
-4.51751e-07
5.88406e-08
-4.6025e-07
5.39387e-08
-4.67946e-07
4.88543e-08
-4.74814e-07
4.36048e-08
-4.8083e-07
3.82074e-08
-4.85976e-07
3.26796e-08
-4.90233e-07
2.70392e-08
-4.93586e-07
2.13039e-08
-4.96024e-07
1.54916e-08
-4.97538e-07
9.62039e-09
-4.98122e-07
3.70861e-09
-4.97772e-07
-2.22528e-09
-4.96487e-07
-8.16259e-09
-4.94271e-07
-1.40844e-08
-4.91129e-07
-1.99717e-08
-4.87069e-07
-2.5805e-08
-4.82103e-07
-3.15649e-08
-4.76245e-07
-3.72317e-08
-4.69513e-07
-4.27854e-08
-4.61928e-07
-4.8206e-08
-4.53513e-07
-5.34732e-08
-4.44295e-07
-5.85668e-08
-4.34304e-07
-6.34663e-08
-4.23574e-07
-6.81515e-08
-4.1214e-07
-7.26018e-08
-4.00042e-07
-7.67971e-08
-3.87323e-07
-8.07174e-08
-3.74026e-07
-8.43427e-08
-3.60201e-07
-8.76536e-08
-3.45898e-07
-9.06311e-08
-3.31172e-07
-9.32566e-08
-3.16078e-07
-9.55124e-08
-3.00676e-07
-9.73815e-08
-2.85026e-07
-9.88477e-08
-2.69191e-07
-9.98961e-08
-2.53238e-07
-1.00513e-07
-2.37231e-07
-1.00686e-07
-2.21241e-07
-1.00404e-07
-2.05335e-07
-9.96595e-08
-1.89584e-07
-9.84447e-08
-1.74059e-07
-9.67558e-08
-1.58829e-07
-9.4591e-08
-1.43965e-07
-9.1952e-08
-1.29534e-07
-8.88435e-08
-1.15606e-07
-8.52744e-08
-1.02244e-07
-8.1258e-08
-8.95105e-08
-7.68124e-08
-7.74656e-08
-7.19619e-08
-6.61636e-08
-6.67368e-08
-5.56545e-08
-6.11754e-08
-4.59828e-08
-5.53247e-08
-3.71866e-08
-4.92413e-08
-2.92971e-08
-4.29938e-08
-2.23379e-08
-3.66639e-08
-1.63246e-08
-3.03488e-08
-1.12646e-08
-2.41632e-08
-7.15715e-09
-1.82423e-08
-3.99392e-09
-1.27447e-08
-1.75997e-09
-7.85427e-09
-4.35691e-10
-3.78397e-09
-7.94538e-10
-5.45069e-10
1.50415e-09
-2.16842e-09
5.8503e-09
-4.86298e-09
1.12291e-08
-8.62277e-09
1.73765e-08
-1.34401e-08
2.4073e-08
-1.93033e-08
3.11294e-08
-2.61956e-08
3.83832e-08
-3.40943e-08
4.56957e-08
-4.29702e-08
5.29497e-08
-5.27879e-08
6.00464e-08
-6.35063e-08
6.69033e-08
-7.50782e-08
7.34519e-08
-8.7452e-08
7.96362e-08
-1.00571e-07
8.54108e-08
-1.14376e-07
9.07397e-08
-1.28803e-07
9.55946e-08
-1.43786e-07
9.99546e-08
-1.59257e-07
1.03805e-07
-1.75148e-07
1.07135e-07
-1.91387e-07
1.09939e-07
-2.07905e-07
1.12216e-07
-2.24631e-07
1.13969e-07
-2.41494e-07
1.152e-07
-2.58424e-07
1.15918e-07
-2.75353e-07
1.16131e-07
-2.92214e-07
1.15851e-07
-3.08939e-07
1.15089e-07
-3.25465e-07
1.1386e-07
-3.4173e-07
1.12179e-07
-3.57672e-07
1.10061e-07
-3.73234e-07
1.07523e-07
-3.88359e-07
1.04581e-07
-4.02993e-07
1.01255e-07
-4.17086e-07
9.75614e-08
-4.30588e-07
9.35193e-08
-4.43453e-07
8.91476e-08
-4.55638e-07
8.44653e-08
-4.67101e-07
7.94917e-08
-4.77804e-07
7.42464e-08
-4.87713e-07
6.87489e-08
-4.96793e-07
6.30191e-08
-5.05016e-07
5.7077e-08
-5.12353e-07
5.09425e-08
-5.18782e-07
4.4636e-08
-5.2428e-07
3.81778e-08
-5.28829e-07
3.15884e-08
-5.32414e-07
2.48886e-08
-5.35022e-07
1.80992e-08
-5.36643e-07
1.12414e-08
-5.3727e-07
4.33634e-09
-5.36901e-07
-2.59434e-09
-5.35535e-07
-9.52891e-09
-5.33174e-07
-1.64454e-08
-5.29824e-07
-2.33215e-08
-5.25495e-07
-3.01347e-08
-5.20197e-07
-3.68625e-08
-5.13947e-07
-4.34817e-08
-5.06763e-07
-4.99692e-08