/*--------------------------------*- C++ -*----------------------------------*\
| =========                 |                                                 |
| \\      /  F ield         | OpenFOAM: The Open Source CFD Toolbox           |
|  \\    /   O peration     | Version:  2212                                  |
|   \\  /    A nd           | Website:  www.openfoam.com                      |
|    \\/     M anipulation  |                                                 |
\*---------------------------------------------------------------------------*/
FoamFile
{
    version     2.0;
    format      ascii;
    arch        "LSB;label=32;scalar=64";
    class       volScalarField;
    location    "0.0245";
    object      p;
}
// * * * * * * * * * * * * * * * * * * * * * * * * * * * * * * * * * * * * * //

dimensions      [0 2 -2 0 0 0 0];

internalField   nonuniform List<scalar> 
10000
(
1.18724e-08
-0.000124095
-0.000573216
-0.00127282
-0.00214418
-0.00315537
-0.00426676
-0.00544008
-0.00664081
-0.00783865
-0.00900715
-0.0101235
-0.0111679
-0.0121237
-0.0129769
-0.0137158
-0.014331
-0.0148142
-0.0151591
-0.0153602
-0.0154139
-0.0153175
-0.0150694
-0.0146691
-0.0141167
-0.0134129
-0.0125591
-0.0115577
-0.0104112
-0.00912306
-0.00769697
-0.00613689
-0.00444728
-0.00263318
-0.000699952
0.00134665
0.00350044
0.00575527
0.00810506
0.0105434
0.0130635
0.0156581
0.0183204
0.0210433
0.0238192
0.0266405
0.0294999
0.03239
0.0353034
0.0382321
0.0411678
0.044103
0.04703
0.0499414
0.0528292
0.055685
0.058501
0.0612692
0.0639822
0.0666322
0.0692114
0.0717118
0.0741259
0.0764467
0.0786671
0.0807804
0.08278
0.0846592
0.0864121
0.0880328
0.0895163
0.0908581
0.092054
0.0931004
0.0939941
0.0947327
0.0953148
0.0957397
0.0960079
0.0961205
0.0960798
0.0958891
0.0955529
0.0950772
0.0944695
0.0937395
0.0928984
0.0919597
0.0909391
0.0898546
0.088727
0.0875806
0.0864437
0.0853492
0.0843354
0.0834457
0.0827277
0.0822317
0.0820082
0.0820417
-0.000180021
-0.000290159
-0.000670508
-0.00126154
-0.00200536
-0.00287047
-0.00382543
-0.0048384
-0.00587983
-0.0069229
-0.00794382
-0.00892163
-0.00983792
-0.0106767
-0.0114242
-0.0120688
-0.012601
-0.0130128
-0.0132974
-0.0134497
-0.0134651
-0.0133407
-0.0130746
-0.0126657
-0.0121138
-0.0114194
-0.0105837
-0.00960828
-0.00849544
-0.00724829
-0.00587002
-0.00436422
-0.00273524
-0.000987748
0.000873586
0.00284356
0.00491616
0.00708534
0.0093453
0.0116901
0.0141132
0.0166078
0.0191674
0.0217852
0.0244538
0.0271661
0.0299148
0.0326931
0.0354935
0.0383085
0.0411302
0.0439513
0.0467645
0.0495625
0.0523375
0.0550817
0.0577874
0.0604471
0.0630538
0.0656
0.0680781
0.0704806
0.0728004
0.0750309
0.0771655
0.0791979
0.0811216
0.0829307
0.0846192
0.0861822
0.0876149
0.0889133
0.0900738
0.0910929
0.0919679
0.0926968
0.0932785
0.0937129
0.0940005
0.0941432
0.0941434
0.0940047
0.0937318
0.093331
0.0928098
0.0921779
0.0914462
0.090628
0.0897384
0.0887944
0.0878155
0.0868239
0.0858449
0.0849074
0.0840435
0.0832882
0.0826771
0.0822462
0.0820412
0.082075
-0.000166711
-0.000248629
-0.000570903
-0.00108944
-0.00174936
-0.00251892
-0.00336943
-0.00427276
-0.0052027
-0.00613528
-0.00704887
-0.0079242
-0.00874435
-0.00949428
-0.0101608
-0.0107328
-0.0112005
-0.0115561
-0.0117932
-0.0119062
-0.011891
-0.011744
-0.011463
-0.0110469
-0.010495
-0.0098076
-0.00898577
-0.00803091
-0.00694487
-0.00573023
-0.00439004
-0.00292773
-0.00134732
0.000346834
0.00215035
0.00405832
0.00606511
0.00816497
0.0103523
0.0126213
0.0149658
0.0173793
0.0198554
0.0223877
0.0249691
0.0275926
0.0302513
0.0329385
0.035647
0.0383694
0.0410983
0.0438266
0.0465473
0.0492531
0.0519366
0.0545902
0.0572065
0.0597784
0.062299
0.0647611
0.0671575
0.0694811
0.071725
0.0738827
0.0759484
0.0779157
0.0797787
0.0815314
0.0831686
0.0846855
0.0860777
0.0873417
0.088474
0.0894715
0.0903318
0.0910532
0.0916349
0.0920769
0.0923801
0.0925466
0.0925789
0.0924809
0.0922573
0.0919144
0.0914598
0.0909028
0.0902541
0.0895264
0.0887338
0.0878925
0.0870205
0.0861379
0.0852674
0.0844342
0.0836657
0.0829912
0.0824396
0.08204
0.0818356
0.0818523
0.000138852
3.09677e-05
-0.000282766
-0.000769294
-0.00138406
-0.00209707
-0.00288159
-0.00371221
-0.00456547
-0.00541985
-0.00625565
-0.00705517
-0.00780272
-0.00848438
-0.00908793
-0.00960272
-0.0100194
-0.0103304
-0.0105291
-0.0106102
-0.0105695
-0.0104038
-0.0101105
-0.00968801
-0.00913584
-0.00845406
-0.00764344
-0.00670517
-0.00564102
-0.00445341
-0.00314497
-0.00171875
-0.000178631
0.00147116
0.0032264
0.00508242
0.00703383
0.00907521
0.0112013
0.0134066
0.0156849
0.0180299
0.0204355
0.0228954
0.025403
0.0279515
0.030534
0.0331441
0.0357748
0.0384191
0.0410697
0.0437196
0.046362
0.04899
0.0515963
0.0541735
0.0567146
0.0592127
0.0616609
0.0640524
0.0663803
0.0686378
0.0708181
0.0729153
0.0749233
0.0768363
0.0786486
0.0803547
0.0819493
0.0834281
0.084787
0.0860225
0.0871315
0.0881113
0.0889595
0.0896748
0.0902565
0.0907047
0.0910206
0.0912061
0.0912641
0.0911984
0.091014
0.0907167
0.0903142
0.0898152
0.08923
0.0885705
0.0878501
0.0870836
0.0862876
0.0854804
0.0846819
0.0839143
0.0832013
0.0825679
0.0820388
0.0816393
0.0814049
0.0813589
0.000711259
0.000514535
0.000163833
-0.000324462
-0.000922501
-0.00160435
-0.00234608
-0.00312535
-0.00392142
-0.00471534
-0.0054895
-0.00622777
-0.00691567
-0.00754039
-0.00809056
-0.00855635
-0.00892913
-0.00920128
-0.00936652
-0.00941975
-0.00935669
-0.00917404
-0.00886947
-0.00844148
-0.00788913
-0.00721233
-0.00641179
-0.00548853
-0.00444416
-0.00328096
-0.00200139
-0.000608208
0.000895022
0.00250427
0.00421542
0.00602388
0.00792447
0.0099121
0.0119819
0.0141284
0.0163457
0.0186276
0.0209681
0.0233614
0.025801
0.0282802
0.0307923
0.0333311
0.0358902
0.0384625
0.041041
0.0436186
0.0461888
0.0487451
0.0512804
0.0537876
0.0562596
0.0586897
0.0610714
0.0633983
0.0656635
0.0678605
0.0699829
0.0720247
0.0739801
0.0758437
0.0776099
0.0792735
0.0808296
0.0822738
0.0836025
0.0848123
0.0859003
0.0868639
0.0877012
0.0884109
0.0889924
0.0894459
0.0897726
0.0899747
0.090055
0.0900174
0.0898666
0.0896085
0.0892502
0.0888
0.0882678
0.0876644
0.0870024
0.0862953
0.0855581
0.0848072
0.0840603
0.0833364
0.0826559
0.0820398
0.0815097
0.0810869
0.0807942
0.0806445
0.0014812
0.0011612
0.000742662
0.000225604
-0.000380324
-0.0010536
-0.00177356
-0.00252106
-0.0032781
-0.00402804
-0.00475548
-0.00544602
-0.0060865
-0.00666523
-0.00717175
-0.00759681
-0.00793244
-0.00817171
-0.00830848
-0.00833772
-0.0082554
-0.00805829
-0.007744
-0.00731106
-0.00675856
-0.00608634
-0.00529496
-0.00438525
-0.00335865
-0.00221736
-0.000963704
0.00039974
0.00186961
0.00344205
0.00511311
0.0068784
0.00873295
0.0106718
0.0126903
0.0147833
0.016945
0.0191693
0.0214506
0.0237831
0.0261606
0.0285765
0.0310244
0.0334984
0.0359921
0.0384987
0.0410113
0.0435231
0.0460277
0.0485188
0.0509896
0.053433
0.0558421
0.0582106
0.0605322
0.0628005
0.0650091
0.0671515
0.0692215
0.0712133
0.0731213
0.0749404
0.0766652
0.0782908
0.0798123
0.0812257
0.0825273
0.083714
0.0847832
0.0857324
0.0865598
0.0872643
0.0878453
0.0883032
0.0886392
0.0888552
0.0889544
0.0889404
0.0888179
0.0885925
0.0882707
0.0878605
0.0873708
0.086812
0.0861954
0.0855334
0.0848393
0.0841275
0.0834137
0.0827142
0.0820462
0.0814274
0.0808761
0.0804105
0.0800376
0.0797572
0.00239527
0.00193269
0.00142577
0.000859419
0.000225303
-0.000458944
-0.00117565
-0.00190907
-0.00264393
-0.0033656
-0.00406054
-0.00471625
-0.00532109
-0.00586434
-0.00633654
-0.00672924
-0.00703493
-0.00724716
-0.00736036
-0.00736973
-0.00727137
-0.00706217
-0.00673982
-0.00630285
-0.00575039
-0.00508228
-0.00429901
-0.00340136
-0.00239063
-0.00126884
-3.81293e-05
0.00129901
0.00273925
0.00427884
0.00591405
0.00764073
0.00945408
0.0113493
0.0133219
0.0153669
0.0174787
0.0196514
0.0218795
0.0241574
0.0264791
0.0288382
0.0312285
0.0336443
0.0360793
0.038527
0.0409804
0.0434331
0.045879
0.0483118
0.0507249
0.0531112
0.0554643
0.0577777
0.0600457
0.0622619
0.0644202
0.0665141
0.0685376
0.0704849
0.072351
0.0741308
0.0758191
0.0774112
0.0789025
0.0802887
0.0815665
0.0827329
0.0837854
0.0847218
0.0855405
0.0862403
0.0868206
0.0872819
0.0876253
0.0878529
0.0879675
0.0879728
0.0878731
0.0876737
0.0873809
0.0870018
0.0865449
0.0860196
0.0854361
0.0848055
0.0841398
0.0834515
0.0827541
0.0820617
0.0813889
0.0807499
0.0801607
0.0796364
0.0791679
0.078741
0.00340851
0.00279338
0.00218517
0.00155475
0.000876705
0.000165609
-0.000563414
-0.00129771
-0.0020246
-0.00273166
-0.003407
-0.00403957
-0.00461924
-0.00513662
-0.00558306
-0.00595089
-0.00623328
-0.00642424
-0.00651859
-0.00651189
-0.00640049
-0.00618146
-0.00585263
-0.00541259
-0.00486047
-0.0041961
-0.00342003
-0.002533
-0.00153624
-0.000431614
0.000778847
0.00209276
0.00350687
0.0050175
0.00662103
0.00831349
0.0100903
0.0119468
0.0138786
0.0158811
0.0179486
0.0200754
0.0222561
0.0244854
0.0267575
0.0290661
0.0314052
0.0337692
0.036152
0.0385472
0.0409481
0.0433485
0.0457423
0.0481233
0.0504851
0.052821
0.0551244
0.0573893
0.05961
0.0617804
0.0638943
0.0659455
0.067928
0.0698364
0.0716657
0.0734111
0.0750678
0.0766307
0.0780956
0.0794582
0.0807153
0.081864
0.082902
0.0838273
0.0846382
0.0853336
0.0859132
0.086377
0.0867263
0.0869629
0.0870898
0.0871102
0.0870283
0.086849
0.0865781
0.0862222
0.0857891
0.0852872
0.0847258
0.0841146
0.0834643
0.0827859
0.0820908
0.0813912
0.0806989
0.0800257
0.0793854
0.0787906
0.0782163
0.0776351
0.00448355
0.00371203
0.0029949
0.00229024
0.00155657
0.000806029
5.19031e-05
-0.000695863
-0.00142693
-0.0021309
-0.00279767
-0.00341759
-0.00398169
-0.00448173
-0.00491011
-0.00525993
-0.00552502
-0.00569994
-0.00577987
-0.00576072
-0.00563914
-0.00541242
-0.00507855
-0.00463627
-0.00408477
-0.00342393
-0.00265425
-0.00177648
-0.000791826
0.000297889
0.00149071
0.00278433
0.0041756
0.00566093
0.00723675
0.00889923
0.0106439
0.0124664
0.0143626
0.0163276
0.0183561
0.0204426
0.0225817
0.0247683
0.0269968
0.029261
0.0315551
0.0338736
0.0362105
0.0385596
0.0409144
0.0432688
0.0456169
0.0479526
0.0502695
0.0525612
0.0548212
0.0570439
0.0592233
0.0613538
0.0634292
0.0654432
0.0673902
0.0692648
0.0710624
0.0727783
0.0744075
0.0759455
0.0773876
0.07873
0.0799693
0.0811029
0.0821284
0.0830441
0.0838483
0.0845399
0.0851184
0.085584
0.0859376
0.0861811
0.0863172
0.0863489
0.0862802
0.0861155
0.0858601
0.0855203
0.0851029
0.0846155
0.0840662
0.0834639
0.0828178
0.0821375
0.0814329
0.0807139
0.0799905
0.0792719
0.0785704
0.0778966
0.0772105
0.0764726
0.00558947
0.00466173
0.00383163
0.00304588
0.00224819
0.00144859
0.00065904
-0.000112623
-0.000858221
-0.00156909
-0.00223676
-0.00285301
-0.00340999
-0.00390046
-0.00431778
-0.00465586
-0.00490914
-0.0050727
-0.00514222
-0.00511398
-0.00498491
-0.00475251
-0.00441497
-0.00397121
-0.00342053
-0.00276291
-0.00199886
-0.00112911
-0.00015483
0.000922165
0.00209992
0.00337617
0.00474779
0.00621128
0.00776321
0.00939985
0.0111169
0.0129101
0.0147753
0.016708
0.0187028
0.0207543
0.0228574
0.0250072
0.0271979
0.0294237
0.0316788
0.0339578
0.036255
0.0385643
0.0408794
0.0431942
0.0455027
0.0477993
0.0500775
0.0523312
0.054554
0.0567404
0.0588846
0.0609809
0.0630232
0.0650055
0.0669222
0.0687682
0.0705389
0.0722297
0.0738358
0.0753526
0.0767757
0.078101
0.0793254
0.0804462
0.0814613
0.0823689
0.0831674
0.0838556
0.084433
0.0848995
0.0852561
0.0855044
0.0856468
0.0856864
0.0856266
0.0854716
0.0852261
0.0848957
0.0844866
0.0840056
0.0834599
0.0828572
0.0822056
0.0815135
0.0807891
0.080041
0.0792768
0.0785042
0.077734
0.0769756
0.0761749
0.0752811
0.00670087
0.00561948
0.00467499
0.00380368
0.00293586
0.0020801
0.00124709
0.000442984
-0.000325789
-0.00105212
-0.00172892
-0.00234927
-0.00290647
-0.00339423
-0.00380677
-0.00413872
-0.00438515
-0.00454165
-0.00460441
-0.00457009
-0.00443593
-0.00419969
-0.00385977
-0.00341523
-0.00286553
-0.00221076
-0.00145152
-0.000588538
0.000377039
0.0014434
0.00260857
0.00387024
0.00522534
0.00667043
0.0082022
0.00981704
0.0115108
0.0132792
0.0151182
0.0170234
0.0189896
0.0210115
0.0230842
0.0252027
0.0273614
0.0295546
0.0317767
0.0340222
0.0362859
0.0385616
0.0408431
0.0431243
0.0453995
0.047663
0.0499087
0.0521304
0.054322
0.0564779
0.0585926
0.0606603
0.062675
0.0646308
0.0665224
0.0683446
0.0700931
0.0717632
0.0733503
0.0748497
0.076257
0.0775684
0.0787806
0.0798911
0.0808978
0.0817988
0.0825926
0.0832779
0.0838539
0.0843207
0.0846789
0.0849301
0.0850764
0.0851207
0.085066
0.0849161
0.0846753
0.0843485
0.0839412
0.0834593
0.0829094
0.0822983
0.081633
0.0809206
0.0801681
0.0793825
0.0785702
0.0777369
0.0768927
0.0760462
0.0751303
0.0740837
0.00779662
0.0065656
0.00550709
0.00454767
0.00360538
0.00268803
0.00180543
0.000962066
0.000163011
-0.000585957
-0.00127894
-0.00191016
-0.00247398
-0.00296503
-0.0033783
-0.00370909
-0.00395309
-0.00410644
-0.00416576
-0.00412807
-0.00399097
-0.0037525
-0.00341129
-0.0029666
-0.00241802
-0.00176574
-0.00101045
-0.000152924
0.000805628
0.00186336
0.00301829
0.00426809
0.00560971
0.00703978
0.00855508
0.0101521
0.0118267
0.0135747
0.0153922
0.0172748
0.0192175
0.021215
0.0232626
0.0253552
0.0274876
0.0296539
0.0318488
0.0340669
0.0363031
0.0385512
0.0408051
0.0430588
0.0453067
0.0475431
0.0497623
0.051958
0.0541243
0.0562555
0.0583461
0.0603906
0.0623831
0.0643177
0.0661891
0.0679924
0.069723
0.0713767
0.0729486
0.0744343
0.0758292
0.0771297
0.0783325
0.079435
0.0804352
0.0813312
0.0821213
0.0828041
0.0833788
0.0838452
0.0842039
0.0844563
0.0846043
0.0846505
0.0845975
0.0844487
0.0842078
0.0838792
0.0834678
0.0829789
0.0824181
0.0817917
0.0811055
0.0803656
0.079578
0.0787485
0.0778821
0.0769832
0.0760616
0.0751252
0.074095
0.0728999
0.0088593
0.00748333
0.00631222
0.00526359
0.00424405
0.00326101
0.00232396
0.00143594
0.000600802
-0.000176758
-0.000891872
-0.00153979
-0.00211583
-0.00261542
-0.00303422
-0.00336821
-0.00361371
-0.00376737
-0.00382619
-0.00378759
-0.00364947
-0.00341019
-0.00306864
-0.00262428
-0.00207687
-0.00142667
-0.000674462
0.000178886
0.00113206
0.00218314
0.00333012
0.00457069
0.00590184
0.00732022
0.00882265
0.0104057
0.0120652
0.0137971
0.0155976
0.0174624
0.0193865
0.0213648
0.0233925
0.0254648
0.0275763
0.0297214
0.0318949
0.0340915
0.036306
0.0385325
0.0407648
0.0429969
0.0452234
0.0474388
0.0496373
0.0518129
0.0539595
0.0560717
0.0581438
0.0601705
0.062146
0.0640644
0.0659206
0.0677096
0.069427
0.0710683
0.072629
0.0741045
0.0754905
0.0767831
0.0779792
0.0790761
0.0800718
0.0809643
0.0817517
0.0824326
0.083006
0.0834716
0.0838299
0.084082
0.0842298
0.0842754
0.0842211
0.0840698
0.0838246
0.0834896
0.0830689
0.0825675
0.0819902
0.0813424
0.0806293
0.079856
0.0790276
0.0781489
0.0772238
0.0762559
0.0752547
0.0742277
0.0730848
0.071746
0.00987479
0.00835844
0.00707666
0.00593859
0.00484016
0.00378855
0.00279318
0.00185619
0.000980265
0.000169173
-0.000573112
-0.00124271
-0.00183577
-0.0023484
-0.00277695
-0.00311802
-0.00336848
-0.00352547
-0.00358637
-0.00354897
-0.00341154
-0.00317273
-0.00283165
-0.00238797
-0.00184162
-0.001193
-0.000442987
0.000407414
0.0013568
0.00240319
0.00354453
0.0047785
0.00610212
0.00751206
0.00900514
0.0105779
0.0122264
0.0139465
0.0157345
0.0175861
0.0194965
0.0214606
0.0234736
0.0255307
0.0276268
0.0297564
0.0319142
0.0340951
0.0362938
0.0385045
0.040721
0.0429374
0.0451485
0.0473488
0.0495325
0.0516936
0.0538263
0.0559249
0.0579841
0.0599984
0.061962
0.0638695
0.0657153
0.0674947
0.0692033
0.0708365
0.0723899
0.0738589
0.0752393
0.0765271
0.0777193
0.078813
0.0798062
0.0806967
0.0814826
0.0821623
0.0827346
0.0831992
0.0835564
0.0838072
0.0839532
0.083996
0.0839377
0.0837806
0.0835275
0.083182
0.0827477
0.082229
0.0816303
0.0809561
0.080211
0.0793994
0.0785255
0.0775935
0.0766065
0.075567
0.0744847
0.0733672
0.0721138
0.0706362
0.0108312
0.00917885
0.00778848
0.00656116
0.00538285
0.00426074
0.00320415
0.00221467
0.00129411
0.000445375
-0.000328348
-0.00102386
-0.00163797
-0.00216752
-0.0026095
-0.00296106
-0.00321951
-0.00338243
-0.00344763
-0.0034133
-0.00327803
-0.00304074
-0.00270077
-0.00225798
-0.00171247
-0.00106484
-0.000316103
0.000532614
0.00147981
0.00252347
0.00366148
0.00489149
0.00621048
0.00761515
0.00910234
0.0106686
0.0123099
0.0140225
0.0158024
0.0176455
0.019547
0.0215017
0.0235051
0.0255524
0.0276385
0.0297581
0.0319058
0.0340766
0.0362653
0.0384659
0.0406724
0.042879
0.0450805
0.0472715
0.0494462
0.0515987
0.053723
0.0558137
0.0578653
0.0598725
0.0618296
0.0637311
0.0655716
0.0673461
0.0690503
0.0706797
0.0722299
0.0736962
0.0750744
0.0763606
0.0775516
0.0786447
0.0796374
0.0805277
0.0813133
0.0819926
0.0825643
0.0830279
0.0833837
0.0836323
0.083775
0.0838132
0.0837485
0.0835829
0.0833189
0.0829594
0.0825078
0.0819679
0.0813435
0.0806386
0.0798573
0.0790034
0.0780804
0.0770919
0.0760402
0.0749275
0.0737634
0.0725556
0.071194
0.069582
0.0117182
0.00993401
0.00843715
0.00712105
0.00586226
0.00466817
0.00354825
0.00250346
0.00153509
0.000645295
-0.000163412
-0.000888379
-0.00152704
-0.00207689
-0.00253546
-0.0029004
-0.00316941
-0.00334052
-0.00341198
-0.0033823
-0.00325039
-0.00301542
-0.00267698
-0.00223513
-0.00169015
-0.00104284
-0.000294388
0.00055398
0.00150069
0.00254363
0.00368063
0.00490929
0.00622658
0.00762918
0.0091139
0.0106773
0.0123156
0.0140247
0.0158009
0.01764
0.0195373
0.0214876
0.0234863
0.025529
0.0276105
0.0297254
0.0318686
0.0340349
0.0362192
0.0384154
0.0406177
0.0428203
0.045018
0.0472054
0.0493769
0.0515264
0.053648
0.0557363
0.0577858
0.0597913
0.0617472
0.0636478
0.0654878
0.0672623
0.0689667
0.0705967
0.0721477
0.0736151
0.0749947
0.0762826
0.0774753
0.0785701
0.0795646
0.0804563
0.0812432
0.0819231
0.082495
0.0829579
0.083312
0.0835578
0.0836961
0.0837282
0.0836552
0.0834789
0.0832013
0.082825
0.082353
0.0817884
0.0811348
0.0803958
0.0795748
0.0786752
0.0777002
0.0766526
0.0755343
0.074347
0.0731005
0.0718031
0.0703353
0.0685929
0.0125266
0.0106144
0.00901312
0.00760883
0.00626924
0.00500208
0.00381713
0.00271483
0.00169599
0.000762305
-8.42985e-05
-0.000841738
-0.00150797
-0.00208099
-0.00255882
-0.00293955
-0.00322132
-0.00340257
-0.00348192
-0.00345819
-0.00333056
-0.00309846
-0.00276173
-0.00232065
-0.00177578
-0.00112802
-0.000378705
0.00047079
0.00141878
0.00246311
0.0036015
0.00483149
0.00615002
0.00755374
0.0090395
0.0106039
0.0122429
0.0139528
0.0157296
0.0175693
0.019467
0.0214177
0.023417
0.0254601
0.0275423
0.029658
0.0318021
0.0339694
0.0361548
0.0383523
0.0405561
0.0427604
0.04496
0.0471497
0.0493236
0.0514757
0.0536002
0.0556915
0.0577444
0.0597536
0.0617135
0.0636184
0.0654629
0.0672421
0.0689514
0.0705863
0.0721423
0.0736148
0.0749993
0.076292
0.0774894
0.0785887
0.0795872
0.0804824
0.081272
0.0819539
0.0825267
0.0829894
0.0833419
0.0835844
0.0837176
0.0837423
0.0836596
0.0834707
0.0831774
0.0827819
0.0822868
0.0816947
0.081009
0.0802329
0.0793694
0.0784216
0.077392
0.0762832
0.0750967
0.0738337
0.0725046
0.071118
0.0695456
0.0676763
0.0132486
0.0112115
0.00950769
0.00801585
0.00659524
0.00525422
0.00400285
0.00284123
0.00176975
0.000789805
-9.71543e-05
-0.000889602
-0.00158593
-0.00218453
-0.00268386
-0.00308242
-0.0033788
-0.00357177
-0.0036603
-0.00364349
-0.00352076
-0.00329182
-0.0029568
-0.00251619
-0.00197075
-0.00132159
-0.000570134
0.000282113
0.00123333
0.00228125
0.00342352
0.0046576
0.0059804
0.00738857
0.00887891
0.010448
0.0120919
0.0138067
0.0155885
0.0174333
0.0193361
0.0212922
0.0232969
0.0253458
0.0274339
0.0295557
0.031706
0.0338799
0.0360718
0.0382762
0.0404871
0.0426988
0.0449061
0.0471036
0.0492855
0.0514459
0.0535788
0.0556787
0.0577404
0.0597586
0.0617277
0.063642
0.065496
0.0672848
0.0690035
0.0706479
0.072213
0.0736945
0.0750876
0.0763885
0.0775937
0.0787001
0.079705
0.0806057
0.0813999
0.0820852
0.0826599
0.083123
0.0834741
0.0837132
0.0838407
0.0838574
0.0837638
0.0835609
0.0832501
0.0828334
0.0823128
0.081691
0.0809708
0.0801551
0.0792468
0.0782484
0.0771621
0.0759903
0.074734
0.0733943
0.0719822
0.0705067
0.0688312
0.0668379
0.0138772
0.0117179
0.00991285
0.0083341
0.00683235
0.00541676
0.00409785
0.00287543
0.00174954
0.000721312
-0.000208126
-0.0010377
-0.00176619
-0.00239236
-0.00291503
-0.00333314
-0.00364564
-0.00385159
-0.00395022
-0.00394095
-0.00382347
-0.00359777
-0.0032642
-0.00282354
-0.00227671
-0.00162495
-0.000869856
-1.30793e-05
0.000943426
0.00199728
0.00314605
0.00438712
0.00571736
0.00713338
0.00863195
0.0102096
0.0118624
0.0135863
0.0153775
0.017232
0.0191448
0.0211112
0.0231265
0.0251862
0.0272853
0.0294186
0.0315806
0.0337663
0.0359705
0.0381873
0.0404109
0.0426356
0.0448562
0.0470671
0.0492627
0.0514368
0.0535837
0.0556977
0.0577737
0.0598062
0.0617897
0.0637185
0.065587
0.06739
0.069123
0.0707811
0.0723597
0.073854
0.0752595
0.0765721
0.0777881
0.0789044
0.0799183
0.0808268
0.0816274
0.0823175
0.0828954
0.0833597
0.0837098
0.0839456
0.0840674
0.0840754
0.08397
0.083752
0.0834224
0.0829827
0.082435
0.0817814
0.0810246
0.0801673
0.079212
0.0781609
0.077016
0.0757793
0.0744519
0.0730347
0.0715391
0.0699749
0.0681975
0.0660824
0.0144065
0.0121266
0.0102214
0.00855614
0.00697324
0.00548239
0.00409493
0.00281044
0.00162866
0.000550474
-0.000423242
-0.0012917
-0.00205405
-0.00270942
-0.003257
-0.00369602
-0.00402576
-0.00424557
-0.00435495
-0.00435355
-0.0042414
-0.00401876
-0.00368622
-0.00324475
-0.00269543
-0.00203969
-0.00127929
-0.000416053
0.00054795
0.00161024
0.00276828
0.00401936
0.0053603
0.0067877
0.00829824
0.00988837
0.0115541
0.0132915
0.0150966
0.0169654
0.018893
0.0208746
0.0229056
0.0249813
0.0270968
0.0292468
0.0314258
0.0336289
0.0358508
0.0380856
0.0403275
0.0425709
0.0448102
0.0470402
0.049255
0.0514486
0.053615
0.0557486
0.0578442
0.0598964
0.0618996
0.0638479
0.0657358
0.067558
0.0693097
0.0709861
0.0725823
0.0740936
0.0755152
0.076843
0.0780731
0.0792024
0.0802278
0.0811464
0.0819553
0.082652
0.0832343
0.0837008
0.0840507
0.0842836
0.0843996
0.0843987
0.0842811
0.0840471
0.0836974
0.0832335
0.082657
0.0819699
0.0811748
0.080274
0.0792697
0.078164
0.0769586
0.0756555
0.0742556
0.0727599
0.0711804
0.0695275
0.067649
0.0654138
0.0148308
0.0124317
0.0104269
0.00867519
0.00701095
0.00544427
0.00398728
0.00263957
0.00140063
0.000271064
-0.000748399
-0.00165721
-0.00245485
-0.00314077
-0.00371445
-0.00417543
-0.00452323
-0.00475747
-0.00487791
-0.00488451
-0.00477755
-0.00455756
-0.00422536
-0.00378207
-0.00322898
-0.00256771
-0.0018002
-0.000928406
4.54535e-05
0.0011188
0.00228898
0.00355322
0.00490826
0.00635064
0.00787693
0.00948351
0.0111664
0.0129216
0.0147452
0.016633
0.0185803
0.0205821
0.0226337
0.0247306
0.0268677
0.0290397
0.0312413
0.0334672
0.0357123
0.0379707
0.0402366
0.0425041
0.044768
0.0470227
0.0492623
0.0514809
0.0536724
0.0558312
0.0579519
0.0600292
0.0620573
0.0640303
0.0659426
0.0677887
0.0695638
0.0712629
0.0728811
0.0744135
0.0758551
0.0772017
0.0784493
0.0795945
0.0806343
0.0815654
0.0823849
0.0830899
0.0836782
0.0841481
0.0844987
0.0847294
0.08484
0.0848302
0.0846999
0.0844493
0.0840788
0.0835895
0.082983
0.0822611
0.081426
0.0804798
0.0794248
0.0782626
0.0769951
0.075624
0.0741503
0.072575
0.070911
0.0691694
0.0671902
0.0648363
0.015145
0.0126275
0.0105234
0.00868503
0.00693899
0.00529593
0.00376853
0.00235647
0.00105919
-0.000122954
-0.00118944
-0.00213984
-0.00297394
-0.00369149
-0.00429221
-0.00477588
-0.00514225
-0.00539122
-0.00552282
-0.0055373
-0.00543518
-0.00521721
-0.00488441
-0.00443811
-0.00387981
-0.00321132
-0.00243473
-0.00155216
-0.000565971
0.000521159
0.0017065
0.00298712
0.00435972
0.00582072
0.00736659
0.00899365
0.0106979
0.0124753
0.014322
0.0162335
0.0182053
0.0202322
0.0223097
0.0244329
0.0265969
0.0287963
0.0310258
0.0332801
0.0355539
0.0378416
0.040137
0.0424345
0.0447285
0.0470135
0.0492838
0.051533
0.0537553
0.0559448
0.0580962
0.0602039
0.0622623
0.0642652
0.0662069
0.0680819
0.0698851
0.0716115
0.0732561
0.0748137
0.0762794
0.0776486
0.0789172
0.0800816
0.0811387
0.0820849
0.0829173
0.0836327
0.0842289
0.0847038
0.0850564
0.0852858
0.0853916
0.0853731
0.0852301
0.0849625
0.0845706
0.0840552
0.0834176
0.0826595
0.081783
0.08079
0.0796824
0.0784621
0.0771308
0.0756903
0.0741416
0.0724857
0.0707364
0.0689058
0.0668261
0.0643539
0.0153445
0.0127089
0.0105054
0.00857986
0.00675133
0.00503115
0.00343249
0.00195503
0.000598243
-0.000637569
-0.00175213
-0.00274522
-0.00361677
-0.00436678
-0.00499521
-0.00550205
-0.00588729
-0.00615109
-0.00629375
-0.00631578
-0.0062179
-0.00600109
-0.00566658
-0.00521592
-0.00465082
-0.00397328
-0.00318553
-0.00228985
-0.00128872
-0.000184952
0.00101862
0.00231895
0.0037126
0.00519591
0.00676525
0.00841687
0.0101467
0.0119508
0.0138251
0.0157652
0.0177662
0.0198233
0.0219316
0.0240864
0.0262826
0.0285148
0.0307776
0.0330658
0.035374
0.0376965
0.0400272
0.0423602
0.0446901
0.0470113
0.0493178
0.0516035
0.0538623
0.0560882
0.0582759
0.0604197
0.0625137
0.0645518
0.066528
0.0684369
0.0702731
0.0720316
0.0737071
0.0752944
0.0767883
0.078184
0.0794774
0.0806645
0.081742
0.0827063
0.0835542
0.0842826
0.0848887
0.0853705
0.0857266
0.0859559
0.0860577
0.0860312
0.0858757
0.0855911
0.0851774
0.0846353
0.0839658
0.0831705
0.0822513
0.0812099
0.0800484
0.0787685
0.0773719
0.0758605
0.0742355
0.072498
0.0706626
0.0687422
0.0665616
0.0639708
0.015425
0.0126709
0.0103675
0.00835412
0.00644226
0.00464399
0.00297309
0.00142922
1.18435e-05
-0.00127872
-0.00244233
-0.00347903
-0.00438886
-0.00517198
-0.00582859
-0.00635889
-0.00676313
-0.00704168
-0.00719511
-0.00722413
-0.0071297
-0.00691302
-0.00657553
-0.00611901
-0.00554539
-0.00485683
-0.00405569
-0.00314442
-0.00212564
-0.00100227
0.000222719
0.00154611
0.00296437
0.00447374
0.00607051
0.00775084
0.00951066
0.0113459
0.0132523
0.0152256
0.0172609
0.0193531
0.0214973
0.0236889
0.0259225
0.0281929
0.0304945
0.0328222
0.0351705
0.0375335
0.0399051
0.0422795
0.0446511
0.0470143
0.0493629
0.0516909
0.0539919
0.0562601
0.0584898
0.0606752
0.0628104
0.0648891
0.0669053
0.0688531
0.0707274
0.0725228
0.074234
0.0758556
0.0773821
0.0788086
0.0801306
0.0813442
0.0824456
0.0834313
0.0842978
0.0850418
0.0856604
0.0861513
0.0865127
0.0867433
0.0868423
0.0868085
0.0866411
0.0863398
0.0859042
0.085335
0.084633
0.0837996
0.0828365
0.0817457
0.0805289
0.079188
0.0777247
0.0761411
0.0744385
0.0726181
0.0706954
0.0686841
0.0664014
0.0636907
0.0153824
0.0125088
0.0101046
0.00800247
0.00600615
0.0041286
0.00238435
0.000772992
-0.00070603
-0.00205238
-0.003266
-0.0043471
-0.00529588
-0.00611264
-0.00679774
-0.00735166
-0.00777484
-0.0080679
-0.00823159
-0.00826687
-0.00817492
-0.00795715
-0.00761527
-0.00715126
-0.00656722
-0.0058655
-0.0050486
-0.00411911
-0.00307982
-0.00193376
-0.000684098
0.000665815
0.00211233
0.00365161
0.00527985
0.00699311
0.00878726
0.0106581
0.0126014
0.0146127
0.016687
0.0188193
0.0210047
0.0232382
0.0255147
0.0278287
0.0301748
0.0325476
0.0349415
0.0373507
0.0397691
0.0421907
0.0446099
0.0470209
0.0494176
0.0517937
0.0541429
0.0564592
0.0587367
0.0609695
0.0631516
0.0652765
0.067338
0.0693303
0.0712478
0.0730853
0.0748371
0.0764977
0.0780614
0.0795231
0.080878
0.082122
0.0832512
0.0842619
0.0851504
0.0859131
0.0865468
0.0870491
0.0874179
0.0876517
0.0877492
0.0877093
0.0875308
0.0872131
0.0867559
0.0861594
0.0854243
0.0845521
0.0835444
0.082403
0.0811299
0.0797267
0.0781954
0.0765382
0.0747564
0.0728516
0.07084
0.0687362
0.0663496
0.0635168
0.0152131
0.0122181
0.0097116
0.00751949
0.0054374
0.0034792
0.0016603
-1.97196e-05
-0.00156147
-0.00296464
-0.0042292
-0.00535543
-0.00634372
-0.0071945
-0.00790833
-0.00848586
-0.00892778
-0.00923491
-0.0094082
-0.00944882
-0.0093582
-0.009138
-0.00879015
-0.00831681
-0.00772029
-0.00700309
-0.00616785
-0.00521736
-0.00415455
-0.00298261
-0.00170488
-0.000324866
0.00115368
0.00272687
0.00439074
0.00614125
0.00797418
0.00988526
0.0118701
0.0139243
0.0160427
0.0182202
0.020452
0.0227328
0.0250576
0.0274208
0.0298169
0.0322404
0.0346857
0.037147
0.039618
0.0420927
0.0445654
0.0470302
0.0494809
0.0519112
0.0543145
0.0566848
0.059016
0.0613022
0.0635369
0.0657137
0.0678262
0.0698684
0.0718347
0.0737194
0.075517
0.0772216
0.0788274
0.0803288
0.0817211
0.0829999
0.084161
0.0852005
0.0861145
0.0868991
0.087551
0.0880674
0.0884459
0.0886848
0.0887826
0.0887379
0.0885492
0.0882158
0.0877372
0.0871134
0.0863451
0.0854337
0.0843806
0.0831878
0.0818572
0.0803904
0.0787897
0.0770573
0.0751946
0.0732034
0.0711008
0.0689024
0.0664091
0.0634513
0.0149131
0.0117944
0.00918345
0.00689969
0.00473032
0.00268994
0.0007949
-0.000955073
-0.00256071
-0.00402174
-0.00533811
-0.00651015
-0.00753842
-0.00842352
-0.00916618
-0.00976722
-0.0102275
-0.0105481
-0.0107301
-0.010775
-0.0106844
-0.0104603
-0.0101047
-0.00961999
-0.00900872
-0.00827352
-0.00741721
-0.00644275
-0.00535326
-0.0041521
-0.00284276
-0.00142891
8.56218e-05
0.00169683
0.00340064
0.00519283
0.00706913
0.00902516
0.0110565
0.0131584
0.015326
0.0175541
0.0198375
0.0221711
0.0245497
0.0269677
0.0294195
0.0318996
0.0344022
0.0369214
0.0394509
0.0419848
0.0445171
0.0470418
0.0495526
0.052043
0.0545065
0.0569368
0.0593278
0.0616731
0.0639664
0.066201
0.0683703
0.0704681
0.0724886
0.0744261
0.0762748
0.0780285
0.0796813
0.0812274
0.0826618
0.0839798
0.0851771
0.0862495
0.0871928
0.0880029
0.0886761
0.0892094
0.0896002
0.0898465
0.0899465
0.0898984
0.0897007
0.0893524
0.0888529
0.0882021
0.0874006
0.0864496
0.0853507
0.0841056
0.0827163
0.0811847
0.0795129
0.0777034
0.0757577
0.0736778
0.0714817
0.0691857
0.0665828
0.0634963
0.0144781
0.0112327
0.00851508
0.00613748
0.00387898
0.00175476
-0.000218012
-0.00203941
-0.00371016
-0.00523007
-0.00659908
-0.00781757
-0.00888623
-0.00980585
-0.0105773
-0.0112016
-0.0116798
-0.012013
-0.0122028
-0.0122507
-0.0121587
-0.0119288
-0.0115635
-0.0110652
-0.0104367
-0.00968081
-0.00880049
-0.00779893
-0.00667946
-0.00544558
-0.00410092
-0.00264931
-0.00109469
0.000558821
0.00230697
0.00414542
0.00606978
0.00807562
0.0101584
0.0123132
0.0145352
0.0168191
0.0191597
0.0215517
0.0239897
0.0264683
0.0289816
0.0315241
0.03409
0.0366731
0.0392673
0.0418665
0.0444644
0.0470552
0.0496322
0.0521889
0.0547187
0.0572151
0.0596719
0.0620825
0.0644403
0.0667386
0.0689706
0.0711299
0.0732105
0.0752064
0.0771115
0.0789197
0.0806248
0.0822207
0.0837022
0.0850642