/*--------------------------------*- C++ -*----------------------------------*\
| =========                 |                                                 |
| \\      /  F ield         | OpenFOAM: The Open Source CFD Toolbox           |
|  \\    /   O peration     | Version:  2212                                  |
|   \\  /    A nd           | Website:  www.openfoam.com                      |
|    \\/     M anipulation  |                                                 |
\*---------------------------------------------------------------------------*/
FoamFile
{
    version     2.0;
    format      ascii;
    arch        "LSB;label=32;scalar=64";
    class       surfaceScalarField;
    location    "0.0245";
    object      phi_0;
}
// * * * * * * * * * * * * * * * * * * * * * * * * * * * * * * * * * * * * * //

dimensions      [0 3 -1 0 0 0 0];

oriented        oriented;

internalField   nonuniform List<scalar> 
19800
(
6.05755e-11
-6.04024e-11
1.84712e-10
-1.24128e-10
3.03618e-10
-1.1891e-10
3.74201e-10
-7.0597e-11
3.74914e-10
-7.13846e-13
2.95817e-10
7.9109e-11
1.3363e-10
1.62183e-10
-1.11115e-10
2.44748e-10
-4.357e-10
3.24581e-10
-8.3613e-10
4.0042e-10
-1.3076e-09
4.71466e-10
-1.84481e-09
5.37217e-10
-2.44221e-09
5.97403e-10
-3.0941e-09
6.51897e-10
-3.79479e-09
7.00693e-10
-4.53862e-09
7.43836e-10
-5.32002e-09
7.81404e-10
-6.13352e-09
8.13513e-10
-6.97386e-09
8.40328e-10
-7.83588e-09
8.62004e-10
-8.71464e-09
8.78755e-10
-9.60543e-09
8.90777e-10
-1.05037e-08
8.98243e-10
-1.1405e-08
9.0134e-10
-1.23053e-08
9.00249e-10
-1.32004e-08
8.95159e-10
-1.40867e-08
8.86284e-10
-1.49605e-08
8.73828e-10
-1.58185e-08
8.57991e-10
-1.66575e-08
8.38958e-10
-1.74744e-08
8.1692e-10
-1.82664e-08
7.92042e-10
-1.90309e-08
7.64492e-10
-1.97654e-08
7.34448e-10
-2.04675e-08
7.02066e-10
-2.1135e-08
6.67521e-10
-2.17659e-08
6.30966e-10
-2.23585e-08
5.92545e-10
-2.29109e-08
5.52398e-10
-2.34215e-08
5.10661e-10
-2.3889e-08
4.67477e-10
-2.4312e-08
4.22983e-10
-2.46893e-08
3.77313e-10
-2.50199e-08
3.30594e-10
-2.53029e-08
2.82948e-10
-2.55374e-08
2.34492e-10
-2.57227e-08
1.85337e-10
-2.58583e-08
1.35601e-10
-2.59437e-08
8.54053e-11
-2.59786e-08
3.4877e-11
-2.59627e-08
-1.58493e-11
-2.58961e-08
-6.66607e-11
-2.57786e-08
-1.1745e-10
-2.56106e-08
-1.68058e-10
-2.53922e-08
-2.18326e-10
-2.51241e-08
-2.68137e-10
-2.48067e-08
-3.17347e-10
-2.44409e-08
-3.65791e-10
-2.40276e-08
-4.13338e-10
-2.35677e-08
-4.59843e-10
-2.30626e-08
-5.05115e-10
-2.25137e-08
-5.48992e-10
-2.19223e-08
-5.91334e-10
-2.12904e-08
-6.31948e-10
-2.06197e-08
-6.70625e-10
-1.99125e-08
-7.07207e-10
-1.9171e-08
-7.41533e-10
-1.83976e-08
-7.73394e-10
-1.7595e-08
-8.02582e-10
-1.67661e-08
-8.28927e-10
-1.59139e-08
-8.52234e-10
-1.50416e-08
-8.72277e-10
-1.41527e-08
-8.88856e-10
-1.32509e-08
-9.0181e-10
-1.234e-08
-9.10947e-10
-1.14239e-08
-9.16033e-10
-1.05071e-08
-9.16837e-10
-9.59393e-09
-9.13162e-10
-8.68911e-09
-9.04825e-10
-7.79748e-09
-8.91635e-10
-6.92406e-09
-8.73416e-10
-6.07403e-09
-8.50029e-10
-5.25269e-09
-8.21345e-10
-4.46545e-09
-7.87234e-10
-3.71787e-09
-7.47573e-10
-3.0156e-09
-7.02279e-10
-2.36428e-09
-6.51321e-10
-1.76957e-09
-5.94712e-10
-1.23704e-09
-5.32527e-10
-7.72093e-10
-4.64945e-10
-3.79783e-10
-3.92311e-10
-6.45756e-11
-3.15204e-10
1.6997e-10
-2.34537e-10
3.21733e-10
-1.51759e-10
3.90974e-10
-6.92441e-11
3.8196e-10
9.01594e-12
3.05595e-10
7.63747e-11
1.84076e-10
1.21524e-10
5.95472e-11
1.24526e-10
5.95499e-11
1.22854e-10
-1.83246e-10
3.10235e-10
-3.1153e-10
4.49017e-10
-2.57684e-10
4.63986e-10
-8.55784e-11
3.08523e-10
1.54739e-10
-4.34032e-11
4.31025e-10
-6.04019e-10
7.22798e-10
-1.37617e-09
1.01689e-09
-2.35644e-09
1.30486e-09
-3.53714e-09
1.58112e-09
-4.90773e-09
1.84204e-09
-6.45576e-09
2.08523e-09
-8.16754e-09
2.30917e-09
-1.00286e-08
2.51298e-09
-1.20242e-08
2.69627e-09
-1.41393e-08
2.85889e-09
-1.63589e-08
3.00101e-09
-1.86683e-08
3.12291e-09
-2.1053e-08
3.22501e-09
-2.34988e-08
3.30787e-09
-2.59921e-08
3.3721e-09
-2.85197e-08
3.41835e-09
-3.10688e-08
3.44729e-09
-3.3627e-08
3.45959e-09
-3.61827e-08
3.45594e-09
-3.87246e-08
3.43705e-09
-4.12419e-08
3.40367e-09
-4.37246e-08
3.35652e-09
-4.6163e-08
3.29635e-09
-4.85479e-08
3.22385e-09
-5.08707e-08
3.13972e-09
-5.31233e-08
3.0446e-09
-5.5298e-08
2.93917e-09
-5.73876e-08
2.82406e-09
-5.93854e-08
2.6999e-09
-6.12852e-08
2.56731e-09
-6.30811e-08
2.42689e-09
-6.47678e-08
2.27923e-09
-6.63403e-08
2.12487e-09
-6.7794e-08
1.96435e-09
-6.91247e-08
1.7982e-09
-7.03286e-08
1.62695e-09
-7.14024e-08
1.45111e-09
-7.2343e-08
1.27117e-09
-7.31477e-08
1.08763e-09
-7.38142e-08
9.00954e-10
-7.43404e-08
7.11608e-10
-7.47249e-08
5.20061e-10
-7.49663e-08
3.26799e-10
-7.50637e-08
1.32303e-10
-7.50166e-08
-6.29533e-11
-7.48248e-08
-2.5848e-10
-7.44884e-08
-4.5378e-10
-7.40081e-08
-6.48343e-10
-7.33849e-08
-8.41618e-10
-7.26199e-08
-1.03305e-09
-7.17152e-08
-1.2221e-09
-7.06728e-08
-1.40821e-09
-6.94953e-08
-1.59079e-09
-6.81859e-08
-1.76925e-09
-6.6748e-08
-1.94298e-09
-6.51857e-08
-2.11132e-09
-6.35034e-08
-2.27362e-09
-6.17062e-08
-2.42922e-09
-5.97993e-08
-2.57743e-09
-5.7789e-08
-2.71755e-09
-5.56816e-08
-2.84888e-09
-5.34843e-08
-2.97071e-09
-5.12046e-08
-3.0823e-09
-4.88506e-08
-3.18289e-09
-4.64311e-08
-3.27174e-09
-4.39553e-08
-3.3481e-09
-4.14329e-08
-3.41122e-09
-3.88744e-08
-3.46035e-09
-3.62906e-08
-3.49474e-09
-3.3693e-08
-3.51364e-09
-3.10935e-08
-3.51629e-09
-2.85048e-08
-3.50193e-09
-2.59397e-08
-3.4699e-09
-2.34118e-08
-3.41954e-09
-2.0935e-08
-3.35026e-09
-1.85234e-08
-3.26154e-09
-1.61919e-08
-3.15291e-09
-1.39551e-08
-3.02398e-09
-1.18282e-08
-2.87447e-09
-9.82629e-09
-2.70423e-09
-7.96429e-09
-2.51332e-09
-6.25695e-09
-2.30204e-09
-4.71847e-09
-2.071e-09
-3.36213e-09
-1.82129e-09
-2.1998e-09
-1.55462e-09
-1.24133e-09
-1.27367e-09
-4.93464e-10
-9.82401e-10
4.15754e-11
-6.86803e-10
3.68272e-10
-3.95939e-10
5.00843e-10
-1.23544e-10
4.67728e-10
1.09492e-10
3.17377e-10
2.71864e-10
1.24467e-10
3.1744e-10
1.84016e-10
1.17379e-10
-3.00629e-10
2.59042e-10
-4.53177e-10
2.92198e-10
-2.90826e-10
1.27406e-10
7.92058e-11
-2.93615e-10
5.75766e-10
-1.00606e-09
1.14346e-09
-2.02826e-09
1.74499e-09
-3.36622e-09
2.35485e-09
-5.01694e-09
2.95558e-09
-6.97094e-09
3.53511e-09
-9.21402e-09
4.08514e-09
-1.17288e-08
4.59999e-09
-1.44955e-08
5.07591e-09
-1.74931e-08
5.51052e-09
-2.06993e-08
5.90249e-09
-2.40916e-08
6.25121e-09
-2.76472e-08
6.55665e-09
-3.13436e-08
6.81922e-09
-3.51582e-08
7.03962e-09
-3.90692e-08
7.21884e-09
-4.30551e-08
7.35801e-09
-4.70952e-08
7.45841e-09
-5.11693e-08
7.52139e-09
-5.5258e-08
7.54836e-09
-5.93429e-08
7.54078e-09
-6.3406e-08
7.50014e-09
-6.74303e-08
7.42797e-09
-7.13996e-08
7.32583e-09
-7.52984e-08
7.19523e-09
-7.91123e-08
7.03769e-09
-8.28273e-08
6.85468e-09
-8.64303e-08
6.64765e-09
-8.99092e-08
6.41802e-09
-9.32523e-08
6.16717e-09
-9.64489e-08
5.89648e-09
-9.94888e-08
5.60727e-09
-1.02363e-07
5.30086e-09
-1.05062e-07
4.9785e-09
-1.07579e-07
4.64141e-09
-1.09905e-07
4.29079e-09
-1.12035e-07
3.9278e-09
-1.13961e-07
3.55359e-09
-1.15679e-07
3.16926e-09
-1.17184e-07
2.77594e-09
-1.18471e-07
2.37469e-09
-1.19537e-07
1.96656e-09
-1.20378e-07
1.55262e-09
-1.20992e-07
1.1339e-09
-1.21376e-07
7.11452e-10
-1.2153e-07
2.86348e-10
-1.21453e-07
-1.40333e-10
-1.21144e-07
-5.67528e-10
-1.20604e-07
-9.94135e-10
-1.19833e-07
-1.41901e-09
-1.18834e-07
-1.841e-09
-1.17608e-07
-2.25893e-09
-1.16158e-07
-2.67158e-09
-1.14489e-07
-3.0777e-09
-1.12603e-07
-3.47604e-09
-1.10507e-07
-3.86528e-09
-1.08206e-07
-4.24407e-09
-1.05707e-07
-4.61104e-09
-1.03015e-07
-4.96476e-09
-1.00141e-07
-5.30378e-09
-9.70917e-08
-5.62661e-09
-9.38775e-08
-5.93175e-09
-9.05087e-08
-6.21766e-09
-8.69967e-08
-6.48274e-09
-8.33536e-08
-6.72544e-09
-7.95923e-08
-6.94414e-09
-7.57268e-08
-7.13722e-09
-7.17719e-08
-7.30306e-09
-6.77431e-08
-7.44002e-09
-6.36569e-08
-7.54652e-09
-5.95307e-08
-7.62095e-09
-5.53826e-08
-7.66171e-09
-5.12317e-08
-7.66724e-09
-4.70976e-08
-7.63604e-09
-4.30008e-08
-7.56671e-09
-3.89624e-08
-7.45792e-09
-3.50042e-08
-7.30847e-09
-3.11484e-08
-7.11731e-09
-2.74178e-08
-6.88357e-09
-2.38352e-08
-6.60656e-09
-2.04238e-08
-6.28589e-09
-1.72065e-08
-5.92152e-09
-1.4206e-08
-5.51384e-09
-1.14442e-08
-5.06384e-09
-8.94189e-09
-4.57328e-09
-6.71823e-09
-4.04494e-09
-4.78981e-09
-3.48305e-09
-3.16969e-09
-2.89379e-09
-1.86598e-09
-2.28612e-09
-8.79867e-10
-1.67291e-09
-2.03123e-10
-1.07268e-09
1.85383e-10
-5.12054e-10
3.24005e-10
-2.91438e-11
2.7338e-10
3.22488e-10
1.21944e-10
4.68883e-10
3.05953e-10
7.25016e-11
-3.73149e-10
9.71322e-11
-4.77819e-10
-5.89225e-11
-1.34776e-10
-4.88165e-10
5.08436e-10
-1.25277e-09
1.34038e-09
-2.39171e-09
2.2824e-09
-3.92603e-09
3.27931e-09
-5.86324e-09
4.29205e-09
-8.20038e-09
5.2927e-09
-1.09266e-08
6.26128e-09
-1.4025e-08
7.18355e-09
-1.74745e-08
8.04951e-09
-2.12508e-08
8.85224e-09
-2.53275e-08
9.58718e-09
-2.96765e-08
1.02515e-08
-3.42691e-08
1.08438e-08
-3.9076e-08
1.13635e-08
-4.40677e-08
1.1811e-08
-4.92153e-08
1.21872e-08
-5.449e-08
1.24935e-08
-5.98635e-08
1.27316e-08
-6.53085e-08
1.29034e-08
-7.07983e-08
1.30112e-08
-7.63073e-08
1.30573e-08
-8.18105e-08
1.3044e-08
-8.72844e-08
1.2974e-08
-9.2706e-08
1.28496e-08
-9.80536e-08
1.26735e-08
-1.03307e-07
1.24482e-08
-1.08445e-07
1.21764e-08
-1.13451e-07
1.18605e-08
-1.18306e-07
1.15029e-08
-1.22995e-07
1.11062e-08
-1.275e-07
1.06727e-08
-1.31808e-07
1.02047e-08
-1.35906e-07
9.70462e-09
-1.39779e-07
9.17461e-09
-1.43418e-07
8.61686e-09
-1.4681e-07
8.03351e-09
-1.49946e-07
7.42663e-09
-1.52816e-07
6.79823e-09
-1.55413e-07
6.15031e-09
-1.57728e-07
5.48482e-09
-1.59756e-07
4.80366e-09
-1.6149e-07
4.10873e-09
-1.62926e-07
3.40189e-09
-1.64058e-07
2.68495e-09
-1.64884e-07
1.95978e-09
-1.654e-07
1.22822e-09
-1.65606e-07
4.9211e-10
-1.655e-07
-2.46682e-10
-1.65081e-07
-9.86256e-10
-1.64351e-07
-1.72469e-09
-1.6331e-07
-2.46002e-09
-1.6196e-07
-3.19024e-09
-1.60306e-07
-3.91331e-09
-1.5835e-07
-4.62713e-09
-1.56099e-07
-5.32955e-09
-1.53556e-07
-6.01837e-09
-1.5073e-07
-6.69132e-09
-1.47628e-07
-7.34608e-09
-1.44259e-07
-7.98025e-09
-1.40632e-07
-8.59141e-09
-1.36759e-07
-9.17704e-09
-1.32651e-07
-9.7346e-09
-1.28321e-07
-1.02615e-08
-1.23784e-07
-1.0755e-08
-1.19054e-07
-1.12125e-08
-1.14149e-07
-1.16312e-08
-1.09084e-07
-1.20084e-08
-1.0388e-07
-1.23414e-08
-9.8556e-08
-1.26273e-08
-9.31326e-08
-1.28634e-08
-8.76322e-08
-1.30469e-08
-8.20779e-08
-1.31752e-08
-7.6494e-08
-1.32456e-08
-7.09057e-08
-1.32556e-08
-6.53392e-08
-1.32026e-08
-5.98216e-08
-1.30843e-08
-5.43809e-08
-1.28986e-08
-4.90457e-08
-1.26437e-08
-4.38453e-08
-1.23178e-08
-3.88092e-08
-1.19196e-08
-3.39674e-08
-1.14483e-08
-2.93498e-08
-1.09035e-08
-2.49859e-08
-1.02854e-08
-2.09045e-08
-9.59518e-09
-1.71335e-08
-8.83486e-09
-1.36988e-08
-8.00798e-09
-1.06239e-08
-7.11984e-09
-7.92887e-09
-6.17812e-09
-5.62893e-09
-5.19373e-09
-3.73311e-09
-4.18194e-09
-2.24201e-09
-3.16401e-09
-1.14534e-09
-2.16935e-09
-4.18725e-10
-1.23868e-09
-1.99747e-11
-4.27897e-10
1.1517e-10
1.87355e-10
7.80925e-11
5.0596e-10
3.8404e-10
6.50538e-12
-3.79659e-10
-1.3266e-10
-3.38666e-10
-5.36496e-10
2.69067e-10
-1.29144e-09
1.26338e-09
-2.45737e-09
2.50629e-09
-4.07261e-09
3.89765e-09
-6.15825e-09
5.36494e-09
-8.7215e-09
6.85531e-09
-1.17587e-08
8.32986e-09
-1.52573e-08
9.75995e-09
-1.91985e-08
1.11247e-08
-2.35579e-08
1.24089e-08
-2.83075e-08
1.36019e-08
-3.34167e-08
1.46963e-08
-3.88525e-08
1.56874e-08
-4.4581e-08
1.65723e-08
-5.05676e-08
1.735e-08
-5.67771e-08
1.80205e-08
-6.31746e-08
1.85847e-08
-6.97255e-08
1.90444e-08
-7.63958e-08
1.94018e-08
-8.31521e-08
1.96597e-08
-8.99621e-08
1.98212e-08
-9.67943e-08
1.98895e-08
-1.03619e-07
1.98682e-08
-1.10405e-07
1.97609e-08
-1.17127e-07
1.95714e-08
-1.23757e-07
1.93034e-08
-1.3027e-07
1.89607e-08
-1.3664e-07
1.85471e-08
-1.42846e-07
1.80664e-08
-1.48866e-07
1.75224e-08
-1.54678e-07
1.69186e-08
-1.60264e-07
1.62587e-08
-1.65606e-07
1.55463e-08
-1.70686e-07
1.47848e-08
-1.75489e-07
1.39776e-08
-1.8e-07
1.31281e-08
-1.84206e-07
1.22393e-08
-1.88094e-07
1.13146e-08
-1.91653e-07
1.03571e-08
-1.94872e-07
9.36964e-09
-1.97743e-07
8.35535e-09
-2.00256e-07
7.31713e-09
-2.02405e-07
6.25784e-09
-2.04184e-07
5.18036e-09
-2.05586e-07
4.08754e-09
-2.06609e-07
2.98219e-09
-2.07248e-07
1.86713e-09
-2.07501e-07
7.45228e-10
-2.07367e-07
-3.80662e-10
-2.06845e-07
-1.50764e-09
-2.05937e-07
-2.63276e-09
-2.04644e-07
-3.75303e-09
-2.02969e-07
-4.86538e-09
-2.00916e-07
-5.96667e-09
-1.98489e-07
-7.05373e-09
-1.95695e-07
-8.12328e-09
-1.92542e-07
-9.17194e-09
-1.89037e-07
-1.01963e-08
-1.8519e-07
-1.11928e-08
-1.81013e-07
-1.21578e-08
-1.76517e-07
-1.30876e-08
-1.71715e-07
-1.39784e-08
-1.66623e-07
-1.48263e-08
-1.61257e-07
-1.56275e-08
-1.55635e-07
-1.63778e-08
-1.49774e-07
-1.70733e-08
-1.43695e-07
-1.77097e-08
-1.37421e-07
-1.8283e-08
-1.30973e-07
-1.8789e-08
-1.24377e-07
-1.92235e-08
-1.17658e-07
-1.95824e-08
-1.10843e-07
-1.98616e-08
-1.03961e-07
-2.00572e-08
-9.70415e-08
-2.01651e-08
-9.01154e-08
-2.01817e-08
-8.32146e-08
-2.01033e-08
-7.63723e-08
-1.99266e-08
-6.96224e-08
-1.96486e-08
-6.29995e-08
-1.92665e-08
-5.65391e-08
-1.87782e-08
-5.02768e-08
-1.8182e-08
-4.42484e-08
-1.74768e-08
-3.84895e-08
-1.66624e-08
-3.30353e-08
-1.57397e-08
-2.79197e-08
-1.47107e-08
-2.31753e-08
-1.35793e-08
-1.88322e-08
-1.23511e-08
-1.49174e-08
-1.10346e-08
-1.14537e-08
-9.6418e-09
-8.45837e-09
-8.18907e-09
-5.94145e-09
-6.69887e-09
-3.90393e-09
-5.20152e-09
-2.33543e-09
-3.73785e-09
-1.21151e-09
-2.36259e-09
-4.90708e-10
-1.14869e-09
-1.11241e-10
-1.92101e-10
1.28541e-11
3.8186e-10
3.969e-10
-6.98758e-11
-3.0977e-10
-4.00783e-10
-7.77258e-12
-1.09037e-09
9.58649e-10
-2.21258e-09
2.3856e-09
-3.82035e-09
4.11405e-09
-5.94794e-09
6.02524e-09
-8.61385e-09
8.03085e-09
-1.18234e-08
1.00648e-08
-1.5571e-08
1.20775e-08
-1.98425e-08
1.40314e-08
-2.46164e-08
1.58986e-08
-2.98658e-08
1.76583e-08
-3.55594e-08
1.92955e-08
-4.16627e-08
2.07996e-08
-4.8139e-08
2.21637e-08
-5.49499e-08
2.33832e-08
-6.2056e-08
2.44561e-08
-6.94174e-08
2.53819e-08
-7.6994e-08
2.61614e-08
-8.47463e-08
2.67967e-08
-9.2635e-08
2.72905e-08
-1.00622e-07
2.76463e-08
-1.08669e-07
2.78682e-08
-1.1674e-07
2.79605e-08
-1.24799e-07
2.79279e-08
-1.32814e-07
2.77753e-08
-1.4075e-07
2.75078e-08
-1.48577e-07
2.71304e-08
-1.56265e-07
2.66486e-08
-1.63785e-07
2.60673e-08
-1.71111e-07
2.53919e-08
-1.78216e-07
2.46276e-08
-1.85077e-07
2.37793e-08
-1.9167e-07
2.28522e-08
-1.97975e-07
2.18512e-08
-2.03971e-07
2.07811e-08
-2.09641e-07
1.96467e-08
-2.14965e-07
1.84526e-08
-2.19929e-07
1.72034e-08
-2.24518e-07
1.59035e-08
-2.28718e-07
1.45572e-08
-2.32517e-07
1.31689e-08
-2.35905e-07
1.17427e-08
-2.38871e-07
1.02829e-08
-2.41406e-07
8.79335e-09
-2.43504e-07
7.27824e-09
-2.45158e-07
5.74154e-09
-2.46363e-07
4.18725e-09
-2.47115e-07
2.61941e-09
-2.47412e-07
1.04201e-09
-2.47252e-07
-5.40893e-10
-2.46634e-07
-2.12521e-09
-2.4556e-07
-3.70677e-09
-2.44032e-07
-5.28134e-09
-2.42053e-07
-6.84463e-09
-2.39627e-07
-8.39224e-09
-2.36761e-07
-9.91965e-09
-2.33462e-07
-1.14223e-08
-2.29739e-07
-1.28953e-08
-2.25601e-07
-1.43341e-08
-2.2106e-07
-1.57335e-08
-2.16129e-07
-1.70886e-08
-2.10823e-07
-1.8394e-08
-2.05157e-07
-1.96446e-08
-1.99148e-07
-2.08348e-08
-1.92817e-07
-2.19593e-08
-1.86182e-07
-2.30123e-08
-1.79267e-07
-2.39882e-08
-1.72096e-07
-2.48813e-08
-1.64693e-07
-2.56858e-08
-1.57086e-07
-2.6396e-08
-1.49303e-07
-2.7006e-08
-1.41375e-07
-2.75103e-08
-1.33334e-07
-2.79032e-08
-1.25212e-07
-2.81791e-08
-1.17044e-07
-2.83328e-08
-1.08867e-07
-2.83592e-08
-1.00717e-07
-2.82534e-08
-9.26322e-08
-2.8011e-08
-8.46528e-08
-2.7628e-08
-7.68185e-08
-2.71008e-08
-6.91699e-08
-2.64268e-08
-6.17479e-08
-2.56039e-08
-5.45935e-08
-2.46311e-08
-4.77472e-08
-2.35086e-08
-4.12489e-08
-2.2238e-08
-3.5137e-08
-2.08226e-08
-2.9448e-08
-1.92683e-08
-2.42154e-08
-1.75836e-08
-1.94695e-08
-1.57805e-08
-1.52356e-08
-1.38758e-08
-1.15329e-08
-1.18918e-08
-8.37325e-09
-9.85851e-09
-5.75918e-09
-7.81557e-09
-3.68212e-09
-5.81492e-09
-2.1202e-09
-3.92451e-09
-1.03617e-09
-2.23271e-09
-3.75215e-10
-8.53055e-10
-6.26343e-11
6.92797e-11
3.34274e-10
-1.50376e-10
-1.59398e-10
-6.87179e-10
5.29022e-10
-1.68417e-09
1.95563e-09
-3.19937e-09
3.9008e-09
-5.27524e-09
6.18992e-09
-7.93927e-09
8.68925e-09
-1.12052e-08
1.12968e-08
-1.5075e-08
1.39346e-08
-1.95401e-08
1.65427e-08
-2.45837e-08
1.9075e-08
-3.01818e-08
2.14967e-08
-3.63047e-08
2.37811e-08
-4.2918e-08
2.59088e-08
-4.9984e-08
2.78657e-08
-5.74624e-08
2.9642e-08
-6.53109e-08
3.12317e-08
-7.3486e-08
3.26312e-08
-8.19436e-08
3.38395e-08
-9.06393e-08
3.48572e-08
-9.95291e-08
3.56864e-08
-1.08569e-07
3.63304e-08
-1.17716e-07
3.67934e-08
-1.26928e-07
3.70804e-08
-1.36165e-07
3.71969e-08
-1.45385e-07
3.71487e-08
-1.54552e-07
3.69421e-08
-1.63628e-07
3.65837e-08
-1.72578e-07
3.60801e-08
-1.81367e-07
3.5438e-08
-1.89964e-07
3.46643e-08
-1.98338e-07
3.37658e-08
-2.0646e-07
3.27491e-08
-2.14301e-07
3.16211e-08
-2.21837e-07
3.03882e-08
-2.29043e-07
2.90571e-08
-2.35896e-07
2.76342e-08
-2.42375e-07
2.61256e-08
-2.4846e-07
2.45376e-08
-2.54133e-07
2.28762e-08
-2.59376e-07
2.11472e-08
-2.64176e-07
1.93566e-08
-2.68517e-07
1.751e-08
-2.72387e-07
1.5613e-08
-2.75775e-07
1.36711e-08
-2.78672e-07
1.16897e-08
-2.81068e-07
9.67428e-09
-2.82956e-07
7.63019e-09
-2.84332e-07
5.56278e-09
-2.8519e-07
3.47736e-09
-2.85527e-07
1.37932e-09
-2.85342e-07
-7.25914e-10
-2.84635e-07
-2.83287e-09
-2.83405e-07
-4.93602e-09
-2.81657e-07
-7.02974e-09
-2.79393e-07
-9.10826e-09
-2.7662e-07
-1.11657e-08
-2.73343e-07
-1.31962e-08
-2.69572e-07
-1.51935e-08
-2.65316e-07
-1.71514e-08
-2.60587e-07
-1.90634e-08
-2.55397e-07
-2.0923e-08
-2.49762e-07
-2.27234e-08
-2.43699e-07
-2.44578e-08
-2.37224e-07
-2.61192e-08
-2.30358e-07
-2.77003e-08
-2.23124e-07
-2.91939e-08
-2.15543e-07
-3.05926e-08
-2.07643e-07
-3.1889e-08
-1.99448e-07
-3.30754e-08
-1.9099e-07
-3.41444e-08
-1.82297e-07
-3.50884e-08
-1.73404e-07
-3.58998e-08
-1.64343e-07
-3.65711e-08
-1.55151e-07
-3.70952e-08
-1.45865e-07
-3.74648e-08
-1.36525e-07
-3.76731e-08
-1.27171e-07
-3.77135e-08
-1.17844e-07
-3.75799e-08
-1.08588e-07
-3.72667e-08
-9.94476e-08
-3.67688e-08
-9.04664e-08
-3.60821e-08
-8.16902e-08
-3.52031e-08
-7.31644e-08
-3.41297e-08
-6.49347e-08
-3.28609e-08
-5.70458e-08
-3.13975e-08
-4.95416e-08
-2.97421e-08
-4.24644e-08
-2.78998e-08
-3.58542e-08
-2.58785e-08
-2.9748e-08
-2.36899e-08
-2.41786e-08
-2.13499e-08
-1.91741e-08
-1.88802e-08
-1.47562e-08
-1.63096e-08
-1.09393e-08
-1.36755e-08
-7.72846e-09
-1.10264e-08
-5.11869e-09
-8.42469e-09
-3.09286e-09
-5.95033e-09
-1.62055e-09
-3.70501e-09
-6.56939e-10
-1.81667e-09
-1.42003e-10
-4.45647e-10
1.92272e-10
-2.31203e-10
7.18117e-11
-9.79084e-10
1.2769e-09
-2.29348e-09
3.27003e-09
-4.21506e-09
5.82238e-09
-6.77385e-09
8.74871e-09
-9.98847e-09
1.19039e-08
-1.38663e-08
1.51747e-08
-1.84044e-08
1.84726e-08
-2.35903e-08
2.17286e-08
-2.9404e-08
2.48887e-08
-3.58182e-08
2.79109e-08
-4.28003e-08
3.07632e-08
-5.0313e-08
3.34215e-08
-5.83154e-08
3.5868e-08
-6.67637e-08
3.80904e-08
-7.56123e-08
4.00803e-08
-8.48141e-08
4.1833e-08
-9.43211e-08
4.33465e-08
-1.04085e-07
4.46211e-08
-1.14058e-07
4.56591e-08
-1.24192e-07
4.64642e-08
-1.34439e-07
4.70412e-08
-1.44755e-07
4.73959e-08
-1.55093e-07
4.75352e-08
-1.65411e-07
4.7466e-08
-1.75665e-07
4.71963e-08
-1.85815e-07
4.67339e-08
-1.95822e-07
4.60871e-08
-2.05648e-07
4.52644e-08
-2.15258e-07
4.42743e-08
-2.24618e-07
4.31252e-08
-2.33694e-07
4.18258e-08
-2.42458e-07
4.03843e-08
-2.50879e-07
3.88093e-08
-2.5893e-07
3.71089e-08
-2.66587e-07
3.52912e-08
-2.73826e-07
3.33642e-08
-2.80624e-07
3.13358e-08
-2.86962e-07
2.92136e-08
-2.9282e-07
2.70052e-08
-2.98181e-07
2.47179e-08
-3.0303e-07
2.23591e-08
-3.07353e-07
1.99358e-08
-3.11137e-07
1.74552e-08
-3.14372e-07
1.49243e-08
-3.17047e-07
1.23498e-08
-3.19156e-07
9.73877e-09
-3.20691e-07
7.09798e-09
-3.21648e-07
4.4343e-09
-3.22023e-07
1.75462e-09
-3.21815e-07
-9.34138e-10
-3.21023e-07
-3.62498e-09
-3.19648e-07
-6.31078e-09
-3.17694e-07
-8.98436e-09
-3.15163e-07
-1.16384e-08
-3.12064e-07
-1.42653e-08
-3.08402e-07
-1.68576e-08
-3.04189e-07
-1.94073e-08
-2.99433e-07
-2.19066e-08
-2.9415e-07
-2.43471e-08
-2.88352e-07
-2.67206e-08
-2.82057e-07
-2.90185e-08
-2.75283e-07
-3.12319e-08
-2.6805e-07
-3.33521e-08
-2.60381e-07
-3.53698e-08
-2.52299e-07
-3.72759e-08
-2.4383e-07
-3.9061e-08
-2.35003e-07
-4.07156e-08
-2.25849e-07
-4.22303e-08
-2.16398e-07
-4.35955e-08
-2.06684e-07
-4.48015e-08
-1.96745e-07
-4.58391e-08
-1.86617e-07
-4.66988e-08
-1.76341e-07
-4.73715e-08
-1.65958e-07
-4.78483e-08
-1.5551e-07
-4.81207e-08
-1.45043e-07
-4.81806e-08
-1.34602e-07
-4.80204e-08
-1.24236e-07
-4.76333e-08
-1.13991e-07
-4.70134e-08
-1.03918e-07
-4.61555e-08
-9.40649e-08
-4.5056e-08
-8.44823e-08
-4.37123e-08
-7.52194e-08
-4.21238e-08
-6.6325e-08
-4.02919e-08
-5.78466e-08
-3.82205e-08
-4.983e-08
-3.59165e-08
-4.23184e-08
-3.33901e-08
-3.5352e-08
-3.06563e-08
-2.89666e-08
-2.77353e-08
-2.31931e-08
-2.46537e-08
-1.80562e-08
-2.14465e-08
-1.35736e-08
-1.81582e-08
-9.75418e-09
-1.48458e-08
-6.59778e-09
-1.15811e-08
-4.09365e-09
-8.45446e-09
-2.22006e-09
-5.57861e-09
-9.43996e-10
-3.09273e-09
-2.21648e-10
-1.16799e-09
-2.93794e-11
-3.1043e-10
3.82238e-10
-1.26874e-09
2.23522e-09
-2.90253e-09
4.9038e-09
-5.23491e-09
8.15474e-09
-8.28256e-09
1.17964e-08
-1.2054e-08
1.56753e-08
-1.65489e-08
1.96696e-08
-2.17583e-08
2.3682e-08
-2.76651e-08
2.76354e-08
-3.42449e-08
3.14685e-08
-4.14671e-08
3.51331e-08
-4.92957e-08
3.85918e-08
-5.76902e-08
4.1816e-08
-6.66066e-08
4.47844e-08
-7.5998e-08
4.74817e-08
-8.58153e-08
4.98976e-08
-9.60081e-08
5.20258e-08
-1.06525e-07
5.38634e-08
-1.17314e-07
5.54104e-08
-1.28324e-07
5.6669e-08
-1.39503e-07
5.76432e-08
-1.50801e-07
5.83385e-08
-1.62167e-07
5.87619e-08
-1.73552e-07
5.8921e-08
-1.84911e-07
5.88245e-08
-1.96196e-07
5.84815e-08
-2.07364e-07
5.79017e-08
-2.18372e-07
5.70949e-08
-2.29179e-07
5.60714e-08
-2.39746e-07
5.48415e-08
-2.50036e-07
5.34155e-08
-2.60014e-07
5.18039e-08
-2.69647e-07
5.0017e-08
-2.78903e-07
4.80649e-08
-2.87752e-07
4.59579e-08
-2.96166e-07
4.37059e-08
-3.04121e-07
4.13186e-08
-3.11591e-07
3.88058e-08
-3.18554e-07
3.6177e-08
-3.2499e-07
3.34414e-08
-3.30881e-07
3.06081e-08
-3.36208e-07
2.76863e-08
-3.40957e-07
2.46847e-08
-3.45114e-07
2.16121e-08
-3.48666e-07
1.84771e-08
-3.51605e-07
1.52884e-08
-3.53921e-07
1.20544e-08
-3.55606e-07
8.78362e-09
-3.56657e-07
5.4846e-09
-3.57068e-07
2.16588e-09
-3.56838e-07
-1.16394e-09
-3.55967e-07
-4.49618e-09
-3.54456e-07
-7.82205e-09
-3.52307e-07
-1.11326e-08
-3.49527e-07
-1.44188e-08
-3.46121e-07
-1.76713e-08
-3.42098e-07
-2.08807e-08
-3.37468e-07
-2.40373e-08
-3.32243e-07
-2.71312e-08
-3.26438e-07
-3.01524e-08
-3.20068e-07
-3.30904e-08
-3.13152e-07
-3.59347e-08
-3.05709e-07
-3.86746e-08
-2.97762e-07
-4.12989e-08
-2.89336e-07
-4.37966e-08
-2.80455e-07
-4.61563e-08
-2.7115e-07
-4.83665e-08
-2.6145e-07
-5.04156e-08
-2.51388e-07
-5.22918e-08
-2.41e-07
-5.39836e-08
-2.30322e-07
-5.54793e-08
-2.19394e-07
-5.67673e-08
-2.08257e-07
-5.78362e-08
-1.96953e-07
-5.86751e-08
-1.85528e-07
-5.9273e-08
-1.74029e-07
-5.96198e-08
-1.62504e-07
-5.97057e-08
-1.51003e-07
-5.95218e-08
-1.39576e-07
-5.90599e-08
-1.28277e-07
-5.8313e-08
-1.17157e-07
-5.72754e-08
-1.0627e-07
-5.59428e-08
-9.56697e-08
-5.43126e-08
-8.54089e-08
-5.23846e-08
-7.55399e-08
-5.0161e-08
-6.61136e-08
-4.76468e-08
-5.71793e-08
-4.48508e-08
-4.87833e-08
-4.17861e-08
-4.09689e-08
-3.84708e-08
-3.37751e-08
-3.49291e-08
-2.72361e-08
-3.11928e-08
-2.13801e-08
-2.73025e-08
-1.62286e-08
-2.33097e-08
-1.17955e-08
-1.92788e-08
-8.08655e-09
-1.52901e-08
-5.09847e-09
-1.14425e-08
-2.81935e-09
-7.85774e-09
-1.22885e-09
-4.68321e-09
-2.99634e-10
-2.0972e-09
-3.29011e-10
-3.87013e-10
7.69243e-10
-1.55174e-09
3.39995e-09
-3.50158e-09
6.85365e-09
-6.24292e-09
1.08961e-08
-9.77889e-09
1.53323e-08
-1.41072e-08
2.00037e-08
-1.92191e-08
2.47814e-08
-2.50986e-08
2.95615e-08
-3.17231e-08
3.42599e-08
-3.90636e-08
3.8809e-08
-4.70854e-08
4.31548e-08
-5.57486e-08
4.72551e-08
-6.50096e-08
5.1077e-08
-7.4821e-08
5.45957e-08
-8.51325e-08
5.77933e-08
-9.58922e-08
6.06572e-08
-1.07046e-07
6.31798e-08
-1.1854e-07
6.53572e-08
-1.30319e-07
6.7189e-08
-1.42327e-07
6.86771e-08
-1.5451e-07
6.98262e-08
-1.66814e-07
7.06423e-08
-1.79185e-07
7.11333e-08
-1.91572e-07
7.13081e-08
-2.03924e-07
7.11766e-08
-2.16192e-07
7.07497e-08
-2.28329e-07
7.00384e-08
-2.40289e-07
6.90546e-08
-2.52027e-07
6.78103e-08
-2.63504e-07
6.63177e-08
-2.74677e-07
6.45891e-08
-2.8551e-07
6.2637e-08
-2.95967e-07
6.04736e-08
-3.06013e-07
5.81112e-08
-3.15617e-07
5.55619e-08
-3.24749e-07
5.28377e-08
-3.33381e-07
4.99503e-08
-3.41486e-07
4.69114e-08
-3.49042e-07
4.37323e-08
-3.56024e-07
4.04243e-08
-3.62415e-07
3.69984e-08
-3.68194e-07
3.34655e-08
-3.73345e-07
2.98362e-08
-3.77855e-07
2.61212e-08
-3.81708e-07
2.23309e-08
-3.84896e-07
1.84757e-08
-3.87407e-07
1.45659e-08
-3.89235e-07
1.06117e-08
-3.90374e-07
6.62352e-09
-3.9082e-07
2.61163e-09
-3.9057e-07
-1.41354e-09
-3.89625e-07
-5.44151e-09
-3.87985e-07
-9.46162e-09
-3.85655e-07
-1.34631e-08
-3.82639e-07
-1.74349e-08
-3.78944e-07
-2.1366e-08
-3.7458e-07
-2.52447e-08
-3.69558e-07
-2.90596e-08
-3.6389e-07
-3.27987e-08
-3.57593e-07
-3.64497e-08
-3.50683e-07
-4.00003e-08
-3.4318e-07
-4.34377e-08
-3.35105e-07
-4.6749e-08
-3.26484e-07
-4.99208e-08
-3.1734e-07
-5.29399e-08
-3.07704e-07
-5.57924e-08
-2.97606e-07
-5.84648e-08
-2.87079e-07
-6.0943e-08
-2.76157e-07
-6.3213e-08
-2.6488e-07
-6.5261e-08
-2.53286e-07
-6.70731e-08
-2.41418e-07
-6.86354e-08
-2.2932e-07
-6.99344e-08
-2.17038e-07
-7.09571e-08
-2.0462e-07
-7.16907e-08
-1.92117e-07
-7.2123e-08
-1.7958e-07
-7.22427e-08
-1.67062e-07
-7.20393e-08
-1.54619e-07
-7.15034e-08
-1.42305e-07
-7.06269e-08
-1.30177e-07
-6.94034e-08
-1.18292e-07
-6.7828e-08
-1.06706e-07
-6.58983e-08
-9.54766e-08
-6.36142e-08
-8.46587e-08
-6.09789e-08
-7.43067e-08
-5.79987e-08
-6.4473e-08
-5.46845e-08
-5.52074e-08
-5.10517e-08
-4.65562e-08
-4.71219e-08
-3.85621e-08
-4.29232e-08
-3.12626e-08
-3.84922e-08
-2.46903e-08
-3.38748e-08
-1.88711e-08
-2.91288e-08
-1.38246e-08
-2.43253e-08
-9.56303e-09
-1.95516e-08
-6.09166e-09
-1.49139e-08
-3.40883e-09
-1.05405e-08
-1.5071e-09
-6.58493e-09
-3.74956e-10
-3.22934e-09
-7.0396e-10
-4.60445e-10
1.22968e-09
-1.82562e-09
4.76512e-09
-4.08498e-09
9.11302e-09
-7.22929e-09
1.40404e-08
-1.12485e-08
1.93515e-08
-1.61294e-08
2.48846e-08
-2.18541e-08
3.05061e-08
-2.83993e-08
3.61068e-08
-3.57362e-08
4.15968e-08
-4.38305e-08
4.69032e-08
-5.2643e-08
5.19672e-08
-6.21298e-08
5.6742e-08
-7.22435e-08
6.11907e-08
-8.29333e-08
6.52855e-08
-9.41458e-08
6.90058e-08
-1.05826e-07
7.2337e-08
-1.17916e-07
7.52701e-08
-1.30359e-07
7.78003e-08
-1.43097e-07
7.99266e-08
-1.56071e-07
8.16512e-08
-1.69223e-07
8.29787e-08
-1.82497e-07
8.39162e-08
-1.95836e-07
8.44722e-08
-2.09185e-07
8.46571e-08
-2.2249e-07
8.44821e-08
-2.357e-07
8.39596e-08
-2.48764e-07
8.31025e-08
-2.61634e-07
8.19244e-08
-2.74263e-07
8.04393e-08
-2.86607e-07
7.86614e-08
-2.98623e-07
7.66051e-08
-3.10271e-07
7.42848e-08
-3.21512e-07
7.1715e-08
-3.32311e-07
6.89101e-08
-3.42633e-07
6.58842e-08
-3.52447e-07
6.26515e-08
-3.61722e-07
5.92257e-08
-3.70432e-07
5.56207e-08
-3.78549e-07
5.18499e-08
-3.86052e-07
4.79265e-08
-3.92917e-07
4.38635e-08
-3.99125e-07
3.96739e-08
-4.04659e-07
3.53702e-08
-4.09503e-07
3.0965e-08
-4.13643e-07
2.64707e-08
-4.17067e-07
2.18995e-08
-4.19764e-07
1.72638e-08
-4.21728e-07
1.25756e-08
-4.22952e-07
7.84722e-09
-4.23431e-07
3.09088e-09
-4.23164e-07
-1.68108e-09
-4.22149e-07
-6.45621e-09
-4.20389e-07
-1.12219e-08
-4.17886e-07
-1.59654e-08
-4.14648e-07
-2.06737e-08
-4.1068e-07
-2.53335e-08
-4.05994e-07
-2.99313e-08
-4.006e-07
-3.44533e-08
-3.94513e-07
-3.88855e-08
-3.87749e-07
-4.32134e-08
-3.80327e-07
-4.74224e-08
-3.72268e-07
-5.14973e-08
-3.63594e-07
-5.5423e-08
-3.54331e-07
-5.91837e-08
-3.44507e-07
-6.27638e-08
-3.34152e-07
-6.6147e-08
-3.233e-07
-6.93173e-08
-3.11985e-07
-7.22582e-08
-3.00244e-07
-7.49535e-08
-2.88119e-07
-7.73866e-08
-2.7565e-07
-7.95414e-08
-2.62884e-07
-8.14017e-08
-2.49867e-07
-8.29518e-08
-2.36647e-07
-8.41763e-08
-2.23277e-07
-8.50606e-08
-2.0981e-07
-8.55904e-08
-1.963e-07
-8.57528e-08
-1.82804e-07
-8.55356e-08
-1.69379e-07
-8.49282e-08
-1.56084e-07
-8.39214e-08
-1.4298e-07
-8.25078e-08
-1.30125e-07
-8.06824e-08
-1.17581e-07
-7.84425e-08
-1.05407e-07
-7.57886e-08
-9.36613e-08
-7.27245e-08
-8.2402e-08
-6.9258e-08
-7.16846e-08
-6.54019e-08
-6.15622e-08
-6.11741e-08
-5.20848e-08
-5.65993e-08
-4.32985e-08
-5.17095e-08
-3.52451e-08
-4.65455e-08
-2.79615e-08
-4.11585e-08
-2.14789e-08
-3.56114e-08
-1.5823e-08
-2.99813e-08
-1.10132e-08
-2.43614e-08
-7.06358e-09
-1.88635e-08
-3.98291e-09
-1.36212e-08
-1.77632e-09
-8.79152e-09
-4.471e-10
-4.55856e-09
-1.15106e-09
-5.30559e-10
1.76023e-09
-2.08928e-09
6.32382e-09
-4.64982e-09
1.16736e-08
-8.1886e-09
1.75791e-08
-1.2683e-08
2.38459e-08
-1.81091e-08
3.03106e-08
-2.44398e-08
3.68368e-08
-3.16439e-08
4.33109e-08
-3.96861e-08
4.9639e-08
-4.85264e-08
5.57435e-08
-5.81205e-08
6.15614e-08
-6.84205e-08
6.70419e-08
-7.93747e-08
7.21449e-08
-9.09287e-08
7.68396e-08
-1.03026e-07
8.11029e-08
-1.15607e-07
8.49185e-08
-1.28613e-07
8.8276e-08
-1.41982e-07
9.11697e-08
-1.55654e-07
9.35984e-08
-1.69567e-07
9.55641e-08
-1.83661e-07
9.70721e-08
-1.97874e-07
9.81298e-08
-2.12149e-07
9.8747e-08
-2.26427e-07
9.89352e-08
-2.40652e-07
9.87072e-08
-2.54769e-07
9.80768e-08
-2.68726e-07
9.70589e-08
-2.8247e-07
9.5669e-08
-2.95954e-07
9.3923e-08
-3.0913e-07
9.18373e-08
-3.21953e-07
8.94284e-08
-3.34382e-07
8.67129e-08
-3.46374e-07
8.37075e-08
-3.57893e-07
8.04288e-08
-3.68902e-07
7.68932e-08
-3.79367e-07
7.31169e-08
-3.89258e-07
6.91162e-08
-3.98544e-07
6.49068e-08
-4.07198e-07
6.05044e-08
-4.15196e-07
5.59244e-08
-4.22515e-07
5.1182e-08
-4.29133e-07
4.6292e-08
-4.35032e-07
4.12692e-08
-4.40195e-07
3.61283e-08
-4.44608e-07
3.08836e-08
-4.48258e-07
2.55494e-08
-4.51134e-07
2.01401e-08
-4.53228e-07
1.46698e-08
-4.54534e-07
9.15266e-09
-4.55046e-07
3.6031e-09
-4.54762e-07
-1.96456e-09
-4.53683e-07
-7.53582e-09
-4.51809e-07
-1.3096e-08
-4.49144e-07
-1.86302e-08
-4.45695e-07
-2.41232e-08
-4.41468e-07
-2.95597e-08
-4.36476e-07
-3.49239e-08
-4.30729e-07