/*--------------------------------*- C++ -*----------------------------------*\
| =========                 |                                                 |
| \\      /  F ield         | OpenFOAM: The Open Source CFD Toolbox           |
|  \\    /   O peration     | Version:  2212                                  |
|   \\  /    A nd           | Website:  www.openfoam.com                      |
|    \\/     M anipulation  |                                                 |
\*---------------------------------------------------------------------------*/
FoamFile
{
    version     2.0;
    format      ascii;
    arch        "LSB;label=32;scalar=64";
    class       volScalarField;
    location    "0.093";
    object      p;
}
// * * * * * * * * * * * * * * * * * * * * * * * * * * * * * * * * * * * * * //

dimensions      [0 2 -2 0 0 0 0];

internalField   nonuniform List<scalar> 
10000
(
-1.6595e-07
9.31356e-05
-0.000128132
-0.00070842
-0.00159881
-0.00274385
-0.00408737
-0.00557546
-0.00715924
-0.0087954
-0.010446
-0.012078
-0.0136625
-0.0151745
-0.0165924
-0.0178976
-0.019074
-0.0201081
-0.0209884
-0.0217057
-0.0222521
-0.0226217
-0.0228099
-0.0228135
-0.0226304
-0.0222597
-0.0217013
-0.0209562
-0.0200263
-0.0189143
-0.0176237
-0.0161587
-0.0145242
-0.0127258
-0.0107693
-0.00866149
-0.00640926
-0.00402018
-0.00150215
0.00113647
0.003887
0.00674037
0.00968717
0.0127178
0.0158222
0.0189902
0.0222115
0.0254753
0.028771
0.0320875
0.035414
0.038739
0.0420513
0.0453396
0.0485926
0.051799
0.0549477
0.0580275
0.0610275
0.0639369
0.0667451
0.0694419
0.0720173
0.0744619
0.0767664
0.0789222
0.0809213
0.0827559
0.0844191
0.0859045
0.0872067
0.0883208
0.0892431
0.0899706
0.0905016
0.0908353
0.0909721
0.0909137
0.0906632
0.090225
0.0896048
0.0888103
0.0878508
0.0867374
0.0854831
0.0841032
0.0826157
0.0810408
0.0794017
0.0777249
0.0760402
0.0743819
0.0727883
0.0713025
0.0699725
0.0688506
0.06799
0.0674418
0.0672479
0.0673564
-9.37543e-05
2.2671e-08
-0.000214613
-0.000732809
-0.00150434
-0.00249023
-0.00364927
-0.00493884
-0.00631844
-0.00775088
-0.00920258
-0.0106435
-0.0120472
-0.0133901
-0.0146517
-0.015814
-0.0168617
-0.0177812
-0.0185615
-0.0191931
-0.0196682
-0.0199807
-0.0201257
-0.0200997
-0.0199003
-0.0195262
-0.018977
-0.0182533
-0.0173565
-0.0162889
-0.0150535
-0.0136542
-0.0120953
-0.0103819
-0.0085195
-0.00651419
-0.00437252
-0.00210152
0.000291398
0.00279838
0.00541122
0.00812141
0.01092
0.0137979
0.0167456
0.0197535
0.0228117
0.0259102
0.0290387
0.0321868
0.035344
0.0384997
0.0416432
0.0447637
0.0478506
0.0508931
0.0538807
0.0568029
0.0596495
0.0624101
0.0650748
0.0676341
0.0700785
0.0723993
0.0745878
0.0766361
0.0785367
0.0802823
0.0818668
0.0832842
0.0845297
0.0855989
0.0864885
0.0871962
0.0877204
0.0880609
0.0882185
0.0881951
0.0879941
0.0876199
0.0870787
0.0863778
0.0855265
0.0845359
0.0834186
0.0821894
0.0808655
0.0794662
0.0780134
0.0765316
0.0750485
0.0735947
0.0722041
0.0709136
0.069763
0.0687933
0.0680434
0.067549
0.0673559
0.067465
0.000126538
0.000215095
8.34589e-07
-0.000485421
-0.00118937
-0.00207858
-0.0031196
-0.00427691
-0.00551602
-0.00680461
-0.00811292
-0.00941386
-0.010683
-0.0118987
-0.0130414
-0.0140943
-0.0150425
-0.0158731
-0.0165751
-0.0171394
-0.0175583
-0.0178256
-0.0179363
-0.0178868
-0.0176744
-0.0172977
-0.0167559
-0.0160495
-0.0151795
-0.0141478
-0.0129573
-0.0116113
-0.010114
-0.00846978
-0.00668401
-0.00476233
-0.00271087
-0.000536284
0.00175442
0.00415383
0.00665413
0.00924724
0.0119247
0.0146777
0.0174972
0.0203742
0.0232991
0.0262623
0.0292542
0.0322647
0.0352837
0.0383012
0.0413069
0.0442905
0.0472419
0.0501508
0.0530073
0.0558013
0.058523
0.0611627
0.0637109
0.0661586
0.0684969
0.0707174
0.072812
0.0747734
0.0765943
0.0782683
0.0797892
0.0811518
0.0823516
0.0833847
0.084248
0.0849396
0.0854583
0.085804
0.0859778
0.0859819
0.0858197
0.0854958
0.085016
0.084388
0.0836206
0.0827247
0.0817125
0.0805982
0.079398
0.0781303
0.0768154
0.0754763
0.0741382
0.0728287
0.0715779
0.0704179
0.0693826
0.0685061
0.0678201
0.0673546
0.0671623
0.0672722
0.000705416
0.000733998
0.000487998
1.03335e-06
-0.000676819
-0.00151625
-0.00248807
-0.00356163
-0.00470698
-0.00589574
-0.00710145
-0.00829975
-0.00946843
-0.0105874
-0.0116387
-0.0126063
-0.0134763
-0.0142364
-0.014876
-0.0153863
-0.0157599
-0.0159905
-0.0160735
-0.0160049
-0.0157822
-0.0154036
-0.0148685
-0.0141768
-0.0133296
-0.0123284
-0.011176
-0.00987523
-0.00843003
-0.00684469
-0.00512404
-0.00327348
-0.00129882
0.000793699
0.00299736
0.0053051
0.00770951
0.0102028
0.0127769
0.0154235
0.0181338
0.0208991
0.0237105
0.0265585
0.0294339
0.0323272
0.0352287
0.0381285
0.041017
0.0438843
0.0467206
0.0495163
0.0522615
0.0549469
0.0575628
0.0601002
0.0625499
0.0649033
0.067152
0.069288
0.0713037
0.0731919
0.0749459
0.0765595
0.0780271
0.0793437
0.0805052
0.0815078
0.0823489
0.0830268
0.0835405
0.0838901
0.0840767
0.0841028
0.0839715
0.0836877
0.083257
0.0826867
0.0819856
0.081164
0.0802337
0.0792081
0.0781026
0.0769342
0.075722
0.0744872
0.0732526
0.0720433
0.070886
0.069809
0.0688416
0.0680138
0.0673533
0.0668878
0.0666676
0.0667266
0.00159577
0.00150817
0.00119424
0.000678351
-1.90727e-06
-0.000820432
-0.00175161
-0.00276905
-0.0038469
-0.00496038
-0.0060861
-0.00720232
-0.008289
-0.00932783
-0.0103023
-0.0111976
-0.0120005
-0.0126997
-0.0132852
-0.0137485
-0.0140824
-0.014281
-0.0143396
-0.0142545
-0.014023
-0.0136433
-0.0131147
-0.012437
-0.0116112
-0.0106386
-0.00952149
-0.00826289
-0.00686625
-0.00533563
-0.00367559
-0.0018912
1.20123e-05
0.0020281
0.00415074
0.00637314
0.00868821
0.0110886
0.0135664
0.0161138
0.0187225
0.0213839
0.0240894
0.0268302
0.0295974
0.0323816
0.0351736
0.0379642
0.0407438
0.0435031
0.0462326
0.0489231
0.0515653
0.0541499
0.056668
0.0591107
0.0614694
0.0637357
0.0659017
0.0679597
0.0699025
0.0717232
0.0734156
0.0749737
0.0763922
0.0776664
0.0787925
0.079767
0.0805875
0.0812523
0.0817609
0.0821133
0.0823109
0.0823558
0.0822514
0.0820023
0.081614
0.0810937
0.0804497
0.0796918
0.0788311
0.0778802
0.0768536
0.0757672
0.0746385
0.0734867
0.0723327
0.0711989
0.070109
0.0690878
0.0681608
0.0673539
0.0666918
0.0661995
0.0659167
0.0658693
0.00274531
0.00250112
0.0020893
0.00151925
0.000811278
-1.18202e-05
-0.000927579
-0.00191351
-0.00294745
-0.00400795
-0.00507451
-0.00612785
-0.00715003
-0.00812454
-0.00903632
-0.00987178
-0.0106188
-0.0112668
-0.0118063
-0.0122295
-0.0125296
-0.0127008
-0.0127387
-0.0126397
-0.0124011
-0.0120213
-0.0114993
-0.010835
-0.0100291
-0.00908304
-0.00799881
-0.00677917
-0.0054274
-0.0039473
-0.00234322
-0.00061992
0.00121734
0.00316286
0.00521065
0.00735425
0.00958683
0.0119013
0.0142903
0.0167461
0.0192609
0.0218264
0.0244343
0.0270762
0.0297434
0.0324271
0.0351184
0.0378082
0.0404875
0.0431474
0.0457788
0.0483726
0.0509201
0.0534123
0.0558406
0.0581965
0.0604717
0.0626583
0.0647486
0.0667353
0.0686115
0.0703706
0.0720067
0.0735141
0.0748877
0.0761233
0.0772169
0.0781656
0.0789669
0.0796195
0.0801227
0.0804769
0.0806832
0.0807439
0.0806622
0.0804424
0.0800901
0.0796119
0.0790158
0.078311
0.0775078
0.0766183
0.0756555
0.0746344
0.0735709
0.0724825
0.0713879
0.0703071
0.069261
0.0682713
0.06736
0.0665494
0.0658612
0.0653178
0.0649428
0.0647483
0.00410192
0.00367493
0.00314247
0.00249703
0.00173944
0.000889364
-3.34166e-05
-0.00101005
-0.00202168
-0.0030498
-0.00407662
-0.00508519
-0.0060596
-0.00698506
-0.00784797
-0.008636
-0.00933807
-0.00994439
-0.0104464
-0.0108365
-0.0111086
-0.0112573
-0.0112782
-0.0111681
-0.0109243
-0.0105452
-0.01003
-0.00937849
-0.00859127
-0.00766967
-0.0066156
-0.00543163
-0.00412088
-0.00268693
-0.00113392
0.000533605
0.00231067
0.00419183
0.00617131
0.00824296
0.0104003
0.0126365
0.0149444
0.0173167
0.0197457
0.0222238
0.0247428
0.0272945
0.0298707
0.0324629
0.0350624
0.0376606
0.0402488
0.0428184
0.0453606
0.0478667
0.0503283
0.0527367
0.0550837
0.057361
0.0595608
0.0616754
0.0636974
0.0656198
0.0674359
0.0691396
0.0707249
0.0721866
0.0735198
0.0747204
0.0757847
0.0767098
0.0774936
0.0781346
0.0786323
0.0789871
0.0792
0.0792733
0.07921
0.0790143
0.0786912
0.0782473
0.07769
0.0770278
0.0762704
0.0754289
0.0745155
0.0735436
0.072528
0.0714843
0.0704293
0.0693806
0.0683567
0.0673765
0.0664587
0.0656222
0.0648866
0.0642713
0.0637814
0.0634131
0.0056165
0.00499082
0.00432147
0.00358389
0.00275884
0.00186319
0.000914473
-7.17206e-05
-0.00107959
-0.00209329
-0.00309746
-0.00407734
-0.00501893
-0.00590909
-0.00673569
-0.00748761
-0.00815483
-0.00872843
-0.00920056
-0.00956439
-0.00981408
-0.00994472
-0.00995231
-0.00983366
-0.00958646
-0.00920916
-0.00870092
-0.00806163
-0.00729185
-0.00639283
-0.00536643
-0.00421506
-0.00294168
-0.00154976
-4.32039e-05
0.00157363
0.00329596
0.00511862
0.00703606
0.00904235
0.0111313
0.0132963
0.0155306
0.0178271
0.0201784
0.0225771
0.0250154
0.0274854
0.0299791
0.0324883
0.0350047
0.0375201
0.0400259
0.0425138
0.0449755
0.0474026
0.0497867
0.0521196
0.0543934
0.0566001
0.058732
0.0607819
0.0627426
0.0646074
0.0663697
0.0680236
0.0695635
0.0709843
0.0722813
0.0734505
0.0744884
0.0753922
0.0761597
0.0767899
0.077282
0.0776363
0.0778538
0.0779367
0.0778878
0.077711
0.0774112
0.0769943
0.0764673
0.075838
0.0751156
0.0743101
0.0734327
0.0724958
0.0715125
0.0704968
0.0694639
0.0684291
0.0674087
0.0664189
0.0654758
0.0645951
0.0637944
0.0630904
0.0624693
0.0619106
0.00724536
0.00641244
0.00559531
0.00475293
0.00384631
0.00289
0.00189967
0.000888028
-0.000131876
-0.00114661
-0.00214301
-0.00310831
-0.00403033
-0.00489751
-0.00569908
-0.00642515
-0.00706673
-0.0076158
-0.00806525
-0.00840887
-0.00864136
-0.00875824
-0.00875583
-0.00863124
-0.00838234
-0.00800773
-0.00750668
-0.00687914
-0.00612567
-0.00524747
-0.00424637
-0.0031247
-0.00188528
-0.000531438
0.00093304
0.00250399
0.00417682
0.00594657
0.00780793
0.00975517
0.0117823
0.0138831
0.0160508
0.0182789
0.02056
0.0228871
0.0252526
0.027649
0.0300684
0.0325029
0.0349445
0.0373853
0.0398171
0.0422318
0.0446212
0.0469773
0.049292
0.0515574
0.0537657
0.0559093
0.0579807
0.059973
0.0618791
0.0636925
0.065407
0.0670167
0.0685163
0.0699007
0.0711655
0.0723067
0.0733209
0.0742055
0.0749584
0.0755783
0.0760646
0.0764174
0.0766378
0.0767275
0.0766894
0.0765269
0.0762447
0.0758481
0.0753436
0.0747386
0.0740412
0.0732608
0.0724076
0.0714926
0.0705278
0.0695256
0.0684994
0.0674628
0.0664299
0.0654145
0.0644302
0.0634902
0.0626102
0.0618048
0.0610412
0.060283
0.00895064
0.0079069
0.00693519
0.00597883
0.00497975
0.00395067
0.00290587
0.00185549
0.00081016
-0.000218878
-0.00122044
-0.00218358
-0.00309776
-0.00395292
-0.0047396
-0.00544908
-0.00607339
-0.00660538
-0.0070387
-0.0073678
-0.00758789
-0.00769494
-0.00768566
-0.00755748
-0.00730848
-0.00693744
-0.00644378
-0.0058275
-0.00508923
-0.00423018
-0.00325212
-0.00215733
-0.000948575
0.000370943
0.00179756
0.00332728
0.00495566
0.0066779
0.00848889
0.0103831
0.0123549
0.014398
0.0165062
0.0186728
0.0208912
0.0231541
0.0254545
0.027785
0.0301379
0.0325057
0.0348807
0.037255
0.0396208
0.0419702
0.0442954
0.0465884
0.0488415
0.051047
0.0531974
0.0552852
0.0573032
0.0592446
0.0611026
0.0628708
0.0645432
0.0661141
0.0675782
0.0689306
0.070167
0.0712836
0.0722769
0.0731444
0.073884
0.0744944
0.0749748
0.0753254
0.0755469
0.0756411
0.0756104
0.075458
0.0751882
0.0748058
0.0743169
0.0737281
0.0730469
0.0722818
0.071442
0.0705375
0.0695788
0.0685773
0.0675444
0.0664923
0.065433
0.0643785
0.06334
0.0623283
0.061358
0.0604418
0.0595285
0.0585667
0.0106996
0.00944483
0.00831475
0.00723801
0.00613826
0.00502692
0.0039172
0.00281705
0.00173501
0.00068037
-0.000337486
-0.00130927
-0.00222593
-0.00307878
-0.00385962
-0.00456081
-0.00517538
-0.00569704
-0.00612018
-0.0064399
-0.00665197
-0.00675282
-0.00673954
-0.0066099
-0.00636226
-0.00599556
-0.00550939
-0.0049039
-0.00417975
-0.00333818
-0.00238094
-0.00131033
-0.000129055
0.00115979
0.00255264
0.00404561
0.0056344
0.00731438
0.00908059
0.0109277
0.0128502
0.0148421
0.0168973
0.0190095
0.0211721
0.0233783
0.025621
0.027893
0.0301872
0.032496
0.0348121
0.0371278
0.0394354
0.0417274
0.043996
0.0462337
0.0484328
0.0505858
0.0526855
0.0547245
0.0566959
0.058593
0.0604092
0.0621382
0.063774
0.0653113
0.0667447
0.0680695
0.0692813
0.0703764
0.0713516
0.0722042
0.0729319
0.0735335
0.0740082
0.0743559
0.0745772
0.0746737
0.0746474
0.0745013
0.0742392
0.0738655
0.0733858
0.0728061
0.0721331
0.0713745
0.0705385
0.0696342
0.068671
0.0676588
0.0666077
0.0655283
0.064431
0.0633259
0.0622224
0.0611294
0.0600602
0.0590265
0.0579594
0.0567931
0.0124641
0.0110002
0.00971018
0.00850876
0.00730235
0.00610139
0.00491838
0.00375942
0.00263124
0.0015414
0.000497728
-0.000492007
-0.00142013
-0.00227919
-0.00306217
-0.00376246
-0.00437403
-0.0048914
-0.00530972
-0.00562472
-0.00583271
-0.00593061
-0.00591593
-0.00578674
-0.00554169
-0.00517999
-0.00470137
-0.00410608
-0.00339491
-0.00256917
-0.00163063
-0.000581543
0.000575387
0.0018371
0.00320015
0.00466073
0.00621468
0.00785747
0.0095843
0.01139
0.0132692
0.0152161
0.0172249
0.0192894
0.0214031
0.0235594
0.0257516
0.0279726
0.0302155
0.0324729
0.0347376
0.0370022
0.0392593
0.0415014
0.043721
0.0459108
0.0480632
0.050171
0.052227
0.0542241
0.0561556
0.0580148
0.0597952
0.0614908
0.0630957
0.0646044
0.0660117
0.067313
0.0685041
0.0695811
0.0705408
0.0713805
0.0720979
0.0726917
0.0731609
0.0735052
0.0737252
0.0738221
0.0737976
0.0736545
0.0733959
0.0730261
0.07255
0.0719729
0.071301
0.070541
0.0697004
0.0687874
0.0678102
0.0667774
0.0656982
0.0645814
0.0634362
0.0622711
0.061094
0.0599118
0.0587373
0.0575814
0.0563584
0.0549891
0.0142198
0.01255
0.0111
0.00977125
0.00845387
0.0071577
0.00589481
0.0046697
0.00348754
0.00235446
0.00127686
0.00026118
-0.000686153
-0.00155886
-0.00235097
-0.00305686
-0.00367138
-0.00418985
-0.0046081
-0.00492252
-0.00512996
-0.0052278
-0.00521397
-0.0050869
-0.00484553
-0.00448929
-0.00401811
-0.00343242
-0.00273308
-0.00192148
-0.000999475
3.06814e-05
0.00116632
0.00240441
0.00374154
0.00517398
0.00669769
0.00830825
0.010001
0.0117708
0.0136125
0.0155206
0.0174892
0.0195124
0.0215839
0.0236973
0.025846
0.0280232
0.0302219
0.0324352
0.0346559
0.0368768
0.0390907
0.0412903
0.0434683
0.0456174
0.0477303
0.0497999
0.0518191
0.0537811
0.0556791
0.0575066
0.0592574
0.0609252
0.0625044
0.0639895
0.0653754
0.0666574
0.0678314
0.0688936
0.0698406
0.0706696
0.0713784
0.0719653
0.0724295
0.0727703
0.0729882
0.0730839
0.073059
0.0729158
0.0726573
0.0722871
0.0718095
0.0712294
0.0705521
0.0697839
0.0689315
0.0680018
0.0670023
0.0659406
0.0648245
0.0636619
0.0624605
0.0612278
0.0599699
0.0586925
0.057408
0.0561268
0.0547474
0.0531778
0.0159456
0.0140738
0.0124647
0.0110074
0.00957609
0.00818053
0.00683258
0.00553542
0.00429286
0.00310981
0.00199144
0.000943005
-3.01971e-05
-0.000922954
-0.00173027
-0.00244744
-0.00307011
-0.0035944
-0.00401681
-0.00433427
-0.00454422
-0.00464455
-0.00463354
-0.00450997
-0.00427311
-0.00392265
-0.0034587
-0.00288184
-0.0021931
-0.00139396
-0.000486321
0.000527525
0.00164489
0.00286276
0.00417778
0.00558628
0.00708429
0.00866746
0.0103312
0.0120706
0.0138805
0.0157557
0.0176903
0.0196786
0.0217144
0.0237916
0.0259036
0.0280438
0.0302055
0.0323818
0.0345657
0.0367502
0.0389281
0.0410924
0.0432359
0.0453514
0.0474317
0.04947
0.0514592
0.0533926
0.0552635
0.0570655
0.0587924
0.0604381
0.0619969
0.0634633
0.0648323
0.0660993
0.06726
0.0683106
0.0692477
0.0700684
0.0707702
0.0713517
0.0718114
0.0721488
0.0723639
0.0724572
0.0724301
0.0722845
0.0720229
0.0716485
0.0711651
0.070577
0.069889
0.0691066
0.0682357
0.0672826
0.0662537
0.0651558
0.0639955
0.0627799
0.0615155
0.0602086
0.0588643
0.057487
0.056089
0.0546806
0.0531453
0.0513789
0.0176232
0.0155536
0.0137871
0.0122006
0.0106535
0.00915546
0.00771847
0.00634458
0.00503641
0.00379785
0.00263299
0.00154605
0.000541282
-0.000377026
-0.00120476
-0.00193812
-0.00257351
-0.0031077
-0.00353787
-0.00386157
-0.00407671
-0.00418163
-0.00417507
-0.00405616
-0.00382442
-0.00347981
-0.00302271
-0.00245386
-0.00177441
-0.000985948
-9.04683e-05
0.000909667
0.00201176
0.00321282
0.00450951
0.00589819
0.00737493
0.00893545
0.0105753
0.0122896
0.0140733
0.0159213
0.0178279
0.0197875
0.0217942
0.0238417
0.0259237
0.0280338
0.0301653
0.0323115
0.0344656
0.0366207
0.0387698
0.0409058
0.0430217
0.0451106
0.0471653
0.0491789
0.0511447
0.0530559
0.054906
0.0566886
0.0583974
0.0600265
0.06157
0.0630227
0.0643795
0.0656356
0.0667868
0.0678292
0.0687593
0.069574
0.0702709
0.0708482
0.0713044
0.0716387
0.0718507
0.0719409
0.0719102
0.0717601
0.0714928
0.0711111
0.0706181
0.0700177
0.0693142
0.0685124
0.0676175
0.0666351
0.0655708
0.0644303
0.0632197
0.061945
0.0606118
0.0592257
0.0577904
0.0563095
0.0547956
0.053259
0.0515689
0.0496094
0.0192365
0.0169733
0.0150513
0.0133357
0.0116717
0.0100691
0.00854
0.00708566
0.00570773
0.00440913
0.00319302
0.00206275
0.00102167
7.31185e-05
-0.000779565
-0.00153328
-0.00218524
-0.00273288
-0.00317393
-0.00350653
-0.00372909
-0.00384041
-0.0038396
-0.00372616
-0.00349992
-0.00316111
-0.00271031
-0.00214846
-0.00147687
-0.00069727
0.000188276
0.00117735
0.00226721
0.00345486
0.00473695
0.00610987
0.00756973
0.00911232
0.0107332
0.0124276
0.0141907
0.0160172
0.0179018
0.0198388
0.0218224
0.0238467
0.0259053
0.0279919
0.0301
0.0322231
0.0343542
0.0364868
0.0386138
0.0407285
0.0428239
0.0448929
0.0469287
0.0489243
0.0508732
0.0527686
0.0546041
0.0563732
0.0580697
0.0596876
0.0612212
0.0626651
0.0640142
0.0652637
0.0664092
0.0674468
0.0683729
0.0691843
0.0698784
0.0704531
0.0709069
0.0712385
0.0714476
0.0715342
0.0714988
0.0713427
0.0710677
0.0706758
0.0701702
0.0695539
0.0688309
0.0680053
0.0670817
0.0660649
0.0649598
0.0637716
0.0625055
0.0611666
0.05976
0.0582901
0.0567603
0.0551732
0.0535416
0.0518764
0.0500329
0.047884
0.0207711
0.0183185
0.0162432
0.014399
0.0126175
0.0109087
0.00928533
0.00774769
0.00629663
0.00493432
0.00366314
0.00248551
0.00140407
0.000421403
-0.000459975
-0.00123766
-0.00190947
-0.00247347
-0.00292804
-0.00327178
-0.0035036
-0.00362272
-0.00362866
-0.00352125
-0.00330066
-0.00296735
-0.00252212
-0.00196614
-0.00130089
-0.000528225
0.000349709
0.00133041
0.0024111
0.00358873
0.00485995
0.00622118
0.00766853
0.00919783
0.0108047
0.0124844
0.0142321
0.0160428
0.0179112
0.0198316
0.0217985
0.0238058
0.0258474
0.0279171
0.0300085
0.032115
0.03423
0.0363468
0.0384587
0.0405588
0.0426403
0.0446962
0.0467197
0.048704
0.0506424
0.0525283
0.0543553
0.0561168
0.0578067
0.059419
0.0609479
0.0623879
0.063734
0.0649811
0.0661249
0.0671613
0.0680866
0.0688974
0.0695909
0.070165
0.0706176
0.0709476
0.0711541
0.0712369
0.0711963
0.071033
0.0707485
0.0703445
0.0698236
0.0691886
0.0684427
0.0675895
0.0666331
0.0655777
0.0644275
0.063187
0.0618609
0.0604536
0.0589696
0.0574126
0.0557853
0.0540898
0.0523395
0.0505455
0.0485502
0.0462155
0.0222142
0.0195761
0.0173496
0.0153776
0.0134784
0.0116626
0.00994323
0.0083201
0.00679332
0.00536433
0.00403487
0.00280667
0.00168157
0.000661489
-0.0002517
-0.00105627
-0.00175066
-0.00233351
-0.00280371
-0.00316039
-0.00340291
-0.0035309
-0.00354427
-0.00344319
-0.00322811
-0.00289979
-0.00245925
-0.00190788
-0.0012473
-0.000479512
0.00039322
0.0013683
0.00244289
0.00361392
0.00487803
0.00623162
0.0076708
0.0091914
0.0107891
0.0124592
0.014197
0.0159974
0.0178553
0.0197651
0.0217212
0.0237177
0.0257487
0.027808
0.0298891
0.0319856
0.0340911
0.036199
0.0383024
0.0403948
0.0424691
0.0445185
0.0465363
0.0485158
0.0504501
0.0523328
0.0541573
0.0559172
0.0576063
0.0592184
0.0607478
0.062189
0.0635367
0.0647859
0.0659321
0.066971
0.0678987
0.0687118
0.0694073
0.0699827
0.0704359
0.0707653
0.0709699
0.0710492
0.0710031
0.070832
0.0705368
0.0701192
0.069581
0.0689248
0.0681532
0.0672694
0.0662768
0.0651791
0.06398
0.0626836
0.0612938
0.0598147
0.0582499
0.056603
0.0548759
0.0530704
0.0512005
0.049278
0.0471324
0.0446152
0.0235543
0.0207342
0.0183585
0.0162596
0.0142429
0.0123196
0.0105031
0.00879277
0.00718822
0.00569027
0.00429998
0.00301851
0.00184708
0.000786952
-0.000160613
-0.000994482
-0.00171366
-0.00231732
-0.00280484
-0.00317583
-0.00343012
-0.00356772
-0.0035889
-0.00349415
-0.00328423
-0.00296018
-0.00252326
-0.00197504
-0.00131732
-0.000552256
0.000317757
0.00129004
0.00236168
0.00352959
0.00479036
0.00614035
0.00757566
0.00909216
0.0106855
0.0123511
0.0140843
0.0158799
0.0177329
0.0196379
0.0215893
0.0235813
0.0256079
0.027663
0.0297403
0.0318335
0.0339362
0.0360416
0.0381433
0.0402345
0.0423082
0.0443579
0.0463765
0.0483576
0.0502943
0.0521799
0.0540081
0.0557723
0.0574662
0.0590837
0.060619
0.0620664
0.0634205
0.0646763
0.065829
0.0668742
0.067808
0.0686265
0.0693267
0.0699057
0.0703613
0.0706917
0.0708955
0.0709719
0.0709203
0.070741
0.0704345
0.0700021
0.0694452
0.0687659
0.0679665
0.0670495
0.0660179
0.064875
0.063624
0.0622685
0.060812
0.059258
0.0576099
0.0558706
0.0540419
0.0521251
0.0501351
0.0480843
0.0457898
0.0430927
0.0247809
0.0217819
0.019259
0.0170341
0.0149003
0.0128691
0.0109547
0.00915601
0.00747209
0.00590332
0.00445022
0.00311338
0.00189345
0.000791156
-0.000192826
-0.00105789
-0.00180357
-0.00242955
-0.00293567
-0.00332199
-0.00358875
-0.00373635
-0.0037654
-0.00367673
-0.00347139
-0.00315068
-0.0027161
-0.0021694
-0.0015126
-0.000748002
0.00012188
0.00109428
0.00216622
0.00333452
0.00459572
0.00594618
0.00738197
0.00889896
0.0104928
0.012159
0.0138927
0.015689
0.0175428
0.0194488
0.0214014
0.0233949
0.0254233
0.0274806
0.0295606
0.0316569
0.0337632
0.0358729
0.0379794
0.040076
0.0421558
0.0442122
0.0462383
0.0482274
0.0501727
0.0520676
0.0539055
0.05568
0.0573846
0.0590132
0.0605597
0.0620184
0.0633838
0.0646508
0.0658144
0.06687
0.0678134
0.0686407
0.0693484
0.0699337
0.0703939
0.070727
0.0709314
0.0710057
0.0709493
0.070762
0.0704439
0.069996
0.0694195
0.0687157
0.0678867
0.0669345
0.0658617
0.0646712
0.0633658
0.0619487
0.0604229
0.0587916
0.0570579
0.0552244
0.0532925
0.0512634
0.0491528
0.0469739
0.0445316
0.0416569
0.0258841
0.0227091
0.0200406
0.0176907
0.0154401
0.013301
0.0112882
0.00940027
0.00763583
0.00599484
0.00447738
0.00308354
0.00181346
0.000667337
-0.000354627
-0.00125233
-0.00202579
-0.00267517
-0.00320078
-0.00360307
-0.00388266
-0.00404033
-0.00407705
-0.00399394
-0.00379235
-0.00347383
-0.0030401
-0.00249315
-0.00183519
-0.00106865
-0.000196187
0.000779344
0.00185487
0.00302712
0.0042926
0.00564762
0.00708826
0.00861035
0.0102095
0.0118813
0.0136208
0.0154232
0.0172834
0.0191962
0.0211559
0.0231569
0.0251934
0.0272591
0.0293481
0.031454
0.0335705
0.0356909
0.0378088
0.0399174
0.0420099
0.0440796
0.0461196
0.0481232
0.0500835
0.0519939
0.0538478
0.0556385
0.0573596
0.0590049
0.0605681
0.0620434
0.0634252
0.0647082
0.0658871
0.0669573
0.0679142
0.0687538
0.0694723
0.0700667
0.070534
0.0708719
0.0710785
0.0711521
0.0710918
0.070897
0.0705676
0.070104
0.0695072
0.068778
0.0679181
0.0669293
0.0658136
0.0645736
0.0632119
0.061731
0.0601339
0.0584233
0.0566021
0.0546727
0.0526364
0.0504942
0.0482625
0.0459555
0.0433663
0.0403158
0.026855
0.0235062
0.0206938
0.0182197
0.0158527
0.0136057
0.0114942
0.00951638
0.00767057
0.00595632
0.00437334
0.00292125
0.00159977
0.000408629
-0.000652452
-0.00158383
-0.00238596
-0.00305946
-0.00360506
-0.00402359
-0.00431605
-0.00448358
-0.00452746
-0.00444914
-0.00425022
-0.00393251
-0.00349799
-0.00294886
-0.00228748
-0.00151645
-0.000638572
0.000343186
0.00142565
0.0026055
0.00387917
0.00524293
0.00669281
0.00822461
0.00983394
0.0115163
0.0132668
0.0150808
0.016953
0.0188783
0.020851
0.0228656
0.0249161
0.0269966
0.0291009
0.0312228
0.0333559
0.0354937
0.0376295
0.0397566
0.0418684
0.043958
0.0460184
0.0480429
0.0500247
0.0519569
0.0538329
0.055646
0.0573896
0.0590573
0.0606428
0.0621401
0.0635435
0.0648474
0.0660464
0.0671355
0.06811
0.0689656
0.0696984
0.070305
0.0707822
0.0711274
0.0713382
0.0714128
0.0713499
0.0711485
0.0708083
0.0703293
0.069712
0.068957
0.0680655
0.0670389
0.0658792
0.0645883
0.0631685
0.0616223
0.0599521
0.0581606
0.0562504
0.0542238
0.0520819
0.0498257
0.0474726
0.0450375
0.0423017
0.0390766
0.027685
0.0241642
0.021209
0.0186116
0.0161286
0.0137738
0.0115634
0.00949534
0.00756756
0.00577933
0.00412998
0.00261878
0.00124503
8.04474e-06
-0.00109291
-0.00205861
-0.00288995
-0.00358791
-0.00415365
-0.00458838
-0.00489345
-0.00507033
-0.00512061
-0.00504602
-0.00484847
-0.00453001
-0.00409285
-0.00353939
-0.00287218
-0.00209399
-0.00120775
-0.00021656
0.00087632
0.00206749
0.00335333
0.00473004
0.00619359
0.00773973
0.00936407
0.011062
0.0128289
0.0146598
0.0165496
0.0184931
0.0204847
0.0225188
0.0245896
0.0266911
0.0288171
0.0309613
0.0331175
0.0352791
0.0374394
0.0395917
0.0417294
0.0438453
0.0459327
0.0479847
0.0499944
0.0519548
0.0538592
0.0557009
0.057473
0.059169
0.0607825
0.0623074
0.0637377
0.0650675
0.0662914
0.067404
0.0684005
0.0692762
0.0700271
0.0706493
0.0711395
0.0714946
0.0717121
0.0717897
0.0717259
0.0715193
0.0711693
0.0706755
0.0700379
0.069257
0.0683335
0.0672687
0.066064
0.0647212
0.0632423
0.0616294
0.0598849
0.0580111
0.0560106
0.0538856
0.0516371
0.0492661
0.0467909
0.0442274
0.0413453
0.0379461
0.0283657
0.0246744
0.0215776
0.0188573
0.0162588
0.0137963
0.0114869
0.00932834
0.0073182
0.0054555
0.00373926
0.00216839
0.00074182
-0.000541522
-0.00168277
-0.0026831
-0.00354381
-0.00426627
-0.00485199
-0.00530256
-0.00561968
-0.0058051
-0.00586074
-0.00578862
-0.00559091
-0.00526991
-0.00482806
-0.00426796
-0.00359236
-0.00280418
-0.00190651
-0.000902552
0.00020433
0.00141065
0.00271271
0.00410663
0.00558832
0.00715349
0.00879774
0.0105164
0.0123049
0.0141581
0.0160711
0.0180385
0.0200549
0.0221146
0.0242117
0.0263404
0.0284944
0.0306674
0.0328531
0.035045
0.0372364
0.0394205
0.0415906
0.0437396
0.0458606
0.0479466
0.0499907
0.0519858
0.053925
0.0558014
0.0576082
0.0593385
0.060986
0.0625441
0.0640068
0.0653679
0.0666218
0.0677628
0.0687858
0.069686
0.0704589
0.0711005
0.0716071
0.0719752
0.0722021
0.0722852
0.0722225
0.0720124
0.0716539
0.0711462
0.0704891
0.0696826
0.0687273
0.067624
0.0663739
0.0649786
0.0634397
0.0617592
0.0599393
0.0579821
0.0558902
0.0536657
0.0513096
0.0488229
0.046225
0.0435326
0.040504
0.0369308
0.0288893
0.0250286
0.0217907
0.0189481
0.0162343
0.0136643
0.0112559
0.00900669
0.00691398
0.00497654
0.00319312
0.00156228
8.26312e-05
-0.00124727
-0.00242892
-0.00346388
-0.00435382
-0.0051005
-0.00570576
-0.00617153
-0.00649983
-0.00669273
-0.00675245
-0.00668127
-0.00648165
-0.0061561
-0.00570731
-0.00513808
-0.00445135
-0.00365022
-0.0027379
-0.00171772
-0.000593139
0.000632247
0.00195465
0.00337011
0.00487447
0.00646342
0.0081325
0.00987706
0.0116923
0.0135734
0.0155151
0.0175122
0.0195592
0.0216505
0.0237802
0.0259422
0.0281305
0.0303387
0.0325605
0.0347893
0.0370183
0.0392409
0.04145
0.0436387
0.0457999
0.0479266
0.0500117
0.0520481
0.0540285
0.0559461
0.0577938
0.0595647
0.0612521
0.0628494
0.0643502
0.0657481
0.0670372
0.0682117
0.0692661
0.0701954
0.0709947
0.0716598
0.0721864
0.072571
0.0728104
0.0729017
0.0728425
0.072631
0.0722657
0.0717456
0.07107
0.0702388
0.069252
0.0681105
0.066815
0.0653668
0.0637674
0.0620186
0.0601224
0.058081
0.0558967
0.0535717
0.0511071
0.0485038
0.0457823
0.0429604
0.0397846
0.0360369
0.029248
0.0252185
0.02184
0.0188753
0.0160464
0.013369
0.0108617
0.00852178
0.00634642
0.00433415
0.00248344
0.000792599
-0.000740141
-0.00211654
-0.00333844
-0.00440775
-0.00532651
-0.00609682
-0.00672088
-0.00720093
-0.00753929
-0.00773835
-0.0078006
-0.00772861
-0.00752508
-0.00719278
-0.0067346
-0.00615357
-0.00545282
-0.00463561
-0.00370527
-0.00266527
-0.00151919
-0.00027073
0.00107622
0.00251763
0.00404929
0.00566681
0.00736569
0.00914125
0.0109887
0.012903
0.0148791
0.0169117
0.0189953
0.0211241
0.0232924
0.0254941
0.0277231
0.029973
0.0322373
0.0345096
0.0367829
0.0390506
0.0413055
0.0435406
0.0457488
0.0479229
0.0500557
0.0521398
0.0541682
0.0561335
0.0580285
0.0598463
0.0615799
0.0632224
0.0647672
0.0662077
0.0675376
0.068751
0.069842
0.0708052
0.0716356
0.0723283
0.0728791
0.073284
0.0735393
0.0736419
0.0735891
0.0733786
0.0730086
0.0724779
0.0717853
0.0709305
0.0699132
0.0687339
0.0673932
0.0658922
0.0642321
0.0624146
0.0604416
0.0583151
0.0560376
0.0536112
0.051037
0.0483162
0.0454701
0.0425177
0.0391938
0.0352704
0.0294338
0.0252359
0.0217171
0.0186305
0.0156866
0.0129018
0.0102956
0.00786503
0.00560706
0.00352001
0.0016021
-0.00014862
-0.00173423
-0.00315682
-0.00441855
-0.00552169
-0.00646858
-0.00726169
-0.00790353
-0.00839666
-0.00874371
-0.00894736
-0.00901036
-0.00893556
-0.00872591
-0.00838442
-0.00791423
-0.00731855
-0.0066007
-0.00576409
-0.00481223
-0.00374869
-0.00257719
-0.00130155
7.42586e-05
0.00154612
0.00310975
0.00476071
0.00649442
0.00830618
0.0101911
0.0121443
0.0141605
0.0162343
0.0183604
0.0205329
0.022746
0.0249937
0.0272696
0.0295676
0.0318811
0.0342035
0.0365278
0.0388472
0.0411547
0.043443
0.045705
0.0479333
0.0501205
0.0522593
0.0543423
0.056362
0.0583111
0.0601823
0.0619684
0.0636624
0.0652573
0.0667464
0.068123
0.0693809
0.0705139
0.0715162
0.0723826
0.0731078
0.0736871
0.0741163
0.0743914
0.0745089
0.0744656
0.074259
0.0738869
0.0733476
0.07264
0.0717631
0.0707165
0.0695003
0.068115
0.0665614
0.0648406
0.0629542
0.060904
0.0586919
0.0563204
0.0537918
0.051107
0.0482675
0.0452957
0.0422116
0.0387382
0.0346376
0.0294393
0.0250727
0.0214135
0.018205
0.0151461
0.0122541
0.00954894
0.00702782
0.00468737
0.00252571
0.000540846
-0.00126945
-0.00290752
-0.00437577
-0.00567669
-0.00681286
-0.00778697
-0.00860178
-0.00926013
-0.0097649
-0.010119
-0.0103254
-0.0103871
-0.0103073
-0.0100891
-0.0097358
-0.00925074
-0.00863738
-0.00789917
-0.00703971
-0.00606266
-0.00497174
-0.00377078
-0.00246372
-0.00105464
0.000452258
0.00205262
0.00374194
0.0055156
0.00736882
0.00929672
0.0112943
0.0133562
0.0154772
0.0176517
0.019874
0.0221381
0.0244381
0.0267675
0.0291201
0.0314894
0.0338684
0.0362505
0.0386285
0.0409954
0.0433438
0.0456665
0.0479559
0.0502045
0.0524049
0.0545493
0.0566302
0.0586402
0.0605715
0.0624168
0.0641688
0.0658203
0.0673642
0.0687936
0.0701019
0.0712826
0.0723296
0.0732372
0.0739999
0.0746126
0.0750706
0.0753697
0.0755058
0.0754756
0.0752761