/*--------------------------------*- C++ -*----------------------------------*\
| =========                 |                                                 |
| \\      /  F ield         | OpenFOAM: The Open Source CFD Toolbox           |
|  \\    /   O peration     | Version:  2212                                  |
|   \\  /    A nd           | Website:  www.openfoam.com                      |
|    \\/     M anipulation  |                                                 |
\*---------------------------------------------------------------------------*/
FoamFile
{
    version     2.0;
    format      ascii;
    arch        "LSB;label=32;scalar=64";
    class       volVectorField;
    location    "0.093";
    object      U;
}
// * * * * * * * * * * * * * * * * * * * * * * * * * * * * * * * * * * * * * //

dimensions      [0 1 -1 0 0 0 0];

internalField   nonuniform List<vector> 
10000
(
(3.01206e-06 -3.00949e-06 0)
(1.49908e-05 -7.75454e-06 0)
(3.40881e-05 -8.96132e-06 0)
(5.20683e-05 -7.73618e-06 0)
(6.38832e-05 -5.22298e-06 0)
(6.70868e-05 -2.0819e-06 0)
(6.04068e-05 1.31971e-06 0)
(4.32611e-05 4.77351e-06 0)
(1.55259e-05 8.16135e-06 0)
(-2.26293e-05 1.14162e-05 0)
(-7.08423e-05 1.4498e-05 0)
(-0.000128626 1.73822e-05 0)
(-0.00019541 2.00561e-05 0)
(-0.000270571 2.25135e-05 0)
(-0.000353447 2.47513e-05 0)
(-0.000443356 2.67685e-05 0)
(-0.000539605 2.85665e-05 0)
(-0.000641497 3.01482e-05 0)
(-0.000748338 3.15178e-05 0)
(-0.000859441 3.26798e-05 0)
(-0.000974127 3.36393e-05 0)
(-0.00109173 3.44022e-05 0)
(-0.00121161 3.49746e-05 0)
(-0.00133312 3.53627e-05 0)
(-0.00145565 3.55725e-05 0)
(-0.0015786 3.56096e-05 0)
(-0.0017014 3.54802e-05 0)
(-0.00182348 3.51912e-05 0)
(-0.00194431 3.4749e-05 0)
(-0.00206337 3.41599e-05 0)
(-0.00218017 3.34304e-05 0)
(-0.00229422 3.25667e-05 0)
(-0.00240508 3.15756e-05 0)
(-0.00251232 3.04633e-05 0)
(-0.00261551 2.92359e-05 0)
(-0.00271428 2.79e-05 0)
(-0.00280826 2.64617e-05 0)
(-0.0028971 2.49278e-05 0)
(-0.00298048 2.33044e-05 0)
(-0.0030581 2.15973e-05 0)
(-0.00312967 1.98138e-05 0)
(-0.00319495 1.796e-05 0)
(-0.00325369 1.60416e-05 0)
(-0.00330569 1.40654e-05 0)
(-0.00335075 1.20377e-05 0)
(-0.00338871 9.96506e-06 0)
(-0.00341943 7.8553e-06 0)
(-0.00344279 5.71454e-06 0)
(-0.00345869 3.54897e-06 0)
(-0.00346707 1.36617e-06 0)
(-0.00346787 -8.27015e-07 0)
(-0.00346108 -3.02383e-06 0)
(-0.0034467 -5.2162e-06 0)
(-0.00342476 -7.39643e-06 0)
(-0.00339531 -9.55759e-06 0)
(-0.00335845 -1.16918e-05 0)
(-0.00331428 -1.37908e-05 0)
(-0.00326294 -1.58471e-05 0)
(-0.00320459 -1.78526e-05 0)
(-0.00313943 -1.97988e-05 0)
(-0.00306768 -2.16778e-05 0)
(-0.00298959 -2.34819e-05 0)
(-0.00290543 -2.52025e-05 0)
(-0.00281552 -2.68309e-05 0)
(-0.00272018 -2.83593e-05 0)
(-0.00261977 -2.97797e-05 0)
(-0.00251469 -3.10838e-05 0)
(-0.00240535 -3.22634e-05 0)
(-0.00229219 -3.33109e-05 0)
(-0.00217569 -3.42182e-05 0)
(-0.00205634 -3.4977e-05 0)
(-0.00193467 -3.55799e-05 0)
(-0.00181121 -3.60199e-05 0)
(-0.00168654 -3.62903e-05 0)
(-0.00156125 -3.63843e-05 0)
(-0.00143594 -3.62956e-05 0)
(-0.00131125 -3.60183e-05 0)
(-0.00118782 -3.5547e-05 0)
(-0.00106632 -3.48766e-05 0)
(-0.000947419 -3.40026e-05 0)
(-0.000831801 -3.29215e-05 0)
(-0.000720162 -3.16302e-05 0)
(-0.000613199 -3.0126e-05 0)
(-0.000511612 -2.84066e-05 0)
(-0.000416096 -2.64716e-05 0)
(-0.000327338 -2.43219e-05 0)
(-0.000246013 -2.19602e-05 0)
(-0.000172768 -1.93906e-05 0)
(-0.000108219 -1.662e-05 0)
(-5.29315e-05 -1.36599e-05 0)
(-7.4046e-06 -1.0529e-05 0)
(2.79612e-05 -7.25585e-06 0)
(5.29043e-05 -3.88476e-06 0)
(6.7366e-05 -4.88895e-07 0)
(7.15933e-05 2.80777e-06 0)
(6.63001e-05 5.79268e-06 0)
(5.2893e-05 8.0989e-06 0)
(3.39366e-05 9.07551e-06 0)
(1.45281e-05 7.62346e-06 0)
(2.78537e-06 2.78574e-06 0)
(7.75223e-06 -1.49778e-05 0)
(3.14645e-05 -3.14492e-05 0)
(6.33101e-05 -3.36312e-05 0)
(8.88469e-05 -2.57177e-05 0)
(9.85003e-05 -1.15763e-05 0)
(8.67305e-05 6.16877e-06 0)
(5.01297e-05 2.5804e-05 0)
(-1.31842e-05 4.62072e-05 0)
(-0.000103955 6.66441e-05 0)
(-0.000222112 8.66307e-05 0)
(-0.000367016 0.000105842 0)
(-0.00053762 0.000124058 0)
(-0.000732589 0.000141131 0)
(-0.000950389 0.000156963 0)
(-0.00118934 0.000171492 0)
(-0.00144767 0.000184681 0)
(-0.00172355 0.00019651 0)
(-0.00201511 0.000206974 0)
(-0.00232046 0.000216079 0)
(-0.00263773 0.000223841 0)
(-0.00296506 0.000230278 0)
(-0.00330058 0.000235418 0)
(-0.00364251 0.00023929 0)
(-0.00398905 0.000241927 0)
(-0.00433849 0.000243363 0)
(-0.00468913 0.000243636 0)
(-0.00503934 0.000242781 0)
(-0.00538753 0.00024084 0)
(-0.00573218 0.000237852 0)
(-0.0060718 0.000233858 0)
(-0.006405 0.000228901 0)
(-0.0067304 0.000223022 0)
(-0.00704672 0.000216264 0)
(-0.00735271 0.00020867 0)
(-0.0076472 0.000200281 0)
(-0.00792906 0.000191142 0)
(-0.00819726 0.000181296 0)
(-0.0084508 0.000170785 0)
(-0.00868874 0.000159655 0)
(-0.00891022 0.000147948 0)
(-0.00911445 0.000135708 0)
(-0.00930068 0.00012298 0)
(-0.00946825 0.00010981 0)
(-0.00961653 9.62402e-05 0)
(-0.00974501 8.23186e-05 0)
(-0.00985319 6.80907e-05 0)
(-0.00994067 5.36037e-05 0)
(-0.0100071 3.89052e-05 0)
(-0.0100523 2.40429e-05 0)
(-0.0100759 9.06563e-06 0)
(-0.0100779 -5.97755e-06 0)
(-0.0100582 -2.10366e-05 0)
(-0.0100169 -3.606e-05 0)
(-0.00995398 -5.09956e-05 0)
(-0.00986967 -6.57915e-05 0)
(-0.0097642 -8.03942e-05 0)
(-0.00963789 -9.47493e-05 0)
(-0.00949115 -0.000108803 0)
(-0.00932445 -0.0001225 0)
(-0.00913835 -0.000135786 0)
(-0.00893349 -0.000148603 0)
(-0.00871058 -0.000160898 0)
(-0.00847044 -0.000172614 0)
(-0.00821392 -0.000183695 0)
(-0.00794199 -0.000194086 0)
(-0.00765568 -0.000203731 0)
(-0.00735611 -0.000212578 0)
(-0.00704446 -0.000220571 0)
(-0.00672201 -0.000227658 0)
(-0.00639009 -0.000233786 0)
(-0.00605011 -0.000238906 0)
(-0.00570355 -0.000242968 0)
(-0.00535196 -0.000245928 0)
(-0.00499694 -0.00024774 0)
(-0.00464016 -0.000248363 0)
(-0.00428334 -0.000247761 0)
(-0.00392825 -0.000245896 0)
(-0.0035767 -0.000242739 0)
(-0.00323054 -0.000238261 0)
(-0.00289166 -0.000232441 0)
(-0.00256195 -0.000225261 0)
(-0.00224332 -0.00021671 0)
(-0.00193771 -0.000206784 0)
(-0.001647 -0.000195488 0)
(-0.0013731 -0.000182834 0)
(-0.00111783 -0.000168851 0)
(-0.000882977 -0.00015358 0)
(-0.000670217 -0.000137083 0)
(-0.000481107 -0.000119448 0)
(-0.00031703 -0.000100798 0)
(-0.000179128 -8.1306e-05 0)
(-6.82287e-05 -6.1218e-05 0)
(1.52768e-05 -4.08824e-05 0)
(7.15918e-05 -2.08063e-05 0)
(0.000101749 -1.74016e-06 0)
(0.000107929 1.51907e-05 0)
(9.3818e-05 2.82926e-05 0)
(6.5171e-05 3.50109e-05 0)
(3.1658e-05 3.16563e-05 0)
(7.61443e-06 1.45159e-05 0)
(8.98358e-06 -3.4093e-05 0)
(3.37787e-05 -6.333e-05 0)
(6.22222e-05 -6.19447e-05 0)
(7.7047e-05 -3.87845e-05 0)
(6.66985e-05 -1.07804e-06 0)
(2.39918e-05 4.57739e-05 0)
(-5.58248e-05 9.78864e-05 0)
(-0.000175589 0.00015251 0)
(-0.000336603 0.000207711 0)
(-0.000539007 0.000262129 0)
(-0.000782073 0.000314801 0)
(-0.00106443 0.000365047 0)
(-0.00138421 0.000412384 0)
(-0.00173922 0.000456477 0)
(-0.002127 0.000497095 0)
(-0.00254489 0.000534088 0)
(-0.00299014 0.000567363 0)
(-0.00345989 0.000596875 0)
(-0.00395124 0.000622614 0)
(-0.00446129 0.000644598 0)
(-0.00498713 0.000662865 0)
(-0.00552588 0.000677471 0)
(-0.0060747 0.000688488 0)
(-0.00663077 0.000695996 0)
(-0.00719138 0.000700085 0)
(-0.00775384 0.000700852 0)
(-0.00831556 0.000698399 0)
(-0.00887401 0.000692832 0)
(-0.00942676 0.000684262 0)
(-0.00997145 0.000672804 0)
(-0.0105058 0.000658573 0)
(-0.0110277 0.000641689 0)
(-0.011535 0.00062227 0)
(-0.0120258 0.000600439 0)
(-0.0124981 0.000576316 0)
(-0.0129501 0.000550026 0)
(-0.0133802 0.000521693 0)
(-0.0137868 0.000491441 0)
(-0.0141684 0.000459396 0)
(-0.0145236 0.000425685 0)
(-0.0148511 0.000390437 0)
(-0.0151496 0.000353778 0)
(-0.0154182 0.000315841 0)
(-0.0156559 0.000276755 0)
(-0.0158618 0.000236654 0)
(-0.0160351 0.000195673 0)
(-0.0161751 0.000153947 0)
(-0.0162814 0.000111615 0)
(-0.0163535 6.88151e-05 0)
(-0.0163912 2.56899e-05 0)
(-0.0163941 -1.76174e-05 0)
(-0.0163622 -6.09617e-05 0)
(-0.0162956 -0.000104195 0)
(-0.0161944 -0.000147167 0)
(-0.0160588 -0.000189727 0)
(-0.0158894 -0.00023172 0)
(-0.0156866 -0.000272992 0)
(-0.015451 -0.000313385 0)
(-0.0151835 -0.000352743 0)
(-0.0148849 -0.000390907 0)
(-0.0145562 -0.000427716 0)
(-0.0141987 -0.000463011 0)
(-0.0138136 -0.000496633 0)
(-0.0134024 -0.000528422 0)
(-0.0129664 -0.000558219 0)
(-0.0125075 -0.000585869 0)
(-0.0120274 -0.000611217 0)
(-0.011528 -0.00063411 0)
(-0.0110113 -0.000654399 0)
(-0.0104795 -0.000671938 0)
(-0.0099348 -0.000686586 0)
(-0.00937959 -0.000698209 0)
(-0.00881631 -0.000706677 0)
(-0.00824753 -0.000711871 0)
(-0.00767589 -0.000713677 0)
(-0.00710411 -0.000711991 0)
(-0.00653499 -0.000706721 0)
(-0.0059714 -0.000697783 0)
(-0.00541625 -0.000685112 0)
(-0.00487248 -0.000668653 0)
(-0.00434309 -0.000648369 0)
(-0.00383106 -0.000624244 0)
(-0.00333937 -0.000596284 0)
(-0.00287097 -0.000564522 0)
(-0.00242875 -0.000529023 0)
(-0.00201552 -0.000489892 0)
(-0.00163396 -0.000447283 0)
(-0.00128657 -0.000401413 0)
(-0.000975634 -0.000352577 0)
(-0.000703125 -0.000301177 0)
(-0.000470619 -0.00024776 0)
(-0.000279169 -0.000193071 0)
(-0.000129143 -0.000138127 0)
(-2.00129e-05 -8.43332e-05 0)
(4.99301e-05 -3.36474e-05 0)
(8.39296e-05 1.11921e-05 0)
(8.71047e-05 4.63696e-05 0)
(6.69214e-05 6.66591e-05 0)
(3.51284e-05 6.51943e-05 0)
(9.08326e-06 3.39228e-05 0)
(7.82898e-06 -5.22102e-05 0)
(2.61768e-05 -8.9142e-05 0)
(3.97487e-05 -7.69129e-05 0)
(3.094e-05 -2.97244e-05 0)
(-1.23708e-05 4.16226e-05 0)
(-9.81144e-05 0.000128789 0)
(-0.000231715 0.000225485 0)
(-0.000416536 0.000327063 0)
(-0.000654227 0.000430103 0)
(-0.000945075 0.000532099 0)
(-0.0012883 0.000631215 0)
(-0.00168231 0.000726108 0)
(-0.00212487 0.0008158 0)
(-0.00261325 0.000899586 0)
(-0.00314438 0.000976964 0)
(-0.0037149 0.00104759 0)
(-0.00432127 0.00111125 0)
(-0.00495983 0.00116779 0)
(-0.0056268 0.00121718 0)
(-0.0063184 0.00125941 0)
(-0.00703081 0.00129454 0)
(-0.00776023 0.00132263 0)
(-0.00850289 0.00134382 0)
(-0.00925509 0.00135825 0)
(-0.0100132 0.00136606 0)
(-0.0107736 0.00136744 0)
(-0.0115329 0.00136258 0)
(-0.0122877 0.00135168 0)
(-0.0130347 0.00133493 0)
(-0.0137707 0.00131257 0)
(-0.0144927 0.0012848 0)
(-0.0151979 0.00125187 0)
(-0.0158833 0.00121399 0)
(-0.0165463 0.00117139 0)
(-0.0171844 0.00112433 0)
(-0.017795 0.00107303 0)
(-0.0183761 0.00101774 0)
(-0.0189253 0.000958697 0)
(-0.0194407 0.000896152 0)
(-0.0199204 0.00083035 0)
(-0.0203626 0.000761542 0)
(-0.0207658 0.00068998 0)
(-0.0211285 0.000615919 0)
(-0.0214493 0.000539617 0)
(-0.0217272 0.000461336 0)
(-0.021961 0.000381338 0)
(-0.0221499 0.00029989 0)
(-0.0222932 0.000217263 0)
(-0.0223903 0.000133732 0)
(-0.0224407 4.95729e-05 0)
(-0.0224443 -3.4932e-05 0)
(-0.0224009 -0.000119498 0)
(-0.0223105 -0.000203835 0)
(-0.0221735 -0.000287652 0)
(-0.0219901 -0.00037065 0)
(-0.0217609 -0.000452531 0)
(-0.0214867 -0.000532992 0)
(-0.0211682 -0.000611728 0)
(-0.0208067 -0.000688431 0)
(-0.0204032 -0.000762793 0)
(-0.0199592 -0.000834502 0)
(-0.0194763 -0.00090325 0)
(-0.0189562 -0.000968725 0)
(-0.0184008 -0.00103062 0)
(-0.0178121 -0.00108863 0)
(-0.0171925 -0.00114244 0)
(-0.0165443 -0.00119177 0)
(-0.01587 -0.00123632 0)
(-0.0151725 -0.0012758 0)
(-0.0144545 -0.00130993 0)
(-0.0137192 -0.00133844 0)
(-0.0129696 -0.00136108 0)
(-0.0122091 -0.0013776 0)
(-0.0114411 -0.00138778 0)
(-0.0106691 -0.00139141 0)
(-0.00989677 -0.00138828 0)
(-0.00912779 -0.00137823 0)
(-0.008366 -0.00136112 0)
(-0.00761525 -0.00133683 0)
(-0.00687946 -0.00130526 0)
(-0.00616256 -0.00126636 0)
(-0.00546848 -0.00122013 0)
(-0.00480113 -0.00116659 0)
(-0.00416434 -0.00110585 0)
(-0.00356188 -0.00103805 0)
(-0.00299737 -0.00096345 0)
(-0.00247423 -0.000882372 0)
(-0.00199563 -0.000795285 0)
(-0.00156443 -0.000702809 0)
(-0.00118305 -0.000605771 0)
(-0.000853392 -0.000505262 0)
(-0.000576646 -0.000402735 0)
(-0.000353148 -0.000300116 0)
(-0.000182138 -0.00019998 0)
(-6.1477e-05 -0.000105774 0)
(1.26873e-05 -2.21186e-05 0)
(4.62226e-05 4.4827e-05 0)
(4.7419e-05 8.70017e-05 0)
(2.87381e-05 9.41239e-05 0)
(8.16925e-06 5.29856e-05 0)
(5.42157e-06 -6.43758e-05 0)
(1.24917e-05 -9.94909e-05 0)
(3.02029e-06 -6.7196e-05 0)
(-3.88914e-05 1.33336e-05 0)
(-0.000124852 0.000127843 0)
(-0.000262909 0.000265145 0)
(-0.00045864 0.000416573 0)
(-0.000715556 0.000575519 0)
(-0.00103541 0.000736972 0)
(-0.00141851 0.000897147 0)
(-0.001864 0.00105319 0)
(-0.00237006 0.00120295 0)
(-0.00293416 0.00134484 0)
(-0.00355314 0.00147767 0)
(-0.00422343 0.00160058 0)
(-0.00494109 0.00171296 0)
(-0.00570192 0.00181439 0)
(-0.00650156 0.00190461 0)
(-0.0073355 0.00198349 0)
(-0.00819918 0.00205098 0)
(-0.00908799 0.00210713 0)
(-0.00999732 0.00215205 0)
(-0.0109226 0.00218589 0)
(-0.0118593 0.00220886 0)
(-0.012803 0.00222119 0)
(-0.0137492 0.00222315 0)
(-0.0146939 0.00221502 0)
(-0.0156327 0.00219713 0)
(-0.0165616 0.0021698 0)
(-0.0174768 0.00213336 0)
(-0.0183745 0.00208816 0)
(-0.0192511 0.00203458 0)
(-0.0201031 0.00197297 0)
(-0.0209272 0.00190371 0)
(-0.0217203 0.00182718 0)
(-0.0224792 0.00174377 0)
(-0.0232013 0.00165387 0)
(-0.0238838 0.00155787 0)
(-0.0245242 0.00145617 0)
(-0.0251201 0.00134918 0)
(-0.0256695 0.00123729 0)
(-0.0261704 0.00112094 0)
(-0.0266208 0.00100051 0)
(-0.0270193 0.000876454 0)
(-0.0273642 0.000749177 0)
(-0.0276545 0.000619115 0)
(-0.0278889 0.000486705 0)
(-0.0280666 0.000352386 0)
(-0.0281868 0.000216605 0)
(-0.0282491 7.98173e-05 0)
(-0.0282532 -5.75206e-05 0)
(-0.0281989 -0.000194943 0)
(-0.0280863 -0.000331979 0)
(-0.0279156 -0.000468152 0)
(-0.0276874 -0.000602981 0)
(-0.0274024 -0.000735979 0)
(-0.0270614 -0.000866652 0)
(-0.0266655 -0.000994508 0)
(-0.0262161 -0.00111905 0)
(-0.0257147 -0.00123977 0)
(-0.025163 -0.00135617 0)
(-0.0245629 -0.00146775 0)
(-0.0239167 -0.00157401 0)
(-0.0232267 -0.00167444 0)
(-0.0224954 -0.00176856 0)
(-0.0217257 -0.00185588 0)
(-0.0209205 -0.00193592 0)
(-0.020083 -0.0020082 0)
(-0.0192165 -0.00207227 0)
(-0.0183246 -0.00212768 0)
(-0.0174111 -0.00217401 0)
(-0.0164798 -0.00221084 0)
(-0.0155348 -0.0022378 0)
(-0.0145803 -0.00225452 0)
(-0.0136206 -0.00226066 0)
(-0.0126602 -0.00225594 0)
(-0.0117037 -0.0022401 0)
(-0.0107556 -0.0022129 0)
(-0.00982078 -0.00217417 0)
(-0.00890392 -0.00212381 0)
(-0.00800982 -0.00206175 0)
(-0.00714322 -0.00198799 0)
(-0.00630885 -0.00190263 0)
(-0.00551133 -0.00180585 0)
(-0.00475515 -0.00169795 0)
(-0.00404462 -0.00157936 0)
(-0.0033838 -0.00145067 0)
(-0.00277643 -0.00131268 0)
(-0.00222582 -0.00116644 0)
(-0.00173477 -0.0010133 0)
(-0.00130545 -0.000855047 0)
(-0.000939184 -0.000693973 0)
(-0.000636349 -0.000533066 0)
(-0.00039609 -0.000376207 0)
(-0.000216096 -0.000228442 0)
(-9.22941e-05 -9.63287e-05 0)
(-1.85826e-05 1.16421e-05 0)
(1.35364e-05 8.46421e-05 0)
(1.61877e-05 0.000109036 0)
(5.97541e-06 6.6732e-05 0)
(2.41104e-06 -6.82118e-05 0)
(-4.72515e-06 -8.89354e-05 0)
(-4.27559e-05 -2.56924e-05 0)
(-0.000124477 9.8281e-05 0)
(-0.000260176 0.000265636 0)
(-0.000457516 0.000462562 0)
(-0.000721824 0.000678142 0)
(-0.00105643 0.000903858 0)
(-0.00146296 0.00113309 0)
(-0.0019416 0.00136073 0)
(-0.0024913 0.00158282 0)
(-0.00311004 0.00179632 0)
(-0.00379496 0.00199894 0)
(-0.00454255 0.00218892 0)
(-0.00534879 0.00236497 0)
(-0.00620923 0.00252614 0)
(-0.00711913 0.00267178 0)
(-0.00807351 0.00280144 0)
(-0.00906722 0.00291486 0)
(-0.010095 0.00301196 0)
(-0.0111516 0.00309273 0)
(-0.0122317 0.0031573 0)
(-0.0133299 0.00320586 0)
(-0.0144411 0.00323867 0)
(-0.01556 0.00325606 0)
(-0.0166816 0.00325838 0)
(-0.0178008 0.00324604 0)
(-0.0189128 0.00321948 0)
(-0.0200129 0.00317915 0)
(-0.0210966 0.00312554 0)
(-0.0221593 0.00305915 0)
(-0.0231969 0.0029805 0)
(-0.0242053 0.00289012 0)
(-0.0251805 0.00278856 0)
(-0.0261189 0.00267636 0)
(-0.0270169 0.00255409 0)
(-0.0278712 0.00242231 0)
(-0.0286785 0.00228161 0)
(-0.029436 0.00213256 0)
(-0.0301409 0.00197576 0)
(-0.0307907 0.0018118 0)
(-0.0313829 0.00164128 0)
(-0.0319155 0.00146483 0)
(-0.0323865 0.00128304 0)
(-0.0327943 0.00109655 0)
(-0.0331373 0.000905991 0)
(-0.0334142 0.000712 0)
(-0.033624 0.000515227 0)
(-0.0337659 0.000316328 0)
(-0.0338393 0.000115967 0)
(-0.0338437 -8.51814e-05 0)
(-0.0337791 -0.000286436 0)
(-0.0336456 -0.000487108 0)
(-0.0334434 -0.000686496 0)
(-0.0331733 -0.000883897 0)
(-0.0328359 -0.0010786 0)
(-0.0324323 -0.00126988 0)
(-0.0319639 -0.00145701 0)
(-0.0314322 -0.00163928 0)
(-0.0308391 -0.00181594 0)
(-0.0301865 -0.00198627 0)
(-0.0294768 -0.00214953 0)
(-0.0287125 -0.002305 0)
(-0.0278964 -0.00245195 0)
(-0.0270316 -0.00258966 0)
(-0.0261212 -0.00271742 0)
(-0.0251689 -0.00283455 0)
(-0.0241784 -0.00294035 0)
(-0.0231535 -0.00303416 0)
(-0.0220986 -0.00311535 0)
(-0.0210178 -0.0031833 0)
(-0.0199159 -0.00323743 0)
(-0.0187975 -0.00327717 0)
(-0.0176677 -0.00330204 0)
(-0.0165313 -0.00331155 0)
(-0.0153937 -0.00330528 0)
(-0.0142602 -0.00328289 0)
(-0.0131362 -0.00324406 0)
(-0.0120271 -0.00318857 0)
(-0.0109385 -0.00311628 0)
(-0.00987583 -0.00302712 0)
(-0.00884469 -0.00292115 0)
(-0.00785045 -0.00279854 0)
(-0.00689844 -0.00265961 0)
(-0.00599378 -0.00250482 0)
(-0.00514138 -0.00233485 0)
(-0.00434586 -0.00215062 0)
(-0.00361142 -0.00195332 0)
(-0.0029418 -0.00174451 0)
(-0.00234015 -0.00152619 0)
(-0.00180887 -0.00130089 0)
(-0.00134951 -0.00107186 0)
(-0.000962533 -0.000843225 0)
(-0.000647174 -0.000620234 0)
(-0.000401183 -0.000409547 0)
(-0.000220597 -0.000219624 0)
(-9.94803e-05 -6.11759e-05 0)
(-2.96109e-05 5.23926e-05 0)
(-5.36109e-09 0.000104403 0)
(3.14704e-06 7.27152e-05 0)
(-8.53306e-07 -6.24667e-05 0)
(-2.38519e-05 -5.40559e-05 0)
(-9.39403e-05 5.24417e-05 0)
(-0.000219999 0.000230735 0)
(-0.000410425 0.00046089 0)
(-0.000672124 0.000726791 0)
(-0.00100984 0.00101548 0)
(-0.00142644 0.00131664 0)
(-0.00192322 0.00162211 0)
(-0.00250007 0.00192545 0)
(-0.00315569 0.00222158 0)
(-0.00388776 0.00250655 0)
(-0.0046931 0.00277729 0)
(-0.00556784 0.00303142 0)
(-0.00650754 0.00326717 0)
(-0.00750732 0.0034832 0)
(-0.00856192 0.00367855 0)
(-0.00966583 0.00385258 0)
(-0.0108133 0.00400488 0)
(-0.0119986 0.00413525 0)
(-0.0132157 0.00424366 0)
(-0.0144588 0.00433021 0)
(-0.0157217 0.00439514 0)
(-0.0169987 0.00443877 0)
(-0.0182839 0.00446148 0)
(-0.0195716 0.00446376 0)
(-0.0208561 0.00444612 0)
(-0.0221319 0.00440913 0)
(-0.0233938 0.00435341 0)
(-0.0246364 0.00427959 0)
(-0.0258548 0.00418836 0)
(-0.0270442 0.0040804 0)
(-0.0281999 0.00395643 0)
(-0.0293174 0.00381718 0)
(-0.0303926 0.00366341 0)
(-0.0314214 0.00349587 0)
(-0.0324 0.00331534 0)
(-0.0333247 0.0031226 0)
(-0.0341923 0.00291846 0)
(-0.0349995 0.00270372 0)
(-0.0357436 0.00247919 0)
(-0.0364216 0.0022457 0)
(-0.0370314 0.00200408 0)
(-0.0375706 0.00175518 0)
(-0.0380373 0.00149986 0)
(-0.0384297 0.00123898 0)
(-0.0387466 0.000973427 0)
(-0.0389865 0.000704079 0)
(-0.0391487 0.000431839 0)
(-0.0392324 0.000157619 0)
(-0.0392372 -0.00011766 0)
(-0.0391629 -0.000393063 0)
(-0.0390097 -0.000667646 0)
(-0.038778 -0.000940453 0)
(-0.0384683 -0.00121052 0)
(-0.0380818 -0.00147687 0)
(-0.0376195 -0.00173853 0)
(-0.037083 -0.0019945 0)
(-0.0364741 -0.00224379 0)
(-0.0357949 -0.00248541 0)
(-0.0350476 -0.00271836 0)
(-0.0342349 -0.00294164 0)
(-0.0333597 -0.00315426 0)
(-0.0324252 -0.00335523 0)
(-0.0314348 -0.00354359 0)
(-0.0303923 -0.00371838 0)
(-0.0293017 -0.00387864 0)
(-0.0281672 -0.00402346 0)
(-0.0269933 -0.00415195 0)
(-0.0257847 -0.00426323 0)
(-0.0245464 -0.0043565 0)
(-0.0232835 -0.00443096 0)
(-0.0220016 -0.00448587 0)
(-0.020706 -0.00452057 0)
(-0.0194026 -0.00453442 0)
(-0.0180971 -0.00452689 0)
(-0.0167958 -0.0044975 0)
(-0.0155045 -0.00444588 0)
(-0.0142295 -0.00437174 0)
(-0.0129769 -0.00427492 0)
(-0.011753 -0.00415538 0)
(-0.010564 -0.00401323 0)
(-0.00941577 -0.00384875 0)
(-0.00831434 -0.00366241 0)
(-0.0072654 -0.0034549 0)
(-0.0062744 -0.00322719 0)
(-0.00534642 -0.00298056 0)
(-0.00448613 -0.00271667 0)
(-0.00369765 -0.00243765 0)
(-0.00298447 -0.00214618 0)
(-0.00234928 -0.00184565 0)
(-0.00179386 -0.00154029 0)
(-0.00131894 -0.00123538 0)
(-0.00092396 -0.000937545 0)
(-0.000606957 -0.000655014 0)
(-0.000364345 -0.000398043 0)
(-0.000190683 -0.000179379 0)
(-7.83988e-05 -1.47145e-05 0)
(-1.82179e-05 7.66914e-05 0)
(3.887e-08 6.9617e-05 0)
(-4.18128e-06 -4.6526e-05 0)
(-4.38723e-05 7.17786e-06 0)
(-0.000148064 0.000170337 0)
(-0.000321327 0.00041452 0)
(-0.000569823 0.000717751 0)
(-0.000899411 0.00106198 0)
(-0.00131399 0.00143246 0)
(-0.00181577 0.00181725 0)
(-0.00240551 0.00220675 0)
(-0.00308268 0.00259323 0)
(-0.00384559 0.00297053 0)
(-0.00469156 0.00333375 0)
(-0.00561706 0.00367905 0)
(-0.00661784 0.0040034 0)
(-0.00768906 0.00430448 0)
(-0.0088254 0.00458055 0)
(-0.0100212 0.00483032 0)
(-0.0112703 0.00505289 0)
(-0.0125667 0.00524768 0)
(-0.0139039 0.00541438 0)
(-0.0152754 0.00555289 0)
(-0.0166748 0.00566329 0)
(-0.0180954 0.00574584 0)
(-0.0195308 0.0058009 0)
(-0.0209747 0.00582895 0)
(-0.0224205 0.00583057 0)
(-0.0238622 0.0058064 0)
(-0.0252936 0.00575716 0)
(-0.0267089 0.00568363 0)
(-0.0281023 0.00558661 0)
(-0.0294681 0.00546696 0)
(-0.0308012 0.00532558 0)
(-0.0320962 0.00516338 0)
(-0.0333483 0.00498131 0)
(-0.0345527 0.00478034 0)
(-0.035705 0.00456144 0)
(-0.0368009 0.00432564 0)
(-0.0378365 0.00407394 0)
(-0.0388079 0.00380738 0)
(-0.0397116 0.00352702 0)
(-0.0405445 0.00323391 0)
(-0.0413035 0.00292912 0)
(-0.0419859 0.00261376 0)
(-0.0425893 0.00228892 0)
(-0.0431115 0.00195573 0)
(-0.0435506 0.0016153 0)
(-0.043905 0.00126879 0)
(-0.0441734 0.000917357 0)
(-0.0443547 0.000562176 0)
(-0.0444481 0.000204434 0)
(-0.0444532 -0.000154664 0)
(-0.0443699 -0.000513901 0)
(-0.0441982 -0.000872045 0)
(-0.0439386 -0.00122785 0)
(-0.0435919 -0.00158006 0)
(-0.0431591 -0.00192741 0)
(-0.0426416 -0.00226862 0)
(-0.0420411 -0.0026024 0)
(-0.0413595 -0.00292747 0)
(-0.0405991 -0.00324252 0)
(-0.0397626 -0.00354627 0)
(-0.0388529 -0.00383742 0)
(-0.0378733 -0.00411469 0)
(-0.0368271 -0.00437681 0)
(-0.0357184 -0.0046225 0)
(-0.0345513 -0.00485054 0)
(-0.0333301 -0.0050597 0)
(-0.0320596 -0.00524881 0)
(-0.0307448 -0.00541669 0)
(-0.0293909 -0.00556226 0)
(-0.0280035 -0.00568445 0)
(-0.0265882 -0.00578226 0)
(-0.025151 -0.00585475 0)
(-0.0236981 -0.00590105 0)
(-0.0222359 -0.0059204 0)
(-0.0207707 -0.0059121 0)
(-0.0193092 -0.00587558 0)
(-0.0178581 -0.00581037 0)
(-0.0164242 -0.00571614 0)
(-0.0150144 -0.00559272 0)
(-0.0136353 -0.0054401 0)
(-0.0122938 -0.00525846 0)
(-0.0109964 -0.00504821 0)
(-0.00974971 -0.00481 0)
(-0.00855986 -0.00454479 0)
(-0.0074328 -0.00425386 0)
(-0.0063741 -0.00393892 0)
(-0.00538884 -0.00360212 0)
(-0.00448152 -0.0032462 0)
(-0.00365598 -0.00287458 0)
(-0.00291527 -0.00249151 0)
(-0.00226149 -0.00210221 0)
(-0.0016957 -0.00171313 0)
(-0.00121773 -0.00133221 0)
(-0.00082607 -0.000969165 0)
(-0.00051774 -0.000635889 0)
(-0.000288042 -0.000346936 0)
(-0.000130338 -0.000119945 0)
(-3.7417e-05 2.37622e-05 0)
(-3.15262e-06 5.67673e-05 0)
(-7.47294e-06 -2.01786e-05 0)
(-6.41604e-05 9.5795e-05 0)
(-0.000203483 0.000329802 0)
(-0.000425588 0.000652025 0)
(-0.000734217 0.00103895 0)
(-0.001134 0.00147098 0)
(-0.0016278 0.00193184 0)
(-0.00221698 0.00240816 0)
(-0.00290162 0.00288903 0)
(-0.00368063 0.00336554 0)
(-0.00455184 0.00383049 0)
(-0.00551214 0.00427805 0)
(-0.00655759 0.0047036 0)
(-0.00768352 0.00510346 0)
(-0.0088847 0.00547477 0)
(-0.0101554 0.00581534 0)
(-0.0114894 0.00612352 0)
(-0.0128803 0.00639816 0)
(-0.0143214 0.00663846 0)
(-0.0158059 0.00684399 0)
(-0.0173266 0.00701456 0)
(-0.0188767 0.00715023 0)
(-0.0204491 0.00725126 0)
(-0.0220366 0.00731806 0)
(-0.0236325 0.0073512 0)
(-0.0252297 0.00735134 0)
(-0.0268216 0.00731928 0)
(-0.0284015 0.00725587 0)
(-0.029963 0.00716206 0)
(-0.0314999 0.00703885 0)
(-0.033006 0.00688729 0)
(-0.0344756 0.00670848 0)
(-0.0359029 0.00650357 0)
(-0.0372827 0.00627373 0)
(-0.0386098 0.00602016 0)
(-0.0398792 0.0057441 0)
(-0.0410863 0.0054468 0)
(-0.0422267 0.00512955 0)
(-0.0432964 0.00479363 0)
(-0.0442915 0.00444036 0)
(-0.0452085 0.00407108 0)
(-0.0460441 0.00368715 0)
(-0.0467953 0.00328992 0)
(-0.0474594 0.0028808 0)
(-0.0480341 0.00246119 0)
(-0.0485173 0.0020325 0)
(-0.0489073 0.00159619 0)
(-0.0492025 0.00115371 0)
(-0.0494019 0.000706534 0)
(-0.0495046 0.000256166 0)
(-0.0495101 -0.000195883 0)
(-0.0494183 -0.000648081 0)
(-0.0492293 -0.00109888 0)
(-0.0489435 -0.00154671 0)
(-0.0485619 -0.00199001 0)
(-0.0480855 -0.00242717 0)
(-0.0475159 -0.00285659 0)
(-0.0468549 -0.00327666 0)
(-0.0461047 -0.00368576 0)
(-0.0452678 -0.00408227 0)
(-0.044347 -0.00446456 0)
(-0.0433456 -0.00483104 0)
(-0.0422672 -0.00518007 0)
(-0.0411155 -0.00551008 0)
(-0.0398948 -0.00581948 0)
(-0.0386095 -0.00610674 0)
(-0.0372646 -0.00637033 0)
(-0.0358652 -0.00660878 0)
(-0.0344167 -0.00682065 0)
(-0.0329248 -0.00700458 0)
(-0.0313956 -0.00715925 0)
(-0.0298352 -0.00728343 0)
(-0.0282502 -0.00737596 0)
(-0.0266472 -0.00743578 0)
(-0.0250331 -0.00746194 0)
(-0.023415 -0.00745361 0)
(-0.0218 -0.0074101 0)
(-0.0201954 -0.00733085 0)
(-0.0186086 -0.00721551 0)
(-0.0170469 -0.00706388 0)
(-0.0155177 -0.006876 0)
(-0.0140283 -0.00665214 0)
(-0.0125857 -0.00639286 0)
(-0.011197 -0.00609901 0)
(-0.00986895 -0.00577184 0)
(-0.00860787 -0.00541297 0)
(-0.00741978 -0.00502456 0)
(-0.00631018 -0.00460929 0)
(-0.005284 -0.00417053 0)
(-0.00434545 -0.00371245 0)
(-0.00349798 -0.00324016 0)
(-0.0027441 -0.00275986 0)
(-0.0020853 -0.00227915 0)
(-0.00152193 -0.00180717 0)
(-0.00105309 -0.00135501 0)
(-0.000676588 -0.00093605 0)
(-0.000388648 -0.000566379 0)
(-0.000183756 -0.000265234 0)
(-5.69581e-05 -5.55128e-05 0)
(-6.32182e-06 3.39099e-05 0)
(-1.06783e-05 1.65487e-05 0)
(-8.43382e-05 0.000212161 0)
(-0.000259128 0.000531707 0)
(-0.000530818 0.000944562 0)
(-0.000900677 0.00142613 0)
(-0.00137198 0.00195559 0)
(-0.00194646 0.00251543 0)
(-0.00262446 0.00309106 0)
(-0.00340528 0.0036704 0)
(-0.00428715 0.00424346 0)
(-0.00526734 0.00480205 0)
(-0.00634222 0.00533951 0)
(-0.00750738 0.00585044 0)
(-0.00875771 0.00633053 0)
(-0.0100875 0.00677635 0)
(-0.0114907 0.00718527 0)
(-0.0129606 0.00755528 0)
(-0.0144904 0.00788494 0)
(-0.0160728 0.00817326 0)
(-0.0177006 0.00841963 0)
(-0.0193664 0.00862378 0)
(-0.0210625 0.00878575 0)
(-0.0227815 0.00890577 0)
(-0.0245158 0.00898432 0)
(-0.026258 0.00902204 0)
(-0.0280008 0.00901969 0)
(-0.0297368 0.00897821 0)
(-0.031459 0.00889861 0)
(-0.0331606 0.00878202 0)
(-0.0348347 0.00862961 0)
(-0.0364748 0.00844268 0)
(-0.0380747 0.00822252 0)
(-0.0396283 0.00797054 0)
(-0.0411298 0.00768813 0)
(-0.0425736 0.00737678 0)
(-0.0439544 0.00703797 0)
(-0.0452673 0.00667322 0)
(-0.0465076 0.0062841 0)
(-0.0476707 0.00587219 0)
(-0.0487526 0.0054391 0)
(-0.0497495 0.00498644 0)
(-0.0506578 0.00451589 0)
(-0.0514743 0.00402911 0)
(-0.0521961 0.0035278 0)
(-0.0528207 0.00301367 0)
(-0.0533459 0.00248848 0)
(-0.0537697 0.00195399 0)
(-0.0540905 0.00141198 0)
(-0.0543072 0.000864253 0)
(-0.0544188 0.000312649 0)
(-0.0544248 -0.000240985 0)
(-0.054325 -0.000794776 0)
(-0.0541197 -0.00134683 0)
(-0.0538092 -0.00189524 0)
(-0.0533946 -0.00243807 0)
(-0.0528771 -0.00297339 0)
(-0.0522582 -0.00349922 0)
(-0.05154 -0.00401362 0)
(-0.0507249 -0.00451459 0)
(-0.0498155 -0.00500018 0)
(-0.0488149 -0.0054684 0)
(-0.0477266 -0.00591728 0)
(-0.0465544 -0.00634487 0)
(-0.0453025 -0.00674924 0)
(-0.0439753 -0.00712847 0)
(-0.0425778 -0.00748068 0)
(-0.0411152 -0.00780404 0)
(-0.039593 -0.00809675 0)
(-0.0380171 -0.00835709 0)
(-0.0363936 -0.0085834 0)
(-0.0347289 -0.0087741 0)
(-0.0330297 -0.00892769 0)
(-0.0313031 -0.00904279 0)
(-0.0295562 -0.00911815 0)
(-0.0277964 -0.00915262 0)
(-0.0260312 -0.00914522 0)
(-0.0242683 -0.00909515 0)
(-0.0225155 -0.00900176 0)
(-0.0207807 -0.00886465 0)
(-0.0190718 -0.00868363 0)
(-0.0173966 -0.00845879 0)
(-0.0157629 -0.00819049 0)
(-0.0141783 -0.00787946 0)
(-0.0126504 -0.00752678 0)
(-0.0111862 -0.00713397 0)
(-0.00979271 -0.00670306 0)
(-0.00847626 -0.00623662 0)
(-0.00724284 -0.00573792 0)
(-0.00609777 -0.00521094 0)
(-0.00504573 -0.00466061 0)
(-0.0040906 -0.00409287 0)
(-0.00323538 -0.00351489 0)
(-0.00248209 -0.0029353 0)
(-0.00183171 -0.00236441 0)
(-0.00128409 -0.00181453 0)
(-0.000837915 -0.00130031 0)
(-0.000490496 -0.000839153 0)
(-0.000237551 -0.000451563 0)
(-7.64471e-05 -0.00016158 0)
(-9.41439e-06 1.0379e-06 0)
(-1.37746e-05 6.34925e-05 0)
(-0.000104184 0.000356212 0)
(-0.000314316 0.000776268 0)
(-0.000635709 0.00129266 0)
(-0.00106718 0.00188008 0)
(-0.00161061 0.0025168 0)
(-0.00226649 0.0031843 0)
(-0.0030341 0.00386698 0)
(-0.00391182 0.00455172 0)
(-0.00489714 0.00522761 0)
(-0.00598666 0.00588556 0)
(-0.00717618 0.0065181 0)
(-0.00846076 0.00711911 0)
(-0.00983482 0.00768365 0)
(-0.0112922 0.00820779 0)
(-0.0128263 0.00868842 0)
(-0.0144302 0.0091232 0)
(-0.0160963 0.00951038 0)
(-0.0178173 0.00984875 0)
(-0.0195852 0.0101376 0)
(-0.0213923 0.0103764 0)
(-0.0232305 0.0105654 0)
(-0.0250918 0.0107046 0)
(-0.0269684 0.0107946 0)
(-0.0288521 0.0108362 0)
(-0.0307354 0.0108301 0)
(-0.0326104 0.0107776 0)
(-0.0344697 0.0106797 0)
(-0.0363059 0.0105377 0)
(-0.0381118 0.0103531 0)
(-0.0398805 0.0101273 0)
(-0.0416054 0.00986197 0)
(-0.0432798 0.00955863 0)
(-0.0448978 0.00921901 0)
(-0.0464532 0.00884483 0)
(-0.0479406 0.00843788 0)
(-0.0493546 0.00799996 0)
(-0.0506901 0.00753294 0)
(-0.0519425 0.0070387 0)
(-0.0531072 0.00651915 0)
(-0.0541803 0.00597624 0)
(-0.055158 0.00541195 0)
(-0.0560368 0.00482828 0)
(-0.0568137 0.00422726 0)
(-0.0574859 0.00361095 0)
(-0.0580511 0.00298142 0)
(-0.0585072 0.00234079 0)
(-0.0588525 0.0016912 0)
(-0.0590858 0.00103481 0)
(-0.059206 0.000373795 0)
(-0.0592127 -0.000289618 0)
(-0.0591056 -0.000953193 0)
(-0.0588849 -0.00161467 0)
(-0.0585512 -0.00227176 0)
(-0.0581054 -0.00292217 0)
(-0.0575489 -0.00356357 0)
(-0.0568834 -0.00419363 0)
(-0.0561109 -0.00481 0)
(-0.0552341 -0.00541033 0)
(-0.0542558 -0.00599226 0)
(-0.0531793 -0.00655345 0)
(-0.0520084 -0.00709154 0)
(-0.0507469 -0.00760421 0)
(-0.0493995 -0.00808915 0)
(-0.0479709 -0.0085441 0)