/*--------------------------------*- C++ -*----------------------------------*\
| =========                 |                                                 |
| \\      /  F ield         | OpenFOAM: The Open Source CFD Toolbox           |
|  \\    /   O peration     | Version:  2212                                  |
|   \\  /    A nd           | Website:  www.openfoam.com                      |
|    \\/     M anipulation  |                                                 |
\*---------------------------------------------------------------------------*/
FoamFile
{
    version     2.0;
    format      ascii;
    arch        "LSB;label=32;scalar=64";
    class       volVectorField;
    location    "0.0215";
    object      U_0;
}
// * * * * * * * * * * * * * * * * * * * * * * * * * * * * * * * * * * * * * //

dimensions      [0 1 -1 0 0 0 0];

internalField   nonuniform List<vector> 
10000
(
(2.95696e-06 -2.75559e-06 0)
(1.16505e-05 -4.89748e-06 0)
(2.21952e-05 -4.39637e-06 0)
(2.94318e-05 -2.99059e-06 0)
(3.06922e-05 -9.59556e-07 0)
(2.48585e-05 1.42934e-06 0)
(1.12178e-05 3.97982e-06 0)
(-1.04258e-05 6.52596e-06 0)
(-3.99639e-05 8.97411e-06 0)
(-7.70441e-05 1.12837e-05 0)
(-0.000121242 1.34295e-05 0)
(-0.000172035 1.53929e-05 0)
(-0.000228859 1.71679e-05 0)
(-0.000291152 1.87452e-05 0)
(-0.000358328 2.01302e-05 0)
(-0.00042981 2.13436e-05 0)
(-0.000505045 2.23869e-05 0)
(-0.000583482 2.3264e-05 0)
(-0.000664578 2.39849e-05 0)
(-0.000747833 2.4555e-05 0)
(-0.000832756 2.49766e-05 0)
(-0.000918869 2.52615e-05 0)
(-0.00100573 2.54151e-05 0)
(-0.00109291 2.54373e-05 0)
(-0.00118 2.53399e-05 0)
(-0.00126662 2.5136e-05 0)
(-0.0013524 2.48313e-05 0)
(-0.001437 2.443e-05 0)
(-0.0015201 2.39401e-05 0)
(-0.00160139 2.33677e-05 0)
(-0.0016806 2.27168e-05 0)
(-0.00175745 2.19903e-05 0)
(-0.00183169 2.11933e-05 0)
(-0.00190308 2.03317e-05 0)
(-0.00197143 1.94072e-05 0)
(-0.00203651 1.84252e-05 0)
(-0.00209814 1.73936e-05 0)
(-0.00215616 1.63183e-05 0)
(-0.0022104 1.52023e-05 0)
(-0.00226072 1.40442e-05 0)
(-0.00230698 1.28464e-05 0)
(-0.00234906 1.16152e-05 0)
(-0.00238686 1.03556e-05 0)
(-0.00242027 9.07059e-06 0)
(-0.00244921 7.76082e-06 0)
(-0.0024736 6.42954e-06 0)
(-0.00249337 5.08028e-06 0)
(-0.00250848 3.71498e-06 0)
(-0.00251887 2.33885e-06 0)
(-0.00252452 9.56208e-07 0)
(-0.0025254 -4.31624e-07 0)
(-0.0025215 -1.82143e-06 0)
(-0.00251282 -3.21139e-06 0)
(-0.00249937 -4.60031e-06 0)
(-0.00248116 -5.98172e-06 0)
(-0.00245824 -7.34969e-06 0)
(-0.00243064 -8.70271e-06 0)
(-0.00239843 -1.00379e-05 0)
(-0.00236167 -1.13515e-05 0)
(-0.00232045 -1.26413e-05 0)
(-0.00227486 -1.3902e-05 0)
(-0.00222503 -1.51257e-05 0)
(-0.00217106 -1.63089e-05 0)
(-0.00211312 -1.74505e-05 0)
(-0.00205135 -1.85453e-05 0)
(-0.00198593 -1.95863e-05 0)
(-0.00191706 -2.0569e-05 0)
(-0.00184495 -2.14885e-05 0)
(-0.00176982 -2.23383e-05 0)
(-0.00169192 -2.31123e-05 0)
(-0.00161153 -2.38065e-05 0)
(-0.00152893 -2.4415e-05 0)
(-0.00144442 -2.49303e-05 0)
(-0.00135834 -2.53466e-05 0)
(-0.00127102 -2.566e-05 0)
(-0.00118284 -2.58645e-05 0)
(-0.00109418 -2.59519e-05 0)
(-0.00100544 -2.5915e-05 0)
(-0.000917065 -2.57486e-05 0)
(-0.000829494 -2.54461e-05 0)
(-0.000743201 -2.49991e-05 0)
(-0.000658679 -2.44001e-05 0)
(-0.000576438 -2.36434e-05 0)
(-0.000497006 -2.27232e-05 0)
(-0.000420929 -2.16317e-05 0)
(-0.000348765 -2.03614e-05 0)
(-0.000281084 -1.89087e-05 0)
(-0.000218464 -1.72716e-05 0)
(-0.000161483 -1.54465e-05 0)
(-0.000110712 -1.34293e-05 0)
(-6.6704e-05 -1.12204e-05 0)
(-2.99796e-05 -8.82778e-06 0)
(-9.97355e-07 -6.27045e-06 0)
(1.98884e-05 -3.58195e-06 0)
(3.24942e-05 -8.2409e-07 0)
(3.69195e-05 1.8774e-06 0)
(3.37147e-05 4.27647e-06 0)
(2.42636e-05 5.89739e-06 0)
(1.19323e-05 5.83847e-06 0)
(2.83226e-06 2.83092e-06 0)
(6.72235e-06 -1.2181e-05 0)
(2.2215e-05 -1.97204e-05 0)
(3.7548e-05 -1.55567e-05 0)
(4.25799e-05 -6.17498e-06 0)
(3.1874e-05 6.42704e-06 0)
(2.72598e-06 2.0918e-05 0)
(-4.64871e-05 3.62666e-05 0)
(-0.000116413 5.16981e-05 0)
(-0.000206889 6.67392e-05 0)
(-0.000317283 8.1055e-05 0)
(-0.000446592 9.44601e-05 0)
(-0.000593587 0.000106855 0)
(-0.000756915 0.000118156 0)
(-0.000935115 0.000128338 0)
(-0.00112669 0.000137398 0)
(-0.00133014 0.00014534 0)
(-0.00154397 0.000152198 0)
(-0.0017667 0.000157999 0)
(-0.00199689 0.000162776 0)
(-0.00223314 0.000166561 0)
(-0.00247409 0.000169402 0)
(-0.00271845 0.000171335 0)
(-0.00296494 0.000172402 0)
(-0.00321239 0.000172642 0)
(-0.00345965 0.000172097 0)
(-0.00370563 0.000170813 0)
(-0.0039493 0.000168828 0)
(-0.00418968 0.000166182 0)
(-0.00442587 0.000162916 0)
(-0.00465699 0.000159067 0)
(-0.00488222 0.000154668 0)
(-0.0051008 0.000149756 0)
(-0.00531201 0.000144366 0)
(-0.00551518 0.000138528 0)
(-0.00570968 0.000132272 0)
(-0.00589493 0.000125625 0)
(-0.0060704 0.000118622 0)
(-0.00623558 0.000111293 0)
(-0.00639002 0.000103661 0)
(-0.00653329 9.57504e-05 0)
(-0.00666502 8.75867e-05 0)
(-0.00678485 7.91957e-05 0)
(-0.00689246 7.05978e-05 0)
(-0.00698758 6.1814e-05 0)
(-0.00706996 5.2869e-05 0)
(-0.00713938 4.37846e-05 0)
(-0.00719565 3.45824e-05 0)
(-0.00723862 2.52811e-05 0)
(-0.00726817 1.59007e-05 0)
(-0.0072842 6.46636e-06 0)
(-0.00728665 -2.99895e-06 0)
(-0.00727549 -1.24769e-05 0)
(-0.0072507 -2.19479e-05 0)
(-0.00721234 -3.13896e-05 0)
(-0.00716046 -4.07772e-05 0)
(-0.00709516 -5.00856e-05 0)
(-0.00701656 -5.92916e-05 0)
(-0.00692485 -6.83713e-05 0)
(-0.00682022 -7.72986e-05 0)
(-0.00670292 -8.60459e-05 0)
(-0.00657323 -9.45834e-05 0)
(-0.00643148 -0.00010288 0)
(-0.00627803 -0.000110909 0)
(-0.00611329 -0.000118638 0)
(-0.00593774 -0.000126036 0)
(-0.00575187 -0.000133066 0)
(-0.00555623 -0.000139695 0)
(-0.00535143 -0.000145887 0)
(-0.00513814 -0.000151604 0)
(-0.00491704 -0.000156809 0)
(-0.00468892 -0.000161465 0)
(-0.00445458 -0.000165531 0)
(-0.0042149 -0.000168969 0)
(-0.0039708 -0.00017174 0)
(-0.00372326 -0.000173806 0)
(-0.00347334 -0.000175127 0)
(-0.00322212 -0.00017566 0)
(-0.00297075 -0.000175365 0)
(-0.00272043 -0.000174201 0)
(-0.00247245 -0.000172127 0)
(-0.0022281 -0.000169102 0)
(-0.00198874 -0.000165086 0)
(-0.00175578 -0.000160046 0)
(-0.00153067 -0.000153952 0)
(-0.0013149 -0.000146774 0)
(-0.00110995 -0.000138491 0)
(-0.000917352 -0.000129087 0)
(-0.000738618 -0.00011856 0)
(-0.000575242 -0.000106919 0)
(-0.000428658 -9.41919e-05 0)
(-0.00030021 -8.044e-05 0)
(-0.000191103 -6.57712e-05 0)
(-0.000102321 -5.03613e-05 0)
(-3.4504e-05 -3.44904e-05 0)
(1.22267e-05 -1.86092e-05 0)
(3.85098e-05 -3.4573e-06 0)
(4.60569e-05 9.75392e-06 0)
(3.81916e-05 1.90576e-05 0)
(2.13149e-05 2.12844e-05 0)
(5.85212e-06 1.19359e-05 0)
(7.22491e-06 -2.58506e-05 0)
(2.14042e-05 -3.67366e-05 0)
(3.01574e-05 -2.2755e-05 0)
(2.13218e-05 3.661e-06 0)
(-1.18774e-05 3.7889e-05 0)
(-7.30594e-05 7.68377e-05 0)
(-0.000164419 0.000117982 0)
(-0.00028682 0.000159561 0)
(-0.000440155 0.000200282 0)
(-0.000623578 0.000239296 0)
(-0.000835719 0.000276059 0)
(-0.00107487 0.000310187 0)
(-0.00133908 0.000341481 0)
(-0.00162619 0.000369815 0)
(-0.00193401 0.000395124 0)
(-0.00226028 0.000417412 0)
(-0.00260271 0.000436719 0)
(-0.00295907 0.000453094 0)
(-0.00332712 0.000466616 0)
(-0.00370469 0.000477379 0)
(-0.00408968 0.000485475 0)
(-0.00448005 0.000491014 0)
(-0.00487383 0.000494104 0)
(-0.00526913 0.000494852 0)
(-0.00566415 0.000493372 0)
(-0.00605716 0.000489778 0)
(-0.00644654 0.000484178 0)
(-0.00683072 0.000476682 0)
(-0.00720824 0.000467398 0)
(-0.0075777 0.00045643 0)
(-0.00793781 0.000443878 0)
(-0.00828733 0.000429844 0)
(-0.0086251 0.000414426 0)
(-0.00895005 0.000397713 0)
(-0.00926117 0.000379792 0)
(-0.00955753 0.000360751 0)
(-0.00983825 0.000340674 0)
(-0.0101025 0.000319643 0)
(-0.0103496 0.000297731 0)
(-0.0105789 0.000275015 0)
(-0.0107897 0.000251568 0)
(-0.0109814 0.000227459 0)
(-0.0111536 0.000202754 0)
(-0.0113058 0.000177515 0)
(-0.0114376 0.000151809 0)
(-0.0115486 0.000125704 0)
(-0.0116386 9.92577e-05 0)
(-0.0117073 7.25308e-05 0)
(-0.0117545 4.55851e-05 0)
(-0.0117801 1.84821e-05 0)
(-0.0117839 -8.71456e-06 0)
(-0.0117659 -3.59422e-05 0)
(-0.0117261 -6.31413e-05 0)
(-0.0116646 -9.02471e-05 0)
(-0.0115815 -0.00011719 0)
(-0.0114769 -0.000143904 0)
(-0.0113511 -0.000170318 0)
(-0.0112043 -0.00019636 0)
(-0.0110368 -0.000221953 0)
(-0.0108492 -0.000247022 0)
(-0.0106417 -0.00027148 0)
(-0.010415 -0.000295244 0)
(-0.0101696 -0.000318227 0)
(-0.00990624 -0.000340345 0)
(-0.00962563 -0.0003615 0)
(-0.00932857 -0.000381594 0)
(-0.00901596 -0.000400529 0)
(-0.00868878 -0.000418205 0)
(-0.00834807 -0.000434516 0)
(-0.00799497 -0.000449354 0)
(-0.00763069 -0.000462613 0)
(-0.00725655 -0.000474183 0)
(-0.00687394 -0.000483952 0)
(-0.00648432 -0.000491811 0)
(-0.00608928 -0.000497649 0)
(-0.00569045 -0.000501353 0)
(-0.00528959 -0.000502811 0)
(-0.00488852 -0.00050191 0)
(-0.00448914 -0.00049854 0)
(-0.00409343 -0.000492593 0)
(-0.00370347 -0.000483966 0)
(-0.00332136 -0.000472563 0)
(-0.00294931 -0.0004583 0)
(-0.00258955 -0.000441104 0)
(-0.00224436 -0.000420915 0)
(-0.00191603 -0.000397695 0)
(-0.00160687 -0.000371431 0)
(-0.00131914 -0.000342145 0)
(-0.00105505 -0.000309906 0)
(-0.000816701 -0.000274847 0)
(-0.000606002 -0.0002372 0)
(-0.000424619 -0.000197328 0)
(-0.000273838 -0.000155786 0)
(-0.000154398 -0.000113405 0)
(-6.62742e-05 -7.14332e-05 0)
(-8.3898e-06 -3.17542e-05 0)
(2.17218e-05 2.81502e-06 0)
(2.84083e-05 2.81329e-05 0)
(1.92152e-05 3.81952e-05 0)
(5.93847e-06 2.43083e-05 0)
(5.31885e-06 -3.68187e-05 0)
(1.18606e-05 -4.55239e-05 0)
(5.18783e-06 -1.50724e-05 0)
(-2.64724e-05 3.62712e-05 0)
(-9.0221e-05 0.000100904 0)
(-0.000190198 0.000173537 0)
(-0.000328813 0.000250087 0)
(-0.000507074 0.00032747 0)
(-0.000724868 0.000403489 0)
(-0.000981185 0.000476594 0)
(-0.00127442 0.000545699 0)
(-0.0016025 0.000610093 0)
(-0.00196297 0.000669324 0)
(-0.00235323 0.000723105 0)
(-0.00277047 0.000771292 0)
(-0.0032118 0.000813843 0)
(-0.00367433 0.000850774 0)
(-0.00415514 0.000882175 0)
(-0.00465134 0.000908159 0)
(-0.0051601 0.000928879 0)
(-0.00567865 0.000944497 0)
(-0.0062043 0.000955206 0)
(-0.00673445 0.000961199 0)
(-0.00726661 0.000962677 0)
(-0.00779837 0.00095985 0)
(-0.00832743 0.000952925 0)
(-0.00885161 0.00094211 0)
(-0.00936882 0.000927614 0)
(-0.0098771 0.000909638 0)
(-0.0103746 0.000888381 0)
(-0.0108595 0.000864037 0)
(-0.0113302 0.000836798 0)
(-0.0117851 0.000806849 0)
(-0.0122228 0.000774368 0)
(-0.0126418 0.000739527 0)
(-0.0130411 0.000702497 0)
(-0.0134192 0.000663439 0)
(-0.0137753 0.000622507 0)
(-0.0141082 0.00057985 0)
(-0.0144171 0.000535616 0)
(-0.0147011 0.000489951 0)
(-0.0149594 0.000442989 0)
(-0.0151914 0.000394857 0)
(-0.0153964 0.000345686 0)
(-0.0155739 0.000295603 0)
(-0.0157235 0.000244734 0)
(-0.0158446 0.000193203 0)
(-0.0159371 0.000141127 0)
(-0.0160005 8.86265e-05 0)
(-0.0160348 3.58239e-05 0)
(-0.0160398 -1.71592e-05 0)
(-0.0160154 -7.02012e-05 0)
(-0.0159616 -0.000123178 0)
(-0.0158786 -0.000175962 0)
(-0.0157664 -0.000228424 0)
(-0.0156253 -0.000280427 0)
(-0.0154556 -0.000331835 0)
(-0.0152576 -0.00038251 0)
(-0.0150319 -0.000432301 0)
(-0.0147789 -0.000481051 0)
(-0.0144994 -0.000528604 0)
(-0.0141939 -0.0005748 0)
(-0.0138634 -0.000619467 0)
(-0.0135086 -0.00066243 0)
(-0.0131307 -0.000703509 0)
(-0.0127308 -0.000742518 0)
(-0.0123099 -0.000779263 0)
(-0.0118695 -0.000813548 0)
(-0.011411 -0.000845174 0)
(-0.0109358 -0.000873934 0)
(-0.0104457 -0.000899619 0)
(-0.00994231 -0.000922019 0)
(-0.0094276 -0.000940924 0)
(-0.00890352 -0.000956119 0)
(-0.00837216 -0.000967392 0)
(-0.00783574 -0.000974528 0)
(-0.00729658 -0.000977316 0)
(-0.00675709 -0.000975548 0)
(-0.00621982 -0.000969019 0)
(-0.00568738 -0.000957536 0)
(-0.00516252 -0.000940917 0)
(-0.00464801 -0.000918997 0)
(-0.00414673 -0.000891627 0)
(-0.00366159 -0.000858688 0)
(-0.00319557 -0.000820095 0)
(-0.00275161 -0.000775806 0)
(-0.00233265 -0.000725832 0)
(-0.00194159 -0.000670258 0)
(-0.0015812 -0.000609266 0)
(-0.00125408 -0.000543174 0)
(-0.000962576 -0.000472482 0)
(-0.000708671 -0.000397937 0)
(-0.000493856 -0.000320626 0)
(-0.000318935 -0.000242124 0)
(-0.000183808 -0.000164692 0)
(-8.71882e-05 -9.15657e-05 0)
(-2.62762e-05 -2.73442e-05 0)
(3.64863e-06 2.15622e-05 0)
(1.01461e-05 4.62957e-05 0)
(4.36282e-06 3.38912e-05 0)
(2.54835e-06 -4.11753e-05 0)
(-2.01742e-06 -3.90085e-05 0)
(-2.98972e-05 1.5403e-05 0)
(-9.06371e-05 9.91386e-05 0)
(-0.000190875 0.000201676 0)
(-0.000334722 0.000315666 0)
(-0.000524601 0.000435295 0)
(-0.000761467 0.000556193 0)
(-0.00104509 0.000675133 0)
(-0.00137436 0.000789762 0)
(-0.00174743 0.000898406 0)
(-0.00216192 0.000999919 0)
(-0.00261504 0.00109351 0)
(-0.00310375 0.00117868 0)
(-0.00362477 0.00125517 0)
(-0.00417473 0.00132284 0)
(-0.00475018 0.00138168 0)
(-0.00534766 0.00143179 0)
(-0.0059637 0.00147331 0)
(-0.0065949 0.00150646 0)
(-0.00723793 0.00153148 0)
(-0.00788953 0.00154865 0)
(-0.00854653 0.00155825 0)
(-0.00920588 0.0015606 0)
(-0.00986466 0.00155602 0)
(-0.0105201 0.00154483 0)
(-0.0111694 0.00152736 0)
(-0.0118101 0.00150393 0)
(-0.0124397 0.00147487 0)
(-0.0130559 0.00144049 0)
(-0.0136566 0.00140111 0)
(-0.0142398 0.00135703 0)
(-0.0148033 0.00130854 0)
(-0.0153456 0.00125593 0)
(-0.0158649 0.00119949 0)
(-0.0163595 0.00113948 0)
(-0.0168281 0.00107616 0)
(-0.0172693 0.0010098 0)
(-0.0176819 0.000940623 0)
(-0.0180646 0.000868879 0)
(-0.0184165 0.000794796 0)
(-0.0187366 0.000718597 0)
(-0.0190241 0.000640495 0)
(-0.0192781 0.000560701 0)
(-0.019498 0.000479425 0)
(-0.0196832 0.000396869 0)
(-0.0198332 0.000313231 0)
(-0.0199477 0.00022871 0)
(-0.0200262 0.000143505 0)
(-0.0200685 5.78151e-05 0)
(-0.0200744 -2.81631e-05 0)
(-0.020044 -0.000114233 0)
(-0.0199771 -0.000200188 0)
(-0.019874 -0.000285817 0)
(-0.0197347 -0.000370908 0)
(-0.0195596 -0.000455247 0)
(-0.0193491 -0.000538607 0)
(-0.0191036 -0.000620756 0)
(-0.0188237 -0.000701455 0)
(-0.0185101 -0.000780455 0)
(-0.0181635 -0.0008575 0)
(-0.0177849 -0.000932323 0)
(-0.0173753 -0.00100465 0)
(-0.0169358 -0.00107421 0)
(-0.0164676 -0.00114069 0)
(-0.0159722 -0.00120381 0)
(-0.015451 -0.00126325 0)
(-0.0149055 -0.00131869 0)
(-0.0143377 -0.00136982 0)
(-0.0137494 -0.00141631 0)
(-0.0131426 -0.00145781 0)
(-0.0125194 -0.001494 0)
(-0.0118822 -0.00152453 0)
(-0.0112335 -0.00154907 0)
(-0.0105757 -0.00156727 0)
(-0.00991161 -0.0015788 0)
(-0.00924408 -0.00158333 0)
(-0.00857606 -0.00158053 0)
(-0.00791063 -0.00157009 0)
(-0.00725102 -0.00155172 0)
(-0.0066005 -0.00152514 0)
(-0.00596247 -0.00149011 0)
(-0.00534038 -0.00144643 0)
(-0.00473774 -0.00139392 0)
(-0.00415808 -0.00133249 0)
(-0.00360494 -0.00126211 0)
(-0.00308178 -0.00118284 0)
(-0.00259199 -0.00109488 0)
(-0.00213882 -0.000998582 0)
(-0.00172526 -0.000894504 0)
(-0.001354 -0.000783497 0)
(-0.00102728 -0.000666784 0)
(-0.000746776 -0.000546091 0)
(-0.000513398 -0.000423838 0)
(-0.000327092 -0.000303375 0)
(-0.000186591 -0.000189327 0)
(-8.91263e-05 -8.80238e-05 0)
(-3.00857e-05 -7.99373e-06 0)
(-2.70818e-06 3.93354e-05 0)
(2.03502e-06 3.73869e-05 0)
(-4.12049e-07 -3.741e-05 0)
(-1.76452e-05 -1.3512e-05 0)
(-6.99748e-05 7.3423e-05 0)
(-0.000163814 0.00019721 0)
(-0.000304469 0.000344933 0)
(-0.000495757 0.000507272 0)
(-0.000739802 0.000676847 0)
(-0.00103729 0.000847994 0)
(-0.00138783 0.00101642 0)
(-0.00179009 0.00117896 0)
(-0.00224199 0.00133329 0)
(-0.00274091 0.00147775 0)
(-0.00328374 0.0016112 0)
(-0.00386706 0.00173288 0)
(-0.00448724 0.00184232 0)
(-0.00514045 0.0019393 0)
(-0.0058228 0.00202374 0)
(-0.00653035 0.00209573 0)
(-0.00725916 0.00215545 0)
(-0.00800532 0.00220315 0)
(-0.008765 0.00223915 0)
(-0.00953445 0.00226383 0)
(-0.01031 0.00227759 0)
(-0.0110881 0.00228085 0)
(-0.0118654 0.00227406 0)
(-0.0126386 0.00225767 0)
(-0.0134045 0.00223215 0)
(-0.0141602 0.00219795 0)
(-0.0149029 0.00215554 0)
(-0.0156297 0.00210536 0)
(-0.0163382 0.00204788 0)
(-0.0170259 0.00198353 0)
(-0.0176907 0.00191273 0)
(-0.0183302 0.00183591 0)
(-0.0189427 0.00175346 0)
(-0.0195261 0.00166579 0)
(-0.0200788 0.00157327 0)
(-0.0205992 0.00147627 0)
(-0.0210858 0.00137516 0)
(-0.0215373 0.00127028 0)
(-0.0219523 0.00116196 0)
(-0.0223299 0.00105053 0)
(-0.0226689 0.000936316 0)
(-0.0229684 0.000819621 0)
(-0.0232277 0.000700752 0)
(-0.0234461 0.000580003 0)
(-0.023623 0.00045767 0)
(-0.0237578 0.000334049 0)
(-0.0238502 0.000209429 0)
(-0.0238999 8.41004e-05 0)
(-0.0239067 -4.16428e-05 0)
(-0.0238706 -0.000167505 0)
(-0.0237915 -0.000293188 0)
(-0.0236696 -0.000418385 0)
(-0.0235051 -0.000542782 0)
(-0.0232983 -0.000666059 0)
(-0.0230497 -0.000787888 0)
(-0.0227599 -0.000907929 0)
(-0.0224296 -0.00102583 0)
(-0.0220595 -0.00114123 0)
(-0.0216507 -0.00125375 0)
(-0.021204 -0.001363 0)
(-0.0207209 -0.0014686 0)
(-0.0202025 -0.00157012 0)
(-0.0196503 -0.00166714 0)
(-0.0190661 -0.00175923 0)
(-0.0184515 -0.00184593 0)
(-0.0178084 -0.0019268 0)
(-0.017139 -0.00200135 0)
(-0.0164454 -0.00206912 0)
(-0.01573 -0.00212963 0)
(-0.0149954 -0.00218239 0)
(-0.0142442 -0.00222691 0)
(-0.0134794 -0.0022627 0)
(-0.0127039 -0.00228928 0)
(-0.0119209 -0.00230617 0)
(-0.0111337 -0.0023129 0)
(-0.0103457 -0.00230902 0)
(-0.00956059 -0.00229409 0)
(-0.00878202 -0.00226771 0)
(-0.00801381 -0.00222951 0)
(-0.00725986 -0.00217916 0)
(-0.00652413 -0.0021164 0)
(-0.00581064 -0.00204103 0)
(-0.00512343 -0.00195295 0)
(-0.00446648 -0.00185216 0)
(-0.00384374 -0.00173882 0)
(-0.00325902 -0.00161326 0)
(-0.00271593 -0.00147604 0)
(-0.00221782 -0.00132804 0)
(-0.00176768 -0.0011705 0)
(-0.00136799 -0.00100519 0)
(-0.00102062 -0.000834534 0)
(-0.000726677 -0.000661821 0)
(-0.000486279 -0.000491501 0)
(-0.000298401 -0.000329523 0)
(-0.000160598 -0.000183808 0)
(-6.87291e-05 -6.47393e-05 0)
(-1.74001e-05 1.41162e-05 0)
(-5.68877e-07 3.34748e-05 0)
(-3.28765e-06 -2.52437e-05 0)
(-3.37162e-05 3.25669e-05 0)
(-0.000112117 0.000161502 0)
(-0.000241217 0.000333462 0)
(-0.000424693 0.000533609 0)
(-0.000665654 0.000750977 0)
(-0.000965701 0.000976813 0)
(-0.00132514 0.00120422 0)
(-0.00174324 0.00142791 0)
(-0.00221838 0.0016439 0)
(-0.00274824 0.00184919 0)
(-0.00332991 0.0020416 0)
(-0.00396 0.0022196 0)
(-0.00463476 0.00238212 0)
(-0.00535021 0.00252848 0)
(-0.00610217 0.00265832 0)
(-0.00688635 0.0027715 0)
(-0.00769839 0.00286806 0)
(-0.00853394 0.00294819 0)
(-0.00938866 0.00301221 0)
(-0.0102583 0.0030605 0)
(-0.0111386 0.00309353 0)
(-0.0120255 0.00311182 0)
(-0.0129151 0.00311591 0)
(-0.0138034 0.00310638 0)
(-0.0146869 0.00308383 0)
(-0.015562 0.00304888 0)
(-0.0164253 0.00300214 0)
(-0.0172735 0.00294421 0)
(-0.0181037 0.00287571 0)
(-0.0189129 0.00279724 0)
(-0.0196983 0.00270939 0)
(-0.0204575 0.00261274 0)
(-0.0211879 0.00250785 0)
(-0.0218873 0.00239529 0)
(-0.0225536 0.00227556 0)
(-0.0231848 0.0021492 0)
(-0.023779 0.00201672 0)
(-0.0243347 0.0018786 0)
(-0.0248502 0.00173531 0)
(-0.0253242 0.00158732 0)
(-0.0257553 0.00143507 0)
(-0.0261423 0.001279 0)
(-0.0264843 0.00111952 0)
(-0.0267803 0.000957074 0)
(-0.0270296 0.000792056 0)
(-0.0272314 0.000624873 0)
(-0.0273852 0.000455927 0)
(-0.0274906 0.00028562 0)
(-0.0275472 0.000114351 0)
(-0.0275547 -5.74771e-05 0)
(-0.0275133 -0.000229458 0)
(-0.0274227 -0.000401179 0)
(-0.0272833 -0.000572219 0)
(-0.0270952 -0.00074215 0)
(-0.0268589 -0.000910534 0)
(-0.0265748 -0.00107692 0)
(-0.0262437 -0.00124084 0)
(-0.0258663 -0.00140181 0)
(-0.0254435 -0.00155935 0)
(-0.0249765 -0.00171293 0)
(-0.0244664 -0.00186204 0)
(-0.0239146 -0.00200613 0)
(-0.0233227 -0.00214464 0)
(-0.0226922 -0.00227699 0)
(-0.0220251 -0.00240259 0)
(-0.0213234 -0.00252084 0)
(-0.0205892 -0.00263111 0)
(-0.0198249 -0.00273277 0)
(-0.019033 -0.00282518 0)
(-0.0182163 -0.00290769 0)
(-0.0173776 -0.00297965 0)
(-0.01652 -0.0030404 0)
(-0.0156466 -0.00308929 0)
(-0.014761 -0.00312567 0)
(-0.0138666 -0.0031489 0)
(-0.0129673 -0.00315837 0)
(-0.0120669 -0.00315347 0)
(-0.0111694 -0.00313365 0)
(-0.010279 -0.00309839 0)
(-0.00939987 -0.0030472 0)
(-0.00853648 -0.00297969 0)
(-0.0076932 -0.00289554 0)
(-0.0068745 -0.00279453 0)
(-0.00608482 -0.00267657 0)
(-0.00532859 -0.00254171 0)
(-0.00461013 -0.00239023 0)
(-0.00393362 -0.00222262 0)
(-0.00330303 -0.00203972 0)
(-0.00272201 -0.00184271 0)
(-0.00219382 -0.00163329 0)
(-0.00172121 -0.0014138 0)
(-0.00130631 -0.00118737 0)
(-0.00095048 -0.000958154 0)
(-0.000654166 -0.00073164 0)
(-0.000416762 -0.000514989 0)
(-0.000236376 -0.000317505 0)
(-0.000109606 -0.000151104 0)
(-3.27672e-05 -3.1013e-05 0)
(-3.20776e-06 2.16523e-05 0)
(-6.00836e-06 -4.74337e-06 0)
(-4.9615e-05 9.97478e-05 0)
(-0.00015455 0.000280855 0)
(-0.000319877 0.000509451 0)
(-0.00054733 0.000769347 0)
(-0.000839121 0.00104831 0)
(-0.00119617 0.00133634 0)
(-0.0016182 0.00162553 0)
(-0.00210406 0.00190968 0)
(-0.00265177 0.00218399 0)
(-0.0032587 0.00244484 0)
(-0.00392162 0.00268952 0)
(-0.00463685 0.00291607 0)
(-0.00540036 0.00312312 0)
(-0.00620782 0.00330976 0)
(-0.00705473 0.00347546 0)
(-0.00793643 0.00361998 0)
(-0.00884824 0.00374335 0)
(-0.00978539 0.00384573 0)
(-0.0107432 0.0039275 0)
(-0.011717 0.0039891 0)
(-0.0127021 0.00403109 0)
(-0.0136942 0.0040541 0)
(-0.0146889 0.00405881 0)
(-0.0156819 0.00404594 0)
(-0.0166692 0.00401626 0)
(-0.0176468 0.00397051 0)
(-0.0186112 0.00390948 0)
(-0.0195586 0.00383396 0)
(-0.0204857 0.00374471 0)
(-0.0213893 0.00364252 0)
(-0.0222663 0.00352812 0)
(-0.0231139 0.00340229 0)
(-0.0239294 0.00326573 0)
(-0.0247103 0.00311916 0)
(-0.0254541 0.00296328 0)
(-0.0261588 0.00279875 0)
(-0.0268222 0.00262622 0)
(-0.0274425 0.00244635 0)
(-0.0280179 0.00225974 0)
(-0.028547 0.00206699 0)
(-0.0290281 0.00186868 0)
(-0.0294601 0.00166538 0)
(-0.0298418 0.00145765 0)
(-0.0301722 0.00124604 0)
(-0.0304503 0.00103107 0)
(-0.0306754 0.000813289 0)
(-0.030847 0.000593213 0)
(-0.0309644 0.000371368 0)
(-0.0310274 0.000148276 0)
(-0.0310357 -7.55353e-05 0)
(-0.0309892 -0.000299533 0)
(-0.030888 -0.000523176 0)
(-0.0307321 -0.000745915 0)
(-0.030522 -0.000967194 0)
(-0.030258 -0.00118644 0)
(-0.0299408 -0.00140306 0)
(-0.029571 -0.00161644 0)
(-0.0291496 -0.00182597 0)
(-0.0286776 -0.002031 0)
(-0.0281561 -0.00223087 0)
(-0.0275867 -0.00242489 0)
(-0.0269707 -0.00261236 0)
(-0.0263099 -0.00279254 0)
(-0.0256061 -0.00296471 0)
(-0.0248614 -0.00312807 0)
(-0.0240781 -0.00328187 0)
(-0.0232586 -0.00342529 0)
(-0.0224055 -0.00355751 0)
(-0.0215215 -0.00367773 0)
(-0.0206098 -0.00378509 0)
(-0.0196734 -0.00387876 0)
(-0.0187158 -0.0039579 0)
(-0.0177406 -0.00402168 0)
(-0.0167515 -0.00406926 0)
(-0.0157524 -0.00409985 0)
(-0.0147475 -0.00411267 0)
(-0.013741 -0.00410697 0)
(-0.0127374 -0.00408204 0)
(-0.0117412 -0.00403724 0)
(-0.010757 -0.00397201 0)
(-0.00978973 -0.00388585 0)
(-0.00884406 -0.00377841 0)
(-0.00792489 -0.00364944 0)
(-0.00703706 -0.00349888 0)
(-0.00618534 -0.00332687 0)
(-0.00537443 -0.0031338 0)
(-0.00460882 -0.00292038 0)
(-0.00389281 -0.00268768 0)
(-0.00323034 -0.00243728 0)
(-0.00262497 -0.00217132 0)
(-0.00207976 -0.00189271 0)
(-0.00159712 -0.00160526 0)
(-0.00117879 -0.00131396 0)
(-0.000825633 -0.00102523 0)
(-0.000537619 -0.000747287 0)
(-0.000313579 -0.000490596 0)
(-0.000151019 -0.000268265 0)
(-4.81355e-05 -9.67147e-05 0)
(-5.76624e-06 1.83795e-06 0)
(-8.55636e-06 2.38126e-05 0)
(-6.50046e-05 0.000187957 0)
(-0.000196314 0.000431729 0)
(-0.000397936 0.000725698 0)
(-0.000669623 0.00105283 0)
(-0.00101259 0.00139986 0)
(-0.0014269 0.00175589 0)
(-0.00191161 0.0021121 0)
(-0.00246504 0.00246149 0)
(-0.00308478 0.00279855 0)
(-0.00376781 0.00311905 0)
(-0.00451058 0.00341978 0)
(-0.0053091 0.00369837 0)
(-0.00615901 0.00395311 0)
(-0.00705569 0.00418288 0)
(-0.00799431 0.00438697 0)
(-0.00896991 0.00456504 0)
(-0.00997745 0.00471704 0)
(-0.0110119 0.00484318 0)
(-0.0120681 0.00494381 0)
(-0.0131411 0.00501947 0)
(-0.0142259 0.00507081 0)
(-0.0153178 0.00509858 0)
(-0.0164121 0.00510358 0)
(-0.0175041 0.00508669 0)
(-0.0185896 0.00504882 0)
(-0.0196641 0.00499091 0)
(-0.0207238 0.0049139 0)
(-0.0217648 0.00481875 0)
(-0.0227832 0.00470643 0)
(-0.0237757 0.00457789 0)
(-0.024739 0.00443405 0)
(-0.0256698 0.00427586 0)
(-0.0265653 0.00410421 0)
(-0.0274227 0.00391999 0)
(-0.0282395 0.00372407 0)
(-0.0290131 0.00351728 0)
(-0.0297415 0.00330045 0)
(-0.0304225 0.00307437 0)
(-0.0310542 0.00283981 0)
(-0.031635 0.00259752 0)
(-0.0321631 0.00234825 0)
(-0.0326373 0.0020927 0)
(-0.0330563 0.00183157 0)
(-0.0334188 0.00156556 0)
(-0.033724 0.00129533 0)
(-0.0339711 0.00102157 0)
(-0.0341593 0.000744925 0)
(-0.0342881 0.000466061 0)
(-0.0343571 0.000185638 0)
(-0.0343661 -9.56756e-05 0)
(-0.0343149 -0.000377209 0)
(-0.0342036 -0.000658283 0)
(-0.0340324 -0.000938209 0)
(-0.0338015 -0.00121628 0)
(-0.0335116 -0.00149177 0)
(-0.0331633 -0.00176394 0)
(-0.0327572 -0.00203203 0)
(-0.0322945 -0.00229525 0)
(-0.0317763 -0.0025528 0)
(-0.0312038 -0.00280384 0)
(-0.0305786 -0.00304752 0)
(-0.0299024 -0.00328295 0)
(-0.0291769 -0.00350923 0)
(-0.0284043 -0.00372542 0)
(-0.0275868 -0.00393056 0)
(-0.0267268 -0.00412369 0)
(-0.025827 -0.0043038 0)
(-0.0248903 -0.00446987 0)
(-0.0239197 -0.00462089 0)
(-0.0229185 -0.00475582 0)
(-0.0218901 -0.00487362 0)
(-0.0208383 -0.00497324 0)
(-0.0197669 -0.00505367 0)
(-0.01868 -0.00511389 0)
(-0.0175819 -0.00515291 0)
(-0.016477 -0.00516978 0)
(-0.01537 -0.0051636 0)
(-0.0142656 -0.00513352 0)
(-0.0131688 -0.00507878 0)
(-0.0120846 -0.00499869 0)
(-0.011018 -0.00489271 0)
(-0.00997433 -0.00476041 0)
(-0.00895871 -0.00460157 0)
(-0.00797635 -0.00441615 0)
(-0.00703237 -0.00420438 0)
(-0.00613177 -0.00396678 0)
(-0.00527938 -0.00370428 0)
(-0.00447979 -0.00341824 0)
(-0.00373726 -0.00311057 0)
(-0.00305567 -0.0027839 0)
(-0.0024384 -0.00244167 0)
(-0.00188824 -0.00208834 0)
(-0.00140735 -0.00172965 0)
(-0.000997138 -0.00137283 0)
(-0.000658247 -0.00102702 0)
(-0.000390336 -0.000703572 0)
(-0.000191928 -0.000416495 0)
(-6.31323e-05 -0.000182984 0)
(-8.19849e-06 -2.58058e-05 0)
(-1.09232e-05 6.00989e-05 0)
(-7.97589e-05 0.000296696 0)
(-0.000236855 0.000613775 0)
(-0.000474265 0.00098205 0)
(-0.000789833 0.00138396 0)
(-0.00118369 0.00180561 0)
(-0.00165497 0.00223536 0)
(-0.002202 0.00266367 0)
(-0.00282247 0.00308284 0)
(-0.00351349 0.00348677 0)
(-0.0042716 0.00387065 0)
(-0.00509287 0.00423082 0)
(-0.00597298 0.00456451 0)
(-0.00690725 0.00486973 0)
(-0.00789073 0.00514508 0)
(-0.00891831 0.0053897 0)
(-0.0099847 0.00560314 0)
(-0.0110846 0.0057853 0)
(-0.0122125 0.00593636 0)
(-0.0133632 0.00605673 0)
(-0.0145312 0.00614698 0)
(-0.0157114 0.00620788 0)
(-0.0168985 0.00624027 0)
(-0.0180877 0.00624511 0)
(-0.0192739 0.00622342 0)
(-0.0204526 0.00617628 0)
(-0.0216192 0.0061048 0)
(-0.0227693 0.00601011 0)
(-0.0238988 0.00589336 0)
(-0.0250038 0.0057557 0)
(-0.0260804 0.00559828 0)
(-0.0271252 0.00542222 0)
(-0.0281347 0.00522865 0)
(-0.0291058 0.00501865 0)
(-0.0300355 0.00479331 0)
(-0.030921 0.00455368 0)
(-0.0317597 0.00430076 0)
(-0.0325493 0.00403558 0)
(-0.0332876 0.00375908 0)
(-0.0339723 0.00347221 0)
(-0.0346018 0.0031759 0)
(-0.0351743 0.00287104 0)
(-0.0356882 0.00255851 0)
(-0.0361423 0.00223915 0)
(-0.0365352 0.00191382 0)
(-0.0368659 0.00158334 0)
(-0.0371336 0.00124853 0)
(-0.0373375 0.000910209 0)
(-0.037477 0.000569179 0)
(-0.0375517 0.000226256 0)
(-0.0375614 -0.000117747 0)
(-0.0375058 -0.000462007 0)
(-0.0373851 -0.000805691 0)
(-0.0371995 -0.00114795 0)
(-0.0369492 -0.00148792 0)
(-0.0366349 -0.00182473 0)
(-0.0362573 -0.00215745 0)
(-0.0358172 -0.00248517 0)
(-0.0353156 -0.00280692 0)
(-0.0347538 -0.00312171 0)
(-0.0341333 -0.00342854 0)
(-0.0334556 -0.00372636 0)
(-0.0327226 -0.00401409 0)
(-0.0319362 -0.00429063 0)
(-0.0310986 -0.00455484 0)
(-0.0302124 -0.00480557 0)
(-0.02928 -0.00504162 0)
(-0.0283045 -0.00526179 0)
(-0.0272888 -0.00546486 0)
(-0.0262362 -0.00564958 0)
(-0.0251504 -0.0058147 0)
(-0.0240349 -0.00595896 0)
(-0.0228937 -0.00608113 0)
(-0.0217311 -0.00617997 0)
(-0.0205514 -0.00625427 0)
(-0.0193592 -0.00630284 0)
(-0.0181591 -0.00632456 0)
(-0.0169563 -0.00631837 0)
(-0.0157558 -0.00628326 0)
(-0.0145627 -0.00621834 0)
(-0.0133825 -0.00612283 0)
(-0.0122207 -0.00599612 0)
(-0.0110827 -0.00583773 0)
(-0.00997397 -0.00564744 0)
(-0.00890015 -0.00542525 0)
(-0.00786662 -0.00517148 0)
(-0.00687871 -0.00488682 0)
(-0.00594155 -0.00457239 0)
(-0.00506005 -0.00422982 0)
(-0.0042388 -0.00386141 0)
(-0.00348201 -0.0034702 0)
(-0.00279344 -0.00306014 0)
(-0.00217631 -0.00263631 0)
(-0.00163326 -0.00220506 0)
(-0.00116632 -0.00177436 0)
(-0.000776878 -0.00135406 0)
(-0.000465488 -0.000956223 0)
(-0.000231723 -0.000595457 0)
(-7.7564e-05 -0.0002894 0)
(-1.04888e-05 -6.09871e-05 0)
(-1.31207e-05 0.000103712 0)
(-9.38121e-05 0.000425284 0)
(-0.000275868 0.000826279 0)
(-0.00054825 0.00127783 0)
(-0.000906915 0.00176218 0)
(-0.00135093 0.00226503 0)
(-0.00187851 0.0027742 0)
(-0.00248715 0.00327959 0)
(-0.00317388 0.00377297 0)
(-0.00393524 0.00424767 0)
(-0.00476733 0.00469844 0)
(-0.00566581 0.00512117 0)
(-0.00662595 0.00551275 0)
(-0.00764275 0.00587088 0)
(-0.00871096 0.00619396 0)
(-0.00982512 0.00648095 0)
(-0.0109797 0.00673131 0)
(-0.012169 0.00694486 0)
(-0.0133873 0.00712178 0)
(-0.014629 0.0072625 0)
(-0.0158885 0.00736768 0)
(-0.0171603 0.00743815 0)
(-0.0184388 0.0074749 0)
(-0.0197188 0.00747901 0)
(-0.0209952 0.00745165 0)
(-0.022263 0.0073941 0)
(-0.0235173 0.00730762 0)
(-0.0247536 0.00719356 0)
(-0.0259675 0.00705324 0)
(-0.0271548 0.00688804 0)
(-0.0283114 0.00669928 0)
(-0.0294336 0.00648831 0)
(-0.0305177 0.00625645 0)
(-0.0315605 0.00600499 0)
(-0.0325588 0.00573521 0)
(-0.0335095 0.00544836 0)
(-0.03441 0.00514565 0)
(-0.0352576 0.00482827 0)
(-0.03605 0.00449737 0)
(-0.036785 0.00415407 0)
(-0.0374606 0.00379948 0)
(-0.038075 0.00343466 0)
(-0.0386266 0.00306067 0)
(-0.0391138 0.00267852 0)
(-0.0395355 0.00228923 0)
(-0.0398904 0.00189378 0)
(-0.0401777 0.00149316 0)
(-0.0403965 0.00108834 0)
(-0.0405462 0.000680291 0)
(-0.0406263 0.000269986 0)
(-0.0406366 -0.000141597 0)
(-0.040577 -0.000553473 0)
(-0.0404475 -0.000964646 0)
(-0.0402482 -0.0013741 0)
(-0.0399797 -0.00178081 0)
(-0.0396424 -0.00218371 0)
(-0.0392372 -0.00258171 0)
(-0.0387649 -0.0029737 0)