/*--------------------------------*- C++ -*----------------------------------*\
| =========                 |                                                 |
| \\      /  F ield         | OpenFOAM: The Open Source CFD Toolbox           |
|  \\    /   O peration     | Version:  2212                                  |
|   \\  /    A nd           | Website:  www.openfoam.com                      |
|    \\/     M anipulation  |                                                 |
\*---------------------------------------------------------------------------*/
FoamFile
{
    version     2.0;
    format      ascii;
    arch        "LSB;label=32;scalar=64";
    class       volVectorField;
    location    "0.0985";
    object      U;
}
// * * * * * * * * * * * * * * * * * * * * * * * * * * * * * * * * * * * * * //

dimensions      [0 1 -1 0 0 0 0];

internalField   nonuniform List<vector> 
10000
(
(3.02513e-06 -3.02029e-06 0)
(1.50425e-05 -7.77361e-06 0)
(3.42101e-05 -8.98015e-06 0)
(5.22728e-05 -7.75791e-06 0)
(6.41659e-05 -5.24202e-06 0)
(6.74266e-05 -2.0969e-06 0)
(6.07704e-05 1.31338e-06 0)
(4.36098e-05 4.77937e-06 0)
(1.58177e-05 8.17851e-06 0)
(-2.2435e-05 1.1445e-05 0)
(-7.07856e-05 1.4538e-05 0)
(-0.000128747 1.74333e-05 0)
(-0.000195743 2.01184e-05 0)
(-0.000271147 2.25848e-05 0)
(-0.000354297 2.48302e-05 0)
(-0.000444505 2.68556e-05 0)
(-0.000541077 2.86607e-05 0)
(-0.000643315 3.0248e-05 0)
(-0.00075052 3.16226e-05 0)
(-0.000862002 3.27888e-05 0)
(-0.000977084 3.37517e-05 0)
(-0.0010951 3.45184e-05 0)
(-0.00121539 3.50943e-05 0)
(-0.00133732 3.54838e-05 0)
(-0.00146028 3.5694e-05 0)
(-0.00158366 3.5731e-05 0)
(-0.00170688 3.56011e-05 0)
(-0.00182939 3.53109e-05 0)
(-0.00195064 3.48669e-05 0)
(-0.00207012 3.42755e-05 0)
(-0.00218732 3.35435e-05 0)
(-0.00230177 3.26771e-05 0)
(-0.00241302 3.16828e-05 0)
(-0.00252062 3.05667e-05 0)
(-0.00262418 2.93351e-05 0)
(-0.00272329 2.79946e-05 0)
(-0.00281759 2.65515e-05 0)
(-0.00290674 2.50124e-05 0)
(-0.00299041 2.33834e-05 0)
(-0.00306829 2.16705e-05 0)
(-0.00314011 1.98802e-05 0)
(-0.0032056 1.80191e-05 0)
(-0.00326454 1.60938e-05 0)
(-0.00331671 1.41107e-05 0)
(-0.00336192 1.20761e-05 0)
(-0.00340001 9.99666e-06 0)
(-0.00343082 7.87901e-06 0)
(-0.00345425 5.72973e-06 0)
(-0.00347019 3.55596e-06 0)
(-0.00347857 1.36491e-06 0)
(-0.00347936 -8.36321e-07 0)
(-0.00347252 -3.04027e-06 0)
(-0.00345807 -5.23979e-06 0)
(-0.00343603 -7.42776e-06 0)
(-0.00340646 -9.59643e-06 0)
(-0.00336945 -1.17379e-05 0)
(-0.00332511 -1.38444e-05 0)
(-0.00327356 -1.59077e-05 0)
(-0.00321499 -1.79198e-05 0)
(-0.00314958 -1.98729e-05 0)
(-0.00307756 -2.17588e-05 0)
(-0.00299917 -2.3569e-05 0)
(-0.0029147 -2.5295e-05 0)
(-0.00282445 -2.69291e-05 0)
(-0.00272876 -2.84628e-05 0)
(-0.00262799 -2.98875e-05 0)
(-0.00252252 -3.11952e-05 0)
(-0.00241279 -3.23779e-05 0)
(-0.00229923 -3.34274e-05 0)
(-0.00218232 -3.43358e-05 0)
(-0.00206256 -3.50958e-05 0)
(-0.00194047 -3.56998e-05 0)
(-0.00181659 -3.61405e-05 0)
(-0.0016915 -3.64107e-05 0)
(-0.00156578 -3.65039e-05 0)
(-0.00144006 -3.6414e-05 0)
(-0.00131496 -3.61348e-05 0)
(-0.00119113 -3.56608e-05 0)
(-0.00106923 -3.49873e-05 0)
(-0.000949951 -3.41095e-05 0)
(-0.000833969 -3.30236e-05 0)
(-0.000721982 -3.17263e-05 0)
(-0.00061469 -3.02153e-05 0)
(-0.000512796 -2.84889e-05 0)
(-0.000416998 -2.65467e-05 0)
(-0.000327985 -2.43889e-05 0)
(-0.00024643 -2.20181e-05 0)
(-0.000172986 -1.94389e-05 0)
(-0.000108268 -1.66588e-05 0)
(-5.28434e-05 -1.36893e-05 0)
(-7.21116e-06 -1.05488e-05 0)
(2.8228e-05 -7.26553e-06 0)
(5.32124e-05 -3.88458e-06 0)
(6.7684e-05 -4.79445e-07 0)
(7.18923e-05 2.82581e-06 0)
(6.65553e-05 5.81819e-06 0)
(5.30845e-05 8.12949e-06 0)
(3.40529e-05 9.1067e-06 0)
(1.45739e-05 7.6479e-06 0)
(2.79316e-06 2.79361e-06 0)
(7.79042e-06 -1.50418e-05 0)
(3.15925e-05 -3.15697e-05 0)
(6.35784e-05 -3.37778e-05 0)
(8.9275e-05 -2.58684e-05 0)
(9.90675e-05 -1.17018e-05 0)
(8.73736e-05 6.09849e-06 0)
(5.07611e-05 2.58046e-05 0)
(-1.2672e-05 4.6288e-05 0)
(-0.000103669 6.68086e-05 0)
(-0.000222162 8.68746e-05 0)
(-0.000367508 0.000106161 0)
(-0.000538652 0.000124448 0)
(-0.000734256 0.000141588 0)
(-0.000952777 0.000157479 0)
(-0.00119253 0.000172063 0)
(-0.00145173 0.000185302 0)
(-0.00172855 0.000197176 0)
(-0.00202111 0.00020768 0)
(-0.00232752 0.000216821 0)
(-0.00264588 0.000224612 0)
(-0.00297434 0.000231075 0)
(-0.00331104 0.000236235 0)
(-0.00365416 0.000240123 0)
(-0.00400191 0.000242771 0)
(-0.00435257 0.000244213 0)
(-0.00470444 0.000244486 0)
(-0.00505588 0.000243628 0)
(-0.00540529 0.000241679 0)
(-0.00575115 0.000238681 0)
(-0.00609197 0.000234674 0)
(-0.00642634 0.000229699 0)
(-0.00675289 0.0002238 0)
(-0.00707031 0.000217018 0)
(-0.00737738 0.000209397 0)
(-0.00767289 0.000200979 0)
(-0.00795575 0.000191807 0)
(-0.00822488 0.000181925 0)
(-0.0084793 0.000171376 0)
(-0.00871807 0.000160205 0)
(-0.00894032 0.000148454 0)
(-0.00914524 0.00013617 0)
(-0.00933211 0.000123395 0)
(-0.00950023 0.000110175 0)
(-0.00964901 9.65553e-05 0)
(-0.0097779 8.25826e-05 0)
(-0.00988642 6.83027e-05 0)
(-0.00997417 5.37626e-05 0)
(-0.0100408 3.90095e-05 0)
(-0.0100861 2.40917e-05 0)
(-0.0101097 9.05883e-06 0)
(-0.0101117 -6.03936e-06 0)
(-0.0100919 -2.11524e-05 0)
(-0.0100503 -3.62289e-05 0)
(-0.00998714 -5.12176e-05 0)
(-0.00990246 -6.60658e-05 0)
(-0.00979655 -8.07198e-05 0)
(-0.00966973 -9.51253e-05 0)
(-0.0095224 -0.000109228 0)
(-0.00935505 -0.000122973 0)
(-0.00916823 -0.000136304 0)
(-0.00896259 -0.000149166 0)
(-0.00873884 -0.000161502 0)
(-0.00849779 -0.000173257 0)
(-0.00824031 -0.000184375 0)
(-0.00796737 -0.000194799 0)
(-0.00768002 -0.000204474 0)
(-0.00737936 -0.000213345 0)
(-0.00706659 -0.000221359 0)
(-0.00674299 -0.000228463 0)
(-0.00640989 -0.000234604 0)
(-0.00606872 -0.000239734 0)
(-0.00572096 -0.000243803 0)
(-0.00536815 -0.000246765 0)
(-0.00501192 -0.000248576 0)
(-0.00465394 -0.000249195 0)
(-0.00429592 -0.000248583 0)
(-0.00393965 -0.000246705 0)
(-0.00358695 -0.000243529 0)
(-0.00323966 -0.000239029 0)
(-0.00289968 -0.000233181 0)
(-0.00256892 -0.000225969 0)
(-0.00224929 -0.000217382 0)
(-0.00194273 -0.000207415 0)
(-0.00165114 -0.000196074 0)
(-0.00137641 -0.000183372 0)
(-0.00112039 -0.000169336 0)
(-0.000884855 -0.000154009 0)
(-0.000671496 -0.000137453 0)
(-0.00048187 -0.000119757 0)
(-0.00031736 -0.000101044 0)
(-0.000179114 -8.14896e-05 0)
(-6.79576e-05 -6.13386e-05 0)
(1.57185e-05 -4.09414e-05 0)
(7.21225e-05 -2.08064e-05 0)
(0.000102294 -1.68681e-06 0)
(0.000108422 1.52883e-05 0)
(9.42061e-05 2.84199e-05 0)
(6.5422e-05 3.51465e-05 0)
(3.17723e-05 3.17691e-05 0)
(7.64026e-06 1.45636e-05 0)
(9.03172e-06 -3.42376e-05 0)
(3.39106e-05 -6.35838e-05 0)
(6.24805e-05 -6.22466e-05 0)
(7.74355e-05 -3.90888e-05 0)
(6.71756e-05 -1.30263e-06 0)
(2.44696e-05 4.57007e-05 0)
(-5.54773e-05 9.80053e-05 0)
(-0.000175518 0.000152843 0)
(-0.00033697 0.000208264 0)
(-0.000539972 0.000262897 0)
(-0.000783791 0.000315776 0)
(-0.00106705 0.000366216 0)
(-0.00138788 0.000413734 0)
(-0.00174408 0.000457994 0)
(-0.00213315 0.000498765 0)
(-0.00255247 0.000535896 0)
(-0.00299923 0.000569297 0)
(-0.00347059 0.000598922 0)
(-0.00396364 0.00062476 0)
(-0.00447546 0.000646828 0)
(-0.00500313 0.000665167 0)
(-0.00554376 0.000679831 0)
(-0.00609449 0.000690892 0)
(-0.00665251 0.000698431 0)
(-0.00721508 0.000702538 0)
(-0.00777952 0.000703309 0)
(-0.00834321 0.000700848 0)
(-0.00890363 0.000695263 0)
(-0.00945833 0.000686664 0)
(-0.010005 0.000675166 0)
(-0.0105412 0.000660886 0)
(-0.0110649 0.000643942 0)
(-0.011574 0.000624454 0)
(-0.0120665 0.000602544 0)
(-0.0125405 0.000578334 0)
(-0.0129941 0.000551948 0)
(-0.0134257 0.000523511 0)
(-0.0138338 0.000493146 0)
(-0.0142167 0.000460983 0)
(-0.0145731 0.000427147 0)
(-0.0149016 0.000391767 0)
(-0.0152012 0.000354973 0)
(-0.0154708 0.000316894 0)
(-0.0157092 0.000277663 0)
(-0.0159157 0.000237413 0)
(-0.0160896 0.000196279 0)
(-0.0162301 0.000154399 0)
(-0.0163367 0.00011191 0)
(-0.0164089 6.8952e-05 0)
(-0.0164466 2.56676e-05 0)
(-0.0164494 -1.77983e-05 0)
(-0.0164173 -6.12998e-05 0)
(-0.0163504 -0.000104689 0)
(-0.0162487 -0.000147815 0)
(-0.0161126 -0.000190526 0)
(-0.0159424 -0.000232669 0)
(-0.0157388 -0.000274086 0)
(-0.0155023 -0.000314621 0)
(-0.0152337 -0.000354115 0)
(-0.0149339 -0.00039241 0)
(-0.014604 -0.000429345 0)
(-0.0142452 -0.000464758 0)
(-0.0138586 -0.000498491 0)
(-0.0134458 -0.000530383 0)
(-0.0130082 -0.000560274 0)
(-0.0125476 -0.000588008 0)
(-0.0120658 -0.000613429 0)
(-0.0115646 -0.000636384 0)
(-0.011046 -0.000656723 0)
(-0.0105123 -0.000674302 0)
(-0.00996572 -0.00068898 0)
(-0.00940857 -0.000700622 0)
(-0.00884335 -0.000709099 0)
(-0.00827261 -0.00071429 0)
(-0.00769902 -0.00071608 0)
(-0.00712532 -0.000714367 0)
(-0.0065543 -0.000709057 0)
(-0.00598884 -0.000700068 0)
(-0.00543187 -0.000687332 0)
(-0.00488634 -0.000670795 0)
(-0.00435525 -0.000650421 0)
(-0.0038416 -0.000626194 0)
(-0.00334837 -0.00059812 0)
(-0.00287852 -0.000566233 0)
(-0.00243496 -0.000530599 0)
(-0.00202049 -0.000491323 0)
(-0.0016378 -0.000448559 0)
(-0.00128941 -0.000402526 0)
(-0.000977605 -0.00035352 0)
(-0.000704356 -0.000301948 0)
(-0.000471243 -0.000248358 0)
(-0.000279319 -0.000193495 0)
(-0.000128951 -0.000138381 0)
(-1.96034e-05 -8.44272e-05 0)
(5.04412e-05 -3.35971e-05 0)
(8.44404e-05 1.13621e-05 0)
(8.75332e-05 4.6623e-05 0)
(6.72125e-05 6.69457e-05 0)
(3.52676e-05 6.54452e-05 0)
(9.11614e-06 3.40434e-05 0)
(7.86891e-06 -5.24246e-05 0)
(2.62669e-05 -8.94889e-05 0)
(3.98904e-05 -7.73074e-05 0)
(3.11074e-05 -3.00961e-05 0)
(-1.22416e-05 4.14069e-05 0)
(-9.814e-05 0.000128846 0)
(-0.000232046 0.000225893 0)
(-0.000417355 0.000327859 0)
(-0.000655727 0.000431299 0)
(-0.000947454 0.000533693 0)
(-0.00129176 0.000633192 0)
(-0.00168704 0.000728449 0)
(-0.00213105 0.000818483 0)
(-0.00262106 0.000902585 0)
(-0.00315397 0.000980255 0)
(-0.00372643 0.00105115 0)
(-0.00433487 0.00111504 0)
(-0.00497562 0.00117181 0)
(-0.0056449 0.00122138 0)
(-0.0063389 0.00126378 0)
(-0.00705378 0.00129904 0)
(-0.00778574 0.00132725 0)
(-0.008531 0.00134852 0)
(-0.00928584 0.001363 0)
(-0.0100466 0.00137085 0)
(-0.0108097 0.00137225 0)
(-0.0115717 0.00136737 0)
(-0.0123291 0.00135643 0)
(-0.0130787 0.00133963 0)
(-0.0138174 0.00131719 0)
(-0.014542 0.00128933 0)
(-0.0152496 0.00125627 0)
(-0.0159374 0.00121826 0)
(-0.0166028 0.00117551 0)
(-0.0172431 0.00112828 0)
(-0.0178559 0.00107679 0)
(-0.018439 0.00102129 0)
(-0.0189901 0.000962032 0)
(-0.0195073 0.000899253 0)
(-0.0199887 0.000833205 0)
(-0.0204324 0.00076414 0)
(-0.020837 0.000692311 0)
(-0.0212009 0.000617974 0)
(-0.0215228 0.000541387 0)
(-0.0218015 0.000462814 0)
(-0.0220361 0.000382517 0)
(-0.0222255 0.000300767 0)
(-0.0223692 0.000217833 0)
(-0.0224665 0.000133993 0)
(-0.022517 4.95235e-05 0)
(-0.0225205 -3.52914e-05 0)
(-0.0224768 -0.000120165 0)
(-0.022386 -0.000204809 0)
(-0.0222483 -0.000288927 0)
(-0.0220641 -0.000372223 0)
(-0.0218339 -0.000454395 0)
(-0.0215586 -0.000535141 0)
(-0.0212389 -0.000614152 0)
(-0.0208759 -0.000691122 0)
(-0.0204708 -0.000765739 0)
(-0.0200251 -0.000837691 0)
(-0.0195404 -0.000906669 0)
(-0.0190183 -0.000972359 0)
(-0.0184608 -0.00103445 0)
(-0.0178699 -0.00109264 0)
(-0.017248 -0.00114662 0)
(-0.0165974 -0.00119609 0)
(-0.0159207 -0.00124076 0)
(-0.0152207 -0.00128034 0)
(-0.0145002 -0.00131455 0)
(-0.0137623 -0.00134312 0)
(-0.0130101 -0.0013658 0)
(-0.0122469 -0.00138234 0)
(-0.0114763 -0.00139252 0)
(-0.0107016 -0.00139611 0)
(-0.00992667 -0.00139293 0)
(-0.00915511 -0.00138281 0)
(-0.00839078 -0.0013656 0)
(-0.00763757 -0.00134117 0)
(-0.00689938 -0.00130946 0)
(-0.00618017 -0.00127039 0)
(-0.00548387 -0.00122396 0)
(-0.00481441 -0.00117021 0)
(-0.00417565 -0.00110923 0)
(-0.00357134 -0.00104117 0)
(-0.00300512 -0.000966293 0)
(-0.00248042 -0.000884921 0)
(-0.00200042 -0.000797526 0)
(-0.00156799 -0.000704731 0)
(-0.00118556 -0.000607366 0)
(-0.000855006 -0.000506528 0)
(-0.000577543 -0.000403673 0)
(-0.000353499 -0.000300735 0)
(-0.000182106 -0.000200299 0)
(-6.12118e-05 -0.000105821 0)
(1.30512e-05 -2.19379e-05 0)
(4.65742e-05 4.51724e-05 0)
(4.76779e-05 8.74262e-05 0)
(2.88684e-05 9.45137e-05 0)
(8.20112e-06 5.31846e-05 0)
(5.44911e-06 -6.46317e-05 0)
(1.2523e-05 -9.98649e-05 0)
(3.01576e-06 -6.75799e-05 0)
(-3.90003e-05 1.30371e-05 0)
(-0.000125171 0.000127805 0)
(-0.000263577 0.000265527 0)
(-0.00045984 0.000417485 0)
(-0.000717493 0.000577021 0)
(-0.00103831 0.000739089 0)
(-0.0014226 0.000899876 0)
(-0.0018695 0.00105651 0)
(-0.00237721 0.00120685 0)
(-0.00294316 0.00134928 0)
(-0.00356421 0.00148261 0)
(-0.00423676 0.00160598 0)
(-0.00495686 0.00171878 0)
(-0.00572029 0.0018206 0)
(-0.00652268 0.00191116 0)
(-0.0073595 0.00199034 0)
(-0.00822617 0.00205809 0)
(-0.00911807 0.00211446 0)
(-0.0100306 0.00215956 0)
(-0.0109591 0.00219354 0)
(-0.0118991 0.0022166 0)
(-0.0128461 0.00222899 0)
(-0.0137957 0.00223096 0)
(-0.0147436 0.00222282 0)
(-0.0156857 0.00220487 0)
(-0.016618 0.00217745 0)
(-0.0175364 0.00214088 0)
(-0.0184373 0.00209553 0)
(-0.019317 0.00204175 0)
(-0.020172 0.00197992 0)
(-0.020999 0.00191041 0)
(-0.0217948 0.0018336 0)
(-0.0225564 0.00174988 0)
(-0.023281 0.00165965 0)
(-0.0239659 0.00156329 0)
(-0.0246085 0.00146121 0)
(-0.0252066 0.00135382 0)
(-0.0257578 0.00124152 0)
(-0.0262604 0.00112472 0)
(-0.0267123 0.00100385 0)
(-0.0271121 0.000879327 0)
(-0.0274582 0.000751574 0)
(-0.0277493 0.000621027 0)
(-0.0279844 0.000488123 0)
(-0.0281626 0.000353304 0)
(-0.0282831 0.000217021 0)
(-0.0283455 7.97281e-05 0)
(-0.0283494 -5.81141e-05 0)
(-0.0282948 -0.000196039 0)
(-0.0281816 -0.000333573 0)
(-0.0280101 -0.000470239 0)
(-0.0277809 -0.000605552 0)
(-0.0274947 -0.000739023 0)
(-0.0271523 -0.000870159 0)
(-0.0267548 -0.000998462 0)
(-0.0263036 -0.00112343 0)
(-0.0258002 -0.00124457 0)
(-0.0252464 -0.00136136 0)
(-0.024644 -0.00147332 0)
(-0.0239954 -0.00157992 0)
(-0.0233028 -0.00168068 0)
(-0.0225688 -0.00177509 0)
(-0.0217962 -0.00186268 0)
(-0.020988 -0.00194295 0)
(-0.0201475 -0.00201543 0)
(-0.0192779 -0.00207967 0)
(-0.0183829 -0.00213521 0)
(-0.0174661 -0.00218164 0)
(-0.0165315 -0.00221854 0)
(-0.0155832 -0.00224552 0)
(-0.0146254 -0.00226223 0)
(-0.0136625 -0.00226833 0)
(-0.0126988 -0.00226352 0)
(-0.011739 -0.00224755 0)
(-0.0107878 -0.00222019 0)
(-0.00984992 -0.00218127 0)
(-0.00893006 -0.00213067 0)
(-0.00803306 -0.00206833 0)
(-0.00716369 -0.00199426 0)
(-0.00632667 -0.00190855 0)
(-0.00552665 -0.0018114 0)
(-0.00476814 -0.00170309 0)
(-0.00405545 -0.00158406 0)
(-0.00339264 -0.00145491 0)
(-0.00278347 -0.00131643 0)
(-0.00223127 -0.00116968 0)
(-0.00173883 -0.00101603 0)
(-0.00130832 -0.00085725 0)
(-0.000941079 -0.00069566 0)
(-0.000637468 -0.000534251 0)
(-0.000396629 -0.000376917 0)
(-0.000216236 -0.000228721 0)
(-9.22007e-05 -9.6243e-05 0)
(-1.83952e-05 1.20009e-05 0)
(1.37103e-05 8.51507e-05 0)
(1.62866e-05 0.000109533 0)
(6.00169e-06 6.69977e-05 0)
(2.42221e-06 -6.8474e-05 0)
(-4.75143e-06 -8.92661e-05 0)
(-4.29127e-05 -2.59478e-05 0)
(-0.000124882 9.82198e-05 0)
(-0.000260975 0.000265978 0)
(-0.000458891 0.0004635 0)
(-0.000723982 0.000679816 0)
(-0.00105961 0.000906349 0)
(-0.0014674 0.00113644 0)
(-0.00194755 0.00136493 0)
(-0.00249903 0.00158785 0)
(-0.0031198 0.00180217 0)
(-0.00380699 0.00200555 0)
(-0.00455709 0.00219624 0)
(-0.00536605 0.00237296 0)
(-0.00622942 0.00253474 0)
(-0.00714243 0.00268092 0)
(-0.00810009 0.00281108 0)
(-0.00909724 0.00292494 0)
(-0.0101286 0.00302241 0)
(-0.0111889 0.0031035 0)
(-0.0122727 0.00316832 0)
(-0.0133748 0.00321708 0)
(-0.0144899 0.00325003 0)
(-0.0156127 0.0032675 0)
(-0.0167382 0.00326984 0)
(-0.0178614 0.00325747 0)
(-0.0189773 0.00323083 0)
(-0.0200813 0.00319036 0)
(-0.0211688 0.00313657 0)
(-0.0222353 0.00306994 0)
(-0.0232766 0.00299101 0)
(-0.0242885 0.00290031 0)
(-0.0252672 0.00279837 0)
(-0.0262088 0.00268576 0)
(-0.02711 0.00256304 0)
(-0.0279672 0.00243078 0)
(-0.0287774 0.00228955 0)
(-0.0295375 0.00213994 0)
(-0.0302448 0.00198256 0)
(-0.0308968 0.00181798 0)
(-0.0314911 0.00164683 0)
(-0.0320254 0.00146971 0)
(-0.032498 0.00128724 0)
(-0.0329071 0.00110005 0)
(-0.0332512 0.000908782 0)
(-0.0335289 0.000714068 0)
(-0.0337393 0.000516563 0)
(-0.0338815 0.000316926 0)
(-0.033955 0.000115825 0)
(-0.0339592 -8.6063e-05 0)
(-0.0338942 -0.000288054 0)
(-0.0337599 -0.000489456 0)
(-0.0335569 -0.000689566 0)
(-0.0332855 -0.000887676 0)
(-0.0329466 -0.00108307 0)
(-0.0325414 -0.00127503 0)
(-0.0320712 -0.00146282 0)
(-0.0315374 -0.00164572 0)
(-0.0309419 -0.00182299 0)
(-0.0302868 -0.00199389 0)
(-0.0295744 -0.0021577 0)
(-0.0288072 -0.00231367 0)
(-0.027988 -0.00246109 0)
(-0.02712 -0.00259923 0)
(-0.0262063 -0.00272738 0)
(-0.0252505 -0.00284485 0)
(-0.0242563 -0.00295094 0)
(-0.0232278 -0.00304501 0)
(-0.0221691 -0.00312639 0)
(-0.0210845 -0.00319449 0)
(-0.0199787 -0.00324871 0)
(-0.0188565 -0.0032885 0)
(-0.0177227 -0.00331335 0)
(-0.0165824 -0.00332279 0)
(-0.015441 -0.00331641 0)
(-0.0143037 -0.00329384 0)
(-0.0131759 -0.00325478 0)
(-0.0120631 -0.003199 0)
(-0.0109709 -0.00312637 0)
(-0.00990484 -0.00303682 0)
(-0.00887038 -0.00293041 0)
(-0.00787299 -0.0028073 0)
(-0.00691798 -0.00266782 0)
(-0.00601051 -0.00251244 0)
(-0.0051555 -0.00234185 0)
(-0.00435757 -0.00215695 0)
(-0.00362094 -0.00195895 0)
(-0.00294936 -0.00174942 0)
(-0.00234598 -0.00153036 0)
(-0.00181321 -0.00130432 0)
(-0.00135259 -0.00107455 0)
(-0.000964588 -0.000845201 0)
(-0.000648428 -0.00062153 0)
(-0.000401847 -0.000410224 0)
(-0.000220864 -0.000219771 0)
(-9.95196e-05 -6.09125e-05 0)
(-2.95582e-05 5.2905e-05 0)
(4.75668e-08 0.000104955 0)
(3.1651e-06 7.30262e-05 0)
(-8.56699e-07 -6.27023e-05 0)
(-2.39392e-05 -5.42657e-05 0)
(-9.42553e-05 5.2431e-05 0)
(-0.000220711 0.000231081 0)
(-0.00041173 0.000461823 0)
(-0.00067424 0.000728533 0)
(-0.00101301 0.00101819 0)
(-0.00143092 0.00132042 0)
(-0.00192929 0.00162701 0)
(-0.00250801 0.00193147 0)
(-0.00316577 0.00222871 0)
(-0.00390025 0.00251475 0)
(-0.00470828 0.0027865 0)
(-0.00558596 0.00304159 0)
(-0.00652885 0.00327822 0)
(-0.00753203 0.00349506 0)
(-0.00859024 0.00369116 0)
(-0.00969795 0.00386585 0)
(-0.0108494 0.00401873 0)
(-0.0120388 0.0041496 0)
(-0.0132602 0.00425843 0)
(-0.0145075 0.00434533 0)
(-0.0157749 0.00441053 0)
(-0.0170564 0.00445434 0)
(-0.0183461 0.00447716 0)
(-0.0196383 0.00447947 0)
(-0.0209273 0.00446178 0)
(-0.0222076 0.00442468 0)
(-0.0234739 0.00436877 0)
(-0.0247209 0.0042947 0)
(-0.0259436 0.00420314 0)
(-0.0271372 0.00409479 0)
(-0.028297 0.00397037 0)
(-0.0294184 0.00383061 0)
(-0.0304974 0.00367627 0)
(-0.0315298 0.00350812 0)
(-0.0325118 0.00332692 0)
(-0.0334397 0.00313347 0)
(-0.0343103 0.00292856 0)
(-0.0351203 0.00271301 0)
(-0.0358669 0.00248764 0)
(-0.0365473 0.00225327 0)
(-0.037159 0.00201075 0)
(-0.0377 0.00176092 0)
(-0.0381682 0.00150465 0)
(-0.0385619 0.00124279 0)
(-0.0388796 0.000976245 0)
(-0.0391203 0.000705894 0)
(-0.0392828 0.000432644 0)
(-0.0393665 0.000157411 0)
(-0.0393711 -0.000118881 0)
(-0.0392963 -0.000395292 0)
(-0.0391423 -0.000670875 0)
(-0.0389095 -0.000944669 0)
(-0.0385985 -0.00121571 0)
(-0.0382103 -0.00148301 0)
(-0.0377462 -0.00174559 0)
(-0.0372075 -0.00200246 0)
(-0.0365962 -0.00225261 0)
(-0.0359143 -0.00249506 0)
(-0.0351641 -0.00272879 0)
(-0.0343483 -0.00295281 0)
(-0.0334698 -0.00316613 0)
(-0.0325318 -0.00336775 0)
(-0.0315378 -0.0035567 0)
(-0.0304914 -0.00373201 0)
(-0.0293968 -0.00389274 0)
(-0.0282582 -0.00403797 0)
(-0.02708 -0.00416679 0)
(-0.0258671 -0.00427836 0)
(-0.0246245 -0.00437182 0)
(-0.0233572 -0.00444642 0)
(-0.0220707 -0.00450139 0)
(-0.0207707 -0.00453607 0)
(-0.0194628 -0.00454984 0)
(-0.018153 -0.00454215 0)
(-0.0168472 -0.00451253 0)
(-0.0155516 -0.00446059 0)
(-0.0142724 -0.00438607 0)
(-0.0130157 -0.00428879 0)
(-0.0117879 -0.00416873 0)
(-0.010595 -0.00402598 0)
(-0.00944312 -0.00386083 0)
(-0.00833822 -0.00367376 0)
(-0.00728602 -0.00346546 0)
(-0.00629196 -0.00323691 0)
(-0.00536116 -0.00298938 0)
(-0.00449829 -0.00272457 0)
(-0.00370749 -0.00244458 0)
(-0.00299223 -0.00215213 0)
(-0.00235523 -0.00185061 0)
(-0.00179826 -0.00154426 0)
(-0.00132205 -0.00123839 0)
(-0.000926031 -0.000939645 0)
(-0.000608227 -0.000656279 0)
(-0.000365035 -0.000398582 0)
(-0.000190991 -0.000179342 0)
(-7.84908e-05 -1.42984e-05 0)
(-1.82199e-05 7.72312e-05 0)
(4.71526e-08 6.99462e-05 0)
(-4.19548e-06 -4.67034e-05 0)
(-4.40204e-05 7.16636e-06 0)
(-0.000148543 0.000170702 0)
(-0.00032236 0.000415448 0)
(-0.000571653 0.000719498 0)
(-0.000902297 0.00106478 0)
(-0.00131821 0.0014365 0)
(-0.00182161 0.00182264 0)
(-0.00241327 0.00221354 0)
(-0.00309265 0.00260144 0)
(-0.00385808 0.00298013 0)
(-0.00470686 0.0033447 0)
(-0.00563546 0.00369128 0)
(-0.00663962 0.00401684 0)
(-0.00771447 0.00431905 0)
(-0.00885469 0.00459616 0)
(-0.0100545 0.00484687 0)
(-0.011308 0.00507029 0)
(-0.0126088 0.00526583 0)
(-0.0139507 0.00543317 0)
(-0.0153269 0.00557222 0)
(-0.0167312 0.00568306 0)
(-0.0181568 0.00576594 0)
(-0.0195972 0.00582124 0)
(-0.0210461 0.00584942 0)
(-0.022497 0.00585108 0)
(-0.0239438 0.00582685 0)
(-0.0253802 0.00577746 0)
(-0.0268005 0.00570367 0)
(-0.0281987 0.00560631 0)
(-0.0295694 0.00548624 0)
(-0.0309071 0.00534435 0)
(-0.0322067 0.00518156 0)
(-0.0334632 0.00499883 0)
(-0.0346718 0.00479711 0)
(-0.0358281 0.00457741 0)
(-0.0369279 0.00434073 0)
(-0.037967 0.0040881 0)
(-0.0389417 0.00382054 0)
(-0.0398486 0.00353913 0)
(-0.0406843 0.00324492 0)
(-0.0414458 0.00293899 0)
(-0.0421305 0.00262245 0)
(-0.0427359 0.00229639 0)
(-0.0432598 0.00196195 0)
(-0.0437003 0.00162025 0)
(-0.0440557 0.00127245 0)
(-0.0443248 0.000919708 0)
(-0.0445064 0.000563209 0)
(-0.0445999 0.000204146 0)
(-0.0446048 -0.000156273 0)
(-0.0445209 -0.000516825 0)
(-0.0443483 -0.000876272 0)
(-0.0440876 -0.00123336 0)
(-0.0437393 -0.00158684 0)
(-0.0433047 -0.00193543 0)
(-0.0427851 -0.00227784 0)
(-0.0421821 -0.00261279 0)
(-0.0414978 -0.00293898 0)
(-0.0407345 -0.00325511 0)
(-0.0398948 -0.00355989 0)
(-0.0389816 -0.00385201 0)
(-0.0379982 -0.00413018 0)
(-0.0369482 -0.00439313 0)
(-0.0358354 -0.0046396 0)
(-0.0346639 -0.00486833 0)
(-0.0334383 -0.0050781 0)
(-0.0321632 -0.00526773 0)
(-0.0308437 -0.00543607 0)
(-0.029485 -0.00558199 0)
(-0.0280926 -0.00570445 0)
(-0.0266724 -0.00580244 0)
(-0.0252302 -0.00587501 0)
(-0.0237724 -0.00592131 0)
(-0.0223051 -0.00594055 0)
(-0.0208349 -0.00593205 0)
(-0.0193685 -0.00589522 0)
(-0.0179126 -0.00582962 0)
(-0.016474 -0.0057349 0)
(-0.0150595 -0.00561089 0)
(-0.013676 -0.0054576 0)
(-0.0123301 -0.00527519 0)
(-0.0110286 -0.00506409 0)
(-0.009778 -0.00482495 0)
(-0.00858444 -0.00455873 0)
(-0.00745391 -0.00426673 0)
(-0.00639198 -0.00395064 0)
(-0.00540375 -0.00361266 0)
(-0.00449373 -0.00325551 0)
(-0.00366578 -0.00288264 0)
(-0.00292293 -0.0024983 0)
(-0.00226731 -0.00210774 0)
(-0.00169995 -0.00171744 0)
(-0.00122069 -0.00133535 0)
(-0.000828002 -0.000971223 0)
(-0.000518894 -0.000636999 0)
(-0.000288646 -0.000347272 0)
(-0.000130589 -0.000119738 0)
(-3.74791e-05 2.42136e-05 0)
(-3.15488e-06 5.70839e-05 0)
(-7.49887e-06 -2.02669e-05 0)
(-6.43699e-05 9.60686e-05 0)
(-0.000204136 0.000330676 0)
(-0.000426956 0.000653717 0)
(-0.000736589 0.00104174 0)
(-0.00113767 0.00147511 0)
(-0.00163309 0.0019375 0)
(-0.0022242 0.00241548 0)
(-0.00291109 0.00289807 0)
(-0.00369268 0.0033763 0)
(-0.00456678 0.00384295 0)
(-0.00553029 0.00429216 0)
(-0.00657924 0.00471928 0)
(-0.00770898 0.00512063 0)
(-0.00891423 0.00549333 0)
(-0.0101892 0.00583517 0)
(-0.0115278 0.00614451 0)
(-0.0129235 0.00642019 0)
(-0.0143696 0.00666141 0)
(-0.0158591 0.00686773 0)
(-0.0173852 0.00703897 0)
(-0.0189407 0.00717518 0)
(-0.0205185 0.00727662 0)
(-0.0221116 0.0073437 0)
(-0.023713 0.007377 0)
(-0.0253158 0.00737718 0)
(-0.0269132 0.00734503 0)
(-0.0284987 0.00728142 0)
(-0.0300657 0.00718729 0)
(-0.0316079 0.00706365 0)
(-0.0331193 0.00691155 0)
(-0.034594 0.0067321 0)
(-0.0360264 0.00652645 0)
(-0.037411 0.00629577 0)
(-0.0387426 0.00604127 0)
(-0.0400164 0.00576419 0)
(-0.0412277 0.00546578 0)
(-0.0423721 0.00514734 0)
(-0.0434455 0.00481017 0)
(-0.044444 0.00445558 0)
(-0.0453641 0.00408492 0)
(-0.0462024 0.00369955 0)
(-0.0469561 0.00330084 0)
(-0.0476224 0.00289018 0)
(-0.0481989 0.002469 0)
(-0.0486836 0.00203871 0)
(-0.0490747 0.00160077 0)
(-0.0493708 0.00115664 0)
(-0.0495706 0.000707813 0)
(-0.0496734 0.000255783 0)
(-0.0496786 -0.000197927 0)
(-0.0495861 -0.000651778 0)
(-0.0493961 -0.00110422 0)
(-0.049109 -0.00155367 0)
(-0.0487257 -0.00199855 0)
(-0.0482473 -0.00243727 0)
(-0.0476754 -0.0028682 0)
(-0.0470117 -0.00328974 0)
(-0.0462585 -0.00370025 0)
(-0.0454184 -0.00409811 0)
(-0.0444941 -0.0044817 0)
(-0.0434889 -0.00484939 0)
(-0.0424064 -0.00519956 0)
(-0.0412504 -0.00553062 0)
(-0.0400251 -0.00584099 0)
(-0.0387352 -0.00612912 0)
(-0.0373854 -0.00639348 0)
(-0.0359809 -0.0066326 0)
(-0.0345273 -0.00684504 0)
(-0.0330301 -0.00702942 0)
(-0.0314955 -0.00718443 0)
(-0.0299296 -0.00730884 0)
(-0.0283391 -0.00740148 0)
(-0.0267306 -0.00746129 0)
(-0.025111 -0.00748732 0)
(-0.0234875 -0.00747875 0)
(-0.0218671 -0.00743487 0)
(-0.0202572 -0.00735515 0)
(-0.0186651 -0.0072392 0)
(-0.0170983 -0.00708685 0)
(-0.0155642 -0.00689814 0)
(-0.0140699 -0.00667333 0)
(-0.0126228 -0.006413 0)
(-0.0112298 -0.00611801 0)
(-0.00989754 -0.00578959 0)
(-0.00863257 -0.0054294 0)
(-0.00744085 -0.00503958 0)
(-0.0063279 -0.00462284 0)
(-0.00529866 -0.00418258 0)
(-0.00435735 -0.00372295 0)
(-0.00350742 -0.00324909 0)
(-0.00275138 -0.00276725 0)
(-0.00209074 -0.00228501 0)
(-0.00152581 -0.00181159 0)
(-0.00105572 -0.00135808 0)
(-0.000678229 -0.000937918 0)
(-0.000389561 -0.000567244 0)
(-0.000184173 -0.000265359 0)
(-5.70825e-05 -5.52311e-05 0)
(-6.33473e-06 3.4182e-05 0)
(-1.07141e-05 1.65821e-05 0)
(-8.46109e-05 0.000212807 0)
(-0.00025996 0.000533229 0)
(-0.00053253 0.000947207 0)
(-0.000903602 0.00143018 0)
(-0.00137646 0.00196131 0)
(-0.00195283 0.00252302 0)
(-0.00263307 0.00310063 0)
(-0.00341648 0.00368202 0)
(-0.00430128 0.00425714 0)
(-0.00528474 0.00481776 0)
(-0.00636321 0.00535718 0)
(-0.00753228 0.00586999 0)
(-0.00878684 0.00635185 0)
(-0.0101212 0.00679932 0)
(-0.0115291 0.00720977 0)
(-0.013004 0.00758117 0)
(-0.014539 0.00791208 0)
(-0.0161269 0.00820149 0)
(-0.0177603 0.00844881 0)
(-0.0194318 0.00865376 0)
(-0.0211338 0.00881636 0)
(-0.0228587 0.00893688 0)
(-0.024599 0.00901576 0)
(-0.0263473 0.00905366 0)
(-0.0280961 0.00905135 0)
(-0.0298382 0.00900976 0)
(-0.0315664 0.0089299 0)
(-0.0332739 0.00881291 0)
(-0.0349538 0.00865998 0)
(-0.0365997 0.00847237 0)
(-0.0382051 0.00825143 0)
(-0.0397641 0.00799853 0)
(-0.0412708 0.00771509 0)
(-0.0427196 0.00740259 0)
(-0.0441052 0.00706253 0)
(-0.0454227 0.00669643 0)
(-0.0466672 0.00630586 0)
(-0.0478343 0.00589242 0)
(-0.0489199 0.0054577 0)
(-0.0499201 0.00500336 0)
(-0.0508314 0.00453104 0)
(-0.0516506 0.00404243 0)
(-0.0523747 0.00353925 0)
(-0.0530013 0.0030232 0)
(-0.0535281 0.00249606 0)
(-0.0539531 0.00195957 0)
(-0.0542747 0.00141555 0)
(-0.0544919 0.000865796 0)
(-0.0546035 0.000312158 0)
(-0.0546093 -0.000243508 0)
(-0.0545088 -0.000799321 0)
(-0.0543024 -0.00135338 0)
(-0.0539905 -0.00190377 0)
(-0.0535741 -0.00244854 0)
(-0.0530543 -0.00298576 0)
(-0.0524329 -0.00351344 0)
(-0.0517119 -0.00402963 0)
(-0.0508935 -0.00453234 0)
(-0.0499806 -0.00501957 0)
(-0.0489762 -0.00548936 0)
(-0.0478837 -0.00593973 0)
(-0.0467071 -0.00636871 0)
(-0.0454506 -0.00677437 0)
(-0.0441185 -0.00715478 0)
(-0.042716 -0.00750806 0)
(-0.0412481 -0.00783236 0)
(-0.0397204 -0.0081259 0)
(-0.0381389 -0.00838693 0)
(-0.0365096 -0.0086138 0)
(-0.0348391 -0.00880492 0)
(-0.0331341 -0.0089588 0)
(-0.0314015 -0.00907405 0)
(-0.0296486 -0.0091494 0)
(-0.0278828 -0.00918373 0)
(-0.0261117 -0.00917605 0)
(-0.0243429 -0.00912554 0)
(-0.0225843 -0.00903157 0)
(-0.0208438 -0.00889374 0)
(-0.0191294 -0.00871186 0)
(-0.0174488 -0.00848602 0)
(-0.0158098 -0.00821659 0)
(-0.0142203 -0.0079043 0)
(-0.0126875 -0.00755024 0)
(-0.0112188 -0.00715594 0)
(-0.00982099 -0.00672344 0)
(-0.00850053 -0.00625533 0)
(-0.00726339 -0.00575486 0)
(-0.0061149 -0.00522608 0)
(-0.00505976 -0.00467389 0)
(-0.00410184 -0.00410427 0)
(-0.00324416 -0.00352442 0)
(-0.00248874 -0.002943 0)
(-0.00183655 -0.00237035 0)
(-0.00128742 -0.00181883 0)
(-0.000840054 -0.00130313 0)
(-0.000491726 -0.000840712 0)
(-0.000238137 -0.000452147 0)
(-7.66337e-05 -0.000161552 0)
(-9.43756e-06 1.23357e-06 0)
(-1.38201e-05 6.36806e-05 0)
(-0.000104521 0.000357319 0)
(-0.000315329 0.000778582 0)
(-0.00063777 0.00129645 0)
(-0.00107066 0.00188563 0)
(-0.00161589 0.00252438 0)
(-0.00227394 0.0031941 0)
(-0.0030441 0.00387912 0)
(-0.00392473 0.00456627 0)
(-0.00491333 0.00524457 0)
(-0.00600649 0.00590489 0)
(-0.00719999 0.00653972 0)
(-0.00848887 0.00714292 0)
(-0.00986756 0.00770954 0)
(-0.0113299 0.00823561 0)
(-0.0128692 0.00871804 0)
(-0.0144785 0.00915444 0)
(-0.0161503 0.00954307 0)
(-0.0178771 0.00988272 0)
(-0.0196511 0.0101726 0)
(-0.0214644 0.0104124 0)
(-0.0233089 0.0106021 0)
(-0.0251766 0.0107419 0)
(-0.0270596 0.0108323 0)
(-0.0289499 0.0108741 0)
(-0.0308397 0.0108681 0)
(-0.0327212 0.0108154 0)
(-0.0345869 0.0107171 0)
(-0.0364295 0.0105747 0)
(-0.0382416 0.0103894 0)
(-0.0400165 0.0101629 0)
(-0.0417473 0.00989656 0)
(-0.0434275 0.00959213 0)
(-0.045051 0.00925126 0)
(-0.0466119 0.00887571 0)
(-0.0481044 0.00846725 0)
(-0.0495232 0.00802772 0)
(-0.0508632 0.00755896 0)
(-0.0521198 0.00706287 0)
(-0.0532885 0.00654139 0)
(-0.0543652 0.00599645 0)
(-0.0553461 0.00543005 0)
(-0.0562277 0.0048442 0)
(-0.0570071 0.00424094 0)
(-0.0576814 0.00362232 0)
(-0.0582483 0.00299045 0)
(-0.0587057 0.00234745 0)
(-0.0590519 0.00169544 0)
(-0.0592857 0.00103662 0)
(-0.059406 0.000373181 0)
(-0.0594124 -0.000292661 0)
(-0.0593045 -0.000958653 0)
(-0.0590827 -0.00162253 0)
(-0.0587474 -0.00228198 0)
(-0.0582997 -0.00293472 0)
(-0.0577408 -0.00357839 0)
(-0.0570726 -0.00421066 0)
(-0.056297 -0.00482917 0)
(-0.0554168 -0.00543157 0)
(-0.0544347 -0.00601548 0)
(-0.0533541 -0.00657854 0)
(-0.0521787 -0.0071184 0)
(-0.0509126 -0.00763273 0)