/*--------------------------------*- C++ -*----------------------------------*\
| =========                 |                                                 |
| \\      /  F ield         | OpenFOAM: The Open Source CFD Toolbox           |
|  \\    /   O peration     | Version:  2212                                  |
|   \\  /    A nd           | Website:  www.openfoam.com                      |
|    \\/     M anipulation  |                                                 |
\*---------------------------------------------------------------------------*/
FoamFile
{
    version     2.0;
    format      ascii;
    arch        "LSB;label=32;scalar=64";
    class       surfaceScalarField;
    location    "0.05";
    object      phi_0;
}
// * * * * * * * * * * * * * * * * * * * * * * * * * * * * * * * * * * * * * //

dimensions      [0 3 -1 0 0 0 0];

oriented        oriented;

internalField   nonuniform List<scalar> 
19800
(
6.51132e-11
-6.51036e-11
2.22579e-10
-1.57475e-10
3.95549e-10
-1.72964e-10
5.28199e-10
-1.32653e-10
5.90028e-10
-6.18214e-11
5.6526e-10
2.47594e-11
4.46522e-10
1.18742e-10
2.31514e-10
2.14993e-10
-7.88517e-11
3.10382e-10
-4.8174e-10
4.02898e-10
-9.7299e-10
4.91242e-10
-1.54756e-09
5.74582e-10
-2.19989e-09
6.52327e-10
-2.92402e-09
7.24128e-10
-3.71378e-09
7.89778e-10
-4.56292e-09
8.49135e-10
-5.46508e-09
9.0216e-10
-6.41396e-09
9.48879e-10
-7.40329e-09
9.89336e-10
-8.42695e-09
1.02364e-09
-9.47886e-09
1.05192e-09
-1.05531e-08
1.07426e-09
-1.1644e-08
1.09085e-09
-1.27459e-08
1.10185e-09
-1.38533e-08
1.10743e-09
-1.4961e-08
1.10775e-09
-1.60641e-08
1.10302e-09
-1.71575e-08
1.09342e-09
-1.82366e-08
1.07914e-09
-1.9297e-08
1.06037e-09
-2.03343e-08
1.03732e-09
-2.13445e-08
1.01017e-09
-2.23236e-08
9.79101e-10
-2.32679e-08
9.44327e-10
-2.41739e-08
9.06053e-10
-2.50384e-08
8.64467e-10
-2.58582e-08
8.19757e-10
-2.66303e-08
7.7212e-10
-2.7352e-08
7.21755e-10
-2.80209e-08
6.68858e-10
-2.86345e-08
6.13614e-10
-2.91907e-08
5.56219e-10
-2.96876e-08
4.96882e-10
-3.01234e-08
4.35802e-10
-3.04966e-08
3.73173e-10
-3.08058e-08
3.09192e-10
-3.10498e-08
2.44063e-10
-3.12278e-08
1.77998e-10
-3.1339e-08
1.11207e-10
-3.13829e-08
4.38993e-11
-3.13592e-08
-2.37118e-11
-3.12678e-08
-9.14107e-11
-3.11088e-08
-1.58973e-10
-3.08827e-08
-2.26173e-10
-3.05899e-08
-2.9279e-10
-3.02313e-08
-3.58592e-10
-2.98079e-08
-4.23336e-10
-2.93212e-08
-4.86793e-10
-2.87724e-08
-5.48728e-10
-2.81635e-08
-6.08882e-10
-2.74965e-08
-6.67007e-10
-2.67737e-08
-7.22869e-10
-2.59975e-08
-7.76212e-10
-2.51707e-08
-8.26776e-10
-2.42964e-08
-8.74324e-10
-2.33777e-08
-9.18618e-10
-2.24183e-08
-9.59394e-10
-2.14219e-08
-9.96396e-10
-2.03926e-08
-1.02939e-09
-1.93344e-08
-1.05815e-09
-1.8252e-08
-1.08242e-09
-1.715e-08
-1.10199e-09
-1.60334e-08
-1.11665e-09
-1.49072e-08
-1.12618e-09
-1.37768e-08
-1.13038e-09
-1.26478e-08
-1.12904e-09
-1.15257e-08
-1.12202e-09
-1.04166e-08
-1.10913e-09
-9.32637e-09
-1.09024e-09
-8.26114e-09
-1.06522e-09
-7.22719e-09
-1.03396e-09
-6.2308e-09
-9.96386e-10
-5.27836e-09
-9.52445e-10
-4.37624e-09
-9.02116e-10
-3.53081e-09
-8.45426e-10
-2.74836e-09
-7.82458e-10
-2.035e-09
-7.13366e-10
-1.39662e-09
-6.38381e-10
-8.38778e-10
-5.57842e-10
-3.66549e-10
-4.72236e-10
1.57204e-11
-3.82274e-10
3.04707e-10
-2.88986e-10
4.98543e-10
-1.93836e-10
5.97574e-10
-9.90357e-11
6.05516e-10
-7.94721e-12
5.31321e-10
7.41961e-11
3.92162e-10
1.39167e-10
2.18486e-10
1.7368e-10
6.27781e-11
1.55707e-10
6.27805e-11
1.51696e-10
-2.16803e-10
4.17295e-10
-4.23062e-10
6.69964e-10
-4.25643e-10
8.14582e-10
-2.77272e-10
7.86163e-10
-3.34085e-11
5.44235e-10
2.66705e-10
6.59607e-11
5.97011e-10
-6.59098e-10
9.40051e-10
-1.63281e-09
1.28408e-09
-2.85098e-09
1.62107e-09
-4.30522e-09
1.94549e-09
-5.98418e-09
2.25353e-09
-7.87438e-09
2.54253e-09
-9.96094e-09
2.8107e-09
-1.2228e-08
3.05682e-09
-1.4659e-08
3.28017e-09
-1.72372e-08
3.48034e-09
-1.99455e-08
3.65716e-09
-2.27668e-08
3.8107e-09
-2.56844e-08
3.94118e-09
-2.86813e-08
4.04889e-09
-3.17413e-08
4.13426e-09
-3.48482e-08
4.19778e-09
-3.79864e-08
4.24e-09
-4.11405e-08
4.26154e-09
-4.42958e-08
4.26302e-09
-4.74379e-08
4.24513e-09
-5.0553e-08
4.20852e-09
-5.36277e-08
4.15391e-09
-5.66494e-08
4.08203e-09
-5.96057e-08
3.99361e-09
-6.24849e-08
3.88937e-09
-6.52759e-08
3.77006e-09
-6.79679e-08
3.63642e-09
-7.05511e-08
3.48921e-09
-7.30158e-08
3.32916e-09
-7.53531e-08
3.15703e-09
-7.75545e-08
2.97358e-09
-7.96123e-08
2.77957e-09
-8.15192e-08
2.57573e-09
-8.32684e-08
2.36283e-09
-8.48538e-08
2.14163e-09
-8.62698e-08
1.91291e-09
-8.75115e-08
1.67744e-09
-8.85743e-08
1.43598e-09
-8.94544e-08
1.18933e-09
-9.01486e-08
9.38281e-10
-9.06543e-08
6.83632e-10
-9.09692e-08
4.26194e-10
-9.10921e-08
1.66791e-10
-9.10221e-08
-9.37455e-11
-9.07589e-08
-3.5457e-10
-9.03031e-08
-6.14829e-10
-8.96556e-08
-8.73649e-10
-8.88183e-08
-1.13014e-09
-8.77934e-08
-1.38342e-09
-8.65842e-08
-1.63259e-09
-8.51943e-08
-1.87673e-09
-8.36281e-08
-2.1149e-09
-8.18908e-08
-2.34617e-09
-7.99882e-08
-2.5696e-09
-7.79268e-08
-2.78421e-09
-7.5714e-08
-2.98907e-09
-7.33576e-08
-3.18322e-09
-7.08662e-08
-3.3657e-09
-6.82492e-08
-3.53557e-09
-6.55167e-08
-3.69187e-09
-6.26795e-08
-3.83368e-09
-5.97488e-08
-3.96006e-09
-5.67368e-08
-4.07013e-09
-5.36562e-08
-4.163e-09
-5.05204e-08
-4.23784e-09
-4.73433e-08
-4.29381e-09
-4.41393e-08
-4.33014e-09
-4.09236e-08
-4.34609e-09
-3.77116e-08
-4.34098e-09
-3.45195e-08
-4.31416e-09
-3.13635e-08
-4.26508e-09
-2.82605e-08
-4.19324e-09
-2.52276e-08
-4.09821e-09
-2.22818e-08
-3.97967e-09
-1.94408e-08
-3.83742e-09
-1.67219e-08
-3.67139e-09
-1.41423e-08
-3.48163e-09
-1.17193e-08
-3.26842e-09
-9.46957e-09
-3.03224e-09
-7.40905e-09
-2.77389e-09
-5.55293e-09
-2.4945e-09
-3.91508e-09
-2.1957e-09
-2.50759e-09
-1.87973e-09
-1.34018e-09
-1.54969e-09
-4.19258e-10
-1.20991e-09
2.53293e-10
-8.66384e-10
6.81868e-10
-5.27603e-10
8.796e-10
-2.05676e-10
8.7184e-10
8.19561e-11
7.00828e-10
3.10183e-10
4.31344e-10
4.43164e-10
1.55621e-10
4.31433e-10
2.1841e-10
1.62106e-10
-3.78903e-10
4.07139e-10
-6.68101e-10
5.81677e-10
-6.00163e-10
5.73602e-10
-2.69203e-10
3.02016e-10
2.38198e-10
-2.87634e-10
8.56345e-10
-1.22871e-09
1.5381e-09
-2.53857e-09
2.24991e-09
-4.22238e-09
2.9679e-09
-6.27634e-09
3.67503e-09
-8.68992e-09
4.35909e-09
-1.14477e-08
5.01131e-09
-1.45306e-08
5.62548e-09
-1.79171e-08
6.19715e-09
-2.15836e-08
6.72329e-09
-2.55053e-08
7.20189e-09
-2.96566e-08
7.63169e-09
-3.40116e-08
8.01209e-09
-3.85438e-08
8.34294e-09
-4.32271e-08
8.62444e-09
-4.80353e-08
8.85712e-09
-5.29427e-08
9.0417e-09
-5.79241e-08
9.17914e-09
-6.29546e-08
9.2705e-09
-6.801e-08
9.317e-09
-7.3067e-08
9.31995e-09
-7.81026e-08
9.28073e-09
-8.30948e-08
9.20077e-09
-8.80225e-08
9.08156e-09
-9.28651e-08
8.92463e-09
-9.7603e-08
8.73154e-09
-1.02217e-07
8.50388e-09
-1.06691e-07
8.24322e-09
-1.11005e-07
7.9512e-09
-1.15146e-07
7.62943e-09
-1.19096e-07
7.27954e-09
-1.22842e-07
6.90317e-09
-1.26371e-07
6.50198e-09
-1.29669e-07
6.0776e-09
-1.32725e-07
5.63169e-09
-1.35528e-07
5.16593e-09
-1.38068e-07
4.68199e-09
-1.40337e-07
4.18155e-09
-1.42326e-07
3.66632e-09
-1.44028e-07
3.138e-09
-1.45437e-07
2.59833e-09
-1.46547e-07
2.04904e-09
-1.47356e-07
1.49191e-09
-1.47858e-07
9.28717e-10
-1.48053e-07
3.61274e-10
-1.47938e-07
-2.08595e-10
-1.47513e-07
-7.79034e-10
-1.4678e-07
-1.34815e-09
-1.4574e-07
-1.91405e-09
-1.44395e-07
-2.47479e-09
-1.4275e-07
-3.02841e-09
-1.4081e-07
-3.57293e-09
-1.3858e-07
-4.10635e-09
-1.36068e-07
-4.62664e-09
-1.33283e-07
-5.13174e-09
-1.30233e-07
-5.61959e-09
-1.26929e-07
-6.08813e-09
-1.23383e-07
-6.53527e-09
-1.19607e-07
-6.95893e-09
-1.15615e-07
-7.35705e-09
-1.11423e-07
-7.72756e-09
-1.07047e-07
-8.06841e-09
-1.02503e-07
-8.37758e-09
-9.781e-08
-8.65309e-09
-9.29871e-08
-8.89301e-09
-8.80547e-08
-9.09544e-09
-8.3034e-08
-9.25858e-09
-7.79471e-08
-9.38069e-09
-7.28171e-08
-9.4601e-09
-6.7668e-08
-9.49525e-09
-6.25242e-08
-9.48472e-09
-5.74112e-08
-9.42719e-09
-5.23548e-08
-9.32151e-09
-4.73813e-08
-9.16669e-09
-4.25176e-08
-8.96194e-09
-3.77905e-08
-8.7067e-09
-3.32273e-08
-8.40066e-09
-2.88549e-08
-8.04383e-09
-2.46999e-08
-7.63658e-09
-2.07886e-08
-7.17971e-09
-1.71463e-08
-6.67457e-09
-1.37971e-08
-6.12315e-09
-1.07633e-08
-5.5283e-09
-8.06505e-09
-4.89391e-09
-5.71954e-09
-4.22525e-09
-3.73978e-09
-3.52946e-09
-2.13355e-09
-2.81615e-09
-9.01611e-10
-2.09832e-09
-3.55208e-11
-1.39369e-09
4.8528e-10
-7.26474e-10
6.97098e-10
-1.29857e-10
6.56483e-10
3.50803e-10
4.4502e-10
6.54627e-10
1.74138e-10
7.02321e-10
3.92552e-10
1.24883e-10
-5.03788e-10
2.62712e-10
-8.0594e-10
2.52969e-10
-5.90417e-10
-2.17117e-11
5.4509e-12
-6.47671e-10
8.64166e-10
-1.68533e-09
1.894e-09
-3.17336e-09
3.02614e-09
-5.13303e-09
4.20957e-09
-7.57171e-09
5.40658e-09
-1.04859e-08
6.58927e-09
-1.38639e-08
7.737e-09
-1.76872e-08
8.8346e-09
-2.19326e-08
9.87092e-09
-2.65733e-08
1.08379e-08
-3.15798e-08
1.17297e-08
-3.69204e-08
1.25425e-08
-4.25623e-08
1.32736e-08
-4.84718e-08
1.39216e-08
-5.46146e-08
1.44858e-08
-6.09565e-08
1.49663e-08
-6.7463e-08
1.53636e-08
-7.41003e-08
1.5679e-08
-8.08348e-08
1.59136e-08
-8.76336e-08
1.60693e-08
-9.44646e-08
1.6148e-08
-1.01296e-07
1.61517e-08
-1.08098e-07
1.60828e-08
-1.14841e-07
1.59436e-08
-1.21496e-07
1.57366e-08
-1.28036e-07
1.54645e-08
-1.34434e-07
1.51298e-08
-1.40666e-07
1.47353e-08
-1.46706e-07
1.42836e-08
-1.52533e-07
1.37776e-08
-1.58123e-07
1.322e-08
-1.63457e-07
1.26136e-08
-1.68516e-07
1.19613e-08
-1.73279e-07
1.1266e-08
-1.77732e-07
1.05303e-08
-1.81858e-07
9.75738e-09
-1.85642e-07
8.94996e-09
-1.89071e-07
8.111e-09
-1.92133e-07
7.24343e-09
-1.94817e-07
6.35021e-09
-1.97113e-07
5.43432e-09
-1.99013e-07
4.49876e-09
-2.00511e-07
3.54657e-09
-2.016e-07
2.58083e-09
-2.02276e-07
1.60464e-09
-2.02536e-07
6.2114e-10
-2.02378e-07
-3.66463e-10
-2.01802e-07
-1.35496e-09
-2.00809e-07
-2.34108e-09
-1.99402e-07
-3.32149e-09
-1.97583e-07
-4.29285e-09
-1.9536e-07
-5.25177e-09
-1.92738e-07
-6.19479e-09
-1.89726e-07
-7.11844e-09
-1.86334e-07
-8.01921e-09
-1.82572e-07
-8.89358e-09
-1.78453e-07
-9.73797e-09
-1.73993e-07
-1.05488e-08
-1.69206e-07
-1.13225e-08
-1.64109e-07
-1.20554e-08
-1.58722e-07
-1.27441e-08
-1.53064e-07
-1.3385e-08
-1.47158e-07
-1.39745e-08
-1.41027e-07
-1.45092e-08
-1.34694e-07
-1.49857e-08
-1.28186e-07
-1.54008e-08
-1.21531e-07
-1.57511e-08
-1.14756e-07
-1.60337e-08
-1.07891e-07
-1.62455e-08
-1.00967e-07
-1.63838e-08
-9.40164e-08
-1.6446e-08
-8.70715e-08
-1.64296e-08
-8.0166e-08
-1.63326e-08
-7.33344e-08
-1.61531e-08
-6.66116e-08
-1.58895e-08
-6.00329e-08
-1.55407e-08
-5.36339e-08
-1.51057e-08
-4.74501e-08
-1.45844e-08
-4.15168e-08
-1.39771e-08
-3.58689e-08
-1.32845e-08
-3.05401e-08
-1.25085e-08
-2.55629e-08
-1.16517e-08
-2.09681e-08
-1.0718e-08
-1.67838e-08
-9.71257e-09
-1.30351e-08
-8.6426e-09
-9.74286e-09
-7.51754e-09
-6.92245e-09
-6.34987e-09
-4.58252e-09
-5.15607e-09
-2.72296e-09
-3.95788e-09
-1.33262e-09
-2.78403e-09
-3.8654e-10
-1.67255e-09
1.57435e-10
-6.73824e-10
3.62532e-10
1.45707e-10
3.17342e-10
6.99818e-10
1.41246e-10
8.78414e-10
5.33796e-10
5.99559e-11
-5.63732e-10
3.07562e-11
-7.76748e-10
-2.39286e-10
-3.20359e-10
-8.63455e-10
6.29625e-10
-1.92659e-09
1.92728e-09
-3.48917e-09
3.45659e-09
-5.59097e-09
5.12793e-09
-8.25425e-09
6.87287e-09
-1.14869e-08
8.63925e-09
-1.52851e-08
1.03875e-08
-1.96356e-08
1.20875e-08
-2.45177e-08
1.37166e-08
-2.99046e-08
1.52579e-08
-3.57654e-08
1.66987e-08
-4.20654e-08
1.80297e-08
-4.87675e-08
1.92446e-08
-5.58326e-08
2.03387e-08
-6.32206e-08
2.13095e-08
-7.08902e-08
2.21554e-08
-7.88002e-08
2.28762e-08
-8.6909e-08
2.34725e-08
-9.51754e-08
2.39454e-08
-1.03559e-07
2.42968e-08
-1.12018e-07
2.45292e-08
-1.20516e-07
2.46451e-08
-1.29011e-07
2.46476e-08
-1.37469e-07
2.45399e-08
-1.45851e-07
2.43257e-08
-1.54123e-07
2.40086e-08
-1.62251e-07
2.35924e-08
-1.70202e-07
2.30811e-08
-1.77945e-07
2.24786e-08
-1.85451e-07
2.17891e-08
-1.9269e-07
2.10167e-08
-1.99636e-07
2.01658e-08
-2.06262e-07
1.92404e-08
-2.12546e-07
1.8245e-08
-2.18464e-07
1.71838e-08
-2.23995e-07
1.60613e-08
-2.29119e-07
1.48817e-08
-2.33819e-07
1.36496e-08
-2.38077e-07
1.23693e-08
-2.41879e-07
1.10454e-08
-2.45211e-07
9.68239e-09
-2.48062e-07
8.2848e-09
-2.5042e-07
6.85724e-09
-2.52278e-07
5.40438e-09
-2.53628e-07
3.9309e-09
-2.54465e-07
2.44157e-09
-2.54785e-07
9.41197e-10
-2.54586e-07
-5.65343e-10
-2.53868e-07
-2.07311e-09
-2.52632e-07
-3.57711e-09
-2.50881e-07
-5.07229e-09
-2.48621e-07
-6.5535e-09
-2.45857e-07
-8.01558e-09
-2.42598e-07
-9.45327e-09
-2.38855e-07
-1.08613e-08
-2.3464e-07
-1.22343e-08
-2.29967e-07
-1.35669e-08
-2.24851e-07
-1.48536e-08
-2.19311e-07
-1.60892e-08
-2.13366e-07
-1.7268e-08
-2.07036e-07
-1.83847e-08
-2.00346e-07
-1.94339e-08
-1.93321e-07
-2.04102e-08
-1.85987e-07
-2.13084e-08
-1.78373e-07
-2.21231e-08
-1.7051e-07
-2.28494e-08
-1.62428e-07
-2.34822e-08
-1.54163e-07
-2.40168e-08
-1.45748e-07
-2.44485e-08
-1.3722e-07
-2.47729e-08
-1.28618e-07
-2.49859e-08
-1.19981e-07
-2.50836e-08
-1.11348e-07
-2.50626e-08
-1.02761e-07
-2.49198e-08
-9.42612e-08
-2.46525e-08
-8.58922e-08
-2.42585e-08
-7.76966e-08
-2.37363e-08
-6.97174e-08
-2.30849e-08
-6.19978e-08
-2.23041e-08
-5.45801e-08
-2.13947e-08
-4.75062e-08
-2.03585e-08
-4.08163e-08
-1.91984e-08
-3.45493e-08
-1.79188e-08
-2.87411e-08
-1.65261e-08
-2.3425e-08
-1.50287e-08
-1.86298e-08
-1.34377e-08
-1.43797e-08
-1.17677e-08
-1.06921e-08
-1.00375e-08
-7.57654e-09
-8.27159e-09
-5.03299e-09
-6.50144e-09
-3.04929e-09
-4.76773e-09
-1.59888e-09
-3.12296e-09
-6.37896e-10
-1.63481e-09
-1.01875e-10
-3.90318e-10
9.78727e-11
5.00076e-10
7.90503e-11
8.9723e-10
6.12842e-10
-2.08413e-11
-5.42899e-10
-2.55936e-10
-5.41629e-10
-8.38652e-10
2.62347e-10
-1.87143e-09
1.66241e-09
-3.43232e-09
3.48817e-09
-5.57772e-09
5.60199e-09
-8.34499e-09
7.89521e-09
-1.17549e-08
1.02828e-08
-1.58142e-08
1.26985e-08
-2.05175e-08
1.50908e-08
-2.58497e-08
1.74197e-08
-3.17876e-08
1.96546e-08
-3.83016e-08
2.17719e-08
-4.53567e-08
2.37538e-08
-5.29141e-08
2.55871e-08
-6.09317e-08
2.72622e-08
-6.93653e-08
2.87723e-08
-7.8169e-08
3.01132e-08
-8.72957e-08
3.12822e-08
-9.66979e-08
3.22784e-08
-1.06328e-07
3.31023e-08
-1.16138e-07
3.37552e-08
-1.2608e-07
3.42393e-08
-1.36109e-07
3.45576e-08
-1.46177e-07
3.47136e-08
-1.56241e-07
3.47113e-08
-1.66256e-07
3.45552e-08
-1.7618e-07
3.42499e-08
-1.85972e-07
3.38005e-08
-1.95592e-07
3.32123e-08
-2.05002e-07
3.24906e-08
-2.14164e-07
3.1641e-08
-2.23044e-07
3.06692e-08
-2.31608e-07
2.9581e-08
-2.39825e-07
2.83823e-08
-2.47663e-07
2.7079e-08
-2.55096e-07
2.56772e-08
-2.62095e-07
2.41829e-08
-2.68636e-07
2.26022e-08
-2.74695e-07
2.09414e-08
-2.80252e-07
1.92066e-08
-2.85287e-07
1.74041e-08
-2.89782e-07
1.55402e-08
-2.93721e-07
1.36213e-08
-2.9709e-07
1.16538e-08
-2.99876e-07
9.64417e-09
-3.02071e-07
7.59904e-09
-3.03665e-07
5.52501e-09
-3.04652e-07
3.42878e-09
-3.05028e-07
1.31715e-09
-3.04791e-07
-8.03019e-10
-3.03939e-07
-2.92478e-09
-3.02475e-07
-5.04107e-09
-3.00403e-07
-7.14478e-09
-2.97727e-07
-9.22869e-09
-2.94457e-07
-1.12855e-08
-2.90603e-07
-1.33078e-08
-2.86176e-07
-1.52883e-08
-2.81191e-07
-1.72193e-08
-2.75664e-07
-1.90934e-08
-2.69615e-07
-2.0903e-08
-2.63064e-07
-2.26403e-08
-2.56034e-07
-2.4298e-08
-2.4855e-07
-2.58683e-08
-2.4064e-07
-2.73437e-08
-2.32334e-07
-2.87167e-08
-2.23662e-07
-2.998e-08
-2.14659e-07
-3.11263e-08
-2.0536e-07
-3.21485e-08
-1.95803e-07
-3.30397e-08
-1.86026e-07
-3.37933e-08
-1.76072e-07
-3.44029e-08
-1.65982e-07
-3.48624e-08
-1.55802e-07
-3.51663e-08
-1.45576e-07
-3.53092e-08
-1.35353e-07
-3.52865e-08
-1.25178e-07
-3.5094e-08
-1.15103e-07
-3.47282e-08
-1.05175e-07
-3.41863e-08
-9.54449e-08
-3.34663e-08
-8.59623e-08
-3.25674e-08
-7.67769e-08
-3.14896e-08
-6.79373e-08
-3.02343e-08
-5.94915e-08
-2.88043e-08
-5.14854e-08
-2.72044e-08
-4.39632e-08
-2.54411e-08
-3.69656e-08
-2.35237e-08
-3.05301e-08
-2.14642e-08
-2.46892e-08
-1.92786e-08
-1.94696e-08
-1.69872e-08
-1.48913e-08
-1.46159e-08
-1.09652e-08
-1.21977e-08
-7.69232e-09
-9.77431e-09
-5.06134e-09
-7.39871e-09
-3.0466e-09
-5.13769e-09
-1.60583e-09
-3.0756e-09
-6.77528e-10
-1.31862e-09
-1.78268e-10
8.21796e-13
6.34694e-13
7.18322e-10
6.13478e-10
-1.0986e-10
-4.3304e-10
-5.74418e-10
-7.70788e-11
-1.50392e-09
1.19185e-09
-2.98568e-09
3.14417e-09
-5.08721e-09
5.5897e-09
-7.85764e-09
8.37243e-09
-1.13293e-08
1.13668e-08
-1.55192e-08
1.44727e-08
-2.04311e-08
1.76104e-08
-2.60572e-08
2.07169e-08
-3.23797e-08
2.37423e-08
-3.93728e-08
2.66477e-08
-4.70036e-08
2.94026e-08
-5.52336e-08
3.19839e-08
-6.40201e-08
3.43736e-08
-7.33168e-08
3.65589e-08
-8.30746e-08
3.85302e-08
-9.32427e-08
4.02812e-08
-1.03769e-07
4.18083e-08
-1.146e-07
4.31095e-08
-1.25682e-07
4.41849e-08
-1.36963e-07
4.50358e-08
-1.48389e-07
4.56649e-08
-1.59907e-07
4.60756e-08
-1.71465e-07
4.62723e-08
-1.83014e-07
4.626e-08
-1.94503e-07
4.60444e-08
-2.05885e-07
4.56315e-08
-2.17112e-07
4.50278e-08
-2.2814e-07
4.424e-08
-2.38924e-07
4.32753e-08
-2.49424e-07
4.21409e-08
-2.59599e-07
4.08442e-08
-2.69411e-07
3.9393e-08
-2.78824e-07
3.77949e-08
-2.87803e-07
3.60578e-08
-2.96316e-07
3.41897e-08
-3.04331e-07
3.21987e-08
-3.11822e-07
3.00928e-08
-3.18761e-07
2.78803e-08
-3.25124e-07
2.55693e-08
-3.30888e-07
2.31684e-08
-3.36033e-07
2.06858e-08
-3.40542e-07
1.813e-08
-3.44398e-07
1.55097e-08
-3.47587e-07
1.28335e-08
-3.50098e-07
1.011e-08
-3.51922e-07
7.34827e-09
-3.5305e-07
4.55711e-09
-3.53478e-07
1.7456e-09
-3.53204e-07
-1.07711e-09
-3.52227e-07
-3.90175e-09
-3.5055e-07
-6.71896e-09
-3.48175e-07
-9.51923e-09
-3.45111e-07
-1.2293e-08
-3.41366e-07
-1.50305e-08
-3.36952e-07
-1.7722e-08
-3.31882e-07
-2.03576e-08
-3.26174e-07
-2.29273e-08
-3.19847e-07
-2.54212e-08
-3.1292e-07
-2.78291e-08
-3.0542e-07
-3.0141e-08
-2.97371e-07
-3.23469e-08
-2.88802e-07
-3.44366e-08
-2.79746e-07
-3.64003e-08
-2.70235e-07
-3.8228e-08
-2.60305e-07
-3.991e-08
-2.49994e-07
-4.14368e-08
-2.39343e-07
-4.27991e-08
-2.28395e-07
-4.39878e-08
-2.17194e-07
-4.49942e-08
-2.05787e-07
-4.581e-08
-1.94222e-07
-4.64273e-08
-1.8255e-07
-4.68388e-08
-1.70822e-07
-4.70377e-08
-1.5909e-07
-4.7018e-08
-1.47409e-07
-4.67745e-08
-1.35835e-07
-4.63027e-08
-1.24422e-07
-4.55993e-08
-1.13226e-07
-4.4662e-08
-1.02304e-07
-4.34898e-08
-9.17101e-08
-4.20834e-08
-8.14995e-08
-4.04449e-08
-7.17251e-08
-3.85787e-08
-6.24383e-08
-3.64912e-08
-5.36876e-08
-3.41918e-08
-4.55183e-08
-3.16929e-08
-3.79717e-08
-2.90109e-08
-3.10836e-08
-2.61667e-08
-2.4884e-08
-2.31869e-08
-1.9395e-08
-2.01048e-08
-1.46302e-08
-1.69625e-08
-1.05927e-08
-1.38118e-08
-7.27355e-09
-1.07178e-08
-4.65025e-09
-7.761e-09
-2.68475e-09
-5.04109e-09
-1.32182e-09
-2.68155e-09
-4.87265e-10
-8.3374e-10
-8.60996e-11
3.17155e-10
5.27379e-10
-2.02425e-10
-2.30625e-10
-9.09266e-10
6.2976e-10
-2.20618e-09
2.48878e-09
-4.16293e-09
5.1009e-09
-6.83403e-09
8.2608e-09
-1.0259e-08
1.17974e-08
-1.4463e-08
1.55708e-08
-1.94576e-08
1.94673e-08
-2.52421e-08
2.33949e-08
-3.18051e-08
2.72798e-08
-3.91253e-08
3.10626e-08
-4.71737e-08
3.4696e-08
-5.59139e-08
3.81428e-08
-6.53041e-08
4.1374e-08
-7.52976e-08
4.43672e-08
-8.58442e-08
4.71054e-08
-9.68905e-08
4.95765e-08
-1.08381e-07
5.17718e-08
-1.20259e-07
5.36862e-08
-1.32466e-07
5.53167e-08
-1.44944e-07
5.66629e-08
-1.57635e-07
5.77261e-08
-1.70479e-07
5.8509e-08
-1.83419e-07
5.90157e-08
-1.96398e-07
5.92514e-08
-2.0936e-07
5.92223e-08
-2.22251e-07
5.89351e-08
-2.35017e-07
5.83973e-08
-2.47606e-07
5.7617e-08
-2.59968e-07
5.66026e-08
-2.72056e-07
5.53629e-08
-2.83822e-07
5.39071e-08
-2.95223e-07
5.22446e-08
-3.06215e-07
5.0385e-08
-3.16758e-07
4.83382e-08
-3.26814e-07
4.61141e-08
-3.36347e-07
4.37228e-08
-3.45323e-07
4.11746e-08
-3.5371e-07
3.84798e-08
-3.61479e-07
3.56489e-08
-3.68602e-07
3.26924e-08
-3.75054e-07
2.96209e-08
-3.80814e-07
2.64453e-08
-3.8586e-07
2.31763e-08
-3.90175e-07
1.9825e-08
-3.93744e-07
1.64023e-08
-3.96554e-07
1.29195e-08
-3.98593e-07
9.38786e-09
-3.99855e-07
5.81883e-09
-4.00333e-07
2.22397e-09
-4.00025e-07
-1.38503e-09
-3.98931e-07
-4.9963e-09
-3.97052e-07
-8.59788e-09
-3.94393e-07
-1.21776e-08
-3.90963e-07
-1.57233e-08
-3.86771e-07
-1.92226e-08
-3.8183e-07
-2.26629e-08
-3.76156e-07
-2.60317e-08
-3.69767e-07
-2.93162e-08
-3.62685e-07
-3.25038e-08
-3.54932e-07
-3.55816e-08
-3.46536e-07
-3.85368e-08
-3.37527e-07
-4.13566e-08
-3.27935e-07
-4.40283e-08
-3.17796e-07
-4.65392e-08
-3.07147e-07
-4.88769e-08
-2.96028e-07
-5.10289e-08
-2.84482e-07
-5.29833e-08
-2.72553e-07
-5.47282e-08
-2.60288e-07
-5.62523e-08
-2.47738e-07
-5.75446e-08
-2.34953e-07
-5.85947e-08
-2.21987e-07
-5.93927e-08
-2.08897e-07
-5.99294e-08
-1.95738e-07
-6.01966e-08
-1.82569e-07
-6.01867e-08
-1.6945e-07
-5.98933e-08
-1.56442e-07
-5.93111e-08
-1.43605e-07
-5.84362e-08
-1.31001e-07
-5.7266e-08
-1.18691e-07
-5.57998e-08
-1.06736e-07
-5.40386e-08
-9.51949e-08
-5.19857e-08
-8.41266e-08
-4.9647e-08
-7.35866e-08
-4.70312e-08
-6.3628e-08
-4.41504e-08
-5.43e-08
-4.10208e-08
-4.56477e-08
-3.76632e-08
-3.77105e-08
-3.41039e-08
-3.05214e-08
-3.03759e-08
-2.41059e-08
-2.65204e-08
-1.84805e-08
-2.25879e-08
-1.36517e-08
-1.86407e-08
-9.61448e-09
-1.4755e-08
-6.35124e-09
-1.10242e-08
-3.83032e-09
-7.562e-09
-2.00513e-09
-4.50674e-09
-8.13314e-10
-2.02556e-09
-1.76412e-10
-3.19745e-10
3.50962e-10
-2.95683e-10
6.50732e-11
-1.25044e-09
1.5845e-09
-2.92569e-09
4.16402e-09
-5.37261e-09
7.54783e-09
-8.6314e-09
1.15196e-08
-1.27304e-08
1.58964e-08
-1.76859e-08
2.05263e-08
-2.35025e-08
2.52839e-08
-3.01741e-08
3.00665e-08
-3.76843e-08
3.479e-08
-4.60078e-08
3.93861e-08
-5.51117e-08
4.37998e-08
-6.49558e-08
4.7987e-08
-7.54947e-08
5.19129e-08
-8.66779e-08
5.55504e-08
-9.84512e-08
5.88787e-08
-1.10757e-07
6.18825e-08
-1.23536e-07
6.45509e-08
-1.36727e-07
6.68769e-08
-1.50267e-07
6.88566e-08
-1.64093e-07
7.04888e-08
-1.78141e-07
7.17747e-08
-1.9235e-07
7.27172e-08
-2.06655e-07
7.33209e-08
-2.20995e-07
7.35919e-08
-2.3531e-07
7.35373e-08
-2.4954e-07
7.31651e-08
-2.63627e-07
7.24845e-08
-2.77515e-07
7.15049e-08
-2.91149e-07
7.02367e-08
-3.04477e-07
6.86906e-08
-3.17448e-07
6.68777e-08
-3.30013e-07
6.48096e-08
-3.42126e-07
6.24979e-08
-3.53742e-07
5.99549e-08
-3.64821e-07
5.71927e-08
-3.75322e-07
5.42238e-08
-3.85208e-07
5.10608e-08
-3.94445e-07
4.77166e-08
-4.03e-07
4.42039e-08
-4.10844e-07
4.05358e-08
-4.17948e-07
3.67256e-08
-4.24289e-07
3.27865e-08
-4.29845e-07
2.8732e-08
-4.34596e-07
2.45755e-08
-4.38524e-07
2.0331e-08
-4.41617e-07
1.60121e-08
-4.43862e-07
1.16329e-08
-4.45251e-07
7.20755e-09
-4.45777e-07
2.75044e-09
-4.45438e-07
-1.72399e-09
-4.44233e-07
-6.20105e-09
-4.42165e-07
-1.06659e-08
-4.39239e-07
-1.51036e-08
-4.35464e-07
-1.94989e-08
-4.3085e-07
-2.38366e-08
-4.25412e-07
-2.81011e-08
-4.19166e-07
-3.2277e-08
-4.12134e-07
-3.63485e-08
-4.04338e-07
-4.03e-08
-3.95804e-07
-4.41155e-08
-3.86561e-07
-4.77794e-08
-3.76642e-07
-5.12759e-08
-3.66081e-07
-5.45893e-08
-3.54916e-07
-5.7704e-08
-3.43188e-07
-6.06046e-08
-3.30941e-07
-6.32761e-08
-3.18221e-07
-6.57035e-08
-3.05077e-07
-6.78726e-08
-2.9156e-07
-6.97693e-08
-2.77724e-07
-7.13803e-08
-2.63626e-07
-7.26928e-08
-2.49324e-07
-7.36949e-08
-2.34878e-07
-7.43755e-08
-2.2035e-07
-7.47245e-08
-2.05803e-07
-7.4733e-08
-1.91303e-07
-7.43934e-08
-1.76915e-07
-7.36993e-08
-1.62705e-07
-7.26463e-08
-1.4874e-07
-7.12317e-08
-1.35085e-07
-6.94547e-08
-1.21806e-07
-6.73173e-08
-1.08968e-07
-6.48239e-08
-9.66325e-08
-6.19821e-08
-8.48609e-08
-5.88029e-08
-7.37098e-08
-5.53015e-08
-6.32327e-08
-5.14979e-08
-5.34783e-08
-4.74176e-08
-4.44898e-08
-4.30924e-08
-3.63037e-08
-3.8562e-08
-2.89493e-08
-3.38748e-08
-2.24469e-08
-2.90902e-08
-1.68076e-08
-2.428e-08
-1.20315e-08
-1.95312e-08
-8.10722e-09
-1.49485e-08
-5.01122e-09
-1.0658e-08
-2.7072e-09
-6.81077e-09
-1.14622e-09
-3.58654e-09
-2.6746e-10
-1.19851e-09
8.34979e-11
-3.87996e-10
4.53079e-10
-1.59159e-09
2.78809e-09
-3.64926e-09
6.2217e-09
-6.59369e-09
1.04923e-08
-1.045e-08
1.53759e-08
-1.52344e-08
2.06808e-08
-2.09533e-08
2.62452e-08
-2.76034e-08
3.1934e-08
-3.51717e-08
3.76348e-08
-4.36363e-08
4.32546e-08
-5.29669e-08
4.87168e-08
-6.31261e-08
5.3959e-08
-7.40698e-08
5.89307e-08
-8.57483e-08
6.35915e-08
-9.81075e-08
6.79095e-08
-1.11089e-07
7.18602e-08
-1.24632e-07
7.54251e-08
-1.38672e-07
7.85908e-08
-1.53143e-07
8.13486e-08
-1.6798e-07
8.36934e-08
-1.83115e-07
8.56234e-08
-1.98479e-07
8.71392e-08
-2.14006e-07
8.82442e-08
-2.29629e-07
8.89435e-08
-2.4528e-07
8.92437e-08
-2.60896e-07
8.91533e-08
-2.76413e-07
8.86816e-08
-2.91768e-07
8.78391e-08
-3.069e-07
8.66373e-08
-3.21751e-07
8.50881e-08
-3.36265e-07
8.32043e-08
-3.50387e-07
8.09993e-08
-3.64064e-07
7.84866e-08
-3.77246e-07
7.56806e-08
-3.89887e-07
7.25954e-08
-4.0194e-07
6.9246e-08
-4.13364e-07
6.56472e-08
-4.24117e-07
6.18142e-08
-4.34163e-07
5.77625e-08
-4.43467e-07
5.35075e-08
-4.51996e-07
4.9065e-08
-4.59721e-07
4.4451e-08
-4.66616e-07
3.96814e-08
-4.72656e-07
3.47724e-08
-4.77822e-07
2.97406e-08
-4.82093e-07
2.46024e-08
-4.85456e-07
1.93746e-08
-4.87897e-07
1.40742e-08
-4.89407e-07
8.71818e-09
-4.89981e-07
3.32394e-09
-4.89614e-07
-2.09102e-09
-4.88306e-07
-7.50899e-09
-4.8606e-07
-1.2912e-08
-4.82881e-07
-1.82821e-08
-4.78779e-07
-2.36008e-08
-4.73766e-07
-2.88497e-08
-4.67857e-07
-3.40103e-08
-4.6107e-07
-3.90636e-08
-4.53428e-07
-4.39909e-08
-4.44955e-07
-4.87732e-08
-4.35679e-07
-5.33914e-08
-4.25632e-07
-5.78267e-08
-4.14848e-07
-6.20599e-08
-4.03365e-07
-6.60723e-08
-3.91224e-07
-6.98451e-08
-3.78468e-07
-7.336e-08
-3.65145e-07
-7.65988e-08
-3.51305e-07
-7.95437e-08
-3.37e-07
-8.21775e-08
-3.22286e-07
-8.44836e-08
-3.0722e-07
-8.64459e-08
-2.91864e-07
-8.80494e-08
-2.76279e-07
-8.92797e-08
-2.60531e-07
-9.01239e-08
-2.44685e-07
-9.05699e-08
-2.28811e-07
-9.06074e-08
-2.12977e-07
-9.02273e-08
-1.97254e-07
-8.94226e-08
-1.81712e-07
-8.8188e-08
-1.66423e-07
-8.65208e-08
-1.51457e-07
-8.44204e-08
-1.36885e-07
-8.18895e-08
-1.22775e-07
-7.89338e-08
-1.09194e-07
-7.55627e-08
-9.62075e-08
-7.17897e-08
-8.38757e-08
-6.76333e-08
-7.22564e-08
-6.31173e-08
-6.14022e-08
-5.82718e-08
-5.13603e-08
-5.31343e-08
-4.21714e-08
-4.77509e-08
-3.3869e-08
-4.21773e-08
-2.64781e-08
-3.6481e-08
-2.00152e-08
-3.0743e-08
-1.44865e-08
-2.50599e-08
-9.8882e-09
-1.95468e-08
-6.20588e-09
-1.43403e-08
-3.41459e-09
-9.60206e-09
-1.47954e-09
-5.52157e-09
-3.57609e-10
-2.32045e-09
-2.74108e-10
-4.78456e-10
9.31523e-10
-1.9288e-09
4.23845e-09
-4.36841e-09
8.6613e-09
-7.81202e-09
1.39359e-08
-1.22697e-08
1.98336e-08
-1.77449e-08
2.6156e-08
-2.42336e-08
3.27339e-08
-3.17235e-08
3.9424e-08
-4.01942e-08
4.61055e-08
-4.96174e-08
5.26777e-08
-5.99572e-08
5.90566e-08
-7.11712e-08
6.51729e-08
-8.32106e-08
7.09701e-08
-9.60217e-08
7.64025e-08
-1.09546e-07
8.14337e-08
-1.23721e-07
8.60353e-08
-1.38482e-07
9.01858e-08
-1.5376e-07
9.38694e-08
-1.69487e-07
9.70757e-08
-1.85592e-07
9.97981e-08
-2.02003e-07
1.02034e-07
-2.18648e-07
1.03785e-07
-2.35456e-07
1.05052e-07
-2.52356e-07
1.05843e-07
-2.69278e-07
1.06165e-07
-2.86151e-07
1.06027e-07
-3.0291e-07
1.0544e-07
-3.19486e-07
1.04416e-07
-3.35817e-07
1.02968e-07
-3.51839e-07
1.0111e-07
-3.67493e-07
9.88579e-08
-3.8272e-07
9.6226e-08
-3.97464e-07
9.32308e-08
-4.11672e-07
8.98888e-08
-4.25294e-07
8.6217e-08
-4.3828e-07
8.22327e-08
-4.50587e-07
7.79536e-08
-4.6217e-07
7.33975e-08
-4.7299e-07
6.85826e-08
-4.8301e-07
6.35272e-08
-4.92195e-07
5.82501e-08
-5.00514e-07
5.27699e-08
-5.07938e-07
4.71058e-08
-5.14442e-07
4.12768e-08
-5.20004e-07
3.53024e-08
-5.24604e-07
2.92023e-08
-5.28226e-07
2.29963e-08
-5.30856e-07
1.67043e-08
-5.32484e-07
1.03467e-08
-5.33105e-07
3.94407e-09
-5.32713e-07
-2.48297e-09
-5.31308e-07
-8.91341e-09
-5.28894e-07
-1.5326e-08
-5.25477e-07
-2.16994e-08
-5.21066e-07
-2.8012e-08
-5.15674e-07
-3.42418e-08
-5.09317e-07
-4.03668e-08
-5.02016e-07
-4.6365e-08
-4.93793e-07
-5.22139e-08
-4.84675e-07
-5.78912e-08
-4.74692e-07
-6.33744e-08
-4.63877e-07
-6.86412e-08
-4.52268e-07
-7.36691e-08
-4.39904e-07
-7.8436e-08
-4.2683e-07
-8.29198e-08
-4.13091e-07
-8.70988e-08
-3.98738e-07
-9.09517e-08
-3.83824e-07
-9.44576e-08
-3.68405e-07
-9.75964e-08
-3.5254e-07
-1.00348e-07
-3.36292e-07
-1.02695e-07
-3.19723e-07
-1.04618e-07
-3.02901e-07
-1.06102e-07
-2.85894e-07
-1.0713e-07
-2.68774e-07
-1.0769e-07
-2.51613e-07
-1.07769e-07
-2.34484e-07
-1.07356e-07
-2.17462e-07
-1.06445e-07
-2.00622e-07
-1.05028e-07
-1.8404e-07
-1.03103e-07
-1.6779e-07
-1.0067e-07
-1.51949e-07
-9.77315e-08
-1.36587e-07
-9.42954e-08
-1.21777e-07
-9.03727e-08
-1.07587e-07
-8.59795e-08
-9.4083e-08
-8.11374e-08
-8.13262e-08
-7.58741e-08
-6.93736e-08
-7.02244e-08
-5.82766e-08
-6.42313e-08
-4.80806e-08
-5.79469e-08
-3.88238e-08
-5.14341e-08
-3.05369e-08
-4.4768e-08
-2.3242e-08
-3.80378e-08
-1.69528e-08
-3.13491e-08
-1.16736e-08
-2.4826e-08
-7.39987e-09
-1.8614e-08
-4.11862e-09
-1.28833e-08
-1.80933e-09
-7.83086e-09
-4.45951e-10
-3.68384e-09
-7.20052e-10
-5.66558e-10
1.49809e-09
-2.25984e-09
5.93172e-09
-5.07791e-09
1.14794e-08
-9.01854e-09
1.78765e-08
-1.4077e-08
2.4892e-08
-2.0244e-08
3.23231e-08
-2.75046e-08
3.99945e-08
-3.5837e-08
4.77564e-08
-4.52127e-08
5.54813e-08
-5.55964e-08
6.30614e-08
-6.6946e-08
7.04062e-08
-7.92136e-08
7.74405e-08
-9.23455e-08
8.4102e-08
-1.06283e-07
9.03402e-08
-1.20964e-07
9.61143e-08
-1.36321e-07
1.01392e-07
-1.52285e-07
1.0615e-07
-1.68785e-07
1.10369e-07
-1.85747e-07
1.14037e-07
-2.03096e-07
1.17147e-07
-2.20757e-07
1.19695e-07
-2.38654e-07
1.21682e-07
-2.56713e-07
1.23111e-07
-2.74857e-07
1.23988e-07
-2.93013e-07
1.24321e-07
-3.11109e-07
1.24122e-07
-3.29071e-07
1.23403e-07
-3.46832e-07
1.22176e-07
-3.64322e-07
1.20458e-07
-3.81476e-07
1.18264e-07
-3.9823e-07
1.15612e-07
-4.14523e-07
1.12519e-07
-4.30296e-07
1.09004e-07
-4.45492e-07
1.05085e-07
-4.60058e-07
1.00783e-07
-4.73943e-07
9.61176e-08
-4.87099e-07
9.11092e-08
-4.9948e-07
8.57785e-08
-5.11044e-07
8.01467e-08
-5.21752e-07
7.42351e-08
-5.31567e-07
6.80654e-08
-5.40456e-07
6.16593e-08
-5.4839e-07
5.50392e-08
-5.5534e-07
4.82272e-08
-5.61284e-07
4.12461e-08
-5.662e-07
3.41186e-08
-5.70072e-07
2.68679e-08
-5.72885e-07
1.95173e-08
-5.74629e-07
1.20904e-08
-5.75296e-07
4.61108e-09
-5.74882e-07
-2.89646e-09
-5.73388e-07
-1.04078e-08
-5.70815e-07
-1.78984e-08
-5.67172e-07
-2.53431e-08
-5.62467e-07
-3.27169e-08
-5.56714e-07
-3.99943e-08
-5.49931e-07
-4.71497e-08
-5.42139e-07
-5.41573e-08
-5.33362e-07
-6.09912e-08
-5.23627e-07