/*--------------------------------*- C++ -*----------------------------------*\
| =========                 |                                                 |
| \\      /  F ield         | OpenFOAM: The Open Source CFD Toolbox           |
|  \\    /   O peration     | Version:  2212                                  |
|   \\  /    A nd           | Website:  www.openfoam.com                      |
|    \\/     M anipulation  |                                                 |
\*---------------------------------------------------------------------------*/
FoamFile
{
    version     2.0;
    format      ascii;
    arch        "LSB;label=32;scalar=64";
    class       surfaceScalarField;
    location    "0.099";
    object      phi;
}
// * * * * * * * * * * * * * * * * * * * * * * * * * * * * * * * * * * * * * //

dimensions      [0 3 -1 0 0 0 0];

oriented        oriented;

internalField   nonuniform List<scalar> 
19800
(
7.10033e-11
-7.09048e-11
2.44078e-10
-1.73062e-10
4.34842e-10
-1.90807e-10
5.84838e-10
-1.49995e-10
6.60475e-10
-7.56503e-11
6.43202e-10
1.7267e-11
5.23698e-10
1.19495e-10
2.98509e-10
2.25189e-10
-3.21216e-11
3.3062e-10
-4.65508e-10
4.33389e-10
-9.97406e-10
5.31912e-10
-1.62252e-09
6.2512e-10
-2.33486e-09
7.12335e-10
-3.12797e-09
7.93095e-10
-3.9951e-09
8.67121e-10
-4.92936e-09
9.34249e-10
-5.92376e-09
9.94405e-10
-6.97133e-09
1.04757e-09
-8.06514e-09
1.09381e-09
-9.19832e-09
1.1332e-09
-1.03642e-08
1.16584e-09
-1.1556e-08
1.19188e-09
-1.27675e-08
1.21148e-09
-1.39923e-08
1.22481e-09
-1.52244e-08
1.23206e-09
-1.64578e-08
1.2334e-09
-1.76868e-08
1.22903e-09
-1.8906e-08
1.21917e-09
-2.011e-08
1.204e-09
-2.12937e-08
1.18375e-09
-2.24523e-08
1.15862e-09
-2.35812e-08
1.12882e-09
-2.46758e-08
1.09458e-09
-2.57319e-08
1.05611e-09
-2.67455e-08
1.01363e-09
-2.77129e-08
9.67356e-10
-2.86304e-08
9.17505e-10
-2.94947e-08
8.64296e-10
-3.03026e-08
8.07949e-10
-3.10513e-08
7.48686e-10
-3.17381e-08
6.86734e-10
-3.23604e-08
6.22314e-10
-3.2916e-08
5.55654e-10
-3.3403e-08
4.86984e-10
-3.38195e-08
4.16527e-10
-3.41641e-08
3.44521e-10
-3.44353e-08
2.71209e-10
-3.46321e-08
1.9682e-10
-3.47537e-08
1.21603e-10
-3.47995e-08
4.58091e-11
-3.47692e-08
-3.03251e-11
-3.46626e-08
-1.06543e-10
-3.44801e-08
-1.82572e-10
-3.42219e-08
-2.58159e-10
-3.38889e-08
-3.33047e-10
-3.34819e-08
-4.06957e-10
-3.30023e-08
-4.79618e-10
-3.24515e-08
-5.50767e-10
-3.18314e-08
-6.20119e-10
-3.1144e-08
-6.87381e-10
-3.03917e-08
-7.52279e-10
-2.95772e-08
-8.14539e-10
-2.87033e-08
-8.73872e-10
-2.77733e-08
-9.29992e-10
-2.67907e-08
-9.82625e-10
-2.57592e-08
-1.03149e-09
-2.46829e-08
-1.0763e-09
-2.35661e-08
-1.11678e-09
-2.24134e-08
-1.15268e-09
-2.12297e-08
-1.18373e-09
-2.00201e-08
-1.20966e-09
-1.87898e-08
-1.23024e-09
-1.75446e-08
-1.24524e-09
-1.62902e-08
-1.25442e-09
-1.50326e-08
-1.25757e-09
-1.37781e-08
-1.2545e-09
-1.25331e-08
-1.24503e-09
-1.13041e-08
-1.229e-09
-1.00978e-08
-1.20626e-09
-8.92111e-09
-1.17669e-09
-7.78089e-09
-1.14021e-09
-6.68414e-09
-1.09676e-09
-5.63786e-09
-1.04629e-09
-4.64904e-09
-9.88816e-10
-3.72464e-09
-9.24404e-10
-2.87146e-09
-8.53174e-10
-2.09615e-09
-7.75321e-10
-1.40501e-09
-6.91131e-10
-8.03986e-10
-6.01022e-10
-2.98399e-10
-5.05584e-10
1.07244e-10
-4.05647e-10
4.09637e-10
-3.02396e-10
6.07176e-10
-1.97535e-10
7.00774e-10
-9.3587e-11
6.95147e-10
5.63351e-12
6.00921e-10
9.42241e-11
4.37895e-10
1.63026e-10
2.40571e-10
1.97329e-10
6.74804e-11
1.73098e-10
6.74783e-11
1.73178e-10
-2.44059e-10
4.76255e-10
-4.76123e-10
7.67332e-10
-4.81875e-10
9.43645e-10
-3.26304e-10
9.33766e-10
-6.57358e-11
6.9181e-10
2.5921e-10
1.9103e-10
6.20277e-10
-5.81676e-10
9.9789e-10
-1.62967e-09
1.3786e-09
-2.94939e-09
1.75309e-09
-4.53238e-09
2.11488e-09
-6.3667e-09
2.45943e-09
-8.43794e-09
2.78357e-09
-1.073e-08
3.08512e-09
-1.32255e-08
3.36262e-09
-1.59063e-08
3.61512e-09
-1.8754e-08
3.84206e-09
-2.17496e-08
4.04321e-09
-2.48743e-08
4.21854e-09
-2.81094e-08
4.3682e-09
-3.1436e-08
4.49252e-09
-3.4836e-08
4.59188e-09
-3.82914e-08
4.66679e-09
-4.17844e-08
4.71784e-09
-4.5298e-08
4.74564e-09
-4.88154e-08
4.75086e-09
-5.23206e-08
4.73423e-09
-5.5798e-08
4.69647e-09
-5.92323e-08
4.63834e-09
-6.26091e-08
4.56062e-09
-6.59146e-08
4.46409e-09
-6.91354e-08
4.34958e-09
-7.22587e-08
4.21789e-09
-7.52724e-08
4.06984e-09
-7.8165e-08
3.90627e-09
-8.09257e-08
3.72802e-09
-8.35442e-08
3.53593e-09
-8.60107e-08
3.33085e-09
-8.83164e-08
3.11362e-09
-9.04528e-08
2.8851e-09
-9.24123e-08
2.64617e-09
-9.41876e-08
2.39769e-09
-9.57725e-08
2.14054e-09
-9.71611e-08
1.87562e-09
-9.83484e-08
1.60382e-09
-9.933e-08
1.32605e-09
-1.00102e-07
1.04323e-09
-1.00661e-07
7.56296e-10
-1.01006e-07
4.66188e-10
-1.01134e-07
1.73873e-10
-1.01045e-07
-1.19672e-10
-1.00738e-07
-4.13475e-10
-1.00214e-07
-7.06538e-10
-9.94742e-08
-9.97833e-10
-9.85209e-08
-1.28634e-09
-9.73569e-08
-1.57102e-09
-9.59857e-08
-1.85082e-09
-9.44117e-08
-2.12468e-09
-9.26403e-08
-2.39154e-09
-9.06774e-08
-2.65031e-09
-8.85298e-08
-2.89991e-09
-8.62051e-08
-3.13925e-09
-8.37117e-08
-3.36725e-09
-8.10589e-08
-3.58283e-09
-7.82566e-08
-3.7849e-09
-7.53156e-08
-3.97241e-09
-7.22476e-08
-4.14431e-09
-6.90649e-08
-4.29955e-09
-6.57804e-08
-4.43712e-09
-6.24081e-08
-4.55602e-09
-5.89625e-08
-4.65531e-09
-5.54587e-08
-4.73407e-09
-5.19125e-08
-4.7914e-09
-4.83404e-08
-4.8265e-09
-4.47594e-08
-4.83858e-09
-4.1187e-08
-4.82692e-09
-3.76412e-08
-4.79089e-09
-3.41402e-08
-4.72991e-09
-3.0703e-08
-4.64352e-09
-2.73484e-08
-4.53132e-09
-2.40955e-08
-4.39306e-09
-2.09637e-08
-4.22857e-09
-1.79721e-08
-4.03789e-09
-1.51397e-08
-3.8212e-09
-1.24852e-08
-3.5789e-09
-1.00267e-08
-3.31166e-09
-7.78161e-09
-3.02044e-09
-5.76607e-09
-2.70667e-09
-3.99483e-09
-2.37226e-09
-2.48055e-09
-2.01986e-09
-1.23311e-09
-1.65309e-09
-2.58587e-10
-1.27691e-09
4.42086e-10
-8.98199e-10
8.75078e-10
-5.2658e-10
1.0564e-09
-1.75694e-10
1.01567e-09
1.34948e-10
8.01221e-10
3.77478e-10
4.86107e-10
5.1245e-10
1.72987e-10
4.86215e-10
2.40466e-10
1.91638e-10
-4.35738e-10
4.84345e-10
-7.68832e-10
7.03488e-10
-7.01034e-10
7.25255e-10
-3.48095e-10
4.59926e-10
1.99582e-10
-1.53825e-10
8.7296e-10
-1.15441e-09
1.62086e-09
-2.56257e-09
2.40605e-09
-4.38553e-09
3.20157e-09
-6.62037e-09
3.98793e-09
-9.25654e-09
4.75104e-09
-1.22778e-08
5.48072e-09
-1.56639e-08
6.16961e-09
-1.93913e-08
6.81248e-09
-2.34343e-08
7.40567e-09
-2.77659e-08
7.94667e-09
-3.23577e-08
8.43393e-09
-3.7181e-08
8.86655e-09
-4.22067e-08
9.24422e-09
-4.74056e-08
9.56703e-09
-5.27485e-08
9.83544e-09
-5.82067e-08
1.00501e-08
-6.3752e-08
1.02121e-08
-6.93565e-08
1.03223e-08
-7.4993e-08
1.03822e-08
-8.06352e-08
1.0393e-08
-8.62573e-08
1.03563e-08
-9.18344e-08
1.02736e-08
-9.73425e-08
1.01464e-08
-1.02758e-07
9.97644e-09
-1.0806e-07
9.76542e-09
-1.13225e-07
9.51505e-09
-1.18234e-07
9.22708e-09
-1.23068e-07
8.90331e-09
-1.27707e-07
8.54554e-09
-1.32135e-07
8.15558e-09
-1.36334e-07
7.73528e-09
-1.4029e-07
7.28648e-09
-1.43987e-07
6.81106e-09
-1.47413e-07
6.31089e-09
-1.50555e-07
5.78787e-09
-1.53401e-07
5.24394e-09
-1.55941e-07
4.68101e-09
-1.58167e-07
4.10106e-09
-1.60069e-07
3.50605e-09
-1.61641e-07
2.898e-09
-1.62877e-07
2.27892e-09
-1.63771e-07
1.65087e-09
-1.64321e-07
1.01593e-09
-1.64523e-07
3.76218e-10
-1.64377e-07
-2.66139e-10
-1.63881e-07
-9.08959e-10
-1.63038e-07
-1.55006e-09
-1.61848e-07
-2.18722e-09
-1.60317e-07
-2.81818e-09
-1.58447e-07
-3.44066e-09
-1.56245e-07
-4.05236e-09
-1.53719e-07
-4.65096e-09
-1.50876e-07
-5.23413e-09
-1.47727e-07
-5.7995e-09
-1.44282e-07
-6.34473e-09
-1.40554e-07
-6.86745e-09
-1.36556e-07
-7.36529e-09
-1.32303e-07
-7.83589e-09
-1.27811e-07
-8.27693e-09
-1.23097e-07
-8.6861e-09
-1.18181e-07
-9.06111e-09
-1.1308e-07
-9.39972e-09
-1.07818e-07
-9.69975e-09
-1.02415e-07
-9.95908e-09
-9.68945e-08
-1.01757e-08
-9.1281e-08
-1.03475e-08
-8.55997e-08
-1.04728e-08
-7.98765e-08
-1.05497e-08
-7.41385e-08
-1.05766e-08
-6.84133e-08
-1.05521e-08
-6.27294e-08
-1.04748e-08
-5.71158e-08
-1.03436e-08
-5.16018e-08
-1.01575e-08
-4.62174e-08
-9.91581e-09
-4.09923e-08
-9.61813e-09
-3.59566e-08
-9.26429e-09
-3.114e-08
-8.85452e-09
-2.65717e-08
-8.38943e-09
-2.22805e-08
-7.87016e-09
-1.82937e-08
-7.29845e-09
-1.46374e-08
-6.67676e-09
-1.13355e-08
-6.00851e-09
-8.40946e-09
-5.29831e-09
-5.87698e-09
-4.55234e-09
-3.75123e-09
-3.77883e-09
-2.03933e-09
-2.98881e-09
-7.40436e-10
-2.19709e-09
1.56668e-10
-1.42368e-09
6.76743e-10
-6.95762e-10
8.62065e-10
-5.03683e-11
7.77252e-10
4.62296e-10
5.14353e-10
7.75346e-10
1.97775e-10
8.02794e-10
4.38244e-10
1.52476e-10
-5.88212e-10
3.33677e-10
-9.50029e-10
3.59278e-10
-7.2664e-10
9.725e-11
-8.60607e-11
-5.49409e-10
8.46244e-10
-1.64894e-09
1.97249e-09
-3.24576e-09
3.21768e-09
-5.36501e-09
4.52529e-09
-8.01645e-09
5.85298e-09
-1.11976e-08
7.16911e-09
-1.48966e-08
8.45007e-09
-1.90943e-08
9.67834e-09
-2.37657e-08
1.0841e-08
-2.88817e-08
1.19285e-08
-3.441e-08
1.2934e-08
-4.03162e-08
1.38528e-08
-4.65638e-08
1.46816e-08
-5.31157e-08
1.54185e-08
-5.99339e-08
1.60624e-08
-6.69803e-08
1.66133e-08
-7.42164e-08
1.70716e-08
-8.16046e-08
1.74382e-08
-8.91071e-08
1.77146e-08
-9.66871e-08
1.79024e-08
-1.04309e-07
1.80036e-08
-1.11936e-07
1.80205e-08
-1.19535e-07
1.79554e-08
-1.27072e-07
1.78109e-08
-1.34516e-07
1.75897e-08
-1.41834e-07
1.72946e-08
-1.48997e-07
1.69284e-08
-1.55976e-07
1.64942e-08
-1.62744e-07
1.59948e-08
-1.69274e-07
1.54333e-08
-1.75541e-07
1.48129e-08
-1.81522e-07
1.41367e-08
-1.87195e-07
1.34079e-08
-1.92538e-07
1.26296e-08
-1.97532e-07
1.18051e-08
-2.02159e-07
1.09376e-08
-2.06401e-07
1.00305e-08
-2.10244e-07
9.08716e-09
-2.13674e-07
8.11086e-09
-2.16678e-07
7.10503e-09
-2.19245e-07
6.07311e-09
-2.21366e-07
5.01861e-09
-2.23032e-07
3.94505e-09
-2.24237e-07
2.85601e-09
-2.24976e-07
1.7551e-09
-2.25246e-07
6.45997e-10
-2.25045e-07
-4.67576e-10
-2.24372e-07
-1.58186e-09
-2.23229e-07
-2.69302e-09
-2.21619e-07
-3.79721e-09
-2.19547e-07
-4.89052e-09
-2.17018e-07
-5.969e-09
-2.14042e-07
-7.02866e-09
-2.10627e-07
-8.06548e-09
-2.06786e-07
-9.07542e-09
-2.02531e-07
-1.00544e-08
-1.97878e-07
-1.09984e-08
-1.92842e-07
-1.19032e-08
-1.87442e-07
-1.27649e-08
-1.81699e-07
-1.35793e-08
-1.75633e-07
-1.43425e-08
-1.69269e-07
-1.50505e-08
-1.62631e-07
-1.56993e-08
-1.55745e-07
-1.62852e-08
-1.48641e-07
-1.68044e-08
-1.41346e-07
-1.72532e-08
-1.33894e-07
-1.76283e-08
-1.26315e-07
-1.79262e-08
-1.18644e-07
-1.81439e-08
-1.10915e-07
-1.82783e-08
-1.03165e-07
-1.83267e-08
-9.54304e-08
-1.82868e-08
-8.7749e-08
-1.81562e-08
-8.01593e-08
-1.79332e-08
-7.27004e-08
-1.76164e-08
-6.54115e-08
-1.72047e-08
-5.83321e-08
-1.66975e-08
-5.15016e-08
-1.60948e-08
-4.49589e-08
-1.53973e-08
-3.8742e-08
-1.46063e-08
-3.28879e-08
-1.37243e-08
-2.74319e-08
-1.27544e-08
-2.24072e-08
-1.17015e-08
-1.7844e-08
-1.05717e-08
-1.37686e-08
-9.37364e-09
-1.02028e-08
-8.11813e-09
-7.16204e-09
-6.81961e-09
-4.65394e-09
-5.49691e-09
-2.67633e-09
-4.1747e-09
-1.21464e-09
-2.88536e-09
-2.38858e-10
-1.67154e-09
3.00094e-10
-5.8932e-10
4.74619e-10
2.8777e-10
3.84977e-10
8.64989e-10
1.65182e-10
1.02259e-09
6.03428e-10
8.04967e-11
-6.6872e-10
8.00472e-11
-9.49563e-10
-1.76307e-10
-4.70288e-10
-8.17875e-10
5.55501e-10
-1.94108e-09
1.96946e-09
-3.61496e-09
3.64636e-09
-5.88534e-09
5.48806e-09
-8.77865e-09
7.41861e-09
-1.23053e-08
9.37963e-09
-1.64625e-08
1.13263e-08
-2.1237e-08
1.32245e-08
-2.66068e-08
1.50482e-08
-3.25435e-08
1.67777e-08
-3.90133e-08
1.83983e-08
-4.59785e-08
1.98992e-08
-5.33981e-08
2.12725e-08
-6.12294e-08
2.25128e-08
-6.94277e-08
2.36168e-08
-7.79475e-08
2.45822e-08
-8.67427e-08
2.54086e-08
-9.57672e-08
2.60961e-08
-1.04975e-07
2.66459e-08
-1.1432e-07
2.70597e-08
-1.23757e-07
2.73398e-08
-1.33243e-07
2.74891e-08
-1.42733e-07
2.75108e-08
-1.52186e-07
2.74082e-08
-1.6156e-07
2.71852e-08
-1.70816e-07
2.68456e-08
-1.79915e-07
2.63937e-08
-1.88821e-07
2.58337e-08
-1.97496e-07
2.517e-08
-2.05909e-07
2.44071e-08
-2.14025e-07
2.35496e-08
-2.21814e-07
2.26023e-08
-2.29248e-07
2.15698e-08
-2.36297e-07
2.0457e-08
-2.42936e-07
1.92688e-08
-2.49141e-07
1.801e-08
-2.54889e-07
1.66857e-08
-2.60159e-07
1.5301e-08
-2.64933e-07
1.38609e-08
-2.69193e-07
1.23705e-08
-2.72923e-07
1.08351e-08
-2.7611e-07
9.26002e-09
-2.78742e-07
7.65049e-09
-2.80809e-07
6.01196e-09
-2.82303e-07
4.34991e-09
-2.83217e-07
2.66987e-09
-2.83549e-07
9.77452e-10
-2.83295e-07
-7.21643e-10
-2.82455e-07
-2.42166e-09
-2.81031e-07
-4.11677e-09
-2.79027e-07
-5.80107e-09
-2.76449e-07
-7.4686e-09
-2.73305e-07
-9.11332e-09
-2.69604e-07
-1.07292e-08
-2.6536e-07
-1.231e-08
-2.60585e-07
-1.38498e-08
-2.55298e-07
-1.53421e-08
-2.49515e-07
-1.67809e-08
-2.43258e-07
-1.816e-08
-2.3655e-07
-1.94732e-08
-2.29415e-07
-2.07144e-08
-2.2188e-07
-2.18774e-08
-2.13974e-07
-2.29563e-08
-2.05728e-07
-2.39452e-08
-1.97175e-07
-2.48383e-08
-1.88349e-07
-2.56299e-08
-1.79288e-07
-2.63147e-08
-1.70029e-07
-2.68874e-08
-1.60612e-07
-2.73431e-08
-1.51079e-07
-2.7677e-08
-1.41473e-07
-2.78848e-08
-1.31837e-07
-2.79624e-08
-1.22217e-07
-2.79064e-08
-1.1266e-07
-2.77136e-08
-1.03212e-07
-2.73813e-08
-9.39205e-08
-2.69077e-08
-8.48339e-08
-2.62913e-08
-7.59998e-08
-2.55316e-08
-6.74657e-08
-2.46289e-08
-5.92785e-08
-2.35845e-08
-5.14839e-08
-2.24009e-08
-4.4126e-08
-2.10821e-08
-3.72469e-08
-1.96336e-08
-3.08855e-08
-1.80629e-08
-2.50772e-08
-1.638e-08
-1.98528e-08
-1.45981e-08
-1.5237e-08
-1.27339e-08
-1.12473e-08
-1.08093e-08
-7.89236e-09
-8.8519e-09
-5.16954e-09
-6.89751e-09
-3.063e-09
-4.99191e-09
-1.54069e-09
-3.19384e-09
-5.51334e-10
-1.57868e-09
-2.08329e-11
-2.42728e-10
1.51712e-10
6.92448e-10
9.93092e-11
1.07499e-09
7.02737e-10
-9.57383e-12
-6.59143e-10
-2.37113e-10
-7.22047e-10
-8.36753e-10
1.29355e-10
-1.92686e-09
1.6456e-09
-3.59721e-09
3.6398e-09
-5.91283e-09
5.96199e-09
-8.91727e-09
8.49248e-09
-1.26355e-08
1.11368e-08
-1.70765e-08
1.38207e-08
-2.22362e-08
1.6486e-08
-2.8099e-08
1.90874e-08
-3.46407e-08
2.15898e-08
-4.18291e-08
2.39661e-08
-4.96266e-08
2.61957e-08
-5.79905e-08
2.82631e-08
-6.68749e-08
3.01568e-08
-7.62308e-08
3.18688e-08
-8.60075e-08
3.33935e-08
-9.61529e-08
3.47276e-08
-1.06614e-07
3.58697e-08
-1.17337e-07
3.68196e-08
-1.2827e-07
3.75785e-08
-1.39359e-07
3.81484e-08
-1.50551e-07
3.85323e-08
-1.61796e-07
3.87339e-08
-1.73042e-07
3.87572e-08
-1.84241e-07
3.86069e-08
-1.95344e-07
3.8288e-08
-2.06304e-07
3.7806e-08
-2.17077e-07
3.71665e-08
-2.27619e-07
3.63754e-08
-2.37888e-07
3.54387e-08
-2.47843e-07
3.43628e-08
-2.57448e-07
3.3154e-08
-2.66664e-07
3.18188e-08
-2.75458e-07
3.0364e-08
-2.83798e-07
2.87962e-08
-2.91651e-07
2.71223e-08
-2.9899e-07
2.53493e-08
-3.05789e-07
2.3484e-08
-3.12021e-07
2.15337e-08
-3.17666e-07
1.95055e-08
-3.22702e-07
1.74067e-08
-3.27112e-07
1.52446e-08
-3.30878e-07
1.30266e-08
-3.33988e-07
1.07603e-08
-3.36429e-07
8.4533e-09
-3.38193e-07
6.11333e-09
-3.39271e-07
3.74821e-09
-3.3966e-07
1.36585e-09
-3.39355e-07
-1.02574e-09
-3.38359e-07
-3.41844e-09
-3.36671e-07
-5.80404e-09
-3.34298e-07
-8.17423e-09
-3.31246e-07
-1.05206e-08
-3.27525e-07
-1.28347e-08
-3.23146e-07
-1.5108e-08
-3.18124e-07
-1.73319e-08
-3.12476e-07
-1.94978e-08
-3.06221e-07
-2.15969e-08
-2.99381e-07
-2.36206e-08
-2.91981e-07
-2.55603e-08
-2.84047e-07
-2.74072e-08
-2.75609e-07
-2.91528e-08
-2.66698e-07
-3.07887e-08
-2.57348e-07
-3.23063e-08
-2.47595e-07
-3.36976e-08
-2.37479e-07
-3.49545e-08
-2.2704e-07
-3.60692e-08
-2.1632e-07
-3.70342e-08
-2.05365e-07
-3.78421e-08
-1.94222e-07
-3.84863e-08
-1.82939e-07
-3.89602e-08
-1.71566e-07
-3.92578e-08
-1.60155e-07
-3.93738e-08
-1.48758e-07
-3.93033e-08
-1.37429e-07
-3.90422e-08
-1.26223e-07
-3.8587e-08
-1.15196e-07
-3.79352e-08
-1.04402e-07
-3.70854e-08
-9.38964e-08
-3.60369e-08
-8.37346e-08
-3.47907e-08
-7.39701e-08
-3.33489e-08
-6.46555e-08
-3.17156e-08
-5.5841e-08
-2.98966e-08
-4.75743e-08
-2.79003e-08
-3.98996e-08
-2.57375e-08
-3.28569e-08
-2.34227e-08
-2.64807e-08
-2.09744e-08
-2.07986e-08
-1.8416e-08
-1.58305e-08
-1.57773e-08
-1.15865e-08
-1.30959e-08
-8.06499e-09
-1.0419e-08
-5.25075e-09
-7.80615e-09
-3.11257e-09
-5.33203e-09
-1.60066e-09
-3.09058e-09
-6.43893e-10
-1.19949e-09
-1.46728e-10
1.95288e-10
1.46702e-11
9.13596e-10
7.1741e-10
-1.08976e-10
-5.50169e-10
-5.91097e-10
-2.39931e-10
-1.57433e-09
1.11259e-09
-3.16063e-09
3.2319e-09
-5.42863e-09
5.9078e-09
-8.43574e-09
8.96909e-09
-1.22201e-08
1.22768e-08
-1.68027e-08
1.57194e-08
-2.21896e-08
1.92076e-08
-2.83738e-08
2.26701e-08
-3.53369e-08
2.60506e-08
-4.30516e-08
2.93045e-08
-5.14825e-08
3.2397e-08
-6.05878e-08
3.53011e-08
-7.03208e-08
3.79961e-08
-8.06306e-08
4.04666e-08
-9.14631e-08
4.27013e-08
-1.02762e-07
4.46925e-08
-1.1447e-07
4.64351e-08
-1.26527e-07
4.79266e-08
-1.38873e-07
4.91664e-08
-1.5145e-07
5.01555e-08
-1.64198e-07
5.08961e-08
-1.77058e-07
5.13918e-08
-1.89971e-07
5.16469e-08
-2.0288e-07
5.16668e-08
-2.15731e-07
5.14572e-08
-2.28467e-07
5.10246e-08
-2.41037e-07
5.03759e-08
-2.53389e-07
4.95185e-08
-2.65474e-07
4.84601e-08
-2.77244e-07
4.72085e-08
-2.88653e-07
4.57721e-08
-2.99658e-07
4.41592e-08
-3.10218e-07
4.23784e-08
-3.20292e-07
4.04385e-08
-3.29844e-07
3.83485e-08
-3.3884e-07
3.61174e-08
-3.47245e-07
3.37544e-08
-3.5503e-07
3.12689e-08
-3.62166e-07
2.86702e-08
-3.68629e-07
2.5968e-08
-3.74394e-07
2.31718e-08
-3.79441e-07
2.02916e-08
-3.83751e-07
1.73371e-08
-3.87309e-07
1.43184e-08
-3.90102e-07
1.12458e-08
-3.92118e-07
8.12944e-09
-3.9335e-07
4.97978e-09
-3.93791e-07
1.80738e-09
-3.9344e-07
-1.37708e-09
-3.92295e-07
-4.5628e-09
-3.90361e-07
-7.73884e-09
-3.87641e-07
-1.08942e-08
-3.84144e-07
-1.40176e-08
-3.79881e-07
-1.70979e-08
-3.74865e-07
-2.01237e-08
-3.69113e-07
-2.30835e-08
-3.62645e-07
-2.5966e-08
-3.55482e-07
-2.87597e-08
-3.4765e-07
-3.14529e-08
-3.39176e-07
-3.40343e-08
-3.30091e-07
-3.64923e-08
-3.20428e-07
-3.88158e-08
-3.10223e-07
-4.09933e-08
-2.99516e-07
-4.3014e-08
-2.88346e-07
-4.4867e-08
-2.76759e-07
-4.65417e-08
-2.64801e-07
-4.80278e-08
-2.52519e-07
-4.93155e-08
-2.39966e-07
-5.03953e-08
-2.27194e-07
-5.12583e-08
-2.14258e-07
-5.18961e-08
-2.01215e-07
-5.2301e-08
-1.88123e-07
-5.2466e-08
-1.75042e-07
-5.23848e-08
-1.62031e-07
-5.20524e-08
-1.49154e-07
-5.14644e-08
-1.36471e-07
-5.06178e-08
-1.24046e-07
-4.9511e-08
-1.11939e-07
-4.81437e-08
-1.00212e-07
-4.65174e-08
-8.89256e-08
-4.46355e-08
-7.81374e-08
-4.25037e-08
-6.79037e-08
-4.01304e-08
-5.82771e-08
-3.75268e-08
-4.93066e-08
-3.47079e-08
-4.10363e-08
-3.1693e-08
-3.35042e-08
-2.85064e-08
-2.67414e-08
-2.51788e-08
-2.07703e-08
-2.17485e-08
-1.56033e-08
-1.82629e-08
-1.12412e-08
-1.47811e-08
-7.67141e-09
-1.1376e-08
-4.86586e-09
-8.13758e-09
-2.7793e-09
-5.17714e-09
-1.3472e-09
-2.63158e-09
-4.83794e-10
-6.68122e-10
-7.99335e-11
5.0974e-10
6.37482e-10
-2.124e-10
-3.37768e-10
-9.64304e-10
5.1196e-10
-2.3558e-09
2.50409e-09
-4.46938e-09
5.34548e-09
-7.36954e-09
8.80797e-09
-1.11033e-08
1.27028e-08
-1.57009e-08
1.68745e-08
-2.11776e-08
2.11961e-08
-2.75345e-08
2.55645e-08
-3.47605e-08
2.98961e-08
-4.28337e-08
3.41238e-08
-5.1723e-08
3.81938e-08
-6.13894e-08
4.20634e-08
-7.17872e-08
4.56989e-08
-8.28656e-08
4.90744e-08
-9.45691e-08
5.21701e-08
-1.06839e-07
5.49712e-08
-1.19614e-07
5.74675e-08
-1.32831e-07
5.96519e-08
-1.46425e-07
6.15208e-08
-1.60331e-07
6.30727e-08
-1.74484e-07
6.43084e-08
-1.88818e-07
6.52303e-08
-2.03269e-07
6.58424e-08
-2.17772e-07
6.61499e-08
-2.32264e-07
6.61591e-08
-2.46684e-07
6.58772e-08
-2.60972e-07
6.5312e-08
-2.75068e-07
6.44722e-08
-2.88916e-07
6.33669e-08
-3.02462e-07
6.20057e-08
-3.15652e-07
6.03986e-08
-3.28436e-07
5.85558e-08
-3.40765e-07
5.64881e-08
-3.52593e-07
5.42064e-08
-3.63876e-07
5.17218e-08
-3.74573e-07
4.90456e-08
-3.84645e-07
4.61894e-08
-3.94055e-07
4.31649e-08
-4.0277e-07
3.9984e-08
-4.10759e-07
3.66586e-08
-4.17992e-07
3.32011e-08
-4.24444e-07
2.96238e-08
-4.30092e-07
2.59392e-08
-4.34915e-07
2.216e-08
-4.38895e-07
1.82989e-08
-4.42018e-07
1.43691e-08
-4.44272e-07
1.03836e-08
-4.45648e-07
6.35579e-09
-4.4614e-07
2.29917e-09
-4.45745e-07
-1.77263e-09
-4.44462e-07
-5.84579e-09
-4.42294e-07
-9.90634e-09
-4.39248e-07
-1.39402e-08
-4.35333e-07
-1.79331e-08
-4.3056e-07
-2.18706e-08
-4.24945e-07
-2.57384e-08
-4.18507e-07
-2.95219e-08
-4.11266e-07
-3.32064e-08
-4.03249e-07
-3.67773e-08
-3.94482e-07
-4.02199e-08
-3.84996e-07
-4.35198e-08
-3.74826e-07
-4.66623e-08
-3.64009e-07
-4.96331e-08
-3.52584e-07
-5.24179e-08
-3.40596e-07
-5.50028e-08
-3.28088e-07
-5.7374e-08
-3.15112e-07
-5.95183e-08
-3.01717e-07
-6.14225e-08
-2.87958e-07
-6.30744e-08
-2.73891e-07
-6.4462e-08
-2.59576e-07
-6.55741e-08
-2.45072e-07
-6.64002e-08
-2.30442e-07
-6.69308e-08
-2.15751e-07
-6.7157e-08
-2.01064e-07
-6.70715e-08
-1.86449e-07
-6.66677e-08
-1.71972e-07
-6.59407e-08
-1.57703e-07
-6.48869e-08
-1.4371e-07
-6.35046e-08
-1.30059e-07
-6.1794e-08
-1.1682e-07
-5.97572e-08
-1.04056e-07
-5.73993e-08
-9.18317e-08
-5.47278e-08
-8.02085e-08
-5.17537e-08
-6.92436e-08
-4.84917e-08
-5.89903e-08
-4.49612e-08
-4.94969e-08
-4.11865e-08
-4.0805e-08
-3.71982e-08
-3.29493e-08
-3.30346e-08
-2.59554e-08
-2.87424e-08
-1.98391e-08
-2.43792e-08
-1.4605e-08
-2.00153e-08
-1.02443e-08
-1.57366e-08
-6.73458e-09
-1.16473e-08
-4.03731e-09
-7.87441e-09
-2.09733e-09
-4.57156e-09
-8.41677e-10
-1.92378e-09
-1.79083e-10
-1.52847e-10
4.58404e-10
-3.16697e-10
-2.10741e-11
-1.3453e-09
1.54055e-09
-3.15844e-09
4.31723e-09
-5.81784e-09
8.00487e-09
-9.37206e-09
1.23622e-08
-1.38557e-08
1.71865e-08
-1.92896e-08
2.23084e-08
-2.56812e-08
2.75877e-08
-3.30255e-08
3.29087e-08
-4.13061e-08
3.81767e-08
-5.04966e-08
4.33143e-08
-6.05616e-08
4.82588e-08
-7.14579e-08
5.29597e-08
-8.3136e-08
5.7377e-08
-9.55405e-08
6.1479e-08
-1.08612e-07
6.52415e-08
-1.22287e-07
6.86463e-08
-1.365e-07
7.16801e-08
-1.51182e-07
7.43341e-08
-1.66264e-07
7.66029e-08
-1.81676e-07
7.84844e-08
-1.97346e-07
7.9979e-08
-2.13205e-07
8.10891e-08
-2.29182e-07
8.18192e-08
-2.45207e-07
8.21753e-08
-2.61213e-07
8.21647e-08
-2.77132e-07
8.17959e-08
-2.92898e-07
8.10784e-08
-3.08448e-07
8.00225e-08
-3.23721e-07
7.86393e-08
-3.38655e-07
7.69403e-08
-3.53195e-07
7.49378e-08
-3.67283e-07
7.26444e-08
-3.80868e-07
7.0073e-08
-3.93899e-07
6.72372e-08
-4.06328e-07
6.41506e-08
-4.18109e-07
6.08272e-08
-4.29201e-07
5.72811e-08
-4.39563e-07
5.35269e-08
-4.49158e-07
4.95793e-08
-4.57953e-07
4.54531e-08
-4.65915e-07
4.11634e-08
-4.73017e-07
3.67255e-08
-4.79232e-07
3.2155e-08
-4.8454e-07
2.74675e-08
-4.8892e-07
2.26789e-08
-4.92356e-07
1.78054e-08
-4.94836e-07
1.28632e-08
-4.96349e-07
7.86891e-09
-4.96889e-07
2.83914e-09
-4.96452e-07
-2.20916e-09
-4.95039e-07
-7.25889e-09
-4.92653e-07
-1.22928e-08
-4.893e-07
-1.72933e-08
-4.8499e-07
-2.2243e-08
-4.79737e-07
-2.7124e-08
-4.73557e-07
-3.19184e-08
-4.6647e-07
-3.66082e-08
-4.58501e-07
-4.11755e-08
-4.49676e-07
-4.56022e-08
-4.40026e-07
-4.98701e-08
-4.29584e-07
-5.39614e-08
-4.18389e-07
-5.78582e-08
-4.06479e-07
-6.15426e-08
-3.939e-07
-6.49974e-08
-3.80697e-07
-6.82051e-08
-3.66922e-07
-7.11491e-08
-3.52628e-07
-7.3813e-08
-3.37869e-07
-7.61808e-08
-3.22706e-07
-7.82375e-08
-3.072e-07
-7.99684e-08
-2.91414e-07
-8.136e-08
-2.75414e-07
-8.23996e-08
-2.5927e-07
-8.30754e-08
-2.4305e-07
-8.33771e-08
-2.26826e-07
-8.32956e-08
-2.1067e-07
-8.28233e-08
-1.94656e-07
-8.19544e-08
-1.78858e-07
-8.0685e-08
-1.6335e-07
-7.90132e-08
-1.48204e-07
-7.69397e-08
-1.33493e-07
-7.44677e-08
-1.19289e-07
-7.16037e-08
-1.05659e-07
-6.83574e-08
-9.26702e-08
-6.47427e-08
-8.03838e-08
-6.07781e-08
-6.88578e-08
-5.64872e-08
-5.81444e-08
-5.18999e-08
-4.82894e-08
-4.70532e-08
-3.93312e-08
-4.19928e-08
-3.12996e-08
-3.6774e-08
-2.42146e-08
-3.14641e-08
-1.80855e-08
-2.61444e-08
-1.29094e-08
-2.09127e-08
-8.6704e-09
-1.58863e-08
-5.339e-09
-1.12058e-08
-2.87119e-09
-7.03937e-09
-1.20869e-09
-3.58628e-09
-2.79511e-10
-1.08202e-09
1.78895e-10
-4.2002e-10
3.98952e-10
-1.72681e-09
2.84734e-09
-3.96702e-09
6.55743e-09
-7.18148e-09
1.12193e-08
-1.14019e-08
1.65826e-08
-1.66495e-08
2.24341e-08
-2.2934e-08
2.85929e-08
-3.0254e-08
3.49077e-08
-3.85972e-08
4.12518e-08
-4.79409e-08
4.75204e-08
-5.82532e-08
5.36267e-08
-6.94939e-08
5.94995e-08
-8.16152e-08
6.5081e-08
-9.45631e-08
7.03249e-08
-1.08278e-07
7.5194e-08
-1.22696e-07
7.96596e-08
-1.3775e-07
8.36998e-08
-1.53368e-07
8.72985e-08
-1.69479e-07
9.04448e-08
-1.86008e-07
9.31318e-08
-2.0288e-07
9.53562e-08
-2.20019e-07
9.71182e-08
-2.3735e-07
9.84201e-08
-2.54797e-07
9.92669e-08
-2.72287e-07
9.96654e-08
-2.89747e-07
9.96238e-08
-3.07103e-07
9.91522e-08
-3.24286e-07
9.82616e-08
-3.41228e-07
9.6964e-08
-3.57861e-07
9.52727e-08
-3.74122e-07
9.32012e-08
-3.89948e-07
9.07642e-08
-4.05281e-07
8.79768e-08
-4.20062e-07
8.48544e-08
-4.34238e-07
8.14132e-08
-4.47757e-07
7.76695e-08
-4.6057e-07
7.36402e-08
-4.72631e-07
6.93423e-08
-4.83897e-07
6.47933e-08
-4.94329e-07
6.0011e-08
-5.03889e-07
5.50131e-08
-5.12544e-07
4.9818e-08
-5.20263e-07
4.44442e-08
-5.27018e-07
3.89104e-08
-5.32786e-07
3.32355e-08
-5.37546e-07
2.74387e-08
-5.4128e-07
2.15396e-08
-5.43974e-07
1.55577e-08
-5.45619e-07
9.51316e-09
-5.46206e-07
3.42604e-09
-5.45732e-07
-2.68322e-09
-5.44196e-07
-8.79395e-09
-5.41604e-07
-1.48853e-08
-5.37961e-07
-2.09362e-08
-5.33279e-07
-2.69253e-08
-5.27571e-07
-3.28314e-08
-5.20857e-07
-3.86327e-08
-5.13157e-07
-4.43077e-08
-5.04498e-07
-4.98347e-08
-4.94909e-07
-5.51918e-08
-4.84421e-07
-6.03574e-08
-4.73073e-07
-6.53098e-08
-4.60904e-07
-7.00275e-08
-4.47957e-07
-7.44893e-08
-4.3428e-07
-7.86741e-08
-4.19924e-07
-8.25614e-08
-4.04942e-07
-8.6131e-08
-3.89392e-07
-8.93633e-08
-3.73333e-07
-9.22393e-08
-3.5683e-07
-9.47408e-08
-3.39948e-07
-9.68507e-08
-3.22755e-07
-9.85526e-08
-3.05323e-07
-9.98314e-08
-2.87725e-07
-1.00673e-07
-2.70036e-07
-1.01066e-07
-2.52332e-07
-1.01e-07
-2.34691e-07
-1.00464e-07
-2.17191e-07
-9.94541e-08
-1.99912e-07
-9.79642e-08
-1.82932e-07
-9.59929e-08
-1.6633e-07
-9.35415e-08
-1.50184e-07
-9.06142e-08
-1.34569e-07
-8.72191e-08
-1.19558e-07
-8.33683e-08
-1.05222e-07
-7.90788e-08
-9.1627e-08
-7.43726e-08
-7.8836e-08
-6.92782e-08
-6.69051e-08
-6.38308e-08
-5.58845e-08
-5.80739e-08
-4.58169e-08
-5.20603e-08
-3.67369e-08
-4.5854e-08
-2.86697e-08
-3.95314e-08
-2.16301e-08
-3.3184e-08
-1.56223e-08
-2.69205e-08
-1.06386e-08
-2.087e-08
-6.65936e-09
-1.5185e-08
-3.65317e-09
-1.00456e-08
-1.57729e-09
-5.66215e-09
-3.79277e-10
-2.28003e-09
-2.00381e-10
-5.21334e-10
9.20296e-10
-2.1043e-09
4.4303e-09
-4.77153e-09
9.22466e-09
-8.54356e-09
1.49914e-08
-1.34352e-08
2.14742e-08
-1.94533e-08
2.84522e-08
-2.6596e-08
3.57356e-08
-3.48519e-08
4.31636e-08
-4.42004e-08
5.06004e-08
-5.46118e-08
5.79318e-08
-6.6048e-08
6.50629e-08
-7.84632e-08
7.19146e-08
-9.18045e-08
7.84224e-08
-1.06013e-07
8.45336e-08
-1.21025e-07
9.02061e-08
-1.36772e-07
9.54066e-08
-1.53182e-07
1.0011e-07
-1.7018e-07
1.04296e-07
-1.87689e-07
1.07954e-07
-2.0563e-07
1.11073e-07
-2.23924e-07
1.1365e-07
-2.4249e-07
1.15684e-07
-2.61248e-07
1.17179e-07
-2.8012e-07
1.18138e-07
-2.99025e-07
1.18571e-07
-3.17887e-07
1.18485e-07
-3.36628e-07
1.17893e-07
-3.55174e-07
1.16808e-07
-3.73452e-07
1.15242e-07
-3.91392e-07
1.13212e-07
-4.08925e-07
1.10734e-07
-4.25985e-07
1.07824e-07
-4.42508e-07
1.045e-07
-4.58434e-07
1.0078e-07
-4.73704e-07
9.66838e-08
-4.88265e-07
9.22298e-08
-5.02063e-07
8.74382e-08
-5.15049e-07
8.2329e-08
-5.27179e-07
7.69228e-08
-5.38409e-07
7.12406e-08
-5.48699e-07
6.53035e-08
-5.58014e-07
5.91332e-08
-5.66321e-07
5.27515e-08
-5.73592e-07
4.61806e-08
-5.79799e-07
3.94429e-08
-5.84922e-07
3.25612e-08
-5.88941e-07
2.55585e-08
-5.91841e-07
1.84582e-08
-5.93612e-07
1.12838e-08
-5.94245e-07
4.05933e-09
-5.93737e-07
-3.19112e-09
-5.92088e-07
-1.04431e-08
-5.89301e-07
-1.76719e-08
-5.85385e-07
-2.48526e-08
-5.8035e-07
-3.196e-08
-5.74213e-07
-3.89689e-08
-5.66992e-07
-4.58538e-08
-5.5871e-07
-5.25891e-08
-5.49396e-07
-5.9149e-08
-5.3908e-07
-6.55081e-08
-5.27797e-07
-7.16405e-08
-5.15585e-07
-7.75209e-08
-5.02489e-07
-8.31239e-08
-4.88554e-07
-8.84244e-08
-4.7383e-07
-9.33977e-08
-4.58372e-07
-9.80195e-08
-4.42237e-07
-1.02266e-07
-4.25486e-07
-1.06115e-07
-4.08182e-07
-1.09543e-07
-3.90394e-07
-1.12529e-07
-3.72191e-07
-1.15054e-07
-3.53646e-07
-1.17097e-07
-3.34836e-07
-1.18642e-07
-3.15836e-07
-1.19673e-07
-2.96728e-07
-1.20175e-07
-2.77593e-07
-1.20135e-07
-2.58512e-07
-1.19545e-07
-2.39569e-07
-1.18397e-07
-2.20849e-07
-1.16685e-07
-2.02434e-07
-1.14408e-07
-1.84409e-07
-1.11567e-07
-1.66854e-07
-1.08168e-07
-1.49852e-07
-1.04222e-07
-1.33479e-07
-9.97411e-08
-1.17811e-07
-9.47469e-08
-1.02919e-07
-8.92648e-08
-8.88689e-08
-8.3328e-08
-7.57227e-08
-7.6977e-08
-6.3535e-08
-7.02616e-08
-5.23536e-08
-6.32418e-08
-4.22182e-08
-5.59894e-08
-3.31599e-08
-4.85897e-08
-2.52004e-08
-4.11434e-08
-1.83515e-08
-3.37694e-08
-1.26147e-08
-2.66069e-08
-7.9813e-09
-1.98185e-08
-4.43294e-09
-1.35939e-08
-1.94275e-09
-8.15234e-09
-4.77265e-10
-3.74552e-09
-6.77643e-10
-6.20083e-10
1.54037e-09
-2.47504e-09
6.28524e-09
-5.56561e-09
1.23152e-08
-9.89305e-09
1.93188e-08
-1.54554e-08
2.70366e-08
-2.22452e-08
3.5242e-08
-3.02482e-08
4.37386e-08
-3.94428e-08
5.23581e-08
-4.9799e-08
6.09566e-08
-6.12796e-08
6.94124e-08
-7.38394e-08
7.76227e-08
-8.74266e-08
8.55018e-08
-1.01983e-07
9.29787e-08
-1.17444e-07
9.9995e-08
-1.33742e-07
1.06504e-07
-1.50803e-07
1.12468e-07
-1.68551e-07
1.17857e-07
-1.86906e-07
1.22652e-07
-2.05787e-07
1.26835e-07
-2.25111e-07
1.30397e-07
-2.44795e-07
1.33333e-07
-2.64753e-07
1.35643e-07
-2.84902e-07
1.37328e-07
-3.05157e-07
1.38394e-07
-3.25436e-07
1.38849e-07
-3.45656e-07
1.38705e-07
-3.65737e-07
1.37974e-07
-3.856e-07
1.36671e-07
-4.05169e-07
1.34811e-07
-4.24368e-07
1.32412e-07
-4.43125e-07
1.29492e-07
-4.61371e-07
1.2607e-07
-4.79039e-07
1.22168e-07
-4.96065e-07
1.17806e-07
-5.12386e-07
1.13005e-07
-5.27946e-07
1.07789e-07
-5.42688e-07
1.02181e-07
-5.56562e-07
9.62027e-08
-5.69518e-07
8.98792e-08
-5.81512e-07
8.32346e-08
-5.92502e-07
7.62935e-08
-6.0245e-07
6.90811e-08
-6.11322e-07
6.16228e-08
-6.19085e-07
5.39443e-08
-6.25714e-07
4.60719e-08
-6.31185e-07
3.8032e-08
-6.35478e-07
2.98514e-08
-6.38577e-07
2.15574e-08
-6.40471e-07
1.31774e-08
-6.4115e-07
4.7392e-09
-6.40613e-07
-3.72897e-09
-6.38857e-07
-1.21987e-08
-6.35888e-07
-2.06413e-08
-6.31713e-07
-2.90277e-08
-6.26344e-07
-3.73286e-08
-6.19798e-07
-4.55148e-08
-6.12095e-07
-5.35564e-08
-6.03261e-07
-6.14239e-08
-5.93322e-07
-6.90874e-08