/*--------------------------------*- C++ -*----------------------------------*\
| =========                 |                                                 |
| \\      /  F ield         | OpenFOAM: The Open Source CFD Toolbox           |
|  \\    /   O peration     | Version:  2212                                  |
|   \\  /    A nd           | Website:  www.openfoam.com                      |
|    \\/     M anipulation  |                                                 |
\*---------------------------------------------------------------------------*/
FoamFile
{
    version     2.0;
    format      ascii;
    arch        "LSB;label=32;scalar=64";
    class       surfaceScalarField;
    location    "0.0165";
    object      phi_0;
}
// * * * * * * * * * * * * * * * * * * * * * * * * * * * * * * * * * * * * * //

dimensions      [0 3 -1 0 0 0 0];

oriented        oriented;

internalField   nonuniform List<scalar> 
19800
(
6.2002e-11
-6.20573e-11
1.73801e-10
-1.11788e-10
2.66133e-10
-9.23453e-11
2.98576e-10
-3.24381e-11
2.53823e-10
4.47556e-11
1.26185e-10
1.27648e-10
-8.44138e-11
2.10593e-10
-3.74782e-10
2.90369e-10
-7.40302e-10
3.65517e-10
-1.17541e-09
4.35101e-10
-1.67421e-09
4.98804e-10
-2.23064e-09
5.56434e-10
-2.8386e-09
6.07954e-10
-3.49201e-09
6.53411e-10
-4.18494e-09
6.92931e-10
-4.91164e-09
7.26699e-10
-5.66661e-09
7.54969e-10
-6.4446e-09
7.77992e-10
-7.2406e-09
7.95993e-10
-8.0499e-09
8.09306e-10
-8.86808e-09
8.18185e-10
-9.69096e-09
8.2289e-10
-1.05146e-08
8.2365e-10
-1.13353e-08
8.20667e-10
-1.21494e-08
8.14132e-10
-1.29537e-08
8.04304e-10
-1.37451e-08
7.91417e-10
-1.45208e-08
7.75703e-10
-1.52782e-08
7.57381e-10
-1.60148e-08
7.36645e-10
-1.67285e-08
7.13671e-10
-1.74171e-08
6.88616e-10
-1.80788e-08
6.61667e-10
-1.87117e-08
6.32949e-10
-1.93143e-08
6.02582e-10
-1.9885e-08
5.70719e-10
-2.04225e-08
5.37505e-10
-2.09256e-08
5.03092e-10
-2.13932e-08
4.67594e-10
-2.18243e-08
4.31114e-10
-2.22181e-08
3.93754e-10
-2.25737e-08
3.55568e-10
-2.28903e-08
3.16628e-10
-2.31673e-08
2.77035e-10
-2.34042e-08
2.3687e-10
-2.36004e-08
1.96226e-10
-2.37556e-08
1.55188e-10
-2.38694e-08
1.13803e-10
-2.39415e-08
7.21035e-11
-2.39717e-08
3.01429e-11
-2.39597e-08
-1.19938e-11
-2.39055e-08
-5.42201e-11
-2.3809e-08
-9.64567e-11
-2.36704e-08
-1.38619e-10
-2.34898e-08
-1.8063e-10
-2.32673e-08
-2.22407e-10
-2.30035e-08
-2.63848e-10
-2.26987e-08
-3.04866e-10
-2.23533e-08
-3.45376e-10
-2.1968e-08
-3.85258e-10
-2.15436e-08
-4.24391e-10
-2.1081e-08
-4.62669e-10
-2.0581e-08
-4.99954e-10
-2.00449e-08
-5.36105e-10
-1.94739e-08
-5.71012e-10
-1.88693e-08
-6.0454e-10
-1.82328e-08
-6.36506e-10
-1.75661e-08
-6.66749e-10
-1.6871e-08
-6.95137e-10
-1.61495e-08
-7.21506e-10
-1.54038e-08
-7.45661e-10
-1.46364e-08
-7.67419e-10
-1.38498e-08
-7.86608e-10
-1.30467e-08
-8.03016e-10
-1.22303e-08
-8.16409e-10
-1.14038e-08
-8.26565e-10
-1.05705e-08
-8.33263e-10
-9.73424e-09
-8.36261e-10
-8.89892e-09
-8.35309e-10
-8.06875e-09
-8.30175e-10
-7.24811e-09
-8.20636e-10
-6.44167e-09
-8.06441e-10
-5.65435e-09
-7.87316e-10
-4.89134e-09
-7.6301e-10
-4.15804e-09
-7.33308e-10
-3.46002e-09
-6.98011e-10
-2.8031e-09
-6.56914e-10
-2.19327e-09
-6.09837e-10
-1.6366e-09
-5.56673e-10
-1.13919e-09
-4.97404e-10
-7.07097e-10
-4.32094e-10
-3.46137e-10
-3.60966e-10
-6.15838e-11
-2.84555e-10
1.42356e-10
-2.03936e-10
2.63387e-10
-1.21032e-10
3.02569e-10
-3.91879e-11
2.66937e-10
3.56328e-11
1.74262e-10
9.26792e-11
6.24292e-11
1.11832e-10
6.24312e-11
1.08891e-10
-1.70937e-10
2.52373e-10
-2.55272e-10
3.1843e-10
-1.58393e-10
2.37274e-10
4.87159e-11
-2.89463e-11
3.10969e-10
-4.97436e-10
5.96129e-10
-1.1727e-09
8.85866e-10
-2.05162e-09
1.16928e-09
-3.12587e-09
1.43978e-09
-4.38403e-09
1.69328e-09
-5.8126e-09
1.92738e-09
-7.39687e-09
2.14072e-09
-9.12156e-09
2.33265e-09
-1.09711e-08
2.503e-09
-1.29301e-08
2.65192e-09
-1.49833e-08
2.77987e-09
-1.71158e-08
2.88748e-09
-1.93133e-08
2.97556e-09
-2.15622e-08
3.04491e-09
-2.38494e-08
3.09648e-09
-2.61624e-08
3.13115e-09
-2.84894e-08
3.14986e-09
-3.08192e-08
3.15344e-09
-3.31413e-08
3.14277e-09
-3.54458e-08
3.11869e-09
-3.77236e-08
3.08206e-09
-3.99659e-08
3.03369e-09
-4.21646e-08
2.97441e-09
-4.43122e-08
2.90503e-09
-4.64018e-08
2.82626e-09
-4.84269e-08
2.7388e-09
-5.03816e-08
2.64331e-09
-5.22603e-08
2.54039e-09
-5.4058e-08
2.43061e-09
-5.57699e-08
2.31451e-09
-5.73918e-08
2.19261e-09
-5.89198e-08
2.06545e-09
-6.03502e-08
1.93351e-09
-6.16798e-08
1.79725e-09
-6.29058e-08
1.65706e-09
-6.40254e-08
1.51334e-09
-6.50362e-08
1.36641e-09
-6.59362e-08
1.2166e-09
-6.67234e-08
1.06424e-09
-6.73962e-08
9.09663e-10
-6.79532e-08
7.53185e-10
-6.83931e-08
5.95097e-10
-6.87149e-08
4.35643e-10
-6.89179e-08
2.7507e-10
-6.90014e-08
1.13632e-10
-6.8965e-08
-4.83945e-11
-6.88085e-08
-2.1069e-10
-6.8532e-08
-3.72944e-10
-6.81358e-08
-5.34865e-10
-6.76203e-08
-6.96127e-10
-6.69863e-08
-8.56391e-10
-6.62348e-08
-1.01532e-09
-6.53671e-08
-1.17257e-09
-6.43848e-08
-1.32775e-09
-6.32896e-08
-1.48046e-09
-6.20837e-08
-1.63027e-09
-6.07696e-08
-1.77672e-09
-5.93503e-08
-1.91934e-09
-5.78287e-08
-2.05764e-09
-5.62086e-08
-2.1911e-09
-5.4494e-08
-2.31918e-09
-5.26892e-08
-2.44129e-09
-5.07991e-08
-2.55682e-09
-4.88291e-08
-2.66515e-09
-4.67849e-08
-2.76567e-09
-4.46729e-08
-2.85768e-09
-4.24999e-08
-2.94046e-09
-4.02732e-08
-3.01328e-09
-3.80008e-08
-3.07538e-09
-3.56913e-08
-3.12597e-09
-3.33537e-08
-3.16419e-09
-3.09978e-08
-3.18915e-09
-2.8634e-08
-3.19999e-09
-2.62735e-08
-3.19583e-09
-2.39279e-08
-3.17581e-09
-2.16095e-08
-3.13903e-09
-1.93313e-08
-3.08462e-09
-1.71069e-08
-3.01172e-09
-1.49504e-08
-2.9195e-09
-1.28765e-08
-2.80723e-09
-1.09003e-08
-2.67421e-09
-9.03731e-09
-2.51988e-09
-7.30328e-09
-2.34387e-09
-5.71387e-09
-2.14608e-09
-4.28454e-09
-1.92674e-09
-3.03001e-09
-1.68663e-09
-1.96367e-09
-1.42731e-09
-1.09665e-09
-1.15157e-09
-4.36517e-10
-8.64082e-10
1.48481e-11
-5.72408e-10
2.64358e-10
-2.88694e-10
3.32336e-10
-3.23379e-11
2.58977e-10
1.66037e-10
1.11851e-10
2.58969e-10
1.74277e-10
8.87822e-11
-2.59732e-10
1.59825e-10
-3.26299e-10
8.59303e-11
-8.45037e-11
-2.14922e-10
3.49566e-10
-7.89829e-10
8.85875e-10
-1.66251e-09
1.46881e-09
-2.8409e-09
2.06424e-09
-4.32237e-09
2.65075e-09
-6.09686e-09
3.21427e-09
-8.14925e-09
3.74567e-09
-1.04609e-08
4.23901e-09
-1.30109e-08
4.6907e-09
-1.57769e-08
5.0987e-09
-1.8736e-08
5.46214e-09
-2.18651e-08
5.78101e-09
-2.51411e-08
6.05587e-09
-2.85415e-08
6.2878e-09
-3.20441e-08
6.47817e-09
-3.56277e-08
6.62859e-09
-3.9272e-08
6.7408e-09
-4.29575e-08
6.81662e-09
-4.66655e-08
6.85789e-09
-5.03785e-08
6.86646e-09
-5.40799e-08
6.84413e-09
-5.77539e-08
6.79273e-09
-6.13859e-08
6.71407e-09
-6.49621e-08
6.60991e-09
-6.84697e-08
6.48197e-09
-7.18966e-08
6.33191e-09
-7.52316e-08
6.16129e-09
-7.84644e-08
5.9716e-09
-8.15853e-08
5.76426e-09
-8.45856e-08
5.54061e-09
-8.74568e-08
5.3019e-09
-9.01917e-08
5.04933e-09
-9.27831e-08
4.78403e-09
-9.52248e-08
4.50712e-09
-9.75109e-08
4.21963e-09
-9.96361e-08
3.9225e-09
-1.01596e-07
3.61668e-09
-1.03385e-07
3.30297e-09
-1.05001e-07
2.98216e-09
-1.0644e-07
2.65501e-09
-1.07698e-07
2.32224e-09
-1.08772e-07
1.98456e-09
-1.09662e-07
1.64265e-09
-1.10364e-07
1.29716e-09
-1.10877e-07
9.48701e-10
-1.112e-07
5.97852e-10
-1.11331e-07
2.45232e-10
-1.11271e-07
-1.08529e-10
-1.11019e-07
-4.62792e-10
-1.10575e-07
-8.16889e-10
-1.0994e-07
-1.17014e-09
-1.09114e-07
-1.52184e-09
-1.08099e-07
-1.87128e-09
-1.06897e-07
-2.2177e-09
-1.05509e-07
-2.56032e-09
-1.03939e-07
-2.89831e-09
-1.02188e-07
-3.23082e-09
-1.00262e-07
-3.55692e-09
-9.81628e-08
-3.87561e-09
-9.58963e-08
-4.18587e-09
-9.34672e-08
-4.48667e-09
-9.08815e-08
-4.77687e-09
-8.81454e-08
-5.05526e-09
-8.52661e-08
-5.32059e-09
-8.22513e-08
-5.57157e-09
-7.91096e-08
-5.80687e-09
-7.58502e-08
-6.02503e-09
-7.24833e-08
-6.22458e-09
-6.90198e-08
-6.404e-09
-6.54714e-08
-6.56168e-09
-6.18508e-08
-6.69596e-09
-5.81717e-08
-6.80511e-09
-5.44485e-08
-6.88736e-09
-5.06968e-08
-6.94088e-09
-4.6933e-08
-6.96382e-09
-4.31745e-08
-6.95432e-09
-3.94397e-08
-6.91054e-09
-3.57481e-08
-6.83068e-09
-3.21197e-08
-6.71295e-09
-2.85758e-08
-6.55561e-09
-2.51383e-08
-6.35706e-09
-2.18297e-08
-6.11587e-09
-1.8673e-08
-5.83082e-09
-1.56919e-08
-5.50102e-09
-1.29098e-08
-5.12602e-09
-1.03499e-08
-4.70599e-09
-8.03459e-09
-4.24201e-09
-5.98486e-09
-3.73636e-09
-4.21907e-09
-3.1931e-09
-2.75182e-09
-2.61883e-09
-1.59199e-09
-2.02392e-09
-7.40185e-10
-1.42421e-09
-1.85219e-10
-8.43662e-10
1.00642e-10
-3.18214e-10
1.67245e-10
9.94324e-11
9.29829e-11
3.33234e-10
2.67255e-10
3.44924e-11
-2.94223e-10
-3.0033e-11
-2.61773e-10
-3.15663e-10
2.01127e-10
-9.05231e-10
9.39138e-10
-1.84839e-09
1.82903e-09
-3.17095e-09
2.79138e-09
-4.88207e-09
3.77536e-09
-6.97875e-09
4.74744e-09
-9.44931e-09
5.68484e-09
-1.22757e-08
6.57203e-09
-1.54353e-08
7.39863e-09
-1.89025e-08
8.1579e-09
-2.26496e-08
8.84579e-09
-2.66477e-08
9.46027e-09
-3.08675e-08
1.00008e-08
-3.52794e-08
1.04678e-08
-3.98545e-08
1.08629e-08
-4.45641e-08
1.11878e-08
-4.93806e-08
1.14451e-08
-5.42772e-08
1.16374e-08
-5.92283e-08
1.17677e-08
-6.42093e-08
1.18389e-08
-6.9197e-08
1.18541e-08
-7.41693e-08
1.18164e-08
-7.91054e-08
1.17288e-08
-8.39855e-08
1.15942e-08
-8.87913e-08
1.14157e-08
-9.35055e-08
1.11961e-08
-9.81119e-08
1.09383e-08
-1.02595e-07
1.06449e-08
-1.06942e-07
1.03184e-08
-1.11139e-07
9.96126e-09
-1.15174e-07
9.5758e-09
-1.19037e-07
9.16417e-09
-1.22716e-07
8.72845e-09
-1.26202e-07
8.27061e-09
-1.29488e-07
7.7925e-09
-1.32564e-07
7.29593e-09
-1.35424e-07
6.78253e-09
-1.38061e-07
6.25387e-09
-1.4047e-07
5.71144e-09
-1.42644e-07
5.1566e-09
-1.4458e-07
4.59068e-09
-1.46273e-07
4.01496e-09
-1.47719e-07
3.43067e-09
-1.48915e-07
2.839e-09
-1.49859e-07
2.24107e-09
-1.50548e-07
1.638e-09
-1.50981e-07
1.03088e-09
-1.51157e-07
4.2077e-10
-1.51074e-07
-1.91216e-10
-1.50733e-07
-8.03924e-10
-1.50134e-07
-1.41622e-09
-1.49277e-07
-2.02697e-09
-1.48164e-07
-2.63493e-09
-1.46796e-07
-3.2388e-09
-1.45177e-07
-3.83732e-09
-1.43308e-07
-4.42914e-09
-1.41193e-07
-5.01283e-09
-1.38837e-07
-5.58685e-09
-1.36245e-07
-6.14964e-09
-1.33421e-07
-6.69955e-09
-1.30372e-07
-7.23481e-09
-1.27105e-07
-7.75355e-09
-1.23628e-07
-8.25385e-09
-1.19949e-07
-8.73369e-09
-1.16079e-07
-9.1909e-09
-1.12027e-07
-9.62323e-09
-1.07806e-07
-1.00284e-08
-1.03427e-07
-1.04039e-08
-9.89045e-08
-1.07472e-08
-9.42529e-08
-1.10556e-08
-8.9488e-08
-1.13265e-08
-8.46269e-08
-1.1557e-08
-7.96878e-08
-1.17442e-08
-7.46901e-08
-1.18851e-08
-6.96545e-08
-1.19765e-08
-6.46028e-08
-1.20155e-08
-5.95582e-08
-1.19989e-08
-5.45449e-08
-1.19238e-08
-4.95886e-08
-1.17871e-08
-4.47157e-08
-1.15858e-08
-3.99539e-08
-1.13174e-08
-3.53318e-08
-1.09792e-08
-3.08785e-08
-1.05692e-08
-2.66238e-08
-1.00855e-08
-2.25977e-08
-9.52715e-09
-1.88299e-08
-8.89381e-09
-1.53495e-08
-8.18638e-09
-1.21842e-08
-7.40729e-09
-9.35947e-09
-6.5611e-09
-6.89726e-09
-5.65532e-09
-4.81451e-09
-4.70159e-09
-3.12113e-09
-3.7173e-09
-1.81739e-09
-2.72795e-09
-8.90623e-10
-1.77044e-09
-3.11179e-10
-8.97662e-10
-2.79589e-11
-1.83778e-10
3.69897e-11
2.68281e-10
3.04243e-10
-3.67476e-11
-2.57475e-10
-2.77291e-10
-2.12384e-11
-8.24637e-10
7.48472e-10
-1.75243e-09
1.86692e-09
-3.10701e-09
3.18359e-09
-4.91289e-09
4.59726e-09
-7.17823e-09
6.0407e-09
-9.89875e-09
7.46795e-09
-1.30608e-08
8.84687e-09
-1.66437e-08
1.0155e-08
-2.06218e-08
1.13767e-08
-2.49654e-08
1.25015e-08
-2.96426e-08
1.3523e-08
-3.46196e-08
1.44373e-08
-3.98621e-08
1.52432e-08
-4.53352e-08
1.5941e-08
-5.10045e-08
1.65321e-08
-5.68358e-08
1.70191e-08
-6.2796e-08
1.74053e-08
-6.88529e-08
1.76943e-08
-7.49754e-08
1.78903e-08
-8.1134e-08
1.79974e-08
-8.73001e-08
1.80203e-08
-9.34468e-08
1.79632e-08
-9.95488e-08
1.78307e-08
-1.05582e-07
1.76273e-08
-1.11523e-07
1.73572e-08
-1.17352e-07
1.70249e-08
-1.23048e-07
1.66343e-08
-1.28593e-07
1.61895e-08
-1.33969e-07
1.56943e-08
-1.3916e-07
1.51524e-08
-1.44151e-07
1.45673e-08
-1.48929e-07
1.39422e-08
-1.53481e-07
1.32803e-08
-1.57795e-07
1.25845e-08
-1.6186e-07
1.18578e-08
-1.65667e-07
1.11026e-08
-1.69206e-07
1.03217e-08
-1.7247e-07
9.5174e-09
-1.7545e-07
8.69191e-09
-1.78141e-07
7.84739e-09
-1.80536e-07
6.98589e-09
-1.82631e-07
6.10937e-09
-1.8442e-07
5.2197e-09
-1.85899e-07
4.31872e-09
-1.87067e-07
3.40821e-09
-1.87918e-07
2.48983e-09
-1.88453e-07
1.56531e-09
-1.88668e-07
6.36372e-10
-1.88564e-07
-2.95313e-10
-1.8814e-07
-1.22803e-09
-1.87397e-07
-2.16e-09
-1.86334e-07
-3.08942e-09
-1.84955e-07
-4.01443e-09
-1.8326e-07
-4.93313e-09
-1.81254e-07
-5.84353e-09
-1.7894e-07
-6.7435e-09
-1.76322e-07
-7.6309e-09
-1.73405e-07
-8.50346e-09
-1.70196e-07
-9.35877e-09
-1.66701e-07
-1.01943e-08
-1.62929e-07
-1.10073e-08
-1.58887e-07
-1.17951e-08
-1.54586e-07
-1.25547e-08
-1.50037e-07
-1.32829e-08
-1.45251e-07
-1.39767e-08
-1.40242e-07
-1.46325e-08
-1.35023e-07
-1.52469e-08
-1.29611e-07
-1.58162e-08
-1.24022e-07
-1.63364e-08
-1.18274e-07
-1.68037e-08
-1.12387e-07
-1.72138e-08
-1.06381e-07
-1.75627e-08
-1.00279e-07
-1.78458e-08
-9.41057e-08
-1.80588e-08
-8.78851e-08
-1.81971e-08
-8.16444e-08
-1.82562e-08
-7.54117e-08
-1.82316e-08
-6.92167e-08
-1.81189e-08
-6.30901e-08
-1.79137e-08
-5.7064e-08
-1.76118e-08
-5.11718e-08
-1.72096e-08
-4.54476e-08
-1.67035e-08
-3.99262e-08
-1.60906e-08
-3.46428e-08
-1.53689e-08
-2.96328e-08
-1.45372e-08
-2.4931e-08
-1.35956e-08
-2.05711e-08
-1.25463e-08
-1.65849e-08
-1.13935e-08
-1.30015e-08
-1.01445e-08
-9.84567e-09
-8.81114e-09
-7.13653e-09
-7.41073e-09
-4.88547e-09
-5.96835e-09
-3.0939e-09
-4.51952e-09
-1.75039e-09
-3.11395e-09
-8.27662e-10
-1.82039e-09
-2.79309e-10
-7.32129e-10
-3.61352e-11
2.51001e-11
2.68109e-10
-1.15727e-10
-1.41737e-10
-5.54114e-10
4.17137e-10
-1.39314e-09
1.58751e-09
-2.69108e-09
3.16486e-09
-4.48587e-09
4.97838e-09
-6.79749e-09
6.90888e-09
-9.63107e-09
8.87428e-09
-1.29798e-08
1.08167e-08
-1.68278e-08
1.26948e-08
-2.11516e-08
1.44788e-08
-2.59225e-08
1.61476e-08
-3.11078e-08
1.76867e-08
-3.66716e-08
1.90868e-08
-4.25763e-08
2.03421e-08
-4.87833e-08
2.14502e-08
-5.52533e-08
2.2411e-08
-6.19472e-08
2.3226e-08
-6.88263e-08
2.38982e-08
-7.58526e-08
2.44316e-08
-8.29892e-08
2.4831e-08
-9.02006e-08
2.51016e-08
-9.74524e-08
2.52492e-08
-1.04712e-07
2.52797e-08
-1.11948e-07
2.5199e-08
-1.1913e-07
2.50133e-08
-1.26231e-07
2.47285e-08
-1.33225e-07
2.43507e-08
-1.40086e-07
2.38856e-08
-1.4679e-07
2.3339e-08
-1.53317e-07
2.27164e-08
-1.59646e-07
2.2023e-08
-1.65757e-07
2.1264e-08
-1.71634e-07
2.04441e-08
-1.7726e-07
1.9568e-08
-1.8262e-07
1.864e-08
-1.877e-07
1.76643e-08
-1.92487e-07
1.66449e-08
-1.9697e-07
1.55855e-08
-2.01137e-07
1.44896e-08
-2.04981e-07
1.33607e-08
-2.08491e-07
1.22018e-08
-2.11659e-07
1.10161e-08
-2.1448e-07
9.80635e-09
-2.16946e-07
8.57542e-09
-2.19052e-07
7.32595e-09
-2.20794e-07
6.0605e-09
-2.22167e-07
4.78159e-09
-2.23169e-07
3.4917e-09
-2.23797e-07
2.19322e-09
-2.24049e-07
8.88557e-10
-2.23925e-07
-4.19867e-10
-2.23423e-07
-1.72957e-09
-2.22545e-07
-3.03808e-09
-2.21292e-07
-4.3429e-09
-2.19665e-07
-5.64137e-09
-2.17667e-07
-6.93075e-09
-2.15302e-07
-8.20825e-09
-2.12575e-07
-9.471e-09
-2.0949e-07
-1.07159e-08
-2.06054e-07
-1.19397e-08
-2.02273e-07
-1.3139e-08
-1.98157e-07
-1.43103e-08
-1.93715e-07
-1.545e-08
-1.88956e-07
-1.6554e-08
-1.83892e-07
-1.76182e-08
-1.78537e-07
-1.86384e-08
-1.72903e-07
-1.96099e-08
-1.67008e-07
-2.05282e-08
-1.60866e-07
-2.13882e-08
-1.54498e-07
-2.21848e-08
-1.47922e-07
-2.29126e-08
-1.41159e-07
-2.35662e-08
-1.34233e-07
-2.41398e-08
-1.27168e-07
-2.46276e-08
-1.19991e-07
-2.50235e-08
-1.12728e-07
-2.53215e-08
-1.05409e-07
-2.55154e-08
-9.80665e-08
-2.55991e-08
-9.07316e-08
-2.55665e-08
-8.34389e-08
-2.54116e-08
-7.6224e-08
-2.51286e-08
-6.91238e-08
-2.4712e-08
-6.21764e-08
-2.4157e-08
-5.54206e-08
-2.34592e-08
-4.88961e-08
-2.26151e-08
-4.26428e-08
-2.16222e-08
-3.67004e-08
-2.04796e-08
-3.11078e-08
-1.91882e-08
-2.59027e-08
-1.77514e-08
-2.11204e-08
-1.61758e-08
-1.67929e-08
-1.4472e-08
-1.29479e-08
-1.26562e-08
-9.60669e-09
-1.07519e-08
-6.78314e-09
-8.7919e-09
-4.48129e-09
-6.82138e-09
-2.6934e-09
-4.90184e-09
-1.39782e-09
-3.11595e-09
-5.5704e-10
-1.57292e-09
-1.15954e-10
-4.15989e-10
1.52151e-10
-1.96277e-10
5.45354e-11
-8.41279e-10
1.06214e-09
-1.98624e-09
2.73246e-09
-3.67092e-09
4.84955e-09
-5.92176e-09
7.22921e-09
-8.75144e-09
9.73855e-09
-1.21601e-08
1.2283e-08
-1.61374e-08
1.4794e-08
-2.0664e-08
1.72214e-08
-2.57137e-08
1.95285e-08
-3.12548e-08
2.16887e-08
-3.72514e-08
2.36833e-08
-4.36645e-08
2.54999e-08
-5.0453e-08
2.71306e-08
-5.75746e-08
2.85718e-08
-6.49863e-08
2.98227e-08
-7.26449e-08
3.08846e-08
-8.05078e-08
3.1761e-08
-8.85329e-08
3.24567e-08
-9.66792e-08
3.29773e-08
-1.04907e-07
3.33296e-08
-1.13178e-07
3.35205e-08
-1.21456e-07
3.35576e-08
-1.29706e-07
3.34484e-08
-1.37893e-07
3.32008e-08
-1.45987e-07
3.28226e-08
-1.53958e-07
3.23215e-08
-1.61778e-07
3.1705e-08
-1.69419e-07
3.09805e-08
-1.76858e-07
3.01552e-08
-1.84071e-07
2.92361e-08
-1.91037e-07
2.82297e-08
-1.97735e-07
2.71424e-08
-2.04147e-07
2.59804e-08
-2.10257e-07
2.47493e-08
-2.16047e-07
2.34546e-08
-2.21504e-07
2.21017e-08
-2.26614e-07
2.06955e-08
-2.31365e-07
1.92406e-08
-2.35746e-07
1.77416e-08
-2.39747e-07
1.62027e-08
-2.43358e-07
1.46279e-08
-2.46573e-07
1.30211e-08
-2.49384e-07
1.1386e-08
-2.51784e-07
9.72612e-09
-2.53768e-07
8.04503e-09
-2.55333e-07
6.34603e-09
-2.56473e-07
4.63237e-09
-2.57188e-07
2.90735e-09
-2.57473e-07
1.17424e-09
-2.57329e-07
-5.63754e-10
-2.56756e-07
-2.30339e-09
-2.55752e-07
-4.04131e-09
-2.54321e-07
-5.77408e-09
-2.52464e-07
-7.49823e-09
-2.50185e-07
-9.21017e-09
-2.47487e-07
-1.09061e-08
-2.44376e-07
-1.25822e-08
-2.40857e-07
-1.42343e-08
-2.36939e-07
-1.58582e-08
-2.32628e-07
-1.74495e-08
-2.27935e-07
-1.90033e-08
-2.22871e-07
-2.05147e-08
-2.17446e-07
-2.19786e-08
-2.11675e-07
-2.33896e-08
-2.05571e-07
-2.47419e-08
-1.99151e-07
-2.60295e-08
-1.92433e-07
-2.72463e-08
-1.85436e-07
-2.83856e-08
-1.7818e-07
-2.94408e-08
-1.70688e-07
-3.04048e-08
-1.62983e-07
-3.12704e-08
-1.55093e-07
-3.20301e-08
-1.47044e-07
-3.26763e-08
-1.38867e-07
-3.32011e-08
-1.30592e-07
-3.35967e-08
-1.22252e-07
-3.38551e-08
-1.13883e-07
-3.39684e-08
-1.0552e-07
-3.39288e-08
-9.72032e-08
-3.37286e-08
-8.8971e-08
-3.33607e-08
-8.08648e-08
-3.28183e-08
-7.29267e-08
-3.20951e-08
-6.51999e-08
-3.11861e-08
-5.77279e-08
-3.0087e-08
-5.05547e-08
-2.87954e-08
-4.37236e-08
-2.73106e-08
-3.72774e-08
-2.56345e-08
-3.12569e-08
-2.37719e-08
-2.57006e-08
-2.1732e-08
-2.06436e-08
-1.9529e-08
-1.61161e-08
-1.71837e-08
-1.21426e-08
-1.47254e-08
-8.74012e-09
-1.21944e-08
-5.91687e-09
-9.64464e-09
-3.67073e-09
-7.14798e-09
-1.98807e-09
-4.79862e-09
-8.42882e-10
-2.71812e-09
-1.9677e-10
-1.0621e-09
-4.46259e-11
-2.75414e-10
3.29952e-10
-1.12689e-09
1.91361e-09
-2.58054e-09
4.1861e-09
-4.65692e-09
6.92593e-09
-7.36904e-09
9.94134e-09
-1.07204e-08
1.30899e-08
-1.47046e-08
1.62672e-08
-1.93062e-08
1.93956e-08
-2.45022e-08
2.24174e-08
-3.02627e-08
2.52891e-08
-3.65531e-08
2.79791e-08
-4.33342e-08
3.04644e-08
-5.0564e-08
3.27297e-08
-5.81984e-08
3.4765e-08
-6.61915e-08
3.6565e-08
-7.44972e-08
3.81283e-08
-8.30688e-08
3.94562e-08
-9.18602e-08
4.05524e-08
-1.00826e-07
4.14223e-08
-1.09921e-07
4.20726e-08
-1.19103e-07
4.25113e-08
-1.28329e-07
4.27468e-08
-1.3756e-07
4.27883e-08
-1.46757e-07
4.26452e-08
-1.55883e-07
4.2327e-08
-1.64903e-07
4.18434e-08
-1.73786e-07
4.12038e-08
-1.82499e-07
4.04179e-08
-1.91013e-07
3.94947e-08
-1.99301e-07
3.84434e-08
-2.07337e-07
3.72725e-08
-2.15098e-07
3.59904e-08
-2.22561e-07
3.46052e-08
-2.29705e-07
3.31246e-08
-2.36512e-07
3.15557e-08
-2.42963e-07
2.99058e-08
-2.49042e-07
2.81813e-08
-2.54736e-07
2.63887e-08
-2.60029e-07
2.45338e-08
-2.64909e-07
2.26224e-08
-2.69367e-07
2.066e-08
-2.7339e-07
1.86515e-08
-2.76971e-07
1.66022e-08
-2.80102e-07
1.45166e-08
-2.82775e-07
1.23994e-08
-2.84985e-07
1.0255e-08
-2.86727e-07
8.08773e-09
-2.87997e-07
5.90183e-09
-2.88791e-07
3.70146e-09
-2.89107e-07
1.49079e-09
-2.88945e-07
-7.26018e-10
-2.88304e-07
-2.94473e-09
-2.87184e-07
-5.16109e-09
-2.85587e-07
-7.37077e-09
-2.83516e-07
-9.56926e-09
-2.80974e-07
-1.17519e-08
-2.77967e-07
-1.3914e-08
-2.74498e-07
-1.60505e-08
-2.70576e-07
-1.81562e-08
-2.66209e-07
-2.02257e-08
-2.61405e-07
-2.22532e-08
-2.56176e-07
-2.42327e-08
-2.50532e-07
-2.61581e-08
-2.44488e-07
-2.80227e-08
-2.38058e-07
-2.98195e-08
-2.31259e-07
-3.15414e-08
-2.24108e-07
-3.31808e-08
-2.16624e-07
-3.47297e-08
-2.0883e-07
-3.618e-08
-2.00748e-07
-3.75231e-08
-1.92402e-07
-3.87501e-08
-1.83821e-07
-3.98519e-08
-1.75032e-07
-4.08192e-08
-1.66066e-07
-4.16424e-08
-1.56955e-07
-4.23117e-08
-1.47735e-07
-4.28172e-08
-1.38441e-07
-4.31492e-08
-1.29111e-07
-4.32978e-08
-1.19787e-07
-4.32533e-08
-1.10509e-07
-4.30067e-08
-1.01321e-07
-4.25489e-08
-9.2267e-08
-4.18718e-08
-8.33939e-08
-4.09682e-08
-7.47479e-08
-3.98321e-08
-6.63762e-08
-3.84587e-08
-5.83261e-08
-3.68455e-08
-5.06444e-08
-3.49923e-08
-4.33769e-08
-3.29019e-08
-3.65677e-08
-3.05811e-08
-3.02583e-08
-2.80415e-08
-2.44866e-08
-2.53007e-08
-1.92862e-08
-2.23841e-08
-1.46851e-08
-1.93266e-08
-1.07044e-08
-1.6175e-08
-7.35773e-09
-1.29913e-08
-4.64999e-09
-9.85572e-09
-2.57706e-09
-6.87156e-09
-1.12587e-09
-4.1693e-09
-2.75524e-10
-1.91245e-09
-3.20151e-10
-3.51244e-10
6.81196e-10
-1.40405e-09
2.96643e-09
-3.16171e-09
5.94377e-09
-5.62627e-09
9.3905e-09
-8.7968e-09
1.31119e-08
-1.26663e-08
1.69594e-08
-1.72208e-08
2.08216e-08
-2.24389e-08
2.46137e-08
-2.82927e-08
2.82712e-08
-3.47486e-08
3.1745e-08
-4.17683e-08
3.49987e-08
-4.93095e-08
3.80057e-08
-5.73272e-08
4.07474e-08
-6.57741e-08
4.32118e-08
-7.46014e-08
4.53924e-08
-8.37599e-08
4.72868e-08
-9.31999e-08
4.88962e-08
-1.02872e-07
5.02245e-08
-1.12728e-07
5.12778e-08
-1.22719e-07
5.2064e-08
-1.328e-07
5.2592e-08
-1.42925e-07
5.28721e-08
-1.53051e-07
5.29148e-08
-1.63138e-07
5.27315e-08
-1.73144e-07
5.23335e-08
-1.83033e-07
5.17324e-08
-1.92769e-07
5.09397e-08
-2.02318e-07
4.99669e-08
-2.11648e-07
4.88252e-08
-2.2073e-07
4.75254e-08
-2.29536e-07
4.60781e-08
-2.38039e-07
4.44937e-08
-2.46216e-07
4.27817e-08
-2.54043e-07
4.09518e-08
-2.615e-07
3.90129e-08
-2.68568e-07
3.69735e-08
-2.75229e-07
3.48418e-08
-2.81466e-07
3.26257e-08
-2.87264e-07
3.03325e-08
-2.92611e-07
2.79692e-08
-2.97494e-07
2.55426e-08
-3.01901e-07
2.30591e-08
-3.05824e-07
2.05248e-08
-3.09253e-07
1.79456e-08
-3.12181e-07
1.53272e-08
-3.14601e-07
1.26751e-08
-3.16508e-07
9.99468e-09
-3.17897e-07
7.29121e-09
-3.18766e-07
4.56992e-09
-3.19111e-07
1.83598e-09
-3.18931e-07
-9.05429e-10
-3.18227e-07
-3.6491e-09
-3.16998e-07
-6.38971e-09
-3.15247e-07
-9.12185e-09
-3.12977e-07
-1.184e-08
-3.1019e-07
-1.45383e-08
-3.06893e-07
-1.7211e-08
-3.03092e-07
-1.98517e-08
-2.98794e-07
-2.24542e-08
-2.94008e-07
-2.50116e-08
-2.88744e-07
-2.75169e-08
-2.83014e-07
-2.99627e-08
-2.76831e-07
-3.23413e-08
-2.70209e-07
-3.46446e-08
-2.63165e-07
-3.68639e-08
-2.55716e-07
-3.89905e-08
-2.47881e-07
-4.10151e-08
-2.39683e-07
-4.29278e-08
-2.31144e-07
-4.47187e-08
-2.2229e-07
-4.63773e-08
-2.13147e-07
-4.78928e-08
-2.03745e-07
-4.92539e-08
-1.94115e-07
-5.04494e-08
-1.8429e-07
-5.14675e-08
-1.74305e-07
-5.22965e-08
-1.64198e-07
-5.29244e-08
-1.54008e-07
-5.33394e-08
-1.43776e-07
-5.35297e-08
-1.33545e-07
-5.34838e-08
-1.23361e-07
-5.31907e-08
-1.1327e-07
-5.26399e-08
-1.0332e-07
-5.1822e-08
-9.356e-08
-5.07285e-08
-8.40396e-08
-4.93525e-08
-7.48094e-08
-4.76889e-08
-6.59198e-08
-4.57352e-08
-5.74206e-08
-4.34915e-08
-4.93607e-08
-4.09618e-08
-4.17872e-08
-3.81546e-08
-3.47446e-08
-3.50841e-08
-2.82742e-08
-3.17711e-08
-2.2413e-08
-2.82453e-08
-1.71931e-08
-2.45465e-08
-1.26406e-08
-2.07275e-08
-8.77544e-09
-1.68565e-08
-5.6104e-09
-1.30208e-08
-3.15172e-09
-9.33024e-09
-1.39974e-09
-5.92127e-09
-3.50613e-10
-2.96159e-09
-6.7076e-10
-4.23037e-10
1.10423e-09
-1.66908e-09
4.21248e-09
-3.72145e-09
7.99613e-09
-6.56514e-09
1.22342e-08
-1.01853e-08
1.6732e-08
-1.45643e-08
2.13384e-08
-1.96794e-08
2.59367e-08
-2.55027e-08
3.0437e-08
-3.20009e-08
3.47694e-08
-3.9136e-08
3.88801e-08
-4.68658e-08
4.27285e-08
-5.51446e-08
4.62845e-08
-6.39241e-08
4.95269e-08
-7.31541e-08
5.24418e-08
-8.2783e-08
5.50213e-08
-9.27585e-08
5.72623e-08
-1.03028e-07
5.91658e-08
-1.1354e-07
6.07361e-08
-1.24242e-07
6.19798e-08
-1.35084e-07
6.29058e-08
-1.46016e-07
6.35246e-08
-1.56992e-07
6.38476e-08
-1.67964e-07
6.38873e-08
-1.78889e-07
6.36568e-08
-1.89725e-07
6.31694e-08
-2.00432e-07
6.24387e-08
-2.1097e-07
6.14783e-08
-2.21305e-07
6.03017e-08
-2.31402e-07
5.89221e-08
-2.41229e-07
5.73525e-08
-2.50756e-07
5.56054e-08
-2.59956e-07
5.36931e-08
-2.68801e-07
5.16272e-08
-2.77269e-07
4.94191e-08
-2.85335e-07
4.70793e-08
-2.9298e-07
4.46184e-08
-3.00184e-07
4.20461e-08
-3.0693e-07
3.93717e-08
-3.13202e-07
3.66042e-08
-3.18985e-07
3.3752e-08
-3.24266e-07
3.08233e-08
-3.29032e-07
2.78257e-08
-3.33274e-07
2.47667e-08
-3.36982e-07
2.16535e-08
-3.40148e-07
1.84929e-08
-3.42764e-07
1.52916e-08
-3.44826e-07
1.20561e-08
-3.46327e-07
8.79276e-09
-3.47265e-07
5.508e-09
-3.47637e-07
2.20803e-09
-3.47442e-07
-1.10086e-09
-3.46679e-07
-4.41234e-09
-3.45348e-07
-7.71995e-09
-3.43453e-07
-1.10172e-08
-3.40996e-07
-1.42973e-08
-3.37981e-07
-1.75533e-08
-3.34413e-07
-2.07782e-08
-3.30301e-07
-2.39643e-08
-3.25651e-07
-2.71039e-08
-3.20474e-07
-3.0189e-08
-3.1478e-07
-3.3211e-08
-3.08581e-07
-3.6161e-08
-3.01893e-07
-3.90297e-08
-2.9473e-07
-4.18074e-08
-2.8711e-07
-4.44837e-08
-2.79053e-07
-4.70481e-08
-2.70578e-07
-4.94894e-08
-2.6171e-07
-5.17959e-08
-2.52474e-07
-5.39555e-08
-2.42895e-07
-5.59559e-08
-2.33004e-07
-5.7784e-08
-2.22831e-07
-5.94266e-08
-2.1241e-07
-6.08702e-08
-2.01777e-07
-6.21009e-08
-1.90969e-07
-6.31046e-08
-1.80026e-07
-6.38674e-08
-1.6899e-07
-6.43753e-08
-1.57905e-07
-6.46144e-08
-1.46818e-07
-6.45714e-08
-1.35775e-07
-6.42334e-08
-1.24826e-07
-6.35883e-08
-1.14023e-07
-6.26252e-08
-1.03417e-07
-6.13346e-08
-9.30607e-08
-5.97087e-08
-8.30077e-08
-5.7742e-08
-7.33111e-08
-5.54317e-08
-6.40238e-08
-5.27788e-08
-5.51976e-08
-4.97881e-08
-4.68825e-08
-4.64698e-08
-3.91263e-08
-4.28403e-08
-3.19737e-08
-3.89237e-08
-2.54658e-08
-3.47532e-08
-1.96393e-08
-3.03731e-08
-1.45258e-08
-2.58409e-08
-1.0152e-08
-2.12303e-08
-6.5393e-09
-1.66335e-08
-3.70453e-09
-1.2165e-08
-1.66118e-09
-7.96463e-09
-4.21372e-10
-4.20139e-09
-1.09213e-09
-4.90409e-10
1.59464e-09
-1.92029e-09
5.64237e-09
-4.25558e-09
1.03314e-08
-7.46586e-09
1.54445e-08
-1.15232e-08
2.07894e-08
-1.6399e-08
2.62142e-08
-2.20619e-08
3.15996e-08
-2.84768e-08
3.68519e-08
-3.56045e-08
4.18971e-08
-4.34021e-08
4.66777e-08
-5.18231e-08
5.11495e-08
-6.08183e-08
5.52797e-08
-7.03361e-08
5.90447e-08
-8.03231e-08
6.24288e-08
-9.07248e-08
6.5423e-08
-1.01486e-07
6.80237e-08
-1.12552e-07
7.02317e-08
-1.23867e-07
7.20514e-08
-1.35378e-07
7.34906e-08
-1.47031e-07
7.45589e-08
-1.58775e-07
7.52681e-08
-1.70558e-07
7.56313e-08
-1.82334e-07
7.56629e-08
-1.94055e-07
7.53775e-08
-2.05676e-07
7.47907e-08
-2.17156e-07
7.39181e-08
-2.28453e-07
7.27755e-08
-2.39529e-07
7.13784e-08
-2.50349e-07
6.97422e-08
-2.60879e-07
6.7882e-08
-2.71086e-07
6.58126e-08
-2.80941e-07
6.35481e-08
-2.90416e-07
6.11023e-08
-2.99485e-07
5.84883e-08
-3.08125e-07
5.57189e-08
-3.16313e-07
5.2806e-08
-3.24028e-07
4.97614e-08
-3.31252e-07
4.6596e-08
-3.37968e-07
4.33203e-08
-3.4416e-07
3.99443e-08
-3.49815e-07
3.64776e-08
-3.54918e-07
3.29294e-08
-3.5946e-07
2.93085e-08
-3.6343e-07
2.56233e-08
-3.66819e-07
2.1882e-08
-3.6962e-07
1.80925e-08
-3.71826e-07
1.42625e-08
-3.73433e-07
1.03997e-08
-3.74437e-07
6.51157e-09
-3.74834e-07
2.60548e-09
-3.74624e-07
-1.31104e-09
-3.73806e-07
-5.2305e-09
-3.72381e-07
-9.14526e-09
-3.7035e-07
-1.30476e-08
-3.67718e-07
-1.69294e-08
-3.64489e-07
-2.07826e-08
-3.60669e-07
-2.45987e-08
-3.56264e-07
-2.83687e-08
-3.51284e-07
-3.20836e-08
-3.4574e-07
-3.57337e-08
-3.39642e-07
-3.9309e-08
-3.33004e-07
-4.27989e-08
-3.25841e-07
-4.61926e-08
-3.1817e-07
-4.94784e-08
-3.10009e-07
-5.26443e-08
-3.0138e-07
-5.56778e-08
-2.92303e-07
-5.85657e-08
-2.82805e-07
-6.12945e-08
-2.7291e-07
-6.38498e-08
-2.62649e-07
-6.62171e-08
-2.52052e-07
-6.83813e-08
-2.41152e-07
-7.03268e-08
-2.29984e-07
-7.20378e-08
-2.18587e-07
-7.34983e-08
-2.07e-07
-7.46919e-08
-1.95265e-07
-7.56023e-08
-1.83427e-07
-7.62134e-08
-1.71532e-07
-7.65093e-08
-1.59629e-07
-7.64745e-08
-1.47768e-07
-7.60943e-08
-1.36001e-07
-7.5355e-08
-1.24382e-07
-7.42443e-08
-1.12965e-07
-7.27513e-08
-1.01807e-07
-7.08675e-08
-9.09617e-08
-6.85869e-08
-8.04868e-08
-6.59067e-08
-7.04374e-08
-6.28281e-08
-6.08684e-08
-5.93571e-08
-5.18329e-08
-5.55052e-08
-4.33822e-08
-5.1291e-08
-3.55647e-08
-4.67412e-08
-2.84257e-08
-4.18922e-08
-2.20069e-08
-3.67918e-08
-1.6346e-08
-3.15018e-08
-1.1477e-08
-2.60994e-08
-7.42972e-09
-2.06807e-08
-4.23166e-09
-1.53631e-08
-1.90872e-09
-1.02876e-08
-4.87697e-10
-5.62241e-09
-1.57983e-09
-5.53438e-10
2.14807e-09
-2.15727e-09
7.24621e-09
-4.76255e-09
1.29367e-08
-8.32513e-09
1.9007e-08
-1.28049e-08
2.52692e-08
-1.81628e-08
3.15721e-08
-2.43585e-08
3.77954e-08
-3.13497e-08
4.38431e-08
-3.90909e-08
4.96383e-08
-4.7534e-08
5.51208e-08
-5.66281e-08
6.02436e-08
-6.632e-08
6.49715e-08
-7.65545e-08
6.92791e-08
-8.72751e-08
7.31494e-08
-9.84244e-08
7.65723e-08
-1.09944e-07
7.95438e-08
-1.21777e-07
8.20647e-08
-1.33866e-07
8.41399e-08
-1.46153e-07
8.57778e-08
-1.58584e-07
8.69894e-08
-1.71103e-07
8.77876e-08
-1.83659e-07
8.81874e-08
-1.96201e-07
8.82046e-08
-2.0868e-07
8.78561e-08
-2.21048e-07
8.71595e-08
-2.33263e-07
8.61325e-08
-2.4528e-07
8.4793e-08
-2.57061e-07
8.31589e-08
-2.68566e-07
8.12478e-08
-2.79761e-07
7.90769e-08
-2.90612e-07
7.66633e-08
-3.01087e-07
7.40232e-08
-3.11157e-07
7.11726e-08
-3.20796e-07
6.81265e-08
-3.29976e-07
6.48996e-08
-3.38676e-07
6.1506e-08
-3.46874e-07
5.7959e-08
-3.54549e-07
5.42714e-08
-3.61685e-07
5.04554e-08
-3.68263e-07
4.65227e-08
-3.7427e-07
4.24843e-08
-3.79691e-07
3.8351e-08
-3.84516e-07
3.4133e-08
-3.88733e-07
2.98401e-08
-3.92332e-07
2.54818e-08
-3.95307e-07
2.10675e-08
-3.97651e-07
1.6606e-08
-3.99357e-07
1.21064e-08
-4.00423e-07
7.57723e-09
-4.00845e-07
3.02732e-09
-4.00621e-07
-1.53466e-09
-3.99752e-07
-6.09993e-09
-3.98238e-07
-1.06596e-08
-3.96081e-07
-1.52046e-08
-3.93284e-07
-1.97257e-08
-3.89854e-07
-2.42132e-08
-3.85795e-07
-2.86573e-08