/*--------------------------------*- C++ -*----------------------------------*\
| =========                 |                                                 |
| \\      /  F ield         | OpenFOAM: The Open Source CFD Toolbox           |
|  \\    /   O peration     | Version:  2212                                  |
|   \\  /    A nd           | Website:  www.openfoam.com                      |
|    \\/     M anipulation  |                                                 |
\*---------------------------------------------------------------------------*/
FoamFile
{
    version     2.0;
    format      ascii;
    arch        "LSB;label=32;scalar=64";
    class       volVectorField;
    location    "0.0165";
    object      U_0;
}
// * * * * * * * * * * * * * * * * * * * * * * * * * * * * * * * * * * * * * //

dimensions      [0 1 -1 0 0 0 0];

internalField   nonuniform List<vector> 
10000
(
(3.06422e-06 -2.99303e-06 0)
(1.19441e-05 -5.76707e-06 0)
(2.28727e-05 -5.54769e-06 0)
(2.97007e-05 -3.55152e-06 0)
(2.93737e-05 -8.35726e-07 0)
(2.08554e-05 2.0733e-06 0)
(3.93664e-06 4.92995e-06 0)
(-2.11763e-05 7.61588e-06 0)
(-5.4079e-05 1.00862e-05 0)
(-9.4228e-05 1.23237e-05 0)
(-0.000141056 1.43464e-05 0)
(-0.000193957 1.61484e-05 0)
(-0.000252317 1.77427e-05 0)
(-0.00031552 1.91329e-05 0)
(-0.000382973 2.03244e-05 0)
(-0.000454084 2.13397e-05 0)
(-0.000528294 2.21871e-05 0)
(-0.000605068 2.28674e-05 0)
(-0.00068388 2.33951e-05 0)
(-0.000764251 2.37817e-05 0)
(-0.000845734 2.404e-05 0)
(-0.000927886 2.41761e-05 0)
(-0.0010103 2.41909e-05 0)
(-0.00109261 2.4084e-05 0)
(-0.00117442 2.38655e-05 0)
(-0.00125542 2.35534e-05 0)
(-0.00133528 2.3162e-05 0)
(-0.0014137 2.26987e-05 0)
(-0.00149042 2.21638e-05 0)
(-0.00156518 2.15562e-05 0)
(-0.00163775 2.08756e-05 0)
(-0.00170791 2.01309e-05 0)
(-0.00177547 1.93335e-05 0)
(-0.00184024 1.84879e-05 0)
(-0.00190205 1.75975e-05 0)
(-0.00196075 1.66628e-05 0)
(-0.0020162 1.56884e-05 0)
(-0.00206826 1.46816e-05 0)
(-0.00211682 1.36425e-05 0)
(-0.00216177 1.25771e-05 0)
(-0.00220304 1.14901e-05 0)
(-0.00224052 1.03795e-05 0)
(-0.00227415 9.24816e-06 0)
(-0.00230385 8.09803e-06 0)
(-0.00232955 6.93054e-06 0)
(-0.00235122 5.75124e-06 0)
(-0.0023688 4.56197e-06 0)
(-0.00238226 3.36145e-06 0)
(-0.00239156 2.1503e-06 0)
(-0.00239668 9.29412e-07 0)
(-0.00239759 -2.99033e-07 0)
(-0.00239428 -1.53108e-06 0)
(-0.00238674 -2.7635e-06 0)
(-0.00237499 -3.99421e-06 0)
(-0.00235902 -5.22201e-06 0)
(-0.00233886 -6.44496e-06 0)
(-0.00231454 -7.65966e-06 0)
(-0.00228609 -8.86361e-06 0)
(-0.00225357 -1.00542e-05 0)
(-0.00221702 -1.1227e-05 0)
(-0.00217652 -1.23785e-05 0)
(-0.00213214 -1.35065e-05 0)
(-0.00208399 -1.46057e-05 0)
(-0.00203215 -1.56699e-05 0)
(-0.00197677 -1.66975e-05 0)
(-0.00191795 -1.76864e-05 0)
(-0.00185586 -1.86295e-05 0)
(-0.00179065 -1.95196e-05 0)
(-0.00172251 -2.03541e-05 0)
(-0.00165163 -2.11304e-05 0)
(-0.00157821 -2.18424e-05 0)
(-0.0015025 -2.24841e-05 0)
(-0.00142473 -2.30516e-05 0)
(-0.00134518 -2.35398e-05 0)
(-0.00126413 -2.39405e-05 0)
(-0.00118191 -2.42446e-05 0)
(-0.00109883 -2.44447e-05 0)
(-0.00101526 -2.45349e-05 0)
(-0.000931581 -2.45087e-05 0)
(-0.000848204 -2.43597e-05 0)
(-0.000765554 -2.40802e-05 0)
(-0.000684086 -2.36615e-05 0)
(-0.000604279 -2.30942e-05 0)
(-0.000526639 -2.23699e-05 0)
(-0.000451695 -2.14806e-05 0)
(-0.000379995 -2.04171e-05 0)
(-0.00031211 -1.91694e-05 0)
(-0.000248633 -1.77294e-05 0)
(-0.000190167 -1.60919e-05 0)
(-0.000137326 -1.42529e-05 0)
(-9.07228e-05 -1.22069e-05 0)
(-5.09552e-05 -9.94955e-06 0)
(-1.8585e-05 -7.48526e-06 0)
(5.8974e-06 -4.83759e-06 0)
(2.214e-05 -2.06002e-06 0)
(3.00391e-05 7.4134e-07 0)
(2.99092e-05 3.34687e-06 0)
(2.28597e-05 5.29985e-06 0)
(1.19359e-05 5.67659e-06 0)
(3.04519e-06 3.04159e-06 0)
(5.47426e-06 -1.173e-05 0)
(1.90686e-05 -1.91919e-05 0)
(3.12099e-05 -1.4885e-05 0)
(3.17982e-05 -3.62384e-06 0)
(1.50904e-05 1.09614e-05 0)
(-2.13865e-05 2.67501e-05 0)
(-7.85394e-05 4.26887e-05 0)
(-0.000156379 5.81242e-05 0)
(-0.000254272 7.27467e-05 0)
(-0.000371188 8.63473e-05 0)
(-0.00050586 9.88309e-05 0)
(-0.000656865 0.000110155 0)
(-0.000822683 0.0001203 0)
(-0.00100178 0.000129264 0)
(-0.00119257 0.000137073 0)
(-0.00139354 0.000143758 0)
(-0.00160318 0.000149361 0)
(-0.00182003 0.000153935 0)
(-0.00204268 0.000157522 0)
(-0.0022698 0.000160177 0)
(-0.0025001 0.000161953 0)
(-0.00273238 0.000162907 0)
(-0.00296549 0.000163074 0)
(-0.00319834 0.000162497 0)
(-0.0034299 0.000161219 0)
(-0.00365924 0.000159286 0)
(-0.00388544 0.000156746 0)
(-0.00410768 0.000153651 0)
(-0.00432518 0.00015004 0)
(-0.00453721 0.000145949 0)
(-0.0047431 0.000141412 0)
(-0.00494223 0.000136458 0)
(-0.00513403 0.000131124 0)
(-0.00531797 0.000125438 0)
(-0.00549356 0.000119427 0)
(-0.00566036 0.000113123 0)
(-0.00581794 0.000106548 0)
(-0.00596594 9.97302e-05 0)
(-0.00610403 9.26957e-05 0)
(-0.00623188 8.54616e-05 0)
(-0.00634922 7.80504e-05 0)
(-0.00645579 7.04768e-05 0)
(-0.00655138 6.27545e-05 0)
(-0.00663578 5.49036e-05 0)
(-0.00670882 4.69392e-05 0)
(-0.00677034 3.88775e-05 0)
(-0.00682022 3.07363e-05 0)
(-0.00685833 2.25258e-05 0)
(-0.00688458 1.42544e-05 0)
(-0.00689891 5.93444e-06 0)
(-0.00690128 -2.41877e-06 0)
(-0.00689163 -1.0789e-05 0)
(-0.00686998 -1.91599e-05 0)
(-0.00683634 -2.75148e-05 0)
(-0.00679074 -3.58372e-05 0)
(-0.00673324 -4.41122e-05 0)
(-0.00666394 -5.23218e-05 0)
(-0.00658295 -6.04462e-05 0)
(-0.0064904 -6.8467e-05 0)
(-0.00638647 -7.63644e-05 0)
(-0.00627136 -8.41143e-05 0)
(-0.0061453 -9.16915e-05 0)
(-0.00600855 -9.9072e-05 0)
(-0.00586143 -0.000106231 0)
(-0.00570425 -0.000113142 0)
(-0.00553741 -0.000119775 0)
(-0.00536132 -0.0001261 0)
(-0.00517646 -0.000132086 0)
(-0.00498331 -0.000137703 0)
(-0.00478245 -0.000142916 0)
(-0.00457448 -0.00014769 0)
(-0.00436005 -0.00015199 0)
(-0.00413987 -0.000155779 0)
(-0.00391472 -0.000159016 0)
(-0.00368541 -0.000161657 0)
(-0.00345282 -0.000163657 0)
(-0.00321789 -0.00016497 0)
(-0.00298165 -0.00016555 0)
(-0.00274516 -0.000165349 0)
(-0.00250955 -0.000164322 0)
(-0.00227604 -0.000162423 0)
(-0.00204588 -0.000159604 0)
(-0.00182042 -0.000155814 0)
(-0.00160102 -0.000151006 0)
(-0.00138914 -0.000145135 0)
(-0.00118626 -0.000138162 0)
(-0.000993922 -0.000130051 0)
(-0.000813691 -0.000120772 0)
(-0.000647141 -0.00011031 0)
(-0.000495841 -9.86653e-05 0)
(-0.000361315 -8.586e-05 0)
(-0.000244983 -7.19541e-05 0)
(-0.000148097 -5.70712e-05 0)
(-7.16302e-05 -4.14388e-05 0)
(-1.61153e-05 -2.54508e-05 0)
(1.86127e-05 -9.77735e-06 0)
(3.37519e-05 4.43802e-06 0)
(3.20818e-05 1.52516e-05 0)
(1.94286e-05 1.94142e-05 0)
(5.67648e-06 1.19336e-05 0)
(4.88896e-06 -2.22621e-05 0)
(1.48269e-05 -3.14735e-05 0)
(1.68431e-05 -1.64003e-05 0)
(-2.51174e-07 1.35992e-05 0)
(-4.31676e-05 5.12642e-05 0)
(-0.000115186 9.23132e-05 0)
(-0.00021767 0.000134139 0)
(-0.000350825 0.000175224 0)
(-0.000513934 0.000214555 0)
(-0.000705697 0.000251524 0)
(-0.00092438 0.000285743 0)
(-0.00116799 0.000316991 0)
(-0.00143435 0.000345147 0)
(-0.00172117 0.000370178 0)
(-0.00202615 0.00039209 0)
(-0.00234697 0.000410939 0)
(-0.00268133 0.000426816 0)
(-0.00302701 0.000439827 0)
(-0.00338184 0.000450082 0)
(-0.00374373 0.00045772 0)
(-0.00411069 0.000462865 0)
(-0.00448081 0.00046565 0)
(-0.00485229 0.000466211 0)
(-0.00522341 0.000464671 0)
(-0.00559255 0.000461149 0)
(-0.00595821 0.000455769 0)
(-0.00631894 0.00044865 0)
(-0.00667344 0.000439914 0)
(-0.00702045 0.00042968 0)
(-0.00735881 0.000418057 0)
(-0.00768746 0.000405149 0)
(-0.00800538 0.000391048 0)
(-0.00831164 0.000375843 0)
(-0.00860541 0.000359623 0)
(-0.0088859 0.000342463 0)
(-0.00915237 0.000324444 0)
(-0.00940418 0.000305644 0)
(-0.00964071 0.000286132 0)
(-0.0098614 0.000265974 0)
(-0.0100658 0.000245232 0)
(-0.0102533 0.00022396 0)
(-0.0104237 0.000202213 0)
(-0.0105765 0.000180038 0)
(-0.0107114 0.000157484 0)
(-0.0108281 0.000134599 0)
(-0.0109263 0.00011143 0)
(-0.011006 8.80197e-05 0)
(-0.0110668 6.44091e-05 0)
(-0.0111086 4.06365e-05 0)
(-0.0111313 1.67387e-05 0)
(-0.0111349 -7.24242e-06 0)
(-0.0111193 -3.12602e-05 0)
(-0.0110845 -5.52697e-05 0)
(-0.0110305 -7.92275e-05 0)
(-0.0109574 -0.000103086 0)
(-0.0108654 -0.000126792 0)
(-0.0107544 -0.000150298 0)
(-0.0106249 -0.000173553 0)
(-0.0104769 -0.0001965 0)
(-0.0103108 -0.000219077 0)
(-0.0101268 -0.000241223 0)
(-0.00992544 -0.000262872 0)
(-0.00970705 -0.000283952 0)
(-0.00947214 -0.00030439 0)
(-0.00922124 -0.000324111 0)
(-0.00895498 -0.000343035 0)
(-0.00867403 -0.000361077 0)
(-0.00837913 -0.000378145 0)
(-0.00807108 -0.000394149 0)
(-0.00775078 -0.000408994 0)
(-0.00741921 -0.00042258 0)
(-0.00707741 -0.0004348 0)
(-0.00672651 -0.000445545 0)
(-0.00636773 -0.000454702 0)
(-0.0060024 -0.000462152 0)
(-0.00563191 -0.000467774 0)
(-0.00525777 -0.00047144 0)
(-0.00488158 -0.000473021 0)
(-0.00450502 -0.000472388 0)
(-0.00412989 -0.000469416 0)
(-0.00375808 -0.000463976 0)
(-0.00339157 -0.00045594 0)
(-0.00303243 -0.000445182 0)
(-0.00268281 -0.000431585 0)
(-0.00234493 -0.000415044 0)
(-0.0020211 -0.000395466 0)
(-0.00171363 -0.000372777 0)
(-0.00142489 -0.000346931 0)
(-0.00115723 -0.000317924 0)
(-0.00091294 -0.000285808 0)
(-0.000694209 -0.000250714 0)
(-0.00050303 -0.000212894 0)
(-0.000341088 -0.000172781 0)
(-0.000209614 -0.000131084 0)
(-0.000109153 -8.89201e-05 0)
(-3.92689e-05 -4.80388e-05 0)
(1.8239e-06 -1.11525e-05 0)
(1.77774e-05 1.76118e-05 0)
(1.53299e-05 3.20916e-05 0)
(5.30236e-06 2.28568e-05 0)
(2.99544e-06 -2.90963e-05 0)
(4.46084e-06 -3.32042e-05 0)
(-1.07135e-05 -4.77762e-08 0)
(-5.28461e-05 5.66292e-05 0)
(-0.000128551 0.000126028 0)
(-0.000241432 0.000201355 0)
(-0.000393053 0.000278402 0)
(-0.000583626 0.000354422 0)
(-0.000812372 0.000427613 0)
(-0.00107772 0.000496759 0)
(-0.00137762 0.000561061 0)
(-0.00170962 0.000620017 0)
(-0.00207103 0.000673347 0)
(-0.00245901 0.000720913 0)
(-0.00287064 0.000762691 0)
(-0.00330295 0.000798744 0)
(-0.00375301 0.000829195 0)
(-0.00421794 0.000854212 0)
(-0.00469492 0.000874007 0)
(-0.00518123 0.000888783 0)
(-0.00567424 0.00089878 0)
(-0.00617144 0.000904231 0)
(-0.00667043 0.00090538 0)
(-0.00716896 0.000902471 0)
(-0.00766488 0.000895744 0)
(-0.00815617 0.000885428 0)
(-0.00864091 0.000871746 0)
(-0.00911732 0.00085492 0)
(-0.00958373 0.000835172 0)
(-0.0100386 0.000812707 0)
(-0.0104804 0.000787726 0)
(-0.010908 0.000760417 0)
(-0.0113198 0.000730949 0)
(-0.011715 0.000699488 0)
(-0.0120923 0.000666196 0)
(-0.0124508 0.000631219 0)
(-0.0127896 0.000594705 0)
(-0.0131079 0.000556788 0)
(-0.0134049 0.000517594 0)
(-0.0136799 0.000477246 0)
(-0.0139323 0.000435852 0)
(-0.0141616 0.000393515 0)
(-0.0143672 0.00035034 0)
(-0.0145487 0.000306421 0)
(-0.0147057 0.000261847 0)
(-0.0148379 0.000216715 0)
(-0.014945 0.000171109 0)
(-0.0150267 0.000125108 0)
(-0.0150829 7.87958e-05 0)
(-0.0151133 3.22557e-05 0)
(-0.015118 -1.44314e-05 0)
(-0.0150968 -6.11816e-05 0)
(-0.0150497 -0.000107906 0)
(-0.0149769 -0.000154514 0)
(-0.0148784 -0.000200915 0)
(-0.0147543 -0.000247013 0)
(-0.0146049 -0.000292709 0)
(-0.0144304 -0.000337897 0)
(-0.0142311 -0.000382471 0)
(-0.0140075 -0.000426317 0)
(-0.0137599 -0.000469312 0)
(-0.0134889 -0.000511325 0)
(-0.0131951 -0.000552223 0)
(-0.0128791 -0.00059187 0)
(-0.0125417 -0.000630115 0)
(-0.0121838 -0.0006668 0)
(-0.0118061 -0.000701761 0)
(-0.0114097 -0.000734827 0)
(-0.0109957 -0.000765821 0)
(-0.0105654 -0.000794555 0)
(-0.01012 -0.000820834 0)
(-0.00966088 -0.000844453 0)
(-0.00918965 -0.000865201 0)
(-0.00870791 -0.000882861 0)
(-0.00821744 -0.000897208 0)
(-0.00772011 -0.00090801 0)
(-0.00721791 -0.00091503 0)
(-0.00671298 -0.000918026 0)
(-0.00620758 -0.000916759 0)
(-0.00570407 -0.000910989 0)
(-0.00520495 -0.000900478 0)
(-0.00471281 -0.000884994 0)
(-0.00423038 -0.000864319 0)
(-0.00376047 -0.00083825 0)
(-0.00330596 -0.000806609 0)
(-0.00286982 -0.000769246 0)
(-0.00245505 -0.000726059 0)
(-0.00206462 -0.000677005 0)
(-0.00170151 -0.000622129 0)
(-0.00136857 -0.000561589 0)
(-0.00106848 -0.000495709 0)
(-0.000803648 -0.000425046 0)
(-0.000576064 -0.000350493 0)
(-0.000387126 -0.000273413 0)
(-0.000237412 -0.000195854 0)
(-0.00012639 -0.000120849 0)
(-5.20687e-05 -5.28505e-05 0)
(-1.05439e-05 1.75876e-06 0)
(4.70955e-06 3.39332e-05 0)
(3.39653e-06 2.99872e-05 0)
(5.453e-07 -2.92893e-05 0)
(-9.17984e-06 -1.87185e-05 0)
(-4.63895e-05 4.06251e-05 0)
(-0.000118753 0.000131502 0)
(-0.000232005 0.000240042 0)
(-0.000389646 0.00035713 0)
(-0.00059317 0.000476838 0)
(-0.000842703 0.000595186 0)
(-0.00113726 0.000709444 0)
(-0.0014751 0.000817719 0)
(-0.00185384 0.000918719 0)
(-0.00227069 0.0010116 0)
(-0.00272254 0.00109584 0)
(-0.0032061 0.00117117 0)
(-0.00371793 0.00123749 0)
(-0.00425457 0.00129485 0)
(-0.00481254 0.0013434 0)
(-0.0053884 0.00138337 0)
(-0.00597879 0.00141504 0)
(-0.00658044 0.00143874 0)
(-0.00719017 0.0014548 0)
(-0.00780494 0.0014636 0)
(-0.00842186 0.00146548 0)
(-0.00903815 0.00146084 0)
(-0.0096512 0.00145004 0)
(-0.0102585 0.00143345 0)
(-0.0108578 0.00141144 0)
(-0.0114468 0.00138436 0)
(-0.0120235 0.00135254 0)
(-0.012586 0.00131631 0)
(-0.0131325 0.00127599 0)
(-0.0136612 0.00123188 0)
(-0.0141707 0.00118426 0)
(-0.0146595 0.00113339 0)
(-0.0151263 0.00107954 0)
(-0.0155699 0.00102295 0)
(-0.0159891 0.00096384 0)
(-0.0163829 0.000902441 0)
(-0.0167504 0.000838952 0)
(-0.0170908 0.000773568 0)
(-0.0174031 0.000706475 0)
(-0.0176869 0.00063784 0)
(-0.0179413 0.000567827 0)
(-0.0181659 0.000496602 0)
(-0.0183602 0.000424314 0)
(-0.0185237 0.000351106 0)
(-0.0186561 0.000277124 0)
(-0.0187571 0.000202508 0)
(-0.0188265 0.000127391 0)
(-0.018864 5.19056e-05 0)
(-0.0188696 -2.3805e-05 0)
(-0.0188432 -9.95993e-05 0)
(-0.0187848 -0.00017534 0)
(-0.0186944 -0.000250883 0)
(-0.0185723 -0.000326076 0)
(-0.0184185 -0.000400759 0)
(-0.0182334 -0.000474774 0)
(-0.0180173 -0.000547953 0)
(-0.0177706 -0.000620119 0)
(-0.0174937 -0.000691085 0)
(-0.0171872 -0.000760655 0)
(-0.0168519 -0.000828622 0)
(-0.0164883 -0.000894771 0)
(-0.0160974 -0.000958876 0)
(-0.01568 -0.0010207 0)
(-0.0152372 -0.00107998 0)
(-0.0147702 -0.00113646 0)
(-0.0142801 -0.00118986 0)
(-0.0137683 -0.00123989 0)
(-0.0132363 -0.00128626 0)
(-0.0126858 -0.00132864 0)
(-0.0121185 -0.00136672 0)
(-0.0115362 -0.00140015 0)
(-0.010941 -0.00142858 0)
(-0.0103351 -0.00145166 0)
(-0.00972074 -0.00146902 0)
(-0.00910038 -0.00148029 0)
(-0.00847664 -0.00148509 0)
(-0.00785225 -0.00148305 0)
(-0.00723012 -0.00147379 0)
(-0.00661325 -0.00145695 0)
(-0.0060048 -0.00143219 0)
(-0.00540805 -0.00139917 0)
(-0.00482637 -0.00135759 0)
(-0.00426322 -0.00130722 0)
(-0.00372211 -0.00124785 0)
(-0.00320657 -0.00117937 0)
(-0.00272013 -0.00110177 0)
(-0.00226622 -0.00101517 0)
(-0.00184816 -0.000919907 0)
(-0.00146901 -0.000816565 0)
(-0.00113149 -0.000706092 0)
(-0.000837862 -0.000589926 0)
(-0.000589687 -0.000470185 0)
(-0.000387669 -0.00034992 0)
(-0.000231385 -0.00023348 0)
(-0.000118969 -0.000126987 0)
(-4.67401e-05 -3.88877e-05 0)
(-9.19339e-06 1.92502e-05 0)
(8.62203e-07 3.03301e-05 0)
(-2.07627e-06 -2.17683e-05 0)
(-2.43931e-05 1.48821e-05 0)
(-8.63554e-05 0.000109421 0)
(-0.000192255 0.000242196 0)
(-0.000346179 0.000396945 0)
(-0.000551195 0.000562554 0)
(-0.000808497 0.000731493 0)
(-0.00111791 0.00089856 0)
(-0.00147825 0.00106006 0)
(-0.00188749 0.00121338 0)
(-0.00234299 0.00135671 0)
(-0.00284166 0.00148878 0)
(-0.00338002 0.00160882 0)
(-0.0039544 0.00171636 0)
(-0.00456096 0.00181122 0)
(-0.00519578 0.0018934 0)
(-0.00585495 0.00196308 0)
(-0.00653455 0.00202051 0)
(-0.00723075 0.00206607 0)
(-0.0079398 0.00210018 0)
(-0.00865807 0.00212331 0)
(-0.00938206 0.00213596 0)
(-0.0101084 0.00213864 0)
(-0.0108339 0.00213187 0)
(-0.0115556 0.00211617 0)
(-0.0122704 0.00209206 0)
(-0.0129758 0.00206006 0)
(-0.0136691 0.00202067 0)
(-0.014348 0.00197438 0)
(-0.0150101 0.00192165 0)
(-0.0156533 0.00186294 0)
(-0.0162758 0.00179867 0)
(-0.0168756 0.00172927 0)
(-0.0174512 0.00165511 0)
(-0.0180008 0.00157658 0)
(-0.0185231 0.00149402 0)
(-0.0190168 0.00140776 0)
(-0.0194805 0.00131814 0)
(-0.0199133 0.00122544 0)
(-0.0203141 0.00112996 0)
(-0.020682 0.00103195 0)
(-0.0210161 0.000931681 0)
(-0.0213157 0.000829388 0)
(-0.0215802 0.000725301 0)
(-0.0218089 0.000619653 0)
(-0.0220014 0.000512662 0)
(-0.0221573 0.000404535 0)
(-0.0222761 0.000295473 0)
(-0.0223576 0.000185686 0)
(-0.0224017 7.53756e-05 0)
(-0.0224081 -3.52581e-05 0)
(-0.0223768 -0.000146008 0)
(-0.0223078 -0.000256662 0)
(-0.0222012 -0.00036701 0)
(-0.0220571 -0.000476828 0)
(-0.0218758 -0.000585887 0)
(-0.0216576 -0.000693953 0)
(-0.0214028 -0.000800777 0)
(-0.0211121 -0.0009061 0)
(-0.0207858 -0.00100965 0)
(-0.0204248 -0.00111114 0)
(-0.0200298 -0.00121027 0)
(-0.0196016 -0.00130673 0)
(-0.0191413 -0.00140019 0)
(-0.0186498 -0.00149028 0)
(-0.0181285 -0.00157666 0)
(-0.0175787 -0.00165894 0)
(-0.0170019 -0.00173671 0)
(-0.0163996 -0.00180955 0)
(-0.0157736 -0.00187703 0)
(-0.0151259 -0.0019387 0)
(-0.0144584 -0.00199407 0)
(-0.0137734 -0.00204268 0)
(-0.0130732 -0.00208401 0)
(-0.0123604 -0.00211755 0)
(-0.0116377 -0.00214278 0)
(-0.0109079 -0.00215918 0)
(-0.010174 -0.0021662 0)
(-0.00943929 -0.00216333 0)
(-0.00870705 -0.00215004 0)
(-0.00798077 -0.00212583 0)
(-0.00726407 -0.00209023 0)
(-0.00656073 -0.00204279 0)
(-0.0058746 -0.00198313 0)
(-0.0052096 -0.00191093 0)
(-0.00456972 -0.00182596 0)
(-0.00395895 -0.00172811 0)
(-0.00338125 -0.00161742 0)
(-0.00284045 -0.00149416 0)
(-0.00234024 -0.00135886 0)
(-0.001884 -0.00121242 0)
(-0.00147476 -0.00105624 0)
(-0.001115 -0.000892347 0)
(-0.000806539 -0.000723645 0)
(-0.000550304 -0.000554183 0)
(-0.000346183 -0.000389554 0)
(-0.000192716 -0.000237385 0)
(-8.6805e-05 -0.00010789 0)
(-2.44909e-05 -1.4659e-05 0)
(-1.85988e-06 2.28273e-05 0)
(-4.68221e-06 -6.18596e-06 0)
(-4.00144e-05 6.89616e-05 0)
(-0.000127986 0.000208435 0)
(-0.000269023 0.000391074 0)
(-0.000465333 0.000598979 0)
(-0.000719191 0.000819418 0)
(-0.00103125 0.00104352 0)
(-0.00140093 0.00126491 0)
(-0.0018267 0.00147899 0)
(-0.00230625 0.00168243 0)
(-0.00283663 0.00187285 0)
(-0.00341445 0.00204858 0)
(-0.00403594 0.00220853 0)
(-0.00469706 0.00235204 0)
(-0.00539363 0.0024788 0)
(-0.00612136 0.00258876 0)
(-0.00687595 0.00268208 0)
(-0.00765308 0.00275909 0)
(-0.00844851 0.0028202 0)
(-0.00925809 0.00286596 0)
(-0.0100778 0.00289696 0)
(-0.0109037 0.00291383 0)
(-0.011732 0.00291725 0)
(-0.0125592 0.00290789 0)
(-0.0133819 0.00288644 0)
(-0.0141968 0.00285359 0)
(-0.0150007 0.00281002 0)
(-0.0157909 0.0027564 0)
(-0.0165646 0.00269338 0)
(-0.0173192 0.00262159 0)
(-0.0180524 0.00254164 0)
(-0.0187618 0.00245409 0)
(-0.0194455 0.00235953 0)
(-0.0201015 0.00225846 0)
(-0.020728 0.0021514 0)
(-0.0213233 0.00203883 0)
(-0.021886 0.0019212 0)
(-0.0224147 0.00179894 0)
(-0.022908 0.00167246 0)
(-0.0233649 0.00154216 0)
(-0.0237842 0.0014084 0)
(-0.024165 0.00127152 0)
(-0.0245066 0.00113187 0)
(-0.024808 0.000989774 0)
(-0.0250687 0.000845526 0)
(-0.025288 0.000699431 0)
(-0.0254656 0.000551784 0)
(-0.0256009 0.000402865 0)
(-0.0256937 0.000252957 0)
(-0.0257437 0.00010234 0)
(-0.0257508 -4.87057e-05 0)
(-0.025715 -0.000199898 0)
(-0.0256361 -0.000350948 0)
(-0.0255143 -0.00050156 0)
(-0.0253498 -0.000651431 0)
(-0.0251429 -0.000800249 0)
(-0.024894 -0.000947689 0)
(-0.0246034 -0.00109341 0)
(-0.0242717 -0.00123706 0)
(-0.0238997 -0.00137827 0)
(-0.023488 -0.00151664 0)
(-0.0230376 -0.00165178 0)
(-0.0225494 -0.00178324 0)
(-0.0220246 -0.00191058 0)
(-0.0214645 -0.00203333 0)
(-0.0208704 -0.00215098 0)
(-0.0202438 -0.00226302 0)
(-0.0195865 -0.0023689 0)
(-0.0189002 -0.00246805 0)
(-0.018187 -0.00255989 0)
(-0.017449 -0.00264379 0)
(-0.0166885 -0.00271912 0)
(-0.0159081 -0.00278523 0)
(-0.0151105 -0.00284146 0)
(-0.0142984 -0.0028871 0)
(-0.0134749 -0.00292147 0)
(-0.0126434 -0.00294387 0)
(-0.011807 -0.00295358 0)
(-0.0109695 -0.00294993 0)
(-0.0101346 -0.00293223 0)
(-0.0093061 -0.00289983 0)
(-0.00848814 -0.00285213 0)
(-0.00768486 -0.00278857 0)
(-0.00690053 -0.00270867 0)
(-0.0061395 -0.00261205 0)
(-0.00540616 -0.00249846 0)
(-0.00470487 -0.00236781 0)
(-0.00403997 -0.00222023 0)
(-0.00341564 -0.00205615 0)
(-0.00283588 -0.00187633 0)
(-0.00230439 -0.00168202 0)
(-0.00182447 -0.00147508 0)
(-0.0013989 -0.00125815 0)
(-0.00102978 -0.00103489 0)
(-0.000718413 -0.000810294 0)
(-0.000465153 -0.00059106 0)
(-0.000269165 -0.000386098 0)
(-0.000128189 -0.000207038 0)
(-4.00975e-05 -6.89517e-05 0)
(-4.55373e-06 7.19482e-06 0)
(-7.18795e-06 1.7437e-05 0)
(-5.54358e-05 0.000143838 0)
(-0.000169519 0.000338384 0)
(-0.000346139 0.000579121 0)
(-0.000585388 0.000847099 0)
(-0.000888567 0.00112848 0)
(-0.00125563 0.00141323 0)
(-0.00168541 0.00169401 0)
(-0.00217596 0.00196538 0)
(-0.0027246 0.00222333 0)
(-0.00332807 0.00246494 0)
(-0.00398265 0.00268811 0)
(-0.00468428 0.00289145 0)
(-0.00542861 0.00307408 0)
(-0.00621113 0.00323555 0)
(-0.00702723 0.00337574 0)
(-0.00787225 0.00349481 0)
(-0.00874155 0.00359309 0)
(-0.00963053 0.0036711 0)
(-0.0105347 0.00372947 0)
(-0.0114496 0.00376892 0)
(-0.012371 0.00379023 0)
(-0.0132948 0.00379422 0)
(-0.0142171 0.00378175 0)
(-0.0151342 0.00375369 0)
(-0.0160424 0.0037109 0)
(-0.0169383 0.00365424 0)
(-0.0178188 0.00358455 0)
(-0.0186809 0.00350268 0)
(-0.0195217 0.00340942 0)
(-0.0203385 0.00330555 0)
(-0.0211289 0.00319182 0)
(-0.0218906 0.00306893 0)
(-0.0226215 0.00293759 0)
(-0.0233195 0.00279843 0)
(-0.0239828 0.00265208 0)
(-0.0246097 0.00249913 0)
(-0.0251987 0.00234014 0)
(-0.0257483 0.00217565 0)
(-0.0262573 0.00200614 0)
(-0.0267245 0.00183212 0)
(-0.0271488 0.00165404 0)
(-0.0275292 0.00147233 0)
(-0.027865 0.00128741 0)
(-0.0281554 0.0010997 0)
(-0.0283997 0.00090957 0)
(-0.0285974 0.000717415 0)
(-0.028748 0.000523609 0)
(-0.0288512 0.000328519 0)
(-0.0289068 0.000132512 0)
(-0.0289146 -6.40426e-05 0)
(-0.0288744 -0.000260772 0)
(-0.0287863 -0.000457302 0)
(-0.0286504 -0.000653247 0)
(-0.028467 -0.000848208 0)
(-0.0282362 -0.00104177 0)
(-0.0279586 -0.00123353 0)
(-0.0276346 -0.00142302 0)
(-0.027265 -0.0016098 0)
(-0.0268503 -0.00179337 0)
(-0.0263915 -0.00197323 0)
(-0.0258895 -0.00214885 0)
(-0.0253456 -0.00231968 0)
(-0.0247609 -0.00248512 0)
(-0.0241368 -0.00264457 0)
(-0.0234749 -0.00279737 0)
(-0.0227769 -0.00294286 0)
(-0.0220446 -0.00308033 0)
(-0.0212802 -0.00320904 0)
(-0.0204858 -0.00332825 0)
(-0.0196637 -0.00343715 0)
(-0.0188167 -0.00353493 0)
(-0.0179474 -0.00362075 0)
(-0.0170589 -0.00369377 0)
(-0.0161542 -0.00375309 0)
(-0.0152368 -0.00379784 0)
(-0.0143101 -0.00382712 0)
(-0.013378 -0.00384006 0)
(-0.0124443 -0.00383579 0)
(-0.0115131 -0.00381346 0)
(-0.0105887 -0.00377228 0)
(-0.00967546 -0.00371149 0)
(-0.00877797 -0.00363043 0)
(-0.00790085 -0.00352852 0)
(-0.00704879 -0.00340535 0)
(-0.00622653 -0.00326063 0)
(-0.00543878 -0.00309433 0)
(-0.0046902 -0.00290668 0)
(-0.00398529 -0.00269827 0)
(-0.00332836 -0.00247013 0)
(-0.00272341 -0.00222385 0)
(-0.00217404 -0.00196175 0)
(-0.00168334 -0.00168706 0)
(-0.00125381 -0.00140414 0)
(-0.000887207 -0.00111883 0)
(-0.0005845 -0.000838769 0)
(-0.000345631 -0.000573899 0)
(-0.000169321 -0.000336903 0)
(-5.54013e-05 -0.00014384 0)
(-7.11382e-06 -1.64646e-05 0)
(-9.55101e-06 4.88322e-05 0)
(-7.02681e-05 0.000239201 0)
(-0.000209966 0.000499119 0)
(-0.000421738 0.000806313 0)
(-0.000703632 0.00114138 0)
(-0.00105586 0.00148968 0)
(-0.0014775 0.00184035 0)
(-0.00196675 0.00218524 0)
(-0.00252113 0.00251818 0)
(-0.00313752 0.00283456 0)
(-0.00381231 0.00313093 0)
(-0.00454144 0.00340482 0)
(-0.00532054 0.00365451 0)
(-0.00614497 0.00387892 0)
(-0.00700991 0.00407746 0)
(-0.00791044 0.00424992 0)
(-0.00884159 0.00439643 0)
(-0.00979842 0.00451737 0)
(-0.010776 0.00461333 0)
(-0.0117695 0.00468503 0)
(-0.0127743 0.00473331 0)
(-0.0137857 0.00475912 0)
(-0.0147993 0.00476342 0)
(-0.015811 0.00474726 0)
(-0.0168166 0.00471168 0)
(-0.0178122 0.00465775 0)
(-0.0187944 0.00458651 0)
(-0.0197594 0.004499 0)
(-0.0207042 0.00439624 0)
(-0.0216255 0.00427923 0)
(-0.0225206 0.00414892 0)
(-0.0233866 0.00400625 0)
(-0.0242212 0.00385209 0)
(-0.0250219 0.00368731 0)
(-0.0257867 0.0035127 0)
(-0.0265134 0.00332907 0)
(-0.0272002 0.00313712 0)
(-0.0278455 0.00293758 0)
(-0.0284476 0.0027311 0)
(-0.0290052 0.00251833 0)
(-0.029517 0.00229985 0)
(-0.0299817 0.00207626 0)
(-0.0303985 0.0018481 0)
(-0.0307663 0.00161591 0)
(-0.0310843 0.00138018 0)
(-0.0313518 0.00114143 0)
(-0.0315683 0.000900135 0)
(-0.0317332 0.000656757 0)
(-0.0318461 0.000411773 0)
(-0.0319069 0.000165649 0)
(-0.0319152 -8.11543e-05 0)
(-0.031871 -0.000328168 0)
(-0.0317743 -0.000574914 0)
(-0.0316253 -0.000820902 0)
(-0.0314241 -0.00106564 0)
(-0.0311711 -0.0013086 0)
(-0.0308668 -0.00154927 0)
(-0.0305117 -0.00178707 0)
(-0.0301066 -0.00202143 0)
(-0.0296521 -0.00225175 0)
(-0.0291494 -0.00247739 0)
(-0.0285994 -0.00269768 0)
(-0.0280034 -0.00291193 0)
(-0.0273628 -0.0031194 0)
(-0.026679 -0.00331932 0)
(-0.0259539 -0.00351089 0)
(-0.0251892 -0.00369328 0)
(-0.024387 -0.00386559 0)
(-0.0235496 -0.00402693 0)
(-0.0226793 -0.00417634 0)
(-0.0217787 -0.00431284 0)
(-0.0208507 -0.00443543 0)
(-0.0198983 -0.00454306 0)
(-0.0189247 -0.00463469 0)
(-0.0179333 -0.00470922 0)
(-0.0169277 -0.00476558 0)
(-0.0159119 -0.00480269 0)
(-0.0148897 -0.00481946 0)
(-0.0138655 -0.00481484 0)
(-0.0128436 -0.00478783 0)
(-0.0118287 -0.00473746 0)
(-0.0108254 -0.00466284 0)
(-0.00983866 -0.0045632 0)
(-0.00887338 -0.00443788 0)
(-0.0079346 -0.00428639 0)
(-0.00702735 -0.00410848 0)
(-0.00615668 -0.00390414 0)
(-0.00532753 -0.00367372 0)
(-0.00454471 -0.00341798 0)
(-0.00381283 -0.00313822 0)
(-0.0031362 -0.00283636 0)
(-0.00251875 -0.00251515 0)
(-0.00196396 -0.00217837 0)
(-0.00147476 -0.00183101 0)
(-0.00105347 -0.0014796 0)
(-0.000701755 -0.00113258 0)
(-0.000420432 -0.000800651 0)
(-0.000209274 -0.000497231 0)
(-7.00746e-05 -0.00023896 0)
(-9.495e-06 -4.78402e-05 0)
(-1.17606e-05 8.76346e-05 0)
(-8.43532e-05 0.000354347 0)
(-0.000248748 0.000689872 0)
(-0.000494736 0.001072 0)
(-0.000818386 0.00148118 0)
(-0.00121879 0.00190237 0)
(-0.00169413 0.00232411 0)
(-0.00224183 0.00273762 0)
(-0.0028588 0.00313614 0)
(-0.00354147 0.00351452 0)
(-0.00428582 0.00386888 0)
(-0.00508742 0.00419637 0)
(-0.00594156 0.00449499 0)
(-0.00684331 0.00476346 0)
(-0.00778755 0.00500103 0)
(-0.00876909 0.00520745 0)
(-0.00978265 0.00538281 0)
(-0.010823 0.00552752 0)
(-0.011885 0.00564222 0)
(-0.0129634 0.00572775 0)
(-0.0140533 0.00578508 0)
(-0.0151499 0.00581528 0)
(-0.0162484 0.00581953 0)
(-0.0173444 0.00579902 0)
(-0.0184335 0.00575499 0)
(-0.0195116 0.0056887 0)
(-0.0205747 0.00560142 0)
(-0.0216193 0.00549437 0)
(-0.0226417 0.00536877 0)
(-0.0236387 0.00522583 0)
(-0.0246071 0.00506669 0)
(-0.0255441 0.00489247 0)
(-0.026447 0.00470424 0)
(-0.0273132 0.00450305 0)
(-0.0281404 0.00428985 0)
(-0.0289265 0.00406562 0)
(-0.0296694 0.00383123 0)
(-0.0303674 0.00358755 0)
(-0.0310186 0.00333539 0)
(-0.0316217 0.00307551 0)
(-0.0321752 0.00280867 0)
(-0.0326778 0.00253555 0)
(-0.0331285 0.00225685 0)
(-0.0335262 0.0019732 0)
(-0.0338701 0.00168525 0)
(-0.0341594 0.00139358 0)
(-0.0343934 0.0010988 0)
(-0.0345716 0.000801484 0)
(-0.0346937 0.000502211 0)
(-0.0347593 0.000201548 0)
(-0.0347681 -9.99319e-05 0)
(-0.0347202 -0.000401652 0)
(-0.0346155 -0.000703028 0)
(-0.0344541 -0.00100346 0)
(-0.0342364 -0.00130235 0)
(-0.0339627 -0.00159905 0)
(-0.0336334 -0.00189292 0)
(-0.0332492 -0.00218327 0)
(-0.0328109 -0.00246939 0)
(-0.0323193 -0.00275056 0)
(-0.0317754 -0.00302598 0)
(-0.0311805 -0.00329485 0)
(-0.0305358 -0.00355632 0)
(-0.0298428 -0.0038095 0)
(-0.0291032 -0.00405345 0)
(-0.0283188 -0.00428719 0)
(-0.0274917 -0.00450971 0)
(-0.026624 -0.00471994 0)
(-0.0257181 -0.00491679 0)
(-0.0247766 -0.00509909 0)
(-0.0238024 -0.00526567 0)
(-0.0227984 -0.00541532 0)
(-0.0217678 -0.00554678 0)
(-0.0207142 -0.00565879 0)
(-0.0196412 -0.00575005 0)
(-0.0185526 -0.00581927 0)
(-0.0174526 -0.00586516 0)
(-0.0163454 -0.00588644 0)
(-0.0152356 -0.00588187 0)
(-0.0141279 -0.00585026 0)
(-0.0130271 -0.00579049 0)
(-0.0119382 -0.00570152 0)
(-0.0108664 -0.00558247 0)
(-0.009817 -0.0054326 0)
(-0.0087952 -0.00525138 0)
(-0.00780639 -0.00503855 0)
(-0.00685589 -0.00479415 0)
(-0.00594894 -0.00451865 0)
(-0.00509066 -0.00421297 0)
(-0.00428593 -0.00387864 0)
(-0.00353942 -0.00351793 0)
(-0.00285542 -0.00313398 0)
(-0.00223784 -0.00273103 0)
(-0.0016901 -0.00231461 0)
(-0.00121513 -0.00189184 0)
(-0.000815383 -0.00147175 0)
(-0.000492569 -0.0010656 0)
(-0.000247536 -0.000687251 0)
(-8.39644e-05 -0.000353606 0)
(-1.16927e-05 -8.65245e-05 0)
(-1.38001e-05 0.000133396 0)
(-9.76169e-05 0.00048837 0)
(-0.000285603 0.000909558 0)
(-0.000564555 0.00137503 0)
(-0.000928706 0.00186539 0)
(-0.00137604 0.00236545 0)
(-0.00190381 0.00286336 0)
(-0.00250864 0.00334989 0)
(-0.0031868 0.00381783 0)
(-0.00393418 0.00426158 0)
(-0.00474631 0.00467688 0)
(-0.00561838 0.00506058 0)
(-0.00654535 0.00541042 0)
(-0.00752193 0.00572493 0)
(-0.00854273 0.00600324 0)
(-0.00960227 0.00624502 0)
(-0.010695 0.00645036 0)
(-0.0118154 0.0066197 0)
(-0.0129581 0.00675374 0)
(-0.0141176 0.00685341 0)
(-0.0152887 0.00691983 0)
(-0.0164663 0.00695422 0)
(-0.0176454 0.00695792 0)
(-0.0188214 0.00693233 0)
(-0.0199896 0.00687888 0)
(-0.0211456 0.00679902 0)
(-0.0222854 0.00669423 0)
(-0.0234051 0.00656596 0)
(-0.0245008 0.00641564 0)
(-0.0255691 0.00624465 0)
(-0.0266067 0.00605439 0)
(-0.0276105 0.00584614 0)
(-0.0285777 0.00562119 0)
(-0.0295055 0.00538075 0)
(-0.0303915 0.00512601 0)
(-0.0312334 0.00485806 0)
(-0.032029 0.00457798 0)
(-0.0327765 0.00428679 0)
(-0.0334739 0.00398545 0)
(-0.0341197 0.00367488 0)
(-0.0347123 0.00335598 0)
(-0.0352505 0.00302958 0)
(-0.0357331 0.00269649 0)
(-0.0361589 0.00235749 0)
(-0.036527 0.00201332 0)
(-0.0368367 0.00166473 0)
(-0.0370872 0.00131241 0)
(-0.037278 0.000957065 0)
(-0.0374086 0.000599384 0)
(-0.0374787 0.000240053 0)
(-0.0374881 -0.000120245 0)
(-0.0374367 -0.000480817 0)
(-0.0373245 -0.000840965 0)
(-0.0371516 -0.00119997 0)
(-0.0369184 -0.0015571 0)
(-0.0366252 -0.00191161 0)
(-0.0362725 -0.00226271 0)