/*--------------------------------*- C++ -*----------------------------------*\
| =========                 |                                                 |
| \\      /  F ield         | OpenFOAM: The Open Source CFD Toolbox           |
|  \\    /   O peration     | Version:  2212                                  |
|   \\  /    A nd           | Website:  www.openfoam.com                      |
|    \\/     M anipulation  |                                                 |
\*---------------------------------------------------------------------------*/
FoamFile
{
    version     2.0;
    format      ascii;
    arch        "LSB;label=32;scalar=64";
    class       surfaceScalarField;
    location    "0.0845";
    object      phi_0;
}
// * * * * * * * * * * * * * * * * * * * * * * * * * * * * * * * * * * * * * //

dimensions      [0 3 -1 0 0 0 0];

oriented        oriented;

internalField   nonuniform List<scalar> 
19800
(
7.02621e-11
-7.01151e-11
2.41205e-10
-1.70935e-10
4.29484e-10
-1.88291e-10
5.77234e-10
-1.47747e-10
6.51307e-10
-7.40682e-11
6.33428e-10
1.78876e-11
5.14431e-10
1.18989e-10
2.90952e-10
2.23481e-10
-3.67383e-11
3.27679e-10
-4.65951e-10
4.29213e-10
-9.92495e-10
5.26541e-10
-1.61112e-09
6.18625e-10
-2.31589e-09
7.04773e-10
-3.10043e-09
7.84534e-10
-3.95807e-09
8.57636e-10
-4.88199e-09
9.23919e-10
-5.86531e-09
9.83312e-10
-6.9011e-09
1.0358e-09
-7.98253e-09
1.08143e-09
-9.10283e-09
1.1203e-09
-1.02553e-08
1.15251e-09
-1.14335e-08
1.1782e-09
-1.2631e-08
1.19752e-09
-1.38417e-08
1.21065e-09
-1.50595e-08
1.21776e-09
-1.62785e-08
1.21904e-09
-1.74932e-08
1.21469e-09
-1.86981e-08
1.20491e-09
-1.9888e-08
1.1899e-09
-2.10579e-08
1.16987e-09
-2.22029e-08
1.14503e-09
-2.33185e-08
1.11559e-09
-2.44003e-08
1.08175e-09
-2.5444e-08
1.04375e-09
-2.64458e-08
1.00178e-09
-2.74019e-08
9.5606e-10
-2.83087e-08
9.06815e-10
-2.91629e-08
8.54255e-10
-2.99615e-08
7.98603e-10
-3.07016e-08
7.40077e-10
-3.13805e-08
6.78899e-10
-3.19958e-08
6.15288e-10
-3.25452e-08
5.49459e-10
-3.30269e-08
4.81644e-10
-3.3439e-08
4.12071e-10
-3.37799e-08
3.40964e-10
-3.40485e-08
2.68558e-10
-3.42436e-08
1.95091e-10
-3.43644e-08
1.20798e-10
-3.44103e-08
4.59267e-11
-3.4381e-08
-2.92707e-11
-3.42765e-08
-1.04554e-10
-3.40968e-08
-1.79667e-10
-3.38424e-08
-2.54343e-10
-3.35141e-08
-3.28328e-10
-3.31128e-08
-4.01362e-10
-3.26396e-08
-4.73172e-10
-3.20961e-08
-5.43483e-10
-3.14841e-08
-6.12027e-10
-3.08056e-08
-6.78526e-10
-3.00629e-08
-7.42697e-10
-2.92586e-08
-8.04265e-10
-2.83956e-08
-8.62952e-10
-2.74772e-08
-9.1848e-10
-2.65066e-08
-9.70567e-10
-2.54877e-08
-1.01893e-09
-2.44244e-08
-1.0633e-09
-2.33209e-08
-1.10341e-09
-2.21819e-08
-1.13899e-09
-2.10122e-08
-1.16978e-09
-1.98166e-08
-1.19554e-09
-1.86006e-08
-1.216e-09
-1.73697e-08
-1.23095e-09
-1.61295e-08
-1.24015e-09
-1.48861e-08
-1.2434e-09
-1.36456e-08
-1.2405e-09
-1.24143e-08
-1.23128e-09
-1.11988e-08
-1.21558e-09
-1.00055e-08
-1.19324e-09
-8.8414e-09
-1.16415e-09
-7.71319e-09
-1.12821e-09
-6.62783e-09
-1.08536e-09
-5.59226e-09
-1.03557e-09
-4.61341e-09
-9.78849e-10
-3.69813e-09
-9.15265e-10
-2.85321e-09
-8.44929e-10
-2.08519e-09
-7.68022e-10
-1.40037e-09
-6.84825e-10
-8.04607e-10
-5.95753e-10
-3.03207e-10
-5.01393e-10
9.93546e-11
-4.02563e-10
3.99774e-10
-3.00425e-10
5.96431e-10
-1.96658e-10
6.90192e-10
-9.3757e-11
6.85686e-10
4.50594e-12
5.9338e-10
9.22998e-11
4.32797e-10
1.60579e-10
2.38006e-10
1.94794e-10
6.68734e-11
1.71142e-10
6.68744e-11
1.70986e-10
-2.41095e-10
4.69935e-10
-4.6988e-10
7.56643e-10
-4.74997e-10
9.29508e-10
-3.20625e-10
9.17975e-10
-6.25412e-11
6.76833e-10
2.59038e-10
1.79712e-10
6.16114e-10
-5.86203e-10
9.89407e-10
-1.62416e-09
1.36564e-09
-2.93059e-09
1.73564e-09
-4.49709e-09
2.09303e-09
-6.31184e-09
2.43335e-09
-8.36056e-09
2.75349e-09
-1.06273e-08
3.0513e-09
-1.3095e-08
3.32532e-09
-1.57457e-08
3.57463e-09
-1.85611e-08
3.79869e-09
-2.15225e-08
3.99725e-09
-2.46114e-08
4.1703e-09
-2.78091e-08
4.31799e-09
-3.10972e-08
4.44064e-09
-3.44577e-08
4.53864e-09
-3.78727e-08
4.6125e-09
-4.13248e-08
4.66278e-09
-4.47971e-08
4.69009e-09
-4.82732e-08
4.69512e-09
-5.17371e-08
4.67856e-09
-5.51733e-08
4.64114e-09
-5.8567e-08
4.58361e-09
-6.19039e-08
4.50675e-09
-6.51702e-08
4.41134e-09
-6.83528e-08
4.29817e-09
-7.14391e-08
4.16806e-09
-7.44172e-08
4.0218e-09
-7.72756e-08
3.86022e-09
-8.00037e-08
3.68415e-09
-8.25913e-08
3.49443e-09
-8.50289e-08
3.29188e-09
-8.73077e-08
3.07735e-09
-8.94193e-08
2.85168e-09
-9.13561e-08
2.61573e-09
-9.31112e-08
2.37037e-09
-9.46782e-08
2.11646e-09
-9.60514e-08
1.85486e-09
-9.72258e-08
1.58648e-09
-9.8197e-08
1.3122e-09
-9.89614e-08
1.03291e-09
-9.95158e-08
7.49556e-10
-9.98581e-08
4.63058e-10
-9.99865e-08
1.74357e-10
-9.99002e-08
-1.15576e-10
-9.9599e-08
-4.05764e-10
-9.90835e-08
-6.95235e-10
-9.83548e-08
-9.82988e-10
-9.74151e-08
-1.268e-09
-9.62672e-08
-1.54926e-09
-9.49147e-08
-1.82574e-09
-9.33618e-08
-2.09637e-09
-9.16137e-08
-2.36011e-09
-8.96763e-08
-2.6159e-09
-8.75564e-08
-2.86266e-09
-8.52613e-08
-3.09932e-09
-8.27994e-08
-3.32482e-09
-8.01798e-08
-3.53809e-09
-7.74123e-08
-3.73805e-09
-7.45076e-08
-3.92366e-09
-7.14771e-08
-4.09386e-09
-6.83329e-08
-4.24764e-09
-6.50879e-08
-4.38397e-09
-6.17558e-08
-4.5019e-09
-5.83508e-08
-4.60047e-09
-5.4888e-08
-4.67877e-09
-5.13831e-08
-4.73592e-09
-4.78521e-08
-4.7711e-09
-4.43119e-08
-4.78354e-09
-4.07799e-08
-4.77254e-09
-3.72737e-08
-4.73745e-09
-3.38116e-08
-4.6777e-09
-3.0412e-08
-4.59282e-09
-2.70937e-08
-4.48242e-09
-2.38757e-08
-4.34623e-09
-2.0777e-08
-4.18409e-09
-1.78165e-08
-3.99601e-09
-1.50132e-08
-3.78217e-09
-1.23855e-08
-3.54299e-09
-9.95136e-09
-3.27908e-09
-7.72797e-09
-2.99141e-09
-5.73142e-09
-2.68136e-09
-3.97632e-09
-2.35085e-09
-2.47526e-09
-2.00246e-09
-1.23807e-09
-1.63976e-09
-2.70844e-10
-1.26765e-09
4.25425e-10
-8.92923e-10
8.56741e-10
-5.25081e-10
1.03883e-09
-1.77602e-10
1.00089e-09
1.30232e-10
7.90614e-10
3.70863e-10
4.80166e-10
5.05256e-10
1.71041e-10
4.80265e-10
2.37915e-10
1.88932e-10
-4.30041e-10
4.77094e-10
-7.58037e-10
6.92036e-10
-6.89932e-10
7.11411e-10
-3.40006e-10
4.46582e-10
2.02271e-10
-1.62905e-10
8.68514e-10
-1.15489e-09
1.60809e-09
-2.54972e-09
2.38424e-09
-4.35445e-09
3.17037e-09
-6.5661e-09
3.94729e-09
-9.17419e-09
4.70111e-09
-1.21627e-08
5.42182e-09
-1.55114e-08
6.10218e-09
-1.91971e-08
6.73703e-09
-2.31946e-08
7.32276e-09
-2.74769e-08
7.85693e-09
-3.20162e-08
8.33797e-09
-3.67839e-08
8.76504e-09
-4.17514e-08
9.13779e-09
-4.68898e-08
9.45635e-09
-5.21703e-08
9.72115e-09
-5.75645e-08
9.9329e-09
-6.30446e-08
1.00925e-08
-6.8583e-08
1.02012e-08
-7.41529e-08
1.026e-08
-7.97282e-08
1.02704e-08
-8.52836e-08
1.02339e-08
-9.07944e-08
1.01519e-08
-9.62369e-08
1.00261e-08
-1.01588e-07
9.85806e-09
-1.06826e-07
9.64948e-09
-1.1193e-07
9.40206e-09
-1.1688e-07
9.11756e-09
-1.21656e-07
8.79771e-09
-1.2624e-07
8.44431e-09
-1.30615e-07
8.05915e-09
-1.34764e-07
7.64405e-09
-1.38673e-07
7.20084e-09
-1.42327e-07
6.73135e-09
-1.45713e-07
6.23745e-09
-1.48818e-07
5.72101e-09
-1.51632e-07
5.18392e-09
-1.54144e-07
4.62809e-09
-1.56344e-07
4.05544e-09
-1.58226e-07
3.46794e-09
-1.59781e-07
2.86754e-09
-1.61004e-07
2.25624e-09
-1.61891e-07
1.63607e-09
-1.62437e-07
1.00907e-09
-1.6264e-07
3.77321e-10
-1.62498e-07
-2.57067e-10
-1.62012e-07
-8.91953e-10
-1.61182e-07
-1.52517e-09
-1.60011e-07
-2.15453e-09
-1.58501e-07
-2.77782e-09
-1.56657e-07
-3.39279e-09
-1.54486e-07
-3.99718e-09
-1.51993e-07
-4.58869e-09
-1.49189e-07
-5.16502e-09
-1.46081e-07
-5.72386e-09
-1.4268e-07
-6.26286e-09
-1.39e-07
-6.7797e-09
-1.35053e-07
-7.27204e-09
-1.30853e-07
-7.73756e-09
-1.26417e-07
-8.17395e-09
-1.21762e-07
-8.57892e-09
-1.16906e-07
-8.95022e-09
-1.11868e-07
-9.28562e-09
-1.06669e-07
-9.58297e-09
-1.01331e-07
-9.84015e-09
-9.58759e-08
-1.00551e-08
-9.03287e-08
-1.0226e-08
-8.47138e-08
-1.03508e-08
-7.9057e-08
-1.04279e-08
-7.33849e-08
-1.04556e-08
-6.77249e-08
-1.04325e-08
-6.21052e-08
-1.03572e-08
-5.65542e-08
-1.02286e-08
-5.11013e-08
-1.00458e-08
-4.57757e-08
-9.808e-09
-4.06071e-08
-9.51479e-09
-3.56252e-08
-9.166e-09
-3.08593e-08
-8.76185e-09
-2.63386e-08
-8.30292e-09
-2.20912e-08
-7.79033e-09
-1.81445e-08
-7.22578e-09
-1.45243e-08
-6.61169e-09
-1.12542e-08
-5.95142e-09
-8.35553e-09
-5.24951e-09
-5.84593e-09
-4.51205e-09
-3.73852e-09
-3.74717e-09
-2.04043e-09
-2.96574e-09
-7.50961e-10
-2.1824e-09
1.4085e-10
-1.41689e-09
6.59347e-10
-6.96099e-10
8.46196e-10
-5.66194e-11
7.65179e-10
4.51885e-10
5.07216e-10
7.6322e-10
1.95271e-10
7.92205e-10
4.3319e-10
1.50065e-10
-5.80106e-10
3.2768e-10
-9.35661e-10
3.50886e-10
-7.13129e-10
8.92636e-11
-7.83749e-11
-5.52963e-10
8.44506e-10
-1.64312e-09
1.95866e-09
-3.22492e-09
3.1899e-09
-5.3231e-09
4.48241e-09
-7.94714e-09
5.7944e-09
-1.10946e-08
7.0947e-09
-1.47535e-08
8.36006e-09
-1.89049e-08
9.57324e-09
-2.35242e-08
1.07215e-08
-2.85826e-08
1.17954e-08
-3.40481e-08
1.27883e-08
-3.98866e-08
1.36954e-08
-4.60623e-08
1.45136e-08
-5.25382e-08
1.5241e-08
-5.9277e-08
1.58766e-08
-6.62409e-08
1.64202e-08
-7.33922e-08
1.68724e-08
-8.06933e-08
1.7234e-08
-8.81071e-08
1.75064e-08
-9.55974e-08
1.76914e-08
-1.03128e-07
1.77909e-08
-1.10665e-07
1.78071e-08
-1.18173e-07
1.77424e-08
-1.25621e-07
1.75993e-08
-1.32975e-07
1.73805e-08
-1.40206e-07
1.70887e-08
-1.47283e-07
1.67268e-08
-1.54179e-07
1.62977e-08
-1.60865e-07
1.58043e-08
-1.67317e-07
1.52497e-08
-1.7351e-07
1.46369e-08
-1.7942e-07
1.39691e-08
-1.85025e-07
1.32493e-08
-1.90305e-07
1.24807e-08
-1.9524e-07
1.16665e-08
-1.99813e-07
1.081e-08
-2.04006e-07
9.91434e-09
-2.07805e-07
8.98287e-09
-2.11196e-07
8.0189e-09
-2.14166e-07
7.02579e-09
-2.16705e-07
6.00692e-09
-2.18803e-07
4.96573e-09
-2.20453e-07
3.90571e-09
-2.21647e-07
2.83036e-09
-2.22381e-07
1.74325e-09
-2.22652e-07
6.48015e-10
-2.22457e-07
-4.51692e-10
-2.21797e-07
-1.55216e-09
-2.20673e-07
-2.64962e-09
-2.19087e-07
-3.74027e-09
-2.17045e-07
-4.82026e-09
-2.14552e-07
-5.88569e-09
-2.11616e-07
-6.93264e-09
-2.08248e-07
-7.95714e-09
-2.04458e-07
-8.95521e-09
-2.00259e-07
-9.92283e-09
-1.95665e-07
-1.0856e-08
-1.90695e-07
-1.17506e-08
-1.85364e-07
-1.26028e-08
-1.79693e-07
-1.34084e-08
-1.73704e-07
-1.41635e-08
-1.67418e-07
-1.48641e-08
-1.60862e-07
-1.55065e-08
-1.54061e-07
-1.60868e-08
-1.47042e-07
-1.66013e-08
-1.39836e-07
-1.70465e-08
-1.32472e-07
-1.74188e-08
-1.24984e-07
-1.77149e-08
-1.17403e-07
-1.79318e-08
-1.09764e-07
-1.80665e-08
-1.02103e-07
-1.81162e-08
-9.44572e-08
-1.80786e-08
-8.68629e-08
-1.79515e-08
-7.93585e-08
-1.77331e-08
-7.19825e-08
-1.74218e-08
-6.47739e-08
-1.70166e-08
-5.77716e-08
-1.6517e-08
-5.10147e-08
-1.5923e-08
-4.45415e-08
-1.5235e-08
-3.83898e-08
-1.44546e-08
-3.25962e-08
-1.35839e-08
-2.71958e-08
-1.26262e-08
-2.22213e-08
-1.15862e-08
-1.77027e-08
-1.047e-08
-1.36663e-08
-9.28589e-09
-1.01336e-08
-8.04476e-09
-7.12004e-09
-6.76077e-09
-4.63328e-09
-5.45251e-09
-2.67135e-09
-4.14433e-09
-1.22e-09
-2.86825e-09
-2.49697e-10
-1.66639e-09
2.87917e-10
-5.94235e-10
4.6429e-10
2.7551e-10
3.78436e-10
8.49073e-10
1.62775e-10
1.00787e-09
5.95972e-10
7.88888e-11
-6.58996e-10
7.68014e-11
-9.33593e-10
-1.78891e-10
-4.57447e-10
-8.15899e-10
5.58628e-10
-1.9294e-09
1.95801e-09
-3.58747e-09
3.61673e-09
-5.83525e-09
5.43769e-09
-8.69874e-09
7.34589e-09
-1.21881e-08
9.28371e-09
-1.63004e-08
1.1207e-08
-2.10224e-08
1.30821e-08
-2.63325e-08
1.48834e-08
-3.22025e-08
1.65914e-08
-3.85989e-08
1.81918e-08
-4.54844e-08
1.96738e-08
-5.28186e-08
2.10297e-08
-6.05592e-08
2.22542e-08
-6.86621e-08
2.33439e-08
-7.70823e-08
2.42968e-08
-8.57743e-08
2.51123e-08
-9.46925e-08
2.57906e-08
-1.03791e-07
2.63328e-08
-1.13026e-07
2.67407e-08
-1.22351e-07
2.70167e-08
-1.31724e-07
2.71635e-08
-1.41101e-07
2.71842e-08
-1.50441e-07
2.70823e-08
-1.59703e-07
2.68614e-08
-1.68848e-07
2.65256e-08
-1.77838e-07
2.60788e-08
-1.86637e-07
2.55253e-08
-1.95208e-07
2.48695e-08
-2.0352e-07
2.41159e-08
-2.11539e-07
2.32689e-08
-2.19235e-07
2.23332e-08
-2.2658e-07
2.13135e-08
-2.33545e-07
2.02146e-08
-2.40106e-07
1.90412e-08
-2.46237e-07
1.77983e-08
-2.51918e-07
1.64907e-08
-2.57127e-07
1.51235e-08
-2.61846e-07
1.37016e-08
-2.66057e-07
1.22301e-08
-2.69746e-07
1.07142e-08
-2.72898e-07
9.15898e-09
-2.75502e-07
7.56982e-09
-2.77548e-07
5.95198e-09
-2.79029e-07
4.31088e-09
-2.79937e-07
2.65195e-09
-2.8027e-07
9.80735e-10
-2.80024e-07
-6.97159e-10
-2.79201e-07
-2.37606e-09
-2.778e-07
-4.05022e-09
-2.75826e-07
-5.71382e-09
-2.73286e-07
-7.361e-09
-2.70186e-07
-8.9858e-09
-2.66536e-07
-1.05823e-08
-2.62349e-07
-1.21443e-08
-2.57638e-07
-1.36659e-08
-2.5242e-07
-1.51409e-08
-2.46713e-07
-1.65632e-08
-2.40537e-07
-1.79268e-08
-2.33914e-07
-1.92254e-08
-2.26869e-07
-2.0453e-08
-2.19429e-07
-2.16037e-08
-2.11622e-07
-2.26715e-08
-2.03478e-07
-2.36505e-08
-1.9503e-07
-2.4535e-08
-1.86311e-07
-2.53195e-08
-1.77359e-07
-2.59986e-08
-1.68211e-07
-2.6567e-08
-1.58906e-07
-2.70199e-08
-1.49485e-07
-2.73526e-08
-1.39991e-07
-2.75607e-08
-1.30467e-07
-2.76403e-08
-1.20958e-07
-2.75878e-08
-1.11509e-07
-2.74001e-08
-1.02168e-07
-2.70746e-08
-9.29802e-08
-2.66093e-08
-8.39941e-08
-2.60027e-08
-7.52567e-08
-2.52545e-08
-6.6815e-08
-2.43647e-08
-5.87153e-08
-2.33347e-08
-5.10031e-08
-2.21669e-08
-4.3722e-08
-2.08651e-08
-3.69135e-08
-1.94347e-08
-3.06164e-08
-1.78833e-08
-2.48657e-08
-1.62206e-08
-1.9692e-08
-1.44596e-08
-1.512e-08
-1.26168e-08
-1.1167e-08
-1.07137e-08
-7.84176e-09
-8.77778e-09
-5.14187e-09
-6.84422e-09
-3.05183e-09
-4.9583e-09
-1.54012e-09
-3.1781e-09
-5.56219e-10
-1.57814e-09
-2.70307e-11
-2.53679e-10
1.47058e-10
6.7499e-10
9.74221e-11
1.0575e-09
6.93399e-10
-1.01269e-11
-6.48861e-10
-2.36675e-10
-7.07056e-10
-8.31749e-10
1.37619e-10
-1.91217e-09
1.63904e-09
-3.56653e-09
3.61236e-09
-5.85896e-09
5.90917e-09
-8.83232e-09
8.41105e-09
-1.25111e-08
1.10247e-08
-1.69043e-08
1.36768e-08
-2.20074e-08
1.63101e-08
-2.78052e-08
1.88799e-08
-3.42735e-08
2.13516e-08
-4.13806e-08
2.36985e-08
-4.90891e-08
2.59003e-08
-5.73571e-08
2.79417e-08
-6.61388e-08
2.98114e-08
-7.5386e-08
3.15015e-08
-8.50487e-08
3.30065e-08
-9.50752e-08
3.43233e-08
-1.05413e-07
3.54503e-08
-1.1601e-07
3.63875e-08
-1.26813e-07
3.7136e-08
-1.37771e-07
3.76979e-08
-1.4883e-07
3.80761e-08
-1.59941e-07
3.82742e-08
-1.71053e-07
3.82963e-08
-1.82118e-07
3.8147e-08
-1.93088e-07
3.78314e-08
-2.03917e-07
3.73547e-08
-2.1456e-07
3.67225e-08
-2.24976e-07
3.59406e-08
-2.35121e-07
3.50152e-08
-2.44958e-07
3.39523e-08
-2.54447e-07
3.27583e-08
-2.63554e-07
3.14396e-08
-2.72243e-07
3.00029e-08
-2.80483e-07
2.84547e-08
-2.88243e-07
2.68018e-08
-2.95496e-07
2.5051e-08
-3.02215e-07
2.32094e-08
-3.08375e-07
2.12837e-08
-3.13955e-07
1.92812e-08
-3.18934e-07
1.7209e-08
-3.23294e-07
1.50743e-08
-3.27019e-07
1.28844e-08
-3.30096e-07
1.06469e-08
-3.32513e-07
8.36905e-09
-3.34261e-07
6.05861e-09
-3.35332e-07
3.72325e-09
-3.35722e-07
1.37077e-09
-3.35429e-07
-9.90941e-10
-3.34451e-07
-3.35389e-09
-3.32791e-07
-5.70997e-09
-3.30454e-07
-8.05101e-09
-3.27446e-07
-1.03687e-08
-3.23777e-07
-1.26548e-08
-3.19459e-07
-1.49008e-08
-3.14505e-07
-1.70982e-08
-3.08932e-07
-1.92385e-08
-3.0276e-07
-2.13132e-08
-2.96009e-07
-2.33137e-08
-2.88705e-07
-2.52314e-08
-2.80872e-07
-2.70579e-08
-2.72541e-07
-2.87845e-08
-2.63741e-07
-3.04029e-08
-2.54508e-07
-3.19049e-08
-2.44876e-07
-3.32823e-08
-2.34884e-07
-3.45271e-08
-2.24572e-07
-3.56317e-08
-2.13982e-07
-3.65885e-08
-2.03159e-07
-3.73904e-08
-1.92148e-07
-3.80306e-08
-1.80998e-07
-3.85027e-08
-1.69758e-07
-3.88007e-08
-1.58479e-07
-3.89193e-08
-1.47213e-07
-3.88537e-08
-1.36013e-07
-3.85996e-08
-1.24934e-07
-3.81536e-08
-1.1403e-07
-3.75134e-08
-1.03356e-07
-3.66771e-08
-9.29657e-08
-3.56445e-08
-8.29143e-08
-3.44161e-08
-7.32548e-08
-3.29942e-08
-6.4039e-08
-3.13826e-08
-5.53169e-08
-2.95872e-08
-4.71357e-08
-2.76159e-08
-3.95393e-08
-2.54797e-08
-3.25673e-08
-2.31927e-08
-2.62537e-08
-2.07731e-08
-2.06265e-08
-1.82441e-08
-1.57051e-08
-1.56351e-08
-1.14998e-08
-1.29831e-08
-8.00925e-09
-1.03348e-08
-5.21854e-09
-7.74902e-09
-3.09701e-09
-5.29964e-09
-1.59564e-09
-3.07952e-09
-6.44267e-10
-1.20505e-09
-1.48614e-10
1.79344e-10
1.35669e-11
8.95325e-10
7.06966e-10
-1.08347e-10
-5.40518e-10
-5.86482e-10
-2.28926e-10
-1.56066e-09
1.1118e-09
-3.13147e-09
3.20985e-09
-5.37651e-09
5.85738e-09
-8.35232e-09
8.88497e-09
-1.20965e-08
1.21552e-08
-1.66296e-08
1.55579e-08
-2.19576e-08
1.90048e-08
-2.80732e-08
2.24258e-08
-3.49585e-08
2.57652e-08
-4.25861e-08
2.89792e-08
-5.09211e-08
3.20335e-08
-5.99222e-08
3.49014e-08
-6.95431e-08
3.75626e-08
-7.97336e-08
4.00018e-08
-9.04401e-08
4.22081e-08
-1.01607e-07
4.41736e-08
-1.13177e-07
4.58935e-08
-1.25093e-07
4.73654e-08
-1.37294e-07
4.85887e-08
-1.49722e-07
4.95642e-08
-1.62318e-07
5.02944e-08
-1.75025e-07
5.07827e-08
-1.87784e-07
5.10334e-08
-2.0054e-07
5.10519e-08
-2.13236e-07
5.08438e-08
-2.2582e-07
5.04155e-08
-2.3824e-07
4.97741e-08
-2.50444e-07
4.89265e-08
-2.62384e-07
4.78806e-08
-2.74013e-07
4.6644e-08
-2.85285e-07
4.5225e-08
-2.96159e-07
4.36319e-08
-3.06593e-07
4.18732e-08
-3.16547e-07
3.99574e-08
-3.25986e-07
3.78936e-08
-3.34875e-07
3.56905e-08
-3.43181e-07
3.33573e-08
-3.50875e-07
3.09032e-08
-3.57929e-07
2.83374e-08
-3.64317e-07
2.56695e-08
-3.70017e-07
2.29088e-08
-3.75007e-07
2.00651e-08
-3.79271e-07
1.71481e-08
-3.82792e-07
1.41677e-08
-3.85557e-07
1.11339e-08
-3.87555e-07
8.05693e-09
-3.88779e-07
4.94694e-09
-3.89222e-07
1.81435e-09
-3.88883e-07
-1.33032e-09
-3.87761e-07
-4.4764e-09
-3.85857e-07
-7.61314e-09
-3.83179e-07
-1.07297e-08
-3.79733e-07
-1.38149e-08
-3.75529e-07
-1.68579e-08
-3.70583e-07
-1.98473e-08
-3.64909e-07
-2.27719e-08
-3.58527e-07
-2.56205e-08
-3.51459e-07
-2.83816e-08
-3.43729e-07
-3.10439e-08
-3.35364e-07
-3.35961e-08
-3.26395e-07
-3.60269e-08
-3.16855e-07
-3.8325e-08
-3.06778e-07
-4.04794e-08
-2.96204e-07
-4.24792e-08
-2.85173e-07
-4.43136e-08
-2.73728e-07
-4.59721e-08
-2.61915e-07
-4.74447e-08
-2.49782e-07
-4.87215e-08
-2.37379e-07
-4.97932e-08
-2.24759e-07
-5.06508e-08
-2.11975e-07
-5.12861e-08
-1.99085e-07
-5.16913e-08
-1.86144e-07
-5.18596e-08
-1.73213e-07
-5.17847e-08
-1.60352e-07
-5.14614e-08
-1.4762e-07
-5.08855e-08
-1.35079e-07
-5.00539e-08
-1.22791e-07
-4.89649e-08
-1.10818e-07
-4.76182e-08
-9.92187e-08
-4.60152e-08
-8.80537e-08
-4.41592e-08
-7.73804e-08
-4.20559e-08
-6.72544e-08
-3.97132e-08
-5.77279e-08
-3.71424e-08
-4.88495e-08
-3.43581e-08
-4.06627e-08
-3.13794e-08
-3.32056e-08
-2.82302e-08
-2.65088e-08
-2.49409e-08
-2.05948e-08
-2.15491e-08
-1.54761e-08
-1.81018e-08
-1.11535e-08
-1.46573e-08
-7.61495e-09
-1.12876e-08
-4.83281e-09
-8.08178e-09
-2.76255e-09
-5.14977e-09
-1.3406e-09
-2.627e-09
-4.8234e-10
-6.78912e-10
-8.00987e-11
4.93079e-10
6.26868e-10
-2.1053e-10
-3.2999e-10
-9.55237e-10
5.15772e-10
-2.33286e-09
2.48941e-09
-4.42473e-09
5.30173e-09
-7.29447e-09
8.72712e-09
-1.09883e-08
1.25788e-08
-1.55362e-08
1.67031e-08
-2.09529e-08
2.09745e-08
-2.72395e-08
2.52913e-08
-3.43848e-08
2.95711e-08
-4.23672e-08
3.37476e-08
-5.11558e-08
3.77678e-08
-6.07119e-08
4.15896e-08
-7.09905e-08
4.518e-08
-8.19411e-08
4.85132e-08
-9.3509e-08
5.15698e-08
-1.05636e-07
5.43352e-08
-1.18262e-07
5.67994e-08
-1.31324e-07
5.89555e-08
-1.44758e-07
6.07998e-08
-1.58501e-07
6.2331e-08
-1.72486e-07
6.35498e-08
-1.8665e-07
6.44587e-08
-2.00929e-07
6.50617e-08
-2.1526e-07
6.53639e-08
-2.2958e-07
6.53715e-08
-2.43828e-07
6.50917e-08
-2.57944e-07
6.45324e-08
-2.71872e-07
6.37019e-08
-2.85555e-07
6.26094e-08
-2.98939e-07
6.12643e-08
-3.11971e-07
5.96764e-08
-3.24602e-07
5.78561e-08
-3.36784e-07
5.58139e-08
-3.48471e-07
5.35604e-08
-3.59621e-07
5.11067e-08
-3.70191e-07
4.84641e-08
-3.80144e-07
4.56438e-08
-3.89445e-07
4.26574e-08
-3.98058e-07
3.95167e-08
-4.05954e-07
3.62335e-08
-4.13104e-07
3.28199e-08
-4.19484e-07
2.92879e-08
-4.25069e-07
2.56501e-08
-4.29839e-07
2.19188e-08
-4.33778e-07
1.81067e-08
-4.36871e-07
1.42266e-08
-4.39105e-07
1.02914e-08
-4.40473e-07
6.31432e-09
-4.40967e-07
2.30859e-09
-4.40585e-07
-1.71233e-09
-4.39327e-07
-5.73484e-09
-4.37195e-07
-9.74517e-09
-4.34195e-07
-1.37294e-08
-4.30336e-07
-1.76736e-08
-4.25631e-07
-2.15634e-08
-4.20093e-07
-2.53847e-08
-4.13742e-07
-2.91232e-08
-4.06598e-07
-3.27643e-08
-3.98686e-07
-3.62937e-08
-3.90033e-07
-3.96969e-08
-3.8067e-07
-4.29594e-08
-3.70629e-07
-4.60671e-08
-3.59949e-07
-4.90055e-08
-3.48668e-07
-5.17607e-08
-3.36828e-07
-5.43188e-08
-3.24475e-07
-5.66663e-08
-3.11657e-07
-5.87899e-08
-2.98425e-07
-6.06768e-08
-2.84832e-07
-6.23146e-08
-2.70934e-07
-6.36917e-08
-2.56788e-07
-6.47968e-08
-2.42454e-07
-6.56195e-08
-2.27995e-07
-6.61503e-08
-2.13475e-07
-6.63805e-08
-1.98957e-07
-6.63026e-08
-1.84508e-07
-6.59102e-08
-1.70195e-07
-6.51983e-08
-1.56086e-07
-6.41632e-08
-1.42247e-07
-6.28032e-08
-1.28747e-07
-6.11184e-08
-1.15651e-07
-5.91109e-08
-1.03025e-07
-5.67854e-08
-9.09314e-08
-5.41495e-08
-7.94308e-08
-5.12138e-08
-6.85802e-08
-4.79929e-08
-5.84326e-08
-4.45057e-08
-4.90356e-08
-4.07763e-08
-4.04309e-08
-3.6835e-08
-3.26526e-08
-3.27192e-08
-2.57265e-08
-2.84752e-08
-1.96683e-08
-2.416e-08
-1.44827e-08
-1.98429e-08
-1.01615e-08
-1.56088e-08
-6.68235e-09
-1.15609e-08
-4.00765e-09
-7.82447e-09
-2.08303e-09
-4.55163e-09
-8.36543e-10
-1.92539e-09
-1.78228e-10
-1.65242e-10
4.48642e-10
-3.13571e-10
-1.64246e-11
-1.33167e-09
1.53386e-09
-3.12593e-09
4.28367e-09
-5.75717e-09
7.93297e-09
-9.27324e-09
1.22432e-08
-1.37082e-08
1.70138e-08
-1.90825e-08
2.20774e-08
-2.54034e-08
2.72954e-08
-3.26658e-08
3.25537e-08
-4.08535e-08
3.77588e-08
-4.99402e-08
4.28343e-08
-5.98909e-08
4.77185e-08
-7.06628e-08
5.23616e-08
-8.22068e-08
5.6724e-08
-9.44684e-08
6.07748e-08
-1.07388e-07
6.44899e-08
-1.20905e-07
6.78514e-08
-1.34952e-07
7.08463e-08
-1.49462e-07
7.34659e-08
-1.64367e-07
7.57049e-08
-1.79598e-07
7.75614e-08
-1.95083e-07
7.90356e-08
-2.10755e-07
8.01301e-08
-2.26542e-07
8.08493e-08
-2.42378e-07
8.11992e-08
-2.58193e-07
8.1187e-08
-2.73923e-07
8.08212e-08
-2.89502e-07
8.01111e-08
-3.04867e-07
7.9067e-08
-3.19957e-07
7.76998e-08
-3.34714e-07
7.6021e-08
-3.4908e-07
7.40426e-08
-3.63001e-07
7.17771e-08
-3.76424e-07
6.92374e-08
-3.89301e-07
6.64367e-08
-4.01583e-07
6.33886e-08
-4.13225e-07
6.01068e-08
-4.24187e-07
5.66053e-08
-4.34428e-07
5.28984e-08
-4.43912e-07
4.90007e-08
-4.52605e-07
4.49267e-08
-4.60477e-07
4.06914e-08
-4.67499e-07
3.63099e-08
-4.73646e-07
3.17973e-08
-4.78896e-07
2.71693e-08
-4.83231e-07
2.24414e-08
-4.86634e-07
1.76295e-08
-4.89092e-07
1.27497e-08
-4.90596e-07
7.81816e-09
-4.91139e-07
2.85144e-09
-4.90717e-07
-2.13384e-09
-4.89331e-07
-7.12083e-09
-4.86984e-07
-1.20925e-08
-4.83682e-07
-1.70317e-08
-4.79434e-07
-2.1921e-08
-4.74255e-07
-2.67429e-08
-4.6816e-07
-3.14798e-08
-4.61169e-07
-3.61139e-08
-4.53306e-07
-4.06275e-08
-4.44597e-07
-4.50027e-08
-4.35072e-07
-4.92218e-08
-4.24765e-07
-5.32669e-08
-4.13711e-07
-5.71205e-08
-4.01952e-07
-6.07649e-08
-3.8953e-07
-6.41829e-08
-3.76491e-07
-6.73574e-08
-3.62885e-07
-7.02719e-08
-3.48765e-07
-7.29102e-08
-3.34186e-07
-7.52564e-08
-3.19205e-07
-7.72956e-08
-3.03883e-07
-7.90133e-08
-2.88284e-07
-8.0396e-08
-2.72472e-07
-8.14311e-08
-2.56515e-07
-8.2107e-08
-2.40483e-07
-8.24133e-08
-2.24444e-07
-8.23409e-08
-2.08472e-07
-8.18823e-08
-1.92639e-07
-8.10316e-08
-1.77017e-07
-7.97849e-08
-1.6168e-07
-7.81401e-08
-1.46701e-07
-7.6098e-08
-1.3215e-07
-7.36615e-08
-1.18099e-07
-7.08369e-08
-1.04615e-07
-6.76338e-08
-9.17626e-08
-6.40658e-08
-7.96045e-08
-6.0151e-08
-6.81974e-08
-5.59128e-08
-5.75933e-08
-5.13805e-08
-4.78375e-08
-4.65908e-08
-3.89682e-08
-4.15884e-08
-3.10151e-08
-3.64283e-08
-2.39983e-08
-3.11768e-08
-1.7927e-08
-2.59142e-08
-1.27987e-08
-2.07372e-08
-8.598e-09
-1.57617e-08
-5.29574e-09
-1.11267e-08
-2.84878e-09
-6.9986e-09
-1.19969e-09
-3.57447e-09
-2.77595e-10
-1.08734e-09
1.7105e-10
-4.15646e-10
3.99215e-10
-1.70859e-09
2.82682e-09
-3.92485e-09
6.49992e-09
-7.1046e-09
1.11127e-08
-1.12791e-08
1.64177e-08
-1.6469e-08
2.22038e-08
-2.2684e-08
2.82924e-08
-2.99226e-08
3.45339e-08
-3.81723e-08
4.08035e-08
-4.74108e-08
4.69973e-08
-5.76065e-08
5.303e-08
-6.87195e-08
5.88314e-08
-8.07024e-08
6.43445e-08
-9.35019e-08
6.95235e-08
-1.07059e-07
7.43319e-08
-1.21311e-07
7.87414e-08
-1.3619e-07
8.27304e-08
-1.51627e-07
8.62832e-08
-1.6755e-07
8.93888e-08
-1.83885e-07
9.20406e-08
-2.00559e-07
9.42355e-08
-2.17497e-07
9.59735e-08
-2.34624e-07
9.72572e-08
-2.51866e-07
9.80913e-08
-2.6915e-07
9.84827e-08
-2.86402e-07
9.84397e-08
-3.03553e-07
9.7972e-08
-3.20533e-07
9.70907e-08
-3.37273e-07
9.58077e-08
-3.5371e-07
9.4136e-08
-3.69778e-07
9.20892e-08
-3.85417e-07
8.96815e-08
-4.00568e-07
8.69281e-08
-4.15174e-07
8.38441e-08
-4.29183e-07
8.04455e-08
-4.42543e-07
7.67484e-08
-4.55206e-07
7.27695e-08
-4.67126e-07
6.85257e-08
-4.78262e-07
6.4034e-08
-4.88573e-07
5.93121e-08
-4.98024e-07
5.43775e-08
-5.06581e-07
4.92482e-08
-5.14213e-07
4.39425e-08
-5.20895e-07
3.84788e-08
-5.26601e-07
3.28758e-08
-5.31312e-07
2.71523e-08
-5.3501e-07
2.13277e-08
-5.37682e-07
1.54212e-08
-5.39316e-07
9.45258e-09
-5.39907e-07
3.44165e-09
-5.39449e-07
-2.59145e-09
-5.37943e-07
-8.62638e-09
-5.35393e-07
-1.46426e-08
-5.31806e-07
-2.06193e-08
-5.27191e-07
-2.65355e-08
-5.21564e-07
-3.23703e-08
-5.14941e-07
-3.81021e-08
-5.07346e-07
-4.37098e-08
-4.98801e-07
-4.91719e-08
-4.89337e-07
-5.4467e-08
-4.78985e-07
-5.95735e-08
-4.67782e-07
-6.44701e-08
-4.55767e-07
-6.91356e-08
-4.42983e-07
-7.35489e-08
-4.29476e-07
-7.76894e-08
-4.15297e-07
-8.15365e-08
-4.00499e-07
-8.50704e-08
-3.85137e-07
-8.82716e-08
-3.69272e-07
-9.11213e-08
-3.52966e-07
-9.36016e-08
-3.36285e-07
-9.56952e-08
-3.19294e-07
-9.73862e-08
-3.02066e-07
-9.86594e-08
-2.84672e-07
-9.95011e-08
-2.67186e-07
-9.98992e-08
-2.49684e-07
-9.98431e-08
-2.32242e-07
-9.93239e-08
-2.14939e-07
-9.83349e-08
-1.97852e-07
-9.68717e-08
-1.8106e-07
-9.49325e-08
-1.64639e-07
-9.25181e-08
-1.48668e-07
-8.96329e-08
-1.3322e-07
-8.62846e-08
-1.18369e-07
-8.2485e-08
-1.04184e-07
-7.82508e-08
-9.07314e-08
-7.36038e-08
-7.80724e-08
-6.85718e-08
-6.62633e-08
-6.31896e-08
-5.53539e-08
-5.75002e-08
-4.53867e-08
-5.15556e-08
-3.6396e-08
-4.5419e-08
-2.8407e-08
-3.91658e-08
-2.14347e-08
-3.28865e-08
-1.54833e-08
-2.66886e-08
-1.05455e-08
-2.06995e-08
-6.60219e-09
-1.507e-08
-3.62247e-09
-9.97831e-09
-1.56437e-09
-5.63257e-09
-3.76286e-10
-2.27543e-09
-2.05235e-10
-5.15732e-10
9.14939e-10
-2.08156e-09
4.39263e-09
-4.71978e-09
9.13814e-09
-8.45057e-09
1.48435e-08
-1.32884e-08
2.12555e-08
-1.92399e-08
2.81553e-08
-2.63032e-08
3.53557e-08
-3.44669e-08
4.26977e-08
-4.37106e-08
5.00471e-08
-5.40048e-08
5.72915e-08
-6.53117e-08
6.43369e-08
-7.7586e-08
7.11057e-08
-9.07754e-08
7.75339e-08
-1.04822e-07
8.35698e-08
-1.19662e-07
8.91718e-08
-1.35227e-07
9.43073e-08
-1.51448e-07
9.8951e-08
-1.68249e-07
1.03084e-07
-1.85555e-07
1.06694e-07
-2.03287e-07
1.09773e-07
-2.21367e-07
1.12316e-07
-2.39717e-07
1.14323e-07
-2.58256e-07
1.15796e-07
-2.76906e-07
1.16742e-07
-2.9559e-07
1.17166e-07
-3.14229e-07
1.17079e-07
-3.3275e-07
1.16493e-07
-3.51078e-07
1.15418e-07
-3.69141e-07
1.13871e-07
-3.86869e-07
1.11864e-07
-4.04195e-07
1.09415e-07
-4.21054e-07
1.0654e-07
-4.37383e-07
1.03257e-07
-4.53122e-07
9.9583e-08
-4.68214e-07
9.55372e-08
-4.82604e-07
9.11387e-08
-4.96241e-07
8.64069e-08
-5.09078e-07
8.13618e-08
-5.21067e-07
7.60237e-08
-5.32168e-07
7.04131e-08
-5.42342e-07
6.45511e-08
-5.51553e-07
5.84589e-08
-5.59768e-07
5.21579e-08
-5.66959e-07
4.56702e-08
-5.73101e-07
3.90177e-08
-5.78172e-07
3.22229e-08
-5.82152e-07
2.53084e-08
-5.85029e-07
1.82974e-08
-5.86789e-07
1.12129e-08
-5.87426e-07
4.07869e-09
-5.86936e-07
-3.08158e-09
-5.85319e-07
-1.02438e-08
-5.82577e-07
-1.73836e-08
-5.7872e-07
-2.44765e-08
-5.73758e-07
-3.14976e-08
-5.67706e-07
-3.8422e-08
-5.60584e-07
-4.52247e-08
-5.52414e-07
-5.18803e-08
-5.43222e-07
-5.83635e-08
-5.3304e-07
-6.4649e-08
-5.21902e-07
-7.07115e-08
-5.09846e-07
-7.65259e-08
-4.96915e-07
-8.2067e-08
-4.83154e-07
-8.73101e-08
-4.68612e-07
-9.22307e-08
-4.53344e-07
-9.68049e-08
-4.37405e-07
-1.01009e-07
-4.20856e-07
-1.04821e-07
-4.0376e-07
-1.08217e-07
-3.86183e-07
-1.11178e-07
-3.68195e-07
-1.13683e-07
-3.49867e-07
-1.15714e-07
-3.31275e-07
-1.17252e-07
-3.12495e-07
-1.18281e-07
-2.93605e-07
-1.18789e-07
-2.74686e-07
-1.18762e-07
-2.5582e-07
-1.1819e-07
-2.37089e-07
-1.17066e-07
-2.18575e-07
-1.15385e-07
-2.00363e-07
-1.13145e-07
-1.82533e-07
-1.10347e-07
-1.65169e-07
-1.06998e-07
-1.48348e-07
-1.03105e-07
-1.32149e-07
-9.86843e-08
-1.16645e-07
-9.37544e-08
-1.01908e-07
-8.83411e-08
-8.80028e-08
-8.24768e-08
-7.49907e-08
-7.62017e-08
-6.2926e-08
-6.95649e-08
-5.18561e-08
-6.26255e-08
-4.18207e-08
-5.54544e-08
-3.28508e-08
-4.81358e-08
-2.4968e-08
-4.07693e-08
-1.81841e-08
-3.34724e-08
-1.25009e-08
-2.63826e-08
-7.9102e-09
-1.96608e-08
-4.39398e-09
-1.34945e-08
-1.92592e-09
-8.10062e-09
-4.73208e-10
-3.72814e-09
-6.78443e-10
-6.13281e-10
1.52822e-09
-2.44788e-09
6.22724e-09
-5.5045e-09
1.21948e-08
-9.78425e-09
1.91232e-08
-1.52851e-08
2.67563e-08
-2.19995e-08
3.48698e-08
-2.99135e-08
4.32697e-08
-3.90052e-08
5.17895e-08
-4.92454e-08
6.02873e-08
-6.05969e-08
6.8643e-08
-7.30151e-08
7.67551e-08
-8.64486e-08
8.45392e-08
-1.0084e-07
9.1925e-08
-1.16125e-07
9.88553e-08
-1.32237e-07
1.05284e-07
-1.49103e-07
1.11173e-07
-1.66647e-07
1.16495e-07
-1.84791e-07
1.21228e-07
-2.03454e-07
1.25358e-07
-2.22555e-07
1.28874e-07
-2.42011e-07
1.31771e-07
-2.61738e-07
1.3405e-07
-2.81652e-07
1.35711e-07
-3.01672e-07
1.36761e-07
-3.21714e-07
1.37208e-07
-3.41698e-07
1.37064e-07
-3.61545e-07
1.36339e-07
-3.81176e-07
1.35049e-07
-4.00515e-07
1.3321e-07
-4.1949e-07
1.30839e-07
-4.38028e-07
1.27954e-07
-4.56061e-07
1.24574e-07
-4.73523e-07
1.20719e-07
-4.9035e-07
1.1641e-07
-5.06482e-07
1.11669e-07
-5.21861e-07
1.06518e-07
-5.36433e-07
1.00979e-07
-5.50148e-07
9.50761e-08
-5.62956e-07
8.8832e-08
-5.74814e-07
8.22711e-08
-5.8568e-07
7.54175e-08
-5.95518e-07
6.82962e-08
-6.04292e-07
6.0932e-08
-6.11972e-07
5.33505e-08
-6.18532e-07
4.55774e-08
-6.23948e-07
3.76387e-08
-6.282e-07
2.9561e-08
-6.31274e-07
2.1371e-08
-6.33157e-07
1.30958e-08
-6.33841e-07
4.76274e-09
-6.33322e-07
-3.60038e-09
-6.316e-07
-1.19656e-08
-6.28679e-07
-2.03045e-08
-6.24567e-07
-2.85886e-08
-6.19276e-07
-3.67891e-08
-6.12821e-07
-4.48769e-08
-6.05223e-07
-5.28228e-08