/*--------------------------------*- C++ -*----------------------------------*\
| =========                 |                                                 |
| \\      /  F ield         | OpenFOAM: The Open Source CFD Toolbox           |
|  \\    /   O peration     | Version:  2212                                  |
|   \\  /    A nd           | Website:  www.openfoam.com                      |
|    \\/     M anipulation  |                                                 |
\*---------------------------------------------------------------------------*/
FoamFile
{
    version     2.0;
    format      ascii;
    arch        "LSB;label=32;scalar=64";
    class       surfaceScalarField;
    location    "0.068";
    object      phi;
}
// * * * * * * * * * * * * * * * * * * * * * * * * * * * * * * * * * * * * * //

dimensions      [0 3 -1 0 0 0 0];

oriented        oriented;

internalField   nonuniform List<scalar> 
19800
(
6.85628e-11
-6.86234e-11
2.34817e-10
-1.66244e-10
4.17393e-10
-1.82581e-10
5.59888e-10
-1.42504e-10
6.3015e-10
-7.0268e-11
6.10527e-10
1.96187e-11
4.92247e-10
1.18269e-10
2.72152e-10
2.2009e-10
-4.93853e-11
3.2153e-10
-4.69702e-10
4.20316e-10
-9.84667e-10
5.14961e-10
-1.58914e-09
6.04469e-10
-2.27732e-09
6.88177e-10
-3.04298e-09
7.6566e-10
-3.87963e-09
8.3665e-10
-4.78063e-09
9.00999e-10
-5.73926e-09
9.58631e-10
-6.7488e-09
1.00954e-09
-7.80257e-09
1.05378e-09
-8.89401e-09
1.09144e-09
-1.00166e-08
1.12262e-09
-1.11641e-08
1.14745e-09
-1.23302e-08
1.1661e-09
-1.35089e-08
1.17872e-09
-1.46944e-08
1.18549e-09
-1.5881e-08
1.1866e-09
-1.70632e-08
1.18225e-09
-1.82358e-08
1.17262e-09
-1.93938e-08
1.15792e-09
-2.05321e-08
1.13834e-09
-2.16462e-08
1.11409e-09
-2.27315e-08
1.08537e-09
-2.3784e-08
1.05241e-09
-2.47994e-08
1.0154e-09
-2.57739e-08
9.74558e-10
-2.6704e-08
9.30087e-10
-2.75862e-08
8.82194e-10
-2.84173e-08
8.31088e-10
-2.91942e-08
7.76984e-10
-2.99143e-08
7.20092e-10
-3.0575e-08
6.60628e-10
-3.11738e-08
5.98813e-10
-3.17087e-08
5.34856e-10
-3.21776e-08
4.68973e-10
-3.2579e-08
4.01385e-10
-3.29113e-08
3.32306e-10
-3.31733e-08
2.6197e-10
-3.33639e-08
1.90612e-10
-3.34824e-08
1.18451e-10
-3.35281e-08
4.5729e-11
-3.35008e-08
-2.73137e-11
-3.34003e-08
-1.00449e-10
-3.32269e-08
-1.73435e-10
-3.29809e-08
-2.4601e-10
-3.2663e-08
-3.17923e-10
-3.2274e-08
-3.88919e-10
-3.18153e-08
-4.58737e-10
-3.12882e-08
-5.27118e-10
-3.06944e-08
-5.93801e-10
-3.00359e-08
-6.58512e-10
-2.93149e-08
-7.20982e-10
-2.8534e-08
-7.80942e-10
-2.76958e-08
-8.38118e-10
-2.68036e-08
-8.92237e-10
-2.58605e-08
-9.43036e-10
-2.48703e-08
-9.90249e-10
-2.38367e-08
-1.0336e-09
-2.27639e-08
-1.07282e-09
-2.16562e-08
-1.10767e-09
-2.05183e-08
-1.13788e-09
-1.93552e-08
-1.16319e-09
-1.81718e-08
-1.18337e-09
-1.69736e-08
-1.1982e-09
-1.57661e-08
-1.20746e-09
-1.45552e-08
-1.21094e-09
-1.33467e-08
-1.20845e-09
-1.21469e-08
-1.19981e-09
-1.09621e-08
-1.18485e-09
-9.79863e-09
-1.16344e-09
-8.66319e-09
-1.13543e-09
-7.56243e-09
-1.10075e-09
-6.5031e-09
-1.05933e-09
-5.49196e-09
-1.01114e-09
-4.53578e-09
-9.5618e-10
-3.64126e-09
-8.94506e-10
-2.81504e-09
-8.26229e-10
-2.06353e-09
-7.51525e-10
-1.39288e-09
-6.70659e-10
-8.08859e-10
-5.84021e-10
-3.16686e-10
-4.9217e-10
7.92096e-11
-3.95896e-10
3.75527e-10
-2.96323e-10
5.706e-10
-1.95072e-10
6.65163e-10
-9.45572e-11
6.63602e-10
1.56111e-12
5.75977e-10
8.76185e-11
4.21174e-10
1.54796e-10
2.32263e-10
1.88914e-10
6.55803e-11
1.66694e-10
6.55785e-11
1.66157e-10
-2.34771e-10
4.55771e-10
-4.55859e-10
7.32228e-10
-4.59015e-10
8.96672e-10
-3.06931e-10
8.80573e-10
-5.41544e-11
6.40198e-10
2.60019e-10
1.50151e-10
6.08325e-10
-6.01791e-10
9.7204e-10
-1.61858e-09
1.33832e-09
-2.89658e-09
1.69832e-09
-4.42748e-09
2.04587e-09
-6.1997e-09
2.37668e-09
-8.19927e-09
2.68776e-09
-1.04106e-08
2.97703e-09
-1.28171e-08
3.24311e-09
-1.54012e-08
3.48511e-09
-1.81451e-08
3.70253e-09
-2.10307e-08
3.8951e-09
-2.40397e-08
4.06285e-09
-2.71542e-08
4.20592e-09
-3.03562e-08
4.32464e-09
-3.36282e-08
4.41937e-09
-3.69527e-08
4.49064e-09
-4.0313e-08
4.53898e-09
-4.36925e-08
4.56502e-09
-4.70753e-08
4.5694e-09
-5.04459e-08
4.55282e-09
-5.37893e-08
4.51599e-09
-5.7091e-08
4.45965e-09
-6.03372e-08
4.38454e-09
-6.35146e-08
4.29144e-09
-6.66103e-08
4.18113e-09
-6.96123e-08
4.05438e-09
-7.25089e-08
3.912e-09
-7.52891e-08
3.75477e-09
-7.79426e-08
3.58351e-09
-8.04594e-08
3.39902e-09
-8.28304e-08
3.20211e-09
-8.5047e-08
2.99359e-09
-8.71012e-08
2.77429e-09
-8.89856e-08
2.54503e-09
-9.06934e-08
2.30665e-09
-9.22186e-08
2.05999e-09
-9.35555e-08
1.80588e-09
-9.46993e-08
1.5452e-09
-9.56458e-08
1.27881e-09
-9.63914e-08
1.00757e-09
-9.69332e-08
7.32372e-10
-9.72688e-08
4.54127e-10
-9.73969e-08
1.73737e-10
-9.73163e-08
-1.07867e-10
-9.7027e-08
-3.89748e-10
-9.65295e-08
-6.70972e-10
-9.58249e-08
-9.50574e-10
-9.49153e-08
-1.22756e-09
-9.38033e-08
-1.50095e-09
-9.24923e-08
-1.76974e-09
-9.09865e-08
-2.03291e-09
-8.92908e-08
-2.28945e-09
-8.7411e-08
-2.53835e-09
-8.53534e-08
-2.77855e-09
-8.31254e-08
-3.00901e-09
-8.07348e-08
-3.22869e-09
-7.81905e-08
-3.43655e-09
-7.5502e-08
-3.63156e-09
-7.26795e-08
-3.81269e-09
-6.97342e-08
-3.97894e-09
-6.66777e-08
-4.12931e-09
-6.35226e-08
-4.2628e-09
-6.0282e-08
-4.37846e-09
-5.69698e-08
-4.47535e-09
-5.36006e-08
-4.55258e-09
-5.01895e-08
-4.60929e-09
-4.67523e-08
-4.64466e-09
-4.33053e-08
-4.65796e-09
-3.98653e-08
-4.64848e-09
-3.64495e-08
-4.61557e-09
-3.30757e-08
-4.55867e-09
-2.97618e-08
-4.47728e-09
-2.65262e-08
-4.37103e-09
-2.33874e-08
-4.23962e-09
-2.03638e-08
-4.0829e-09
-1.74741e-08
-3.90086e-09
-1.47366e-08
-3.69367e-09
-1.21694e-08
-3.46169e-09
-9.79009e-09
-3.20553e-09
-7.61551e-09
-2.9261e-09
-5.66144e-09
-2.62472e-09
-3.94224e-09
-2.30322e-09
-2.47032e-09
-1.96409e-09
-1.25545e-09
-1.61078e-09
-3.03763e-10
-1.24801e-09
3.83541e-10
-8.8237e-10
8.12064e-10
-5.23079e-10
9.96846e-10
-1.83233e-10
9.66057e-10
1.18401e-10
7.65895e-10
3.54966e-10
4.66459e-10
4.8836e-10
1.6661e-10
4.66541e-10
2.32181e-10
1.82837e-10
-4.17619e-10
4.60521e-10
-7.33543e-10
6.65245e-10
-6.63757e-10
6.78093e-10
-3.19781e-10
4.12998e-10
2.1092e-10
-1.88553e-10
8.61566e-10
-1.16306e-09
1.58283e-09
-2.53001e-09
2.33899e-09
-4.29598e-09
3.10429e-09
-6.45785e-09
3.86018e-09
-9.00525e-09
4.59325e-09
-1.19224e-08
5.29383e-09
-1.51896e-08
5.95493e-09
-1.87841e-08
6.57158e-09
-2.26814e-08
7.14033e-09
-2.68551e-08
7.65882e-09
-3.12781e-08
8.12556e-09
-3.59227e-08
8.53973e-09
-4.07609e-08
8.90104e-09
-4.57646e-08
9.20962e-09
-5.09058e-08
9.4659e-09
-5.6157e-08
9.6706e-09
-6.1491e-08
9.82462e-09
-6.68811e-08
9.92907e-09
-7.23013e-08
9.98517e-09
-7.77261e-08
9.99423e-09
-8.3131e-08
9.95769e-09
-8.8492e-08
9.87705e-09
-9.37862e-08
9.75384e-09
-9.89914e-08
9.58968e-09
-1.04086e-07
9.3862e-09
-1.0905e-07
9.14508e-09
-1.13864e-07
8.868e-09
-1.18508e-07
8.55667e-09
-1.22966e-07
8.21284e-09
-1.27221e-07
7.83824e-09
-1.31257e-07
7.43464e-09
-1.35058e-07
7.00381e-09
-1.38612e-07
6.54754e-09
-1.41906e-07
6.06763e-09
-1.44927e-07
5.5659e-09
-1.47664e-07
5.04417e-09
-1.50108e-07
4.50429e-09
-1.52251e-07
3.94813e-09
-1.54083e-07
3.37756e-09
-1.55599e-07
2.7945e-09
-1.56792e-07
2.20087e-09
-1.57658e-07
1.59863e-09
-1.58194e-07
9.89741e-10
-1.58396e-07
3.76223e-10
-1.58264e-07
-2.39904e-10
-1.57798e-07
-8.56572e-10
-1.56997e-07
-1.47169e-09
-1.55864e-07
-2.08317e-09
-1.54403e-07
-2.68885e-09
-1.52617e-07
-3.28655e-09
-1.50513e-07
-3.87409e-09
-1.48097e-07
-4.44926e-09
-1.45376e-07
-5.00983e-09
-1.42361e-07
-5.55355e-09
-1.39061e-07
-6.07817e-09
-1.35489e-07
-6.58142e-09
-1.31657e-07
-7.06103e-09
-1.27578e-07
-7.51474e-09
-1.2327e-07
-7.94031e-09
-1.18747e-07
-8.33552e-09
-1.14028e-07
-8.69816e-09
-1.09131e-07
-9.02609e-09
-1.04077e-07
-9.31718e-09
-9.88856e-08
-9.56937e-09
-9.35803e-08
-9.78066e-09
-8.81838e-08
-9.94913e-09
-8.27201e-08
-1.0073e-08
-7.72143e-08
-1.01505e-08
-7.16923e-08
-1.018e-08
-6.61806e-08
-1.01601e-08
-6.07066e-08
-1.00895e-08
-5.52982e-08
-9.96708e-09
-4.99837e-08
-9.79179e-09
-4.47918e-08
-9.56294e-09
-3.97513e-08
-9.28006e-09
-3.48913e-08
-8.94297e-09
-3.02403e-08
-8.55182e-09
-2.58268e-08
-8.10718e-09
-2.16784e-08
-7.61006e-09
-1.78219e-08
-7.06209e-09
-1.42824e-08
-6.46558e-09
-1.10834e-08
-5.82376e-09
-8.24562e-09
-5.14098e-09
-5.78658e-09
-4.42312e-09
-3.71931e-09
-3.67804e-09
-2.05106e-09
-2.91627e-09
-7.81457e-10
-2.15197e-09
9.98236e-11
-1.40436e-09
6.16134e-10
-6.99545e-10
8.07706e-10
-7.31678e-11
7.36333e-10
4.26348e-10
4.90329e-10
7.34362e-10
1.89403e-10
7.67458e-10
4.21584e-10
1.44538e-10
-5.62151e-10
3.13518e-10
-9.02514e-10
3.30148e-10
-6.80378e-10
6.77915e-11
-5.74213e-11
-5.66466e-10
8.45182e-10
-1.63778e-09
1.93288e-09
-3.18836e-09
3.13341e-09
-5.24189e-09
4.39251e-09
-7.80729e-09
5.6697e-09
-1.08819e-08
6.93478e-09
-1.44539e-08
8.16528e-09
-1.85046e-08
9.34456e-09
-2.301e-08
1.04603e-08
-2.79418e-08
1.15034e-08
-3.3269e-08
1.24675e-08
-3.89582e-08
1.3348e-08
-4.49745e-08
1.41418e-08
-5.1282e-08
1.48473e-08
-5.78443e-08
1.54633e-08
-6.46246e-08
1.59899e-08
-7.15862e-08
1.64275e-08
-7.86926e-08
1.6777e-08
-8.59079e-08
1.70399e-08
-9.31966e-08
1.72178e-08
-1.00524e-07
1.73126e-08
-1.07856e-07
1.73265e-08
-1.15161e-07
1.72619e-08
-1.22405e-07
1.71212e-08
-1.29558e-07
1.6907e-08
-1.3659e-07
1.6622e-08
-1.43473e-07
1.62691e-08
-1.50179e-07
1.58509e-08
-1.56681e-07
1.53705e-08
-1.62956e-07
1.48308e-08
-1.68977e-07
1.42346e-08
-1.74724e-07
1.35852e-08
-1.80175e-07
1.28854e-08
-1.8531e-07
1.21384e-08
-1.90109e-07
1.13472e-08
-1.94557e-07
1.0515e-08
-1.98636e-07
9.64497e-09
-2.02332e-07
8.74024e-09
-2.05632e-07
7.80404e-09
-2.08523e-07
6.8396e-09
-2.10996e-07
5.85021e-09
-2.1304e-07
4.83918e-09
-2.14649e-07
3.80988e-09
-2.15816e-07
2.7657e-09
-2.16537e-07
1.71008e-09
-2.16807e-07
6.4651e-10
-2.16625e-07
-4.21476e-10
-2.15992e-07
-1.49031e-09
-2.14907e-07
-2.55635e-09
-2.13374e-07
-3.61592e-09
-2.11398e-07
-4.66532e-09
-2.08984e-07
-5.70078e-09
-2.06139e-07
-6.71849e-09
-2.02874e-07
-7.71464e-09
-1.99198e-07
-8.68535e-09
-1.95125e-07
-9.62676e-09
-1.90668e-07
-1.05349e-08
-1.85844e-07
-1.1406e-08
-1.80669e-07
-1.22361e-08
-1.75162e-07
-1.30212e-08
-1.69345e-07
-1.37575e-08
-1.63239e-07
-1.44413e-08
-1.56869e-07
-1.50687e-08
-1.50259e-07
-1.5636e-08
-1.43436e-07
-1.61396e-08
-1.3643e-07
-1.6576e-08
-1.29269e-07
-1.69419e-08
-1.21984e-07
-1.72339e-08
-1.14608e-07
-1.7449e-08
-1.07174e-07
-1.75843e-08
-9.97169e-08
-1.76371e-08
-9.22721e-08
-1.7605e-08
-8.48758e-08
-1.74858e-08
-7.75651e-08
-1.72778e-08
-7.03775e-08
-1.69794e-08
-6.3351e-08
-1.65895e-08
-5.65235e-08
-1.61075e-08
-4.9933e-08
-1.55334e-08
-4.36172e-08
-1.48677e-08
-3.76128e-08
-1.41115e-08
-3.19557e-08
-1.32671e-08
-2.66802e-08
-1.23376e-08
-2.18184e-08
-1.13274e-08
-1.73998e-08
-1.02424e-08
-1.34502e-08
-9.09057e-09
-9.99089e-09
-7.88245e-09
-7.03719e-09
-6.63174e-09
-4.59701e-09
-5.35645e-09
-2.66877e-09
-4.08021e-09
-1.23901e-09
-2.83412e-09
-2.79393e-10
-1.65916e-09
2.56779e-10
-6.0934e-10
4.38708e-10
2.4442e-10
3.62517e-10
8.10547e-10
1.56994e-10
9.72981e-10
5.78585e-10
7.49867e-11
-6.37141e-10
6.83568e-11
-8.95878e-10
-1.87474e-10
-4.24547e-10
-8.1636e-10
5.71466e-10
-1.91056e-09
1.93938e-09
-3.53593e-09
3.55825e-09
-5.73602e-09
5.3335e-09
-8.53573e-09
7.19222e-09
-1.19446e-08
9.07855e-09
-1.59596e-08
1.09497e-08
-2.05674e-08
1.27732e-08
-2.5747e-08
1.45241e-08
-3.14704e-08
1.61838e-08
-3.77053e-08
1.77383e-08
-4.44151e-08
1.91773e-08
-5.15604e-08
2.04934e-08
-5.91e-08
2.16814e-08
-6.69909e-08
2.27382e-08
-7.51893e-08
2.36618e-08
-8.36511e-08
2.44517e-08
-9.23317e-08
2.51081e-08
-1.01187e-07
2.56323e-08
-1.10173e-07
2.60259e-08
-1.19246e-07
2.62913e-08
-1.28365e-07
2.64311e-08
-1.37487e-07
2.64485e-08
-1.46572e-07
2.63469e-08
-1.55581e-07
2.61298e-08
-1.64475e-07
2.58012e-08
-1.73218e-07
2.53649e-08
-1.81774e-07
2.48252e-08
-1.90109e-07
2.41863e-08
-1.98191e-07
2.34525e-08
-2.05989e-07
2.26283e-08
-2.13472e-07
2.17182e-08
-2.20614e-07
2.07266e-08
-2.27387e-07
1.96584e-08
-2.33766e-07
1.85181e-08
-2.3973e-07
1.73104e-08
-2.45255e-07
1.60401e-08
-2.50322e-07
1.4712e-08
-2.54912e-07
1.3331e-08
-2.5901e-07
1.1902e-08
-2.62601e-07
1.043e-08
-2.65671e-07
8.91992e-09
-2.68208e-07
7.3769e-09
-2.70204e-07
5.80606e-09
-2.71651e-07
4.21261e-09
-2.72543e-07
2.60181e-09
-2.72876e-07
9.79e-10
-2.72647e-07
-6.5042e-10
-2.71856e-07
-2.28098e-09
-2.70505e-07
-3.90713e-09
-2.68598e-07
-5.52327e-09
-2.66139e-07
-7.12372e-09
-2.63137e-07
-8.70274e-09
-2.59601e-07
-1.02545e-08
-2.55543e-07
-1.17733e-08
-2.50975e-07
-1.32531e-08
-2.45914e-07
-1.46881e-08
-2.40376e-07
-1.60723e-08
-2.34382e-07
-1.73999e-08
-2.27954e-07
-1.86648e-08
-2.21114e-07
-1.98612e-08
-2.13888e-07
-2.09832e-08
-2.06304e-07
-2.20252e-08
-1.98391e-07
-2.29812e-08
-1.90181e-07
-2.38459e-08
-1.81707e-07
-2.46138e-08
-1.73004e-07
-2.52795e-08
-1.64108e-07
-2.5838e-08
-1.55057e-07
-2.62844e-08
-1.45892e-07
-2.66142e-08
-1.36653e-07
-2.68231e-08
-1.27383e-07
-2.69072e-08
-1.18125e-07
-2.68629e-08
-1.08924e-07
-2.66871e-08
-9.98245e-08
-2.63771e-08
-9.08728e-08
-2.59311e-08
-8.21148e-08
-2.53475e-08
-7.35967e-08
-2.46257e-08
-6.53643e-08
-2.37658e-08
-5.7463e-08
-2.2769e-08
-4.99369e-08
-2.16376e-08
-4.28289e-08
-2.03752e-08
-3.61797e-08
-1.89869e-08
-3.00271e-08
-1.74799e-08
-2.44057e-08
-1.58637e-08
-1.93455e-08
-1.41508e-08
-1.48709e-08
-1.23571e-08
-1.09992e-08
-1.05034e-08
-7.7393e-09
-8.61637e-09
-5.08932e-09
-6.73019e-09
-3.03461e-09
-4.88883e-09
-1.54495e-09
-3.14882e-09
-5.71582e-10
-1.5827e-09
-4.37569e-11
-2.83404e-10
1.35134e-10
6.31653e-10
9.27217e-11
1.0154e-09
6.71313e-10
-1.18071e-11
-6.25342e-10
-2.37328e-10
-6.70363e-10
-8.24089e-10
1.6221e-10
-1.88527e-09
1.63264e-09
-3.50664e-09
3.56076e-09
-5.75021e-09
5.80183e-09
-8.65728e-09
8.24057e-09
-1.22513e-08
1.07863e-08
-1.65406e-08
1.33678e-08
-2.15206e-08
1.59297e-08
-2.71762e-08
1.84287e-08
-3.34835e-08
2.08314e-08
-4.04115e-08
2.31118e-08
-4.79238e-08
2.52505e-08
-5.59793e-08
2.72327e-08
-6.45334e-08
2.90475e-08
-7.35393e-08
3.06873e-08
-8.2948e-08
3.21469e-08
-9.27094e-08
3.34232e-08
-1.02773e-07
3.45148e-08
-1.13086e-07
3.54219e-08
-1.23599e-07
3.61454e-08
-1.34261e-07
3.66876e-08
-1.45021e-07
3.70512e-08
-1.5583e-07
3.72399e-08
-1.66639e-07
3.72577e-08
-1.77401e-07
3.71091e-08
-1.8807e-07
3.6799e-08
-1.98602e-07
3.63326e-08
-2.08952e-07
3.57154e-08
-2.1908e-07
3.49531e-08
-2.28945e-07
3.40516e-08
-2.3851e-07
3.30169e-08
-2.47737e-07
3.18551e-08
-2.56591e-07
3.05726e-08
-2.6504e-07
2.91756e-08
-2.73052e-07
2.76708e-08
-2.80599e-07
2.60645e-08
-2.87652e-07
2.43635e-08
-2.94187e-07
2.25745e-08
-3.00179e-07
2.07042e-08
-3.05607e-07
1.87594e-08
-3.10452e-07
1.67472e-08
-3.14697e-07
1.46744e-08
-3.18325e-07
1.25482e-08
-3.21324e-07
1.03757e-08
-3.23682e-07
8.16412e-09
-3.2539e-07
5.92087e-09
-3.26442e-07
3.65335e-09
-3.26832e-07
1.36908e-09
-3.26558e-07
-9.2433e-10
-3.2562e-07
-3.21917e-09
-3.24019e-07
-5.50762e-09
-3.21761e-07
-7.78179e-09
-3.18851e-07
-1.00337e-08
-3.15298e-07
-1.22553e-08
-3.11114e-07
-1.44384e-08
-3.06313e-07
-1.65749e-08
-3.00909e-07
-1.86564e-08
-2.94923e-07
-2.06748e-08
-2.88373e-07
-2.26216e-08
-2.81285e-07
-2.44887e-08
-2.73682e-07
-2.62676e-08
-2.65593e-07
-2.79502e-08
-2.57048e-07
-2.95283e-08
-2.48079e-07
-3.09939e-08
-2.38721e-07
-3.2339e-08
-2.29011e-07
-3.35558e-08
-2.18988e-07
-3.46369e-08
-2.08693e-07
-3.55748e-08
-1.98168e-07
-3.63626e-08
-1.87459e-07
-3.69935e-08
-1.76612e-07
-3.74614e-08
-1.65675e-07
-3.77602e-08
-1.54697e-07
-3.78848e-08
-1.4373e-07
-3.78303e-08
-1.32824e-07
-3.75925e-08
-1.22034e-07
-3.71681e-08
-1.1141e-07
-3.65544e-08
-1.01008e-07
-3.57498e-08
-9.08797e-08
-3.47537e-08
-8.10789e-08
-3.35667e-08
-7.16572e-08
-3.21907e-08
-6.26654e-08
-3.06294e-08
-5.41523e-08
-2.88882e-08
-4.61642e-08
-2.6975e-08
-3.87441e-08
-2.49e-08
-3.19309e-08
-2.2677e-08
-2.57582e-08
-2.03235e-08
-2.02533e-08
-1.78619e-08
-1.5436e-08
-1.53208e-08
-1.13165e-08
-1.27359e-08
-7.89391e-09
-1.01527e-08
-5.1544e-09
-7.62835e-09
-3.06852e-09
-5.23469e-09
-1.58904e-09
-3.06218e-09
-6.48137e-10
-1.22431e-09
-1.54458e-10
1.37978e-10
1.05748e-11
8.50373e-10
6.81885e-10
-1.07456e-10
-5.17886e-10
-5.78054e-10
-1.99758e-10
-1.53413e-09
1.11828e-09
-3.07298e-09
3.1715e-09
-5.26965e-09
5.75742e-09
-8.17874e-09
8.71092e-09
-1.18364e-08
1.18982e-08
-1.62623e-08
1.52122e-08
-2.14618e-08
1.85673e-08
-2.74276e-08
2.18956e-08
-3.41419e-08
2.5143e-08
-4.15779e-08
2.82673e-08
-4.97012e-08
3.12352e-08
-5.84717e-08
3.4021e-08
-6.7844e-08
3.6605e-08
-7.77692e-08
3.89727e-08
-8.81951e-08
4.11133e-08
-9.90677e-08
4.30194e-08
-1.10331e-07
4.46866e-08
-1.21929e-07
4.61123e-08
-1.33803e-07
4.72962e-08
-1.45897e-07
4.82392e-08
-1.58153e-07
4.89437e-08
-1.70515e-07
4.94132e-08
-1.82927e-07
4.96519e-08
-1.95334e-07
4.9665e-08
-2.07683e-07
4.94582e-08
-2.19922e-07
4.90378e-08
-2.32e-07
4.84104e-08
-2.43868e-07
4.75832e-08
-2.55478e-07
4.65635e-08
-2.66786e-07
4.53591e-08
-2.77747e-07
4.39779e-08
-2.88319e-07
4.24279e-08
-2.98464e-07
4.07174e-08
-3.08144e-07
3.88549e-08
-3.17322e-07
3.6849e-08
-3.25965e-07
3.47082e-08
-3.34043e-07
3.24415e-08
-3.41526e-07
3.00576e-08
-3.48388e-07
2.75657e-08
-3.54603e-07
2.49748e-08
-3.6015e-07
2.22941e-08
-3.65009e-07
1.95329e-08
-3.69161e-07
1.67008e-08
-3.72593e-07
1.38072e-08
-3.7529e-07
1.08618e-08
-3.77244e-07
7.87433e-09
-3.78445e-07
4.85475e-09
-3.78889e-07
1.81305e-09
-3.78573e-07
-1.24061e-09
-3.77496e-07
-4.29596e-09
-3.75661e-07
-7.34262e-09
-3.73073e-07
-1.03701e-08
-3.69739e-07
-1.33677e-08
-3.65669e-07
-1.63248e-08
-3.60877e-07
-1.92305e-08
-3.55378e-07
-2.2074e-08
-3.4919e-07
-2.48442e-08
-3.42335e-07
-2.75303e-08
-3.34835e-07
-3.01212e-08
-3.26718e-07
-3.2606e-08
-3.18012e-07
-3.49735e-08
-3.08749e-07
-3.7213e-08
-2.98964e-07
-3.93137e-08
-2.88693e-07
-4.12649e-08
-2.77976e-07
-4.30563e-08
-2.66854e-07
-4.46774e-08
-2.55372e-07
-4.61186e-08
-2.43577e-07
-4.737e-08
-2.31517e-07
-4.84227e-08
-2.19243e-07
-4.92678e-08
-2.06807e-07
-4.98971e-08
-1.94264e-07
-5.03031e-08
-1.8167e-07
-5.04789e-08
-1.69082e-07
-5.04183e-08
-1.56558e-07
-5.01162e-08
-1.44158e-07
-4.95682e-08
-1.31941e-07
-4.87713e-08
-1.19968e-07
-4.77236e-08
-1.08297e-07
-4.64247e-08
-9.69877e-08
-4.48756e-08
-8.60987e-08
-4.30797e-08
-7.56862e-08
-4.10419e-08
-6.58043e-08
-3.87701e-08
-5.65044e-08
-3.6275e-08
-4.78338e-08
-3.35706e-08
-3.98356e-08
-3.06752e-08
-3.2547e-08
-2.76121e-08
-2.59985e-08
-2.44105e-08
-2.02122e-08
-2.1107e-08
-1.52009e-08
-1.77472e-08
-1.0966e-08
-1.43876e-08
-7.49611e-09
-1.10983e-08
-4.76492e-09
-7.96587e-09
-2.72964e-09
-5.09747e-09
-1.32885e-09
-2.62509e-09
-4.80726e-10
-7.10141e-10
-8.09981e-11
4.50638e-10
6.0088e-10
-2.06901e-10
-3.10994e-10
-9.37002e-10
5.30339e-10
-2.28584e-09
2.4671e-09
-4.33197e-09
5.21763e-09
-7.13679e-09
8.56224e-09
-1.07449e-08
1.2319e-08
-1.5185e-08
1.63383e-08
-2.04709e-08
2.04982e-08
-2.66036e-08
2.46999e-08
-3.35717e-08
2.88637e-08
-4.1354e-08
3.29253e-08
-4.992e-08
3.68333e-08
-5.9232e-08
4.05472e-08
-6.92459e-08
4.40349e-08
-7.99124e-08
4.72716e-08
-9.11782e-08
5.02385e-08
-1.02987e-07
5.29218e-08
-1.15279e-07
5.53116e-08
-1.27994e-07
5.74016e-08
-1.4107e-07
5.91881e-08
-1.54444e-07
6.06701e-08
-1.68053e-07
6.18483e-08
-1.81834e-07
6.27253e-08
-1.95726e-07
6.33049e-08
-2.09667e-07
6.35924e-08
-2.23595e-07
6.35939e-08
-2.37453e-07
6.33163e-08
-2.51183e-07
6.27674e-08
-2.64728e-07
6.19554e-08
-2.78034e-07
6.08892e-08
-2.91049e-07
5.95781e-08
-3.03721e-07
5.80317e-08
-3.16003e-07
5.62599e-08
-3.27849e-07
5.42731e-08
-3.39213e-07
5.20817e-08
-3.50054e-07
4.96963e-08
-3.60333e-07
4.71279e-08
-3.70012e-07
4.43875e-08
-3.79057e-07
4.14863e-08
-3.87435e-07
3.84356e-08
-3.95117e-07
3.5247e-08
-4.02074e-07
3.19321e-08
-4.08282e-07
2.85026e-08
-4.1372e-07
2.49705e-08
-4.18367e-07
2.13478e-08
-4.22206e-07
1.76467e-08
-4.25224e-07
1.38796e-08
-4.27409e-07
1.0059e-08
-4.28752e-07
6.19759e-09
-4.29247e-07
2.30811e-09
-4.28891e-07
-1.59644e-09
-4.27684e-07
-5.50293e-09
-4.25629e-07
-9.39809e-09
-4.2273e-07
-1.32685e-08
-4.18997e-07
-1.71006e-08
-4.14441e-07
-2.08807e-08
-4.09077e-07
-2.45951e-08
-4.02921e-07
-2.82297e-08
-3.95994e-07
-3.17708e-08
-3.8832e-07
-3.52043e-08
-3.79925e-07
-3.85162e-08
-3.70839e-07
-4.16926e-08
-3.61093e-07
-4.47194e-08
-3.50723e-07
-4.75829e-08
-3.39767e-07
-5.02694e-08
-3.28267e-07
-5.27654e-08
-3.16265e-07
-5.50576e-08
-3.0381e-07
-5.71333e-08
-2.90948e-07
-5.89798e-08
-2.77733e-07
-6.0585e-08
-2.64219e-07
-6.19374e-08
-2.5046e-07
-6.30261e-08
-2.36517e-07
-6.38408e-08
-2.22448e-07
-6.43721e-08
-2.08315e-07
-6.46114e-08
-1.94182e-07
-6.45511e-08
-1.80113e-07
-6.4185e-08
-1.66174e-07
-6.3508e-08
-1.52429e-07
-6.25163e-08
-1.38944e-07
-6.1208e-08
-1.25786e-07
-5.9583e-08
-1.13018e-07
-5.76431e-08
-1.00705e-07
-5.53928e-08
-8.89081e-08
-5.28391e-08
-7.7686e-08
-4.99922e-08
-6.70948e-08
-4.68661e-08
-5.71864e-08
-4.34789e-08
-4.80077e-08
-3.98539e-08
-3.95995e-08
-3.60202e-08
-3.19957e-08
-3.20143e-08
-2.52218e-08
-2.78809e-08
-1.92937e-08
-2.36753e-08
-1.42164e-08
-1.94649e-08
-9.98253e-09
-1.53322e-08
-6.57092e-09
-1.13775e-08
-3.94548e-09
-7.72292e-09
-2.05385e-09
-4.51672e-09
-8.26614e-10
-1.93738e-09
-1.76814e-10
-1.99174e-10
4.24065e-10
-3.07137e-10
-3.85764e-12
-1.30326e-09
1.52647e-09
-3.05755e-09
4.22139e-09
-5.6286e-09
7.78868e-09
-9.06246e-09
1.19961e-08
-1.33919e-08
1.66484e-08
-1.86363e-08
2.15827e-08
-2.48024e-08
2.66643e-08
-3.18848e-08
3.17824e-08
-3.98676e-08
3.68465e-08
-4.87249e-08
4.17825e-08
-5.84221e-08
4.65306e-08
-6.89176e-08
5.10427e-08
-8.01634e-08
5.52806e-08
-9.21061e-08
5.92143e-08
-1.04688e-07
6.28207e-08
-1.17849e-07
6.60824e-08
-1.31524e-07
6.89871e-08
-1.45649e-07
7.15265e-08
-1.60157e-07
7.36955e-08
-1.74979e-07
7.54924e-08
-1.90048e-07
7.69175e-08
-2.05296e-07
7.79735e-08
-2.20656e-07
7.86649e-08
-2.36061e-07
7.89974e-08
-2.51446e-07
7.89784e-08
-2.66746e-07
7.8616e-08
-2.81898e-07
7.79195e-08
-2.96841e-07
7.68989e-08
-3.11517e-07
7.55649e-08
-3.25867e-07
7.39287e-08
-3.39838e-07
7.2002e-08
-3.53375e-07
6.97971e-08
-3.66428e-07
6.73265e-08
-3.7895e-07
6.4603e-08
-3.90893e-07
6.16399e-08
-4.02216e-07
5.84504e-08
-4.12876e-07
5.50482e-08
-4.22837e-07
5.14471e-08
-4.32063e-07
4.76612e-08
-4.4052e-07
4.37046e-08
-4.4818e-07
3.95918e-08
-4.55015e-07
3.53374e-08
-4.61e-07
3.0956e-08
-4.66115e-07
2.64627e-08
-4.70341e-07
2.18725e-08
-4.73662e-07
1.72008e-08
-4.76066e-07
1.2463e-08
-4.77544e-07
7.67488e-09
-4.78088e-07
2.85225e-09
-4.77695e-07
-1.9888e-09
-4.76366e-07
-6.83204e-09
-4.74103e-07
-1.1661e-08
-4.70913e-07
-1.64591e-08
-4.66804e-07
-2.12096e-08
-4.61789e-07
-2.58956e-08
-4.55884e-07
-3.04999e-08
-4.49108e-07
-3.50055e-08
-4.41484e-07
-3.93952e-08
-4.33037e-07
-4.36517e-08
-4.23795e-07
-4.77577e-08
-4.13792e-07
-5.16959e-08
-4.03062e-07
-5.54493e-08
-3.91644e-07
-5.90008e-08
-3.7958e-07
-6.23336e-08
-3.66914e-07
-6.54311e-08
-3.53695e-07
-6.82771e-08
-3.39972e-07
-7.08557e-08
-3.258e-07
-7.31516e-08
-3.11235e-07
-7.515e-08
-2.96336e-07
-7.68368e-08
-2.81163e-07
-7.81988e-08
-2.65781e-07
-7.92233e-08
-2.50254e-07
-7.98991e-08
-2.34649e-07
-8.02159e-08
-2.19036e-07
-8.01645e-08
-2.03483e-07
-7.97375e-08
-1.88062e-07
-7.8929e-08
-1.72844e-07
-7.77347e-08
-1.57899e-07
-7.61527e-08
-1.43299e-07
-7.41831e-08
-1.29114e-07
-7.18288e-08
-1.15411e-07
-6.90954e-08
-1.02258e-07
-6.59923e-08
-8.97178e-08
-6.25322e-08
-7.78514e-08
-5.87325e-08
-6.67145e-08
-5.46158e-08
-5.63582e-08
-5.02103e-08
-4.6827e-08
-4.55514e-08
-3.81588e-08
-4.06825e-08
-3.03829e-08
-3.56569e-08
-2.35193e-08
-3.05388e-08
-1.75778e-08
-2.54065e-08
-1.25563e-08
-2.03537e-08
-8.44041e-09
-1.54933e-08
-5.20251e-09
-1.09608e-08
-2.80111e-09
-6.91812e-09
-1.18097e-09
-3.55752e-09
-2.73758e-10
-1.1064e-09
1.5031e-10
-4.06398e-10
4.0253e-10
-1.66991e-09
2.78998e-09
-3.83477e-09
6.38626e-09
-6.93954e-09
1.08935e-08
-1.10141e-08
1.60707e-08
-1.60783e-08
2.17126e-08
-2.21409e-08
2.76453e-08
-2.92002e-08
3.37236e-08
-3.72438e-08
3.98261e-08
-4.62497e-08
4.58523e-08
-5.61866e-08
5.17194e-08
-6.70155e-08
5.73595e-08
-7.86902e-08
6.27174e-08
-9.11585e-08
6.77488e-08
-1.04363e-07
7.24186e-08
-1.18241e-07
7.66993e-08
-1.32729e-07
8.05702e-08
-1.47758e-07
8.40162e-08
-1.63259e-07
8.70268e-08
-1.79159e-07
8.95958e-08
-1.95387e-07
9.17204e-08
-2.1187e-07
9.34006e-08
-2.28536e-07
9.46391e-08
-2.45312e-07
9.54409e-08
-2.62127e-07
9.58124e-08
-2.7891e-07
9.57621e-08
-2.95594e-07
9.52995e-08
-3.1211e-07
9.44354e-08
-3.28393e-07
9.31816e-08
-3.44378e-07
9.15507e-08
-3.60006e-07
8.9556e-08
-3.75215e-07
8.72116e-08
-3.8995e-07
8.45318e-08
-4.04155e-07
8.15319e-08
-4.17779e-07
7.8227e-08
-4.30773e-07
7.46331e-08
-4.43089e-07
7.07663e-08
-4.54683e-07
6.66428e-08
-4.65515e-07
6.22793e-08
-4.75547e-07
5.76928e-08
-4.84743e-07
5.29004e-08
-4.9307e-07
4.79195e-08
-5.00501e-07
4.27677e-08
-5.07007e-07
3.74627e-08
-5.12568e-07
3.20227e-08
-5.17161e-07
2.64659e-08
-5.20771e-07
2.08109e-08
-5.23384e-07
1.50762e-08
-5.2499e-07
9.28096e-09
-5.25582e-07
3.44426e-09
-5.25157e-07
-2.41447e-09
-5.23713e-07
-8.27559e-09
-5.21255e-07
-1.41193e-08
-5.17788e-07
-1.99255e-08
-5.13324e-07
-2.5674e-08
-5.07875e-07
-3.13444e-08
-5.01459e-07
-3.69161e-08
-4.94096e-07
-4.23685e-08
-4.85811e-07
-4.76808e-08
-4.7663e-07
-5.28323e-08
-4.66586e-07
-5.78021e-08
-4.55712e-07
-6.25695e-08
-4.44048e-07
-6.71139e-08
-4.31634e-07
-7.14149e-08
-4.18515e-07
-7.54522e-08
-4.0474e-07
-7.92059e-08
-3.9036e-07
-8.26567e-08
-3.75431e-07
-8.57856e-08
-3.60008e-07
-8.85741e-08
-3.44153e-07
-9.10047e-08
-3.2793e-07
-9.30605e-08
-3.11403e-07
-9.47256e-08
-2.94641e-07
-9.59854e-08
-2.77714e-07
-9.68263e-08
-2.60693e-07
-9.72361e-08
-2.43654e-07
-9.72043e-08
-2.26669e-07
-9.67221e-08
-2.09815e-07
-9.57827e-08
-1.93169e-07
-9.43815e-08
-1.76805e-07
-9.25163e-08
-1.608e-07
-9.01879e-08
-1.45229e-07
-8.74e-08
-1.30164e-07
-8.41598e-08
-1.15678e-07
-8.04787e-08
-1.01838e-07
-7.63725e-08
-8.87082e-08
-7.1862e-08
-7.63499e-08
-6.6974e-08
-6.48179e-08
-6.17423e-08
-5.41611e-08
-5.62081e-08
-4.44215e-08
-5.04221e-08
-3.56331e-08
-4.44453e-08
-2.78209e-08
-3.83511e-08
-2.10001e-08
-3.22273e-08
-1.51754e-08
-2.61783e-08
-1.03404e-08
-2.03283e-08
-6.47697e-09
-1.48242e-08
-3.5558e-09
-9.83929e-09
-1.53665e-09
-5.57667e-09
-3.69993e-10
-2.27305e-09
-2.19684e-10
-5.03726e-10
9.06254e-10
-2.03266e-09
4.3189e-09
-4.60805e-09
8.96164e-09
-8.249e-09
1.45344e-08
-1.29691e-08
2.07908e-08
-1.87745e-08
2.7518e-08
-2.56629e-08
3.45338e-08
-3.3623e-08
4.16837e-08
-4.26344e-08
4.88375e-08
-5.26682e-08
5.58861e-08
-6.36874e-08
6.27386e-08
-7.56474e-08
6.93195e-08
-8.84973e-08
7.55673e-08
-1.0218e-07
8.14317e-08
-1.16634e-07
8.68726e-08
-1.31793e-07
9.18584e-08
-1.47588e-07
9.6365e-08
-1.63946e-07
1.00374e-07
-1.80794e-07
1.03874e-07
-1.98055e-07
1.06857e-07
-2.15653e-07
1.09319e-07
-2.33511e-07
1.11259e-07
-2.51553e-07
1.12681e-07
-2.69701e-07
1.13589e-07
-2.8788e-07
1.13991e-07
-3.06015e-07
1.13897e-07
-3.24033e-07
1.13318e-07
-3.41862e-07
1.12265e-07
-3.59433e-07
1.10753e-07
-3.76678e-07
1.08796e-07
-3.93531e-07
1.06409e-07
-4.09929e-07
1.0361e-07
-4.25812e-07
1.00414e-07
-4.4112e-07
9.68405e-08
-4.558e-07
9.29064e-08
-4.69797e-07
8.86306e-08
-4.83063e-07
8.4032e-08
-4.9555e-07
7.91299e-08
-5.07215e-07
7.39441e-08
-5.18017e-07
6.84944e-08
-5.27917e-07
6.28013e-08
-5.36883e-07
5.68851e-08
-5.44882e-07
5.07667e-08
-5.51886e-07
4.44673e-08
-5.57872e-07
3.80082e-08
-5.62817e-07
3.1411e-08
-5.66704e-07
2.46976e-08
-5.69518e-07
1.78903e-08
-5.71248e-07
1.10114e-08
-5.71888e-07
4.08364e-09
-5.71432e-07
-2.86997e-09
-5.69882e-07
-9.82622e-09
-5.67239e-07
-1.67616e-08
-5.63512e-07
-2.36525e-08
-5.58711e-07
-3.04749e-08
-5.52851e-07
-3.72046e-08
-5.4595e-07
-4.38175e-08
-5.38029e-07
-5.02891e-08
-5.29115e-07
-5.65948e-08
-5.19237e-07
-6.27103e-08
-5.08428e-07
-6.86108e-08
-4.96726e-07
-7.4272e-08
-4.8417e-07
-7.96695e-08
-4.70806e-07
-8.47793e-08
-4.5668e-07
-8.95776e-08
-4.41845e-07
-9.40409e-08
-4.26356e-07
-9.81464e-08
-4.10269e-07
-1.01872e-07
-3.93648e-07
-1.05196e-07
-3.76555e-07
-1.08097e-07
-3.59059e-07
-1.10557e-07
-3.41229e-07
-1.12556e-07
-3.23138e-07
-1.14077e-07
-3.04859e-07
-1.15105e-07
-2.86471e-07
-1.15625e-07
-2.6805e-07
-1.15625e-07
-2.49676e-07
-1.15096e-07
-2.31429e-07
-1.14029e-07
-2.13391e-07
-1.1242e-07
-1.95642e-07
-1.10265e-07
-1.78263e-07
-1.07568e-07
-1.61332e-07
-1.04331e-07
-1.44928e-07
-1.00564e-07
-1.29126e-07
-9.62808e-08
-1.13998e-07
-9.14996e-08
-9.96153e-08
-8.62451e-08
-8.60408e-08
-8.05485e-08
-7.33346e-08
-7.44485e-08
-6.15502e-08
-6.79925e-08
-5.07343e-08
-6.12379e-08
-4.09262e-08
-5.42534e-08
-3.21566e-08
-4.71207e-08
-2.44472e-08
-3.99367e-08
-1.78101e-08
-3.28154e-08
-1.22478e-08
-2.58907e-08
-7.75274e-09
-1.93193e-08
-4.3082e-09
-1.32838e-08
-1.8892e-09
-7.99568e-09
-4.64479e-10
-3.69777e-09
-6.84168e-10
-5.98596e-10
1.50485e-09
-2.38897e-09
6.10929e-09
-5.37143e-09
1.19441e-08
-9.54663e-09
1.87096e-08
-1.49121e-08
2.61563e-08
-2.14602e-08
3.40662e-08
-2.9177e-08
4.22505e-08
-3.80409e-08
5.05475e-08
-4.8023e-08
5.88196e-08
-5.90868e-08
6.695e-08
-7.11887e-08
7.48405e-08
-8.42784e-08
8.24092e-08
-9.82995e-08
8.95883e-08
-1.1319e-07
9.63223e-08
-1.28884e-07
1.02566e-07
-1.4531e-07
1.08285e-07
-1.62395e-07
1.1345e-07
-1.80063e-07
1.18042e-07
-1.98234e-07
1.22046e-07
-2.1683e-07
1.25453e-07
-2.35769e-07
1.28258e-07
-2.5497e-07
1.3046e-07
-2.74353e-07
1.32063e-07
-2.93836e-07
1.33072e-07
-3.1334e-07
1.33495e-07
-3.32786e-07
1.33343e-07
-3.52097e-07
1.32629e-07
-3.71197e-07
1.31365e-07
-3.90013e-07
1.29569e-07
-4.08473e-07
1.27256e-07
-4.26508e-07
1.24444e-07
-4.44051e-07
1.21153e-07
-4.61038e-07
1.17401e-07
-4.77408e-07
1.1321e-07
-4.93102e-07
1.086e-07
-5.08064e-07
1.03593e-07
-5.22242e-07
9.82098e-08
-5.35586e-07
9.24739e-08
-5.4805e-07
8.64078e-08
-5.5959e-07
8.00348e-08
-5.70167e-07
7.33784e-08
-5.79744e-07
6.64626e-08
-5.88289e-07
5.93115e-08
-5.95772e-07
5.19498e-08
-6.02166e-07
4.44023e-08
-6.07449e-07
3.66941e-08
-6.11602e-07
2.88509e-08
-6.1461e-07
2.08985e-08
-6.16462e-07
1.28629e-08
-6.17149e-07
4.77058e-09
-6.16667e-07
-3.35165e-09
-6.15017e-07
-1.14768e-08
-6.12201e-07
-1.95775e-08
-6.08227e-07
-2.76262e-08
-6.03107e-07
-3.5595e-08
-5.96856e-07
-4.34559e-08
-5.89493e-07
-5.11807e-08
-5.81041e-07
-5.87409e-08
-5.71527e-07
-6.61082e-08