/*--------------------------------*- C++ -*----------------------------------*\
| =========                 |                                                 |
| \\      /  F ield         | OpenFOAM: The Open Source CFD Toolbox           |
|  \\    /   O peration     | Version:  2212                                  |
|   \\  /    A nd           | Website:  www.openfoam.com                      |
|    \\/     M anipulation  |                                                 |
\*---------------------------------------------------------------------------*/
FoamFile
{
    version     2.0;
    format      ascii;
    arch        "LSB;label=32;scalar=64";
    class       volVectorField;
    location    "0.0515";
    object      U;
}
// * * * * * * * * * * * * * * * * * * * * * * * * * * * * * * * * * * * * * //

dimensions      [0 1 -1 0 0 0 0];

internalField   nonuniform List<vector> 
10000
(
(2.78798e-06 -2.8677e-06 0)
(1.38856e-05 -7.4484e-06 0)
(3.16753e-05 -8.62683e-06 0)
(4.82774e-05 -7.3039e-06 0)
(5.88832e-05 -4.77762e-06 0)
(6.12409e-05 -1.7342e-06 0)
(5.43139e-05 1.47815e-06 0)
(3.76743e-05 4.6998e-06 0)
(1.12883e-05 7.82385e-06 0)
(-2.46367e-05 1.08044e-05 0)
(-6.9729e-05 1.3617e-05 0)
(-0.000123521 1.62386e-05 0)
(-0.000185472 1.86623e-05 0)
(-0.000254993 2.08843e-05 0)
(-0.000331476 2.28996e-05 0)
(-0.000414287 2.47117e-05 0)
(-0.000502788 2.63251e-05 0)
(-0.000596343 2.77385e-05 0)
(-0.000694315 2.89571e-05 0)
(-0.000796075 2.99877e-05 0)
(-0.000901008 3.0835e-05 0)
(-0.00100851 3.15035e-05 0)
(-0.00111799 3.19998e-05 0)
(-0.00122888 3.23286e-05 0)
(-0.00134061 3.24938e-05 0)
(-0.00145265 3.25022e-05 0)
(-0.00156448 3.23618e-05 0)
(-0.00167559 3.20782e-05 0)
(-0.0017855 3.1656e-05 0)
(-0.00189374 3.1102e-05 0)
(-0.00199988 3.04239e-05 0)
(-0.00210348 2.96272e-05 0)
(-0.00220415 2.87159e-05 0)
(-0.00230149 2.76955e-05 0)
(-0.00239514 2.65727e-05 0)
(-0.00248475 2.53531e-05 0)
(-0.00257 2.40422e-05 0)
(-0.00265057 2.26458e-05 0)
(-0.0027262 2.11707e-05 0)
(-0.00279659 1.9622e-05 0)
(-0.00286152 1.80037e-05 0)
(-0.00292074 1.63222e-05 0)
(-0.00297406 1.45845e-05 0)
(-0.00302128 1.27969e-05 0)
(-0.00306223 1.09648e-05 0)
(-0.00309678 9.09173e-06 0)
(-0.00312479 7.18327e-06 0)
(-0.00314616 5.24748e-06 0)
(-0.0031608 3.29081e-06 0)
(-0.00316865 1.31877e-06 0)
(-0.00316967 -6.62051e-07 0)
(-0.00316384 -2.64585e-06 0)
(-0.00315116 -4.62725e-06 0)
(-0.00313165 -6.59919e-06 0)
(-0.00310536 -8.55463e-06 0)
(-0.00307237 -1.04873e-05 0)
(-0.00303277 -1.23899e-05 0)
(-0.00298668 -1.42544e-05 0)
(-0.00293424 -1.60747e-05 0)
(-0.00287562 -1.78446e-05 0)
(-0.00281101 -1.9556e-05 0)
(-0.00274063 -2.12008e-05 0)
(-0.00266472 -2.2772e-05 0)
(-0.00258356 -2.4262e-05 0)
(-0.00249744 -2.56634e-05 0)
(-0.00240667 -2.69694e-05 0)
(-0.0023116 -2.81731e-05 0)
(-0.0022126 -2.92658e-05 0)
(-0.00211007 -3.02395e-05 0)
(-0.00200442 -3.10879e-05 0)
(-0.00189609 -3.18045e-05 0)
(-0.00178556 -3.23823e-05 0)
(-0.0016733 -3.28144e-05 0)
(-0.00155983 -3.30946e-05 0)
(-0.00144568 -3.32159e-05 0)
(-0.0013314 -3.31714e-05 0)
(-0.00121755 -3.29562e-05 0)
(-0.00110473 -3.25661e-05 0)
(-0.000993529 -3.1996e-05 0)
(-0.000884564 -3.12399e-05 0)
(-0.000778461 -3.02934e-05 0)
(-0.000675855 -2.91534e-05 0)
(-0.000577388 -2.78173e-05 0)
(-0.000483704 -2.62823e-05 0)
(-0.000395447 -2.4547e-05 0)
(-0.000313256 -2.2612e-05 0)
(-0.000237758 -2.04793e-05 0)
(-0.00016956 -1.81521e-05 0)
(-0.000109241 -1.56354e-05 0)
(-5.73378e-05 -1.29389e-05 0)
(-1.43292e-05 -1.00784e-05 0)
(1.93913e-05 -7.07932e-06 0)
(4.35535e-05 -3.9802e-06 0)
(5.80672e-05 -8.45419e-07 0)
(6.31151e-05 2.21525e-06 0)
(5.92996e-05 5.01134e-06 0)
(4.78472e-05 7.21142e-06 0)
(3.10411e-05 8.22116e-06 0)
(1.34913e-05 7.02377e-06 0)
(2.66097e-06 2.66093e-06 0)
(6.71969e-06 -1.36657e-05 0)
(2.7934e-05 -2.89037e-05 0)
(5.64157e-05 -3.10234e-05 0)
(7.89561e-05 -2.32908e-05 0)
(8.65949e-05 -9.72554e-06 0)
(7.41646e-05 7.00068e-06 0)
(3.86764e-05 2.52893e-05 0)
(-2.14544e-05 4.41293e-05 0)
(-0.000106795 6.28855e-05 0)
(-0.000217166 8.1145e-05 0)
(-0.000351917 9.8633e-05 0)
(-0.000510024 0.000115168 0)
(-0.000690215 0.000130629 0)
(-0.000891058 0.000144929 0)
(-0.00111099 0.000158022 0)
(-0.00134837 0.000169879 0)
(-0.00160151 0.000180486 0)
(-0.0018687 0.000189843 0)
(-0.00214822 0.000197959 0)
(-0.00243835 0.00020485 0)
(-0.00273739 0.000210535 0)
(-0.00304366 0.000215043 0)
(-0.00335552 0.000218401 0)
(-0.00367136 0.00022064 0)
(-0.00398962 0.000221793 0)
(-0.00430876 0.000221894 0)
(-0.00462733 0.000220981 0)
(-0.00494388 0.000219091 0)
(-0.00525705 0.00021626 0)
(-0.00556552 0.000212527 0)
(-0.00586801 0.000207932 0)
(-0.00616331 0.000202513 0)
(-0.00645026 0.000196309 0)
(-0.00672776 0.000189358 0)
(-0.00699476 0.000181701 0)
(-0.00725026 0.000173375 0)
(-0.00749333 0.000164419 0)
(-0.00772308 0.000154874 0)
(-0.0079387 0.000144778 0)
(-0.00813941 0.000134172 0)
(-0.0083245 0.000123093 0)
(-0.00849333 0.00011158 0)
(-0.00864529 9.96746e-05 0)
(-0.00877985 8.74184e-05 0)
(-0.00889652 7.48498e-05 0)
(-0.0089949 6.20094e-05 0)
(-0.0090746 4.89383e-05 0)
(-0.00913535 3.56777e-05 0)
(-0.00917688 2.22709e-05 0)
(-0.00919904 8.76064e-06 0)
(-0.00920169 -4.81035e-06 0)
(-0.00918479 -1.83978e-05 0)
(-0.00914836 -3.19568e-05 0)
(-0.00909245 -4.54431e-05 0)
(-0.00901723 -5.8811e-05 0)
(-0.0089229 -7.20129e-05 0)
(-0.00880973 -8.50011e-05 0)
(-0.00867808 -9.77283e-05 0)
(-0.00852835 -0.000110146 0)
(-0.00836104 -0.000122206 0)
(-0.0081767 -0.000133856 0)
(-0.00797595 -0.000145047 0)
(-0.00775951 -0.000155729 0)
(-0.00752814 -0.000165853 0)
(-0.00728267 -0.000175368 0)
(-0.00702404 -0.000184225 0)
(-0.00675321 -0.000192373 0)
(-0.00647126 -0.000199764 0)
(-0.00617929 -0.000206347 0)
(-0.0058785 -0.000212077 0)
(-0.00557015 -0.000216908 0)
(-0.00525556 -0.000220794 0)
(-0.00493612 -0.000223692 0)
(-0.00461325 -0.00022556 0)
(-0.00428847 -0.00022636 0)
(-0.00396332 -0.000226053 0)
(-0.00363941 -0.000224604 0)
(-0.00331836 -0.000221983 0)
(-0.00300187 -0.000218162 0)
(-0.00269163 -0.000213118 0)
(-0.0023894 -0.000206831 0)
(-0.00209692 -0.000199286 0)
(-0.00181595 -0.000190476 0)
(-0.00154825 -0.0001804 0)
(-0.00129556 -0.000169066 0)
(-0.00105959 -0.000156495 0)
(-0.000841988 -0.000142721 0)
(-0.000644338 -0.000127796 0)
(-0.000468106 -0.000111795 0)
(-0.000314607 -9.48242e-05 0)
(-0.000184952 -7.70348e-05 0)
(-7.99671e-05 -5.86432e-05 0)
(-9.45997e-08 -3.99589e-05 0)
(5.47583e-05 -2.14349e-05 0)
(8.54305e-05 -3.74445e-06 0)
(9.3799e-05 1.20942e-05 0)
(8.3112e-05 2.4539e-05 0)
(5.85221e-05 3.12455e-05 0)
(2.87838e-05 2.87789e-05 0)
(7.01791e-06 1.34821e-05 0)
(7.53603e-06 -3.02391e-05 0)
(2.88969e-05 -5.67602e-05 0)
(5.29843e-05 -5.558e-05 0)
(6.4429e-05 -3.36167e-05 0)
(5.25757e-05 1.89208e-06 0)
(1.07786e-05 4.55985e-05 0)
(-6.52211e-05 9.38476e-05 0)
(-0.000177919 0.00014412 0)
(-0.000328371 0.000194697 0)
(-0.000516609 0.000244368 0)
(-0.000741866 0.000292299 0)
(-0.0010028 0.000337907 0)
(-0.00129767 0.000380768 0)
(-0.00162439 0.000420604 0)
(-0.00198068 0.000457219 0)
(-0.00236409 0.000490487 0)
(-0.00277208 0.000520339 0)
(-0.00320202 0.000546747 0)
(-0.00365128 0.000569703 0)
(-0.00411719 0.000589234 0)
(-0.00459711 0.000605384 0)
(-0.00508841 0.000618207 0)
(-0.00558851 0.000627775 0)
(-0.00609488 0.000634166 0)
(-0.00660505 0.000637466 0)
(-0.00711659 0.000637767 0)
(-0.00762717 0.000635168 0)
(-0.00813451 0.000629768 0)
(-0.00863643 0.00062167 0)
(-0.0091308 0.000610982 0)
(-0.00961561 0.000597811 0)
(-0.0100889 0.000582266 0)
(-0.0105488 0.000564458 0)
(-0.0109936 0.000544498 0)
(-0.0114216 0.000522496 0)
(-0.0118311 0.000498566 0)
(-0.0122207 0.000472819 0)
(-0.012589 0.000445367 0)
(-0.0129345 0.000416325 0)
(-0.0132562 0.000385806 0)
(-0.0135529 0.000353923 0)
(-0.0138234 0.000320792 0)
(-0.0140669 0.000286526 0)
(-0.0142824 0.000251245 0)
(-0.0144693 0.000215064 0)
(-0.0146268 0.0001781 0)
(-0.0147544 0.000140475 0)
(-0.0148515 0.00010231 0)
(-0.0149179 6.37256e-05 0)
(-0.0149531 2.48456e-05 0)
(-0.0149571 -1.42023e-05 0)
(-0.0149297 -5.32923e-05 0)
(-0.0148711 -9.22951e-05 0)
(-0.0147812 -0.000131078 0)
(-0.0146603 -0.00016951 0)
(-0.0145089 -0.000207456 0)
(-0.0143272 -0.000244779 0)
(-0.014116 -0.000281341 0)
(-0.0138758 -0.000317004 0)
(-0.0136075 -0.000351625 0)
(-0.0133119 -0.000385061 0)
(-0.0129901 -0.000417171 0)
(-0.0126432 -0.00044781 0)
(-0.0122725 -0.000476837 0)
(-0.0118792 -0.000504108 0)
(-0.0114648 -0.000529482 0)
(-0.011031 -0.000552817 0)
(-0.0105794 -0.000573973 0)
(-0.0101118 -0.000592812 0)
(-0.00963011 -0.000609204 0)
(-0.00913635 -0.000623017 0)
(-0.00863263 -0.000634124 0)
(-0.00812114 -0.000642406 0)
(-0.00760417 -0.000647748 0)
(-0.00708411 -0.00065004 0)
(-0.0065634 -0.000649181 0)
(-0.00604458 -0.00064508 0)
(-0.00553025 -0.000637655 0)
(-0.00502303 -0.000626835 0)
(-0.00452563 -0.000612563 0)
(-0.00404077 -0.000594796 0)
(-0.00357117 -0.000573507 0)
(-0.00311957 -0.000548691 0)
(-0.00268869 -0.000520365 0)
(-0.00228121 -0.000488579 0)
(-0.00189971 -0.000453414 0)
(-0.00154671 -0.000415 0)
(-0.00122456 -0.000373518 0)
(-0.000935397 -0.000329226 0)
(-0.000681122 -0.000282474 0)
(-0.000463269 -0.000233743 0)
(-0.000282909 -0.000183691 0)
(-0.000140501 -0.000133229 0)
(-3.56982e-05 -8.36171e-05 0)
(3.2914e-05 -3.66231e-05 0)
(6.81428e-05 5.26689e-06 0)
(7.45134e-05 3.85646e-05 0)
(5.87168e-05 5.84577e-05 0)
(3.1364e-05 5.85424e-05 0)
(8.23189e-06 3.10347e-05 0)
(6.50242e-06 -4.55312e-05 0)
(2.16052e-05 -7.81559e-05 0)
(3.12915e-05 -6.67301e-05 0)
(2.01174e-05 -2.25146e-05 0)
(-2.28687e-05 4.40477e-05 0)
(-0.000104928 0.000124881 0)
(-0.000230923 0.000214066 0)
(-0.000403822 0.000307344 0)
(-0.00062503 0.000401612 0)
(-0.000894689 0.000494634 0)
(-0.00121199 0.000584788 0)
(-0.00157538 0.00067089 0)
(-0.00198275 0.000752093 0)
(-0.00243155 0.000827786 0)
(-0.00291891 0.000897538 0)
(-0.00344175 0.000961063 0)
(-0.00399679 0.00101818 0)
(-0.00458068 0.00106878 0)
(-0.00518997 0.00111285 0)
(-0.0058212 0.00115038 0)
(-0.00647089 0.00118145 0)
(-0.00713558 0.00120613 0)
(-0.00781187 0.00122455 0)
(-0.00849638 0.00123684 0)
(-0.00918584 0.00124316 0)
(-0.00987702 0.00124367 0)
(-0.0105668 0.00123856 0)
(-0.0112521 0.00122801 0)
(-0.01193 0.00121222 0)
(-0.0125977 0.00119139 0)
(-0.0132525 0.00116572 0)
(-0.0138917 0.00113542 0)
(-0.0145128 0.00110071 0)
(-0.0151134 0.0010618 0)
(-0.0156913 0.0010189 0)
(-0.0162443 0.000972236 0)
(-0.0167704 0.00092202 0)
(-0.0172677 0.000868474 0)
(-0.0177343 0.000811819 0)
(-0.0181686 0.000752277 0)
(-0.018569 0.00069007 0)
(-0.0189342 0.000625423 0)
(-0.0192629 0.000558564 0)
(-0.0195538 0.000489718 0)
(-0.019806 0.000419116 0)
(-0.0200184 0.000346992 0)
(-0.0201905 0.000273577 0)
(-0.0203214 0.000199112 0)
(-0.0204107 0.000123836 0)
(-0.020458 4.79893e-05 0)
(-0.0204631 -2.81793e-05 0)
(-0.0204259 -0.000104419 0)
(-0.0203463 -0.000180479 0)
(-0.0202247 -0.000256103 0)
(-0.0200612 -0.00033103 0)
(-0.0198565 -0.000404995 0)
(-0.019611 -0.000477735 0)
(-0.0193256 -0.000548979 0)
(-0.0190011 -0.000618456 0)
(-0.0186387 -0.000685891 0)
(-0.0182396 -0.000751008 0)
(-0.0178051 -0.000813527 0)
(-0.0173367 -0.000873173 0)
(-0.0168362 -0.00092967 0)
(-0.0163053 -0.00098274 0)
(-0.0157461 -0.00103211 0)
(-0.0151606 -0.0010775 0)
(-0.0145511 -0.00111865 0)
(-0.0139201 -0.00115529 0)
(-0.0132701 -0.00118718 0)
(-0.0126039 -0.00121405 0)
(-0.0119241 -0.00123567 0)
(-0.0112338 -0.00125181 0)
(-0.0105361 -0.00126224 0)
(-0.00983411 -0.00126678 0)
(-0.00913112 -0.00126523 0)
(-0.00843049 -0.00125742 0)
(-0.00773567 -0.0012432 0)
(-0.00705018 -0.00122245 0)
(-0.00637758 -0.00119507 0)
(-0.00572144 -0.001161 0)
(-0.00508537 -0.0011202 0)
(-0.00447295 -0.00107269 0)
(-0.00388772 -0.00101852 0)
(-0.00333316 -0.00095783 0)
(-0.00281261 -0.000890802 0)
(-0.00232928 -0.000817725 0)
(-0.00188615 -0.000738993 0)
(-0.00148591 -0.000655145 0)
(-0.00113088 -0.000566906 0)
(-0.000822918 -0.000475242 0)
(-0.000563256 -0.000381443 0)
(-0.000352351 -0.000287236 0)
(-0.000189673 -0.000194937 0)
(-7.34407e-05 -0.000107667 0)
(-3.17319e-07 -2.96286e-05 0)
(3.48817e-05 3.35386e-05 0)
(3.95765e-05 7.44073e-05 0)
(2.49703e-05 8.3405e-05 0)
(7.28163e-06 4.79481e-05 0)
(4.41069e-06 -5.53578e-05 0)
(9.13904e-06 -8.49866e-05 0)
(-2.65104e-06 -5.45718e-05 0)
(-4.47284e-05 2.05256e-05 0)
(-0.000127394 0.00012683 0)
(-0.000257933 0.000253683 0)
(-0.000441308 0.000393 0)
(-0.000680622 0.000538698 0)
(-0.000977356 0.000686236 0)
(-0.00133167 0.000832208 0)
(-0.00174269 0.000974063 0)
(-0.00220865 0.00110991 0)
(-0.00272716 0.00123834 0)
(-0.00329528 0.00135832 0)
(-0.00390967 0.00146911 0)
(-0.00456671 0.00157019 0)
(-0.00526254 0.0016612 0)
(-0.00599314 0.00174194 0)
(-0.0067544 0.00181232 0)
(-0.00754215 0.00187232 0)
(-0.0083522 0.001922 0)
(-0.00918036 0.00196147 0)
(-0.0100225 0.00199089 0)
(-0.0108744 0.00201048 0)
(-0.0117322 0.00202045 0)
(-0.0125919 0.00202106 0)
(-0.0134497 0.00201259 0)
(-0.0143017 0.00199533 0)
(-0.0151445 0.00196959 0)
(-0.0159744 0.00193569 0)
(-0.0167881 0.00189394 0)
(-0.0175825 0.00184469 0)
(-0.0183543 0.00178828 0)
(-0.0191006 0.00172504 0)
(-0.0198186 0.00165532 0)
(-0.0205057 0.00157949 0)
(-0.0211593 0.00149788 0)
(-0.021777 0.00141085 0)
(-0.0223566 0.00131877 0)
(-0.0228961 0.001222 0)
(-0.0233935 0.00112089 0)
(-0.0238471 0.00101581 0)
(-0.0242552 0.000907137 0)
(-0.0246164 0.000795237 0)
(-0.0249294 0.000680484 0)
(-0.0251932 0.00056326 0)
(-0.0254066 0.000443945 0)
(-0.025569 0.000322927 0)
(-0.0256797 0.000200598 0)
(-0.0257382 7.73544e-05 0)
(-0.0257442 -4.6402e-05 0)
(-0.0256976 -0.000170265 0)
(-0.0255986 -0.000293822 0)
(-0.0254472 -0.000416656 0)
(-0.0252439 -0.000538344 0)
(-0.0249893 -0.000658458 0)
(-0.0246842 -0.000776563 0)
(-0.0243295 -0.000892226 0)
(-0.0239263 -0.001005 0)
(-0.0234761 -0.00111445 0)
(-0.0229802 -0.00122012 0)
(-0.0224405 -0.00132157 0)
(-0.0218588 -0.00141834 0)
(-0.0212371 -0.00150999 0)
(-0.0205778 -0.00159608 0)
(-0.0198834 -0.00167615 0)
(-0.0191563 -0.00174978 0)
(-0.0183995 -0.00181653 0)
(-0.0176159 -0.00187597 0)
(-0.0168087 -0.00192771 0)
(-0.0159813 -0.00197134 0)
(-0.015137 -0.00200648 0)
(-0.0142796 -0.00203277 0)
(-0.0134128 -0.00204986 0)
(-0.0125405 -0.00205743 0)
(-0.0116667 -0.0020552 0)
(-0.0107956 -0.0020429 0)
(-0.00993128 -0.00202031 0)
(-0.00907815 -0.00198725 0)
(-0.0082405 -0.00194357 0)
(-0.00742268 -0.0018892 0)
(-0.00662904 -0.00182412 0)
(-0.00586392 -0.00174836 0)
(-0.00513158 -0.00166208 0)
(-0.00443616 -0.00156549 0)
(-0.00378166 -0.00145897 0)
(-0.00317187 -0.001343 0)
(-0.0026103 -0.00121827 0)
(-0.00210008 -0.0010857 0)
(-0.00164391 -0.000946486 0)
(-0.00124389 -0.000802198 0)
(-0.000901404 -0.000654889 0)
(-0.000616961 -0.000507237 0)
(-0.000389969 -0.000362742 0)
(-0.000218507 -0.000225976 0)
(-9.90597e-05 -0.000102912 0)
(-2.6248e-05 -1.32499e-06 0)
(7.51069e-06 6.88177e-05 0)
(1.30494e-05 9.48598e-05 0)
(5.18805e-06 5.97293e-05 0)
(1.76089e-06 -5.76933e-05 0)
(-6.46014e-06 -7.26349e-05 0)
(-4.4504e-05 -1.30109e-05 0)
(-0.000123294 0.000102339 0)
(-0.000251826 0.000257265 0)
(-0.000436939 0.00043879 0)
(-0.000683346 0.000636773 0)
(-0.000993949 0.000843414 0)
(-0.00137011 0.0010527 0)
(-0.00181187 0.00126001 0)
(-0.00231818 0.00146182 0)
(-0.00288708 0.00165542 0)
(-0.00351588 0.00183877 0)
(-0.00420131 0.00201035 0)
(-0.00493963 0.00216903 0)
(-0.00572675 0.00231398 0)
(-0.00655829 0.00244466 0)
(-0.00742969 0.00256071 0)
(-0.00833624 0.00266192 0)
(-0.00927318 0.00274823 0)
(-0.0102357 0.0028197 0)
(-0.0112188 0.00287645 0)
(-0.0122179 0.00291868 0)
(-0.0132282 0.00294666 0)
(-0.0142449 0.0029607 0)
(-0.0152634 0.00296115 0)
(-0.0162794 0.00294839 0)
(-0.0172883 0.00292284 0)
(-0.0182861 0.00288492 0)
(-0.0192684 0.0028351 0)
(-0.0202315 0.00277383 0)
(-0.0211715 0.0027016 0)
(-0.0220848 0.00261889 0)
(-0.0229678 0.00252621 0)
(-0.0238172 0.00242405 0)
(-0.02463 0.00231292 0)
(-0.0254031 0.00219335 0)
(-0.0261337 0.00206585 0)
(-0.0268193 0.00193095 0)
(-0.0274572 0.00178917 0)
(-0.0280454 0.00164104 0)
(-0.0285817 0.00148711 0)
(-0.0290642 0.00132791 0)
(-0.0294912 0.00116399 0)
(-0.0298612 0.000995892 0)
(-0.0301729 0.000824182 0)
(-0.0304251 0.000649419 0)
(-0.0306169 0.000472171 0)
(-0.0307475 0.000293013 0)
(-0.0308164 0.000112527 0)
(-0.0308233 -6.86947e-05 0)
(-0.030768 -0.000250058 0)
(-0.0306506 -0.000430959 0)
(-0.0304713 -0.000610784 0)
(-0.0302307 -0.000788914 0)
(-0.0299294 -0.000964723 0)
(-0.0295684 -0.00113758 0)
(-0.0291489 -0.00130684 0)
(-0.028672 -0.00147186 0)
(-0.0281396 -0.001632 0)
(-0.0275532 -0.0017866 0)
(-0.0269149 -0.001935 0)
(-0.0262271 -0.00207657 0)
(-0.025492 -0.00221063 0)
(-0.0247125 -0.00233655 0)
(-0.0238913 -0.00245369 0)
(-0.0230316 -0.0025614 0)
(-0.0221367 -0.00265907 0)
(-0.0212101 -0.00274608 0)
(-0.0202555 -0.00282185 0)
(-0.0192769 -0.0028858 0)
(-0.0182782 -0.00293739 0)
(-0.0172637 -0.00297609 0)
(-0.016238 -0.00300142 0)
(-0.0152054 -0.00301292 0)
(-0.0141708 -0.0030102 0)
(-0.0131388 -0.00299287 0)
(-0.0121145 -0.00296065 0)
(-0.0111028 -0.00291328 0)
(-0.0101087 -0.0028506 0)
(-0.00913718 -0.00277251 0)
(-0.00819339 -0.00267901 0)
(-0.00728225 -0.00257021 0)
(-0.00640866 -0.00244634 0)
(-0.00557736 -0.0023078 0)
(-0.00479292 -0.00215514 0)
(-0.00405961 -0.00198914 0)
(-0.00338141 -0.00181083 0)
(-0.00276185 -0.00162158 0)
(-0.00220393 -0.00142314 0)
(-0.00171002 -0.00121778 0)
(-0.0012817 -0.0010084 0)
(-0.000919589 -0.000798687 0)
(-0.000623178 -0.000593393 0)
(-0.000390624 -0.000398555 0)
(-0.000218524 -0.000221881 0)
(-0.000101676 -7.31687e-05 0)
(-3.27757e-05 3.52584e-05 0)
(-2.09e-06 8.7969e-05 0)
(2.53961e-06 6.42062e-05 0)
(-1.15235e-06 -5.13823e-05 0)
(-2.3781e-05 -3.80874e-05 0)
(-9.11096e-05 6.21558e-05 0)
(-0.000210522 0.000227797 0)
(-0.000389215 0.000440486 0)
(-0.000633306 0.0006852 0)
(-0.000946925 0.000949996 0)
(-0.00133254 0.00122545 0)
(-0.0017912 0.00150413 0)
(-0.00232267 0.00178024 0)
(-0.00292566 0.00204923 0)
(-0.00359793 0.00230756 0)
(-0.00433652 0.00255251 0)
(-0.0051378 0.002782 0)
(-0.00599766 0.00299446 0)
(-0.0069116 0.00318875 0)
(-0.00787479 0.00336404 0)
(-0.00888217 0.00351979 0)
(-0.00992852 0.00365569 0)
(-0.0110085 0.0037716 0)
(-0.0121168 0.00386753 0)
(-0.0132479 0.00394361 0)
(-0.0143964 0.00400008 0)
(-0.0155571 0.00403727 0)
(-0.0167246 0.00405557 0)
(-0.0178937 0.00405542 0)
(-0.0190594 0.00403734 0)
(-0.0202167 0.00400186 0)
(-0.0213609 0.00394955 0)
(-0.0224872 0.00388101 0)
(-0.0235912 0.00379688 0)
(-0.0246685 0.00369779 0)
(-0.025715 0.0035844 0)
(-0.0267268 0.00345739 0)
(-0.0277 0.00331744 0)
(-0.028631 0.00316523 0)
(-0.0295166 0.00300148 0)
(-0.0303534 0.00282689 0)
(-0.0311385 0.00264218 0)
(-0.0318691 0.00244806 0)
(-0.0325426 0.00224527 0)
(-0.0331566 0.00203453 0)
(-0.033709 0.00181659 0)
(-0.0341979 0.0015922 0)
(-0.0346214 0.00136211 0)
(-0.0349781 0.00112708 0)
(-0.0352667 0.000887886 0)
(-0.035486 0.000645304 0)
(-0.0356354 0.000400124 0)
(-0.0357141 0.000153142 0)
(-0.0357218 -9.48328e-05 0)
(-0.0356582 -0.000342984 0)
(-0.0355236 -0.000590483 0)
(-0.0353182 -0.000836492 0)
(-0.0350425 -0.00108017 0)
(-0.0346975 -0.00132064 0)
(-0.034284 -0.00155707 0)
(-0.0338036 -0.00178856 0)
(-0.0332576 -0.00201424 0)
(-0.0326478 -0.00223323 0)
(-0.0319764 -0.00244464 0)
(-0.0312457 -0.00264757 0)
(-0.0304581 -0.00284115 0)
(-0.0296165 -0.00302448 0)
(-0.0287239 -0.00319668 0)
(-0.0277836 -0.00335688 0)
(-0.0267992 -0.00350423 0)
(-0.0257744 -0.00363789 0)
(-0.0247131 -0.00375702 0)
(-0.0236197 -0.00386083 0)
(-0.0224985 -0.00394855 0)
(-0.0213541 -0.00401945 0)
(-0.0201915 -0.00407283 0)
(-0.0190155 -0.00410804 0)
(-0.0178314 -0.00412449 0)
(-0.0166444 -0.00412164 0)
(-0.0154599 -0.00409901 0)
(-0.0142835 -0.00405622 0)
(-0.0131208 -0.00399296 0)
(-0.0119774 -0.00390903 0)
(-0.010859 -0.00380434 0)
(-0.00977113 -0.00367893 0)
(-0.00871944 -0.00353298 0)
(-0.00770935 -0.00336686 0)
(-0.00674614 -0.00318114 0)
(-0.00583486 -0.00297663 0)
(-0.00498026 -0.00275443 0)
(-0.00418671 -0.00251597 0)
(-0.00345811 -0.00226313 0)
(-0.0027978 -0.00199827 0)
(-0.00220842 -0.00172439 0)
(-0.00169177 -0.0014453 0)
(-0.00124871 -0.00116574 0)
(-0.000878942 -0.000891696 0)
(-0.000580902 -0.000630623 0)
(-0.000351542 -0.000391868 0)
(-0.00018613 -0.00018708 0)
(-7.79825e-05 -3.06612e-05 0)
(-1.89738e-05 5.96243e-05 0)
(-3.43068e-07 6.02343e-05 0)
(-4.13567e-06 -3.58494e-05 0)
(-4.19179e-05 2.04406e-05 0)
(-0.000140294 0.000173613 0)
(-0.000302763 0.000400191 0)
(-0.000534489 0.000680049 0)
(-0.00084058 0.000996499 0)
(-0.00122439 0.00133601 0)
(-0.00168776 0.0016877 0)
(-0.00223123 0.00204285 0)
(-0.00285419 0.00239449 0)
(-0.00355498 0.0027371 0)
(-0.00433105 0.0030663 0)
(-0.00517908 0.00337867 0)
(-0.00609512 0.00367153 0)
(-0.00707469 0.00394286 0)
(-0.00811288 0.00419113 0)
(-0.00920445 0.00441525 0)
(-0.0103439 0.00461446 0)
(-0.0115255 0.00478829 0)
(-0.0127435 0.00493651 0)
(-0.013992 0.00505907 0)
(-0.015265 0.00515612 0)
(-0.0165567 0.00522791 0)
(-0.0178611 0.00527482 0)
(-0.0191724 0.00529733 0)
(-0.020485 0.005296 0)
(-0.0217932 0.00527143 0)
(-0.0230915 0.00522433 0)
(-0.0243747 0.00515539 0)
(-0.0256375 0.0050654 0)
(-0.026875 0.00495515 0)
(-0.0280824 0.00482547 0)
(-0.0292551 0.00467719 0)
(-0.0303886 0.00451118 0)
(-0.0314788 0.00432834 0)
(-0.0325217 0.00412955 0)
(-0.0335134 0.00391572 0)
(-0.0344505 0.00368778 0)
(-0.0353297 0.00344665 0)
(-0.0361476 0.00319327 0)
(-0.0369017 0.00292858 0)
(-0.037589 0.00265356 0)
(-0.0382074 0.00236915 0)
(-0.0387545 0.00207634 0)
(-0.0392285 0.00177611 0)
(-0.0396277 0.00146946 0)
(-0.0399506 0.00115738 0)
(-0.040196 0.00084091 0)
(-0.0403631 0.000521066 0)
(-0.040451 0.000198891 0)
(-0.0404595 -0.000124561 0)
(-0.0403882 -0.000448224 0)
(-0.0402374 -0.000771017 0)
(-0.0400074 -0.00109185 0)
(-0.0396988 -0.00140962 0)
(-0.0393125 -0.0017232 0)
(-0.0388498 -0.00203149 0)
(-0.0383119 -0.00233333 0)
(-0.0377008 -0.00262759 0)
(-0.0370183 -0.00291311 0)
(-0.0362668 -0.00318875 0)
(-0.0354489 -0.00345335 0)
(-0.0345673 -0.00370576 0)
(-0.0336252 -0.00394483 0)
(-0.0326259 -0.00416942 0)
(-0.0315732 -0.00437841 0)
(-0.0304709 -0.00457068 0)
(-0.0293233 -0.00474516 0)
(-0.0281347 -0.00490077 0)
(-0.0269099 -0.0050365 0)
(-0.0256537 -0.00515136 0)
(-0.0243713 -0.0052444 0)
(-0.023068 -0.00531474 0)
(-0.0217494 -0.00536156 0)
(-0.020421 -0.0053841 0)
(-0.0190889 -0.00538168 0)
(-0.0177589 -0.00535373 0)
(-0.0164372 -0.00529976 0)
(-0.0151299 -0.00521941 0)
(-0.0138432 -0.00511246 0)
(-0.0125834 -0.00497881 0)
(-0.0113565 -0.00481857 0)
(-0.0101687 -0.00463202 0)
(-0.00902587 -0.00441967 0)
(-0.00793387 -0.00418232 0)
(-0.00689817 -0.00392105 0)
(-0.00592394 -0.00363732 0)
(-0.00501594 -0.003333 0)
(-0.00417845 -0.00301051 0)
(-0.00341514 -0.00267286 0)
(-0.00272894 -0.00232383 0)
(-0.002122 -0.00196812 0)
(-0.00159547 -0.00161152 0)
(-0.00114943 -0.00126119 0)
(-0.000782725 -0.000925957 0)
(-0.000492884 -0.000616641 0)
(-0.000275868 -0.000346531 0)
(-0.000125866 -0.000131784 0)
(-3.66739e-05 7.9792e-06 0)
(-3.28475e-06 4.7252e-05 0)
(-7.10332e-06 -1.08923e-05 0)
(-6.02988e-05 0.000103833 0)
(-0.000190584 0.000322917 0)
(-0.000397495 0.000621536 0)
(-0.000683988 0.000978285 0)
(-0.00105404 0.00137512 0)
(-0.00151005 0.00179717 0)
(-0.00205307 0.00223229 0)
(-0.00268302 0.00267058 0)
(-0.00339876 0.00310401 0)
(-0.0041982 0.00352611 0)
(-0.00507839 0.00393169 0)
(-0.00603563 0.00431661 0)
(-0.0070656 0.00467764 0)
(-0.00816344 0.00501225 0)
(-0.00932385 0.00531854 0)
(-0.0105412 0.00559509 0)
(-0.0118095 0.00584091 0)
(-0.0131228 0.00605537 0)
(-0.0144746 0.00623812 0)
(-0.0158587 0.00638907 0)
(-0.0172687 0.00650833 0)
(-0.0186981 0.00659617 0)
(-0.0201406 0.00665305 0)
(-0.0215899 0.0066795 0)
(-0.0230399 0.00667619 0)
(-0.0244843 0.00664387 0)
(-0.0259173 0.00658336 0)
(-0.027333 0.00649555 0)
(-0.028726 0.00638137 0)
(-0.0300906 0.00624181 0)
(-0.0314218 0.00607788 0)
(-0.0327144 0.00589064 0)
(-0.0339636 0.00568115 0)
(-0.0351649 0.00545053 0)
(-0.0363139 0.00519989 0)
(-0.0374065 0.00493037 0)
(-0.0384387 0.00464312 0)
(-0.0394069 0.00433929 0)
(-0.0403078 0.00402008 0)
(-0.0411381 0.00368667 0)
(-0.0418949 0.00334027 0)
(-0.0425757 0.00298208 0)
(-0.0431781 0.00261334 0)
(-0.0436999 0.00223527 0)
(-0.0441393 0.00184915 0)
(-0.0444948 0.00145623 0)
(-0.0447649 0.00105779 0)
(-0.0449488 0.000655125 0)
(-0.0450456 0.000249551 0)
(-0.0450549 -0.000157608 0)
(-0.0449765 -0.000565012 0)
(-0.0448105 -0.000971303 0)
(-0.0445573 -0.00137511 0)
(-0.0442176 -0.00177504 0)
(-0.0437925 -0.0021697 0)
(-0.0432831 -0.00255768 0)
(-0.0426911 -0.00293754 0)
(-0.0420184 -0.00330787 0)
(-0.0412672 -0.0036672 0)
(-0.04044 -0.00401411 0)
(-0.0395395 -0.00434715 0)
(-0.038569 -0.00466487 0)
(-0.0375317 -0.00496585 0)
(-0.0364314 -0.00524865 0)
(-0.0352721 -0.00551188 0)
(-0.034058 -0.00575415 0)
(-0.0327938 -0.00597411 0)
(-0.0314843 -0.00617044 0)
(-0.0301345 -0.00634187 0)
(-0.0287499 -0.00648717 0)
(-0.0273359 -0.00660518 0)
(-0.0258985 -0.00669482 0)
(-0.0244436 -0.00675506 0)
(-0.0229774 -0.00678498 0)
(-0.0215062 -0.00678377 0)
(-0.0200366 -0.00675072 0)
(-0.0185752 -0.00668527 0)
(-0.0171286 -0.00658699 0)
(-0.0157036 -0.00645563 0)
(-0.0143068 -0.00629114 0)
(-0.0129449 -0.00609366 0)
(-0.0116245 -0.00586362 0)
(-0.0103521 -0.00560168 0)
(-0.00913374 -0.00530888 0)
(-0.00797547 -0.0049866 0)
(-0.00688285 -0.00463669 0)
(-0.00586105 -0.00426149 0)
(-0.0049147 -0.00386396 0)
(-0.00404784 -0.0034478 0)
(-0.0032638 -0.00301754 0)
(-0.00256506 -0.00257878 0)
(-0.00195321 -0.00213832 0)
(-0.0014288 -0.00170443 0)
(-0.000991255 -0.00128717 0)
(-0.000638809 -0.000898701 0)
(-0.000368293 -0.000553701 0)
(-0.000174938 -0.000269762 0)
(-5.46195e-05 -6.79067e-05 0)
(-6.19307e-06 2.50659e-05 0)
(-9.99953e-06 2.34637e-05 0)
(-7.85745e-05 0.000212403 0)
(-0.00024104 0.000510768 0)
(-0.000492991 0.000892933 0)
(-0.000835156 0.00133657 0)
(-0.00127029 0.00182259 0)
(-0.00179973 0.00233503 0)
(-0.00242362 0.00286066 0)
(-0.00314115 0.00338854 0)
(-0.00395056 0.00390969 0)
(-0.00484925 0.00441675 0)
(-0.00583377 0.00490375 0)
(-0.00690002 0.00536589 0)
(-0.00804326 0.00579935 0)
(-0.00925823 0.00620113 0)
(-0.0105392 0.0065689 0)
(-0.0118803 0.00690096 0)
(-0.0132749 0.00719606 0)
(-0.0147168 0.00745339 0)
(-0.016199 0.00767248 0)
(-0.017715 0.00785316 0)
(-0.0192577 0.00799553 0)
(-0.0208205 0.00809988 0)
(-0.0223964 0.00816668 0)
(-0.0239787 0.00819659 0)
(-0.0255608 0.00819036 0)
(-0.0271362 0.00814888 0)
(-0.0286985 0.00807311 0)
(-0.0302414 0.00796411 0)
(-0.0317589 0.007823 0)
(-0.0332453 0.00765097 0)
(-0.0346947 0.00744923 0)
(-0.0361019 0.00721905 0)
(-0.0374616 0.00696175 0)
(-0.0387689 0.00667864 0)
(-0.040019 0.00637109 0)
(-0.0412076 0.00604049 0)
(-0.0423304 0.00568822 0)
(-0.0433835 0.00531572 0)
(-0.0443632 0.00492442 0)
(-0.0452662 0.00451578 0)
(-0.0460892 0.00409125 0)
(-0.0468294 0.00365234 0)
(-0.0474844 0.00320053 0)
(-0.0480517 0.00273734 0)
(-0.0485295 0.00226431 0)
(-0.0489159 0.00178298 0)
(-0.0492097 0.00129492 0)
(-0.0494096 0.000801723 0)
(-0.0495149 0.00030498 0)
(-0.0495252 -0.000193682 0)
(-0.0494401 -0.000692623 0)
(-0.0492598 -0.00119018 0)
(-0.0489848 -0.00168469 0)
(-0.0486158 -0.00217444 0)
(-0.0481539 -0.00265773 0)
(-0.0476004 -0.00313283 0)
(-0.0469571 -0.003598 0)
(-0.0462261 -0.00405151 0)
(-0.0454097 -0.00449158 0)
(-0.0445105 -0.00491646 0)
(-0.0435317 -0.0053244 0)
(-0.0424766 -0.00571363 0)
(-0.0413488 -0.00608241 0)
(-0.0401524 -0.00642902 0)
(-0.0388916 -0.00675175 0)
(-0.0375711 -0.00704893 0)
(-0.0361957 -0.0073189 0)
(-0.0347707 -0.00756008 0)
(-0.0333016 -0.00777093 0)
(-0.031794 -0.00794998 0)
(-0.0302541 -0.00809581 0)
(-0.028688 -0.00820713 0)
(-0.0271023 -0.00828272 0)
(-0.0255035 -0.00832147 0)
(-0.0238984 -0.00832242 0)
(-0.0222942 -0.00828475 0)
(-0.0206977 -0.00820779 0)
(-0.0191162 -0.00809107 0)
(-0.0175568 -0.00793431 0)
(-0.0160268 -0.00773749 0)
(-0.0145332 -0.00750083 0)
(-0.013083 -0.00722488 0)
(-0.0116833 -0.0069105 0)
(-0.0103405 -0.00655895 0)
(-0.00906105 -0.00617196 0)
(-0.00785097 -0.00575176 0)
(-0.0067158 -0.00530117 0)
(-0.00566058 -0.00482372 0)
(-0.00468976 -0.00432378 0)
(-0.00380706 -0.00380662 0)
(-0.00301545 -0.0032787 0)
(-0.00231699 -0.00274777 0)
(-0.00171281 -0.00222314 0)
(-0.00120302 -0.00171597 0)
(-0.000786698 -0.00123957 0)
(-0.000461644 -0.000809811 0)
(-0.000224231 -0.000445398 0)
(-7.24678e-05 -0.000168371 0)
(-9.0223e-06 -6.29996e-06 0)
(-1.27953e-05 6.70735e-05 0)
(-9.65477e-05 0.00034606 0)
(-0.000291053 0.000737324 0)
(-0.000588109 0.0012148 0)
(-0.00098625 0.00175555 0)
(-0.00148696 0.00233973 0)
(-0.00209045 0.00295049 0)
(-0.00279589 0.0035737 0)
(-0.00360165 0.00419752 0)
(-0.00450528 0.00481211 0)
(-0.00550355 0.00540933 0)
(-0.00659251 0.00598247 0)
(-0.00776757 0.00652611 0)
(-0.00902353 0.00703587 0)
(-0.0103547 0.00750826 0)
(-0.0117551 0.00794058 0)
(-0.0132181 0.0083308 0)
(-0.0147371 0.00867744 0)
(-0.0163051 0.00897948 0)
(-0.017915 0.00923634 0)
(-0.0195597 0.00944777 0)
(-0.0212318 0.00961384 0)
(-0.0229242 0.00973484 0)
(-0.0246295 0.00981132 0)
(-0.0263408 0.00984399 0)
(-0.0280508 0.00983372 0)
(-0.0297526 0.00978153 0)
(-0.0314396 0.00968856 0)
(-0.033105 0.00955602 0)
(-0.0347425 0.00938523 0)
(-0.0363457 0.00917758 0)
(-0.0379088 0.00893451 0)
(-0.0394259 0.00865752 0)
(-0.0408915 0.00834815 0)
(-0.0423004 0.00800799 0)
(-0.0436475 0.00763865 0)
(-0.044928 0.00724177 0)
(-0.0461375 0.00681903 0)
(-0.0472718 0.00637211 0)
(-0.048327 0.00590273 0)
(-0.0492993 0.00541263 0)
(-0.0501856 0.00490356 0)
(-0.0509827 0.00437729 0)
(-0.051688 0.00383562 0)
(-0.0522989 0.00328036 0)
(-0.0528133 0.00271335 0)
(-0.0532295 0.00213643 0)
(-0.0535459 0.00155148 0)
(-0.0537613 0.0009604 0)
(-0.053875 0.000365102 0)
(-0.0538862 -0.000232472 0)
(-0.053795 -0.000830362 0)
(-0.0536013 -0.00142658 0)
(-0.0533057 -0.00201913 0)
(-0.0529089 -0.00260599 0)
(-0.0524121 -0.0031851 0)
(-0.0518167 -0.00375441 0)
(-0.0511247 -0.00431185 0)
(-0.0503382 -0.00485533 0)
(-0.0494597 -0.00538276 0)
(-0.0484921 -0.00589204 0)
(-0.0474386 -0.00638107 0)
(-0.0463029 -0.00684777 0)