/*--------------------------------*- C++ -*----------------------------------*\
| =========                 |                                                 |
| \\      /  F ield         | OpenFOAM: The Open Source CFD Toolbox           |
|  \\    /   O peration     | Version:  2212                                  |
|   \\  /    A nd           | Website:  www.openfoam.com                      |
|    \\/     M anipulation  |                                                 |
\*---------------------------------------------------------------------------*/
FoamFile
{
    version     2.0;
    format      ascii;
    arch        "LSB;label=32;scalar=64";
    class       volVectorField;
    location    "0.0515";
    object      U_0;
}
// * * * * * * * * * * * * * * * * * * * * * * * * * * * * * * * * * * * * * //

dimensions      [0 1 -1 0 0 0 0];

internalField   nonuniform List<vector> 
10000
(
(3.33218e-06 -2.32936e-06 0)
(1.36197e-05 -6.42331e-06 0)
(3.07239e-05 -7.86849e-06 0)
(4.62214e-05 -6.75198e-06 0)
(5.63008e-05 -4.44297e-06 0)
(5.83726e-05 -1.5592e-06 0)
(5.1342e-05 1.55515e-06 0)
(3.47202e-05 4.70892e-06 0)
(8.43096e-06 7.79498e-06 0)
(-2.73466e-05 1.07517e-05 0)
(-7.22575e-05 1.35427e-05 0)
(-0.000125837 1.61495e-05 0)
(-0.000187555 1.8564e-05 0)
(-0.000256828 2.07815e-05 0)
(-0.000333046 2.27975e-05 0)
(-0.000415582 2.46098e-05 0)
(-0.0005038 2.62205e-05 0)
(-0.000597062 2.76332e-05 0)
(-0.000694737 2.88539e-05 0)
(-0.000796199 2.98862e-05 0)
(-0.000900829 3.07338e-05 0)
(-0.00100803 3.14034e-05 0)
(-0.0011172 3.18992e-05 0)
(-0.00122778 3.2227e-05 0)
(-0.00133921 3.23943e-05 0)
(-0.00145094 3.24058e-05 0)
(-0.00156246 3.22669e-05 0)
(-0.00167326 3.19845e-05 0)
(-0.00178287 3.15646e-05 0)
(-0.00189081 3.10124e-05 0)
(-0.00199665 3.0335e-05 0)
(-0.00209996 2.95383e-05 0)
(-0.00220034 2.86274e-05 0)
(-0.00229739 2.76088e-05 0)
(-0.00239077 2.64891e-05 0)
(-0.00248012 2.52731e-05 0)
(-0.00256512 2.39655e-05 0)
(-0.00264545 2.2573e-05 0)
(-0.00272085 2.11022e-05 0)
(-0.00279103 1.95579e-05 0)
(-0.00285576 1.79444e-05 0)
(-0.0029148 1.62685e-05 0)
(-0.00296796 1.45369e-05 0)
(-0.00301503 1.2755e-05 0)
(-0.00305587 1.09272e-05 0)
(-0.00309031 9.05854e-06 0)
(-0.00311823 7.15584e-06 0)
(-0.00313953 5.22627e-06 0)
(-0.00315412 3.27552e-06 0)
(-0.00316193 1.30878e-06 0)
(-0.00316294 -6.6819e-07 0)
(-0.00315711 -2.64886e-06 0)
(-0.00314445 -4.62571e-06 0)
(-0.00312498 -6.59166e-06 0)
(-0.00309875 -8.54087e-06 0)
(-0.00306584 -1.04674e-05 0)
(-0.00302634 -1.23644e-05 0)
(-0.00298036 -1.42249e-05 0)
(-0.00292805 -1.6041e-05 0)
(-0.00286958 -1.7805e-05 0)
(-0.00280514 -1.95101e-05 0)
(-0.00273494 -2.11499e-05 0)
(-0.00265924 -2.2717e-05 0)
(-0.00257829 -2.42037e-05 0)
(-0.00249239 -2.56027e-05 0)
(-0.00240185 -2.69061e-05 0)
(-0.00230703 -2.81065e-05 0)
(-0.00220828 -2.9197e-05 0)
(-0.002106 -3.01705e-05 0)
(-0.00200061 -3.10196e-05 0)
(-0.00189254 -3.17368e-05 0)
(-0.00178227 -3.23152e-05 0)
(-0.00167028 -3.27477e-05 0)
(-0.00155707 -3.30274e-05 0)
(-0.00144318 -3.31484e-05 0)
(-0.00132916 -3.3105e-05 0)
(-0.00121556 -3.28916e-05 0)
(-0.00110299 -3.25023e-05 0)
(-0.000992034 -3.19322e-05 0)
(-0.000883307 -3.11768e-05 0)
(-0.000777434 -3.0232e-05 0)
(-0.000675049 -2.90943e-05 0)
(-0.00057679 -2.7761e-05 0)
(-0.000483301 -2.62302e-05 0)
(-0.000395222 -2.45008e-05 0)
(-0.00031319 -2.25726e-05 0)
(-0.000237828 -2.04471e-05 0)
(-0.000169741 -1.81277e-05 0)
(-0.000109508 -1.562e-05 0)
(-5.7666e-05 -1.29333e-05 0)
(-1.46914e-05 -1.00825e-05 0)
(1.90208e-05 -7.092e-06 0)
(4.31977e-05 -3.99994e-06 0)
(5.77462e-05 -8.70492e-07 0)
(6.2845e-05 2.18677e-06 0)
(5.90916e-05 4.98135e-06 0)
(4.77066e-05 7.18254e-06 0)
(3.09659e-05 8.19721e-06 0)
(1.34679e-05 7.00971e-06 0)
(2.65934e-06 2.66013e-06 0)
(7.72444e-06 -1.39074e-05 0)
(2.91118e-05 -2.76053e-05 0)
(5.68051e-05 -2.95773e-05 0)
(7.83654e-05 -2.20784e-05 0)
(8.51812e-05 -8.94269e-06 0)
(7.21775e-05 7.4187e-06 0)
(3.63485e-05 2.5436e-05 0)
(-2.39308e-05 4.40891e-05 0)
(-0.00010926 6.27176e-05 0)
(-0.000219501 8.08852e-05 0)
(-0.000354012 9.83065e-05 0)
(-0.000511791 0.000114786 0)
(-0.000691583 0.000130199 0)
(-0.000891959 0.000144465 0)
(-0.00111137 0.00015753 0)
(-0.00134817 0.000169363 0)
(-0.00160069 0.00017995 0)
(-0.00186722 0.000189291 0)
(-0.00214605 0.000197393 0)
(-0.00243545 0.000204274 0)
(-0.00273373 0.000209953 0)
(-0.00303923 0.000214453 0)
(-0.00335029 0.000217805 0)
(-0.00366533 0.000220039 0)
(-0.00398276 0.000221189 0)
(-0.00430108 0.00022129 0)
(-0.00461881 0.000220378 0)
(-0.00493453 0.000218491 0)
(-0.00524686 0.000215664 0)
(-0.00555451 0.000211938 0)
(-0.00585618 0.000207352 0)
(-0.00615068 0.000201943 0)
(-0.00643684 0.000195751 0)
(-0.00671358 0.000188814 0)
(-0.00697983 0.000181174 0)
(-0.00723462 0.000172869 0)
(-0.007477 0.000163938 0)
(-0.00770611 0.000154418 0)
(-0.00792111 0.00014435 0)
(-0.00812125 0.000133772 0)
(-0.00830581 0.000122724 0)
(-0.00847416 0.000111246 0)
(-0.00862568 9.93766e-05 0)
(-0.00875985 8.71554e-05 0)
(-0.00887619 7.46222e-05 0)
(-0.00897428 6.18178e-05 0)
(-0.00905375 4.87836e-05 0)
(-0.00911432 3.55617e-05 0)
(-0.00915573 2.21928e-05 0)
(-0.00917782 8.71884e-06 0)
(-0.00918046 -4.81599e-06 0)
(-0.0091636 -1.8367e-05 0)
(-0.00912726 -3.18891e-05 0)
(-0.00907151 -4.53373e-05 0)
(-0.0089965 -5.86667e-05 0)
(-0.00890242 -7.18317e-05 0)
(-0.00878957 -8.47846e-05 0)
(-0.00865828 -9.7477e-05 0)
(-0.00850897 -0.00010986 0)
(-0.00834212 -0.000121884 0)
(-0.00815829 -0.000133502 0)
(-0.0079581 -0.000144663 0)
(-0.00774226 -0.000155319 0)
(-0.00751152 -0.000165418 0)
(-0.00726673 -0.00017491 0)
(-0.00700879 -0.000183746 0)
(-0.00673869 -0.000191877 0)
(-0.00645748 -0.000199254 0)
(-0.00616628 -0.000205829 0)
(-0.00586628 -0.000211553 0)
(-0.00555872 -0.00021638 0)
(-0.00524493 -0.000220265 0)
(-0.00492629 -0.000223163 0)
(-0.00460423 -0.000225033 0)
(-0.00428025 -0.000225836 0)
(-0.00395589 -0.000225535 0)
(-0.00363275 -0.000224095 0)
(-0.00331246 -0.000221486 0)
(-0.00299671 -0.000217679 0)
(-0.00268719 -0.00021265 0)
(-0.00238564 -0.000206381 0)
(-0.0020938 -0.000198858 0)
(-0.00181344 -0.000190074 0)
(-0.00154631 -0.000180029 0)
(-0.00129414 -0.000168731 0)
(-0.00105863 -0.000156201 0)
(-0.000841442 -0.000142471 0)
(-0.000644142 -0.000127593 0)
(-0.000468198 -0.000111641 0)
(-0.000314923 -9.47201e-05 0)
(-0.000185429 -7.69805e-05 0)
(-8.05443e-05 -5.86363e-05 0)
(-7.13313e-07 -3.99944e-05 0)
(5.41519e-05 -2.15061e-05 0)
(8.48824e-05 -3.84358e-06 0)
(9.33461e-05 1.19768e-05 0)
(8.27795e-05 2.44162e-05 0)
(5.83199e-05 3.11339e-05 0)
(2.86977e-05 2.86994e-05 0)
(6.99939e-06 1.34559e-05 0)
(8.25652e-06 -3.10823e-05 0)
(3.01588e-05 -5.60618e-05 0)
(5.44398e-05 -5.37077e-05 0)
(6.55093e-05 -3.17385e-05 0)
(5.31455e-05 3.30282e-06 0)
(1.09089e-05 4.64897e-05 0)
(-6.54032e-05 9.42867e-05 0)
(-0.000178251 0.0001442 0)
(-0.000328707 0.000194488 0)
(-0.000516798 0.000243936 0)
(-0.000741772 0.000291682 0)
(-0.0010023 0.000337129 0)
(-0.00129664 0.000379854 0)
(-0.00162273 0.000419568 0)
(-0.00197829 0.000456077 0)
(-0.00236089 0.000489254 0)
(-0.00276798 0.000519024 0)
(-0.00319696 0.000545358 0)
(-0.00364517 0.000568253 0)
(-0.00410999 0.000587731 0)
(-0.00458876 0.000603836 0)
(-0.00507887 0.000616623 0)
(-0.00557774 0.000626159 0)
(-0.00608285 0.000632524 0)
(-0.00659173 0.000635807 0)
(-0.00710196 0.000636097 0)
(-0.00761123 0.000633492 0)
(-0.00811725 0.000628094 0)
(-0.00861786 0.000620005 0)
(-0.00911093 0.000609333 0)
(-0.00959445 0.000596186 0)
(-0.0100665 0.000580672 0)
(-0.0105252 0.0005629 0)
(-0.0109687 0.000542983 0)
(-0.0113955 0.000521032 0)
(-0.0118039 0.00049716 0)
(-0.0121925 0.000471478 0)
(-0.0125597 0.000444098 0)
(-0.0129043 0.000415134 0)
(-0.0132251 0.000384698 0)
(-0.0135209 0.000352903 0)
(-0.0137907 0.000319865 0)
(-0.0140335 0.000285697 0)
(-0.0142484 0.000250515 0)
(-0.0144348 0.000214436 0)
(-0.0145918 0.000177578 0)
(-0.014719 0.000140061 0)
(-0.0148159 0.000102004 0)
(-0.0148821 6.35288e-05 0)
(-0.0149172 2.47585e-05 0)
(-0.0149212 -1.41807e-05 0)
(-0.0148939 -5.31606e-05 0)
(-0.0148354 -9.20524e-05 0)
(-0.0147458 -0.000130726 0)
(-0.0146253 -0.000169049 0)
(-0.0144743 -0.000206888 0)
(-0.0142932 -0.000244107 0)
(-0.0140826 -0.000280567 0)
(-0.0138431 -0.00031613 0)
(-0.0135756 -0.000350654 0)
(-0.0132808 -0.000383999 0)
(-0.01296 -0.000416024 0)
(-0.012614 -0.000446585 0)
(-0.0122443 -0.000475539 0)
(-0.0118521 -0.000502744 0)
(-0.0114389 -0.000528059 0)
(-0.0110063 -0.000551343 0)
(-0.0105559 -0.000572457 0)
(-0.0100896 -0.000591265 0)
(-0.00960917 -0.000607632 0)
(-0.00911673 -0.000621428 0)
(-0.00861433 -0.000632527 0)
(-0.00810417 -0.000640807 0)
(-0.00758853 -0.000646154 0)
(-0.00706979 -0.00064846 0)
(-0.00655039 -0.000647623 0)
(-0.00603285 -0.000643552 0)
(-0.00551977 -0.000636165 0)
(-0.00501378 -0.000625391 0)
(-0.00451755 -0.000611173 0)
(-0.00403381 -0.000593468 0)
(-0.00356527 -0.00057225 0)
(-0.00311468 -0.000547515 0)
(-0.00268473 -0.000519281 0)
(-0.0022781 -0.000487595 0)
(-0.00189738 -0.000452541 0)
(-0.00154506 -0.000414244 0)
(-0.0012235 -0.000372886 0)
(-0.000934849 -0.00032872 0)
(-0.000680989 -0.000282096 0)
(-0.000463458 -0.000233492 0)
(-0.000283328 -0.000183563 0)
(-0.000141062 -0.000133214 0)
(-3.63198e-05 -8.37031e-05 0)
(3.23047e-05 -3.67922e-05 0)
(6.76082e-05 5.03774e-06 0)
(7.41005e-05 3.83054e-05 0)
(5.84513e-05 5.82063e-05 0)
(3.12424e-05 5.83453e-05 0)
(8.20302e-06 3.09505e-05 0)
(7.01283e-06 -4.73715e-05 0)
(2.26259e-05 -7.8228e-05 0)
(3.27607e-05 -6.50031e-05 0)
(2.16069e-05 -2.04338e-05 0)
(-2.15624e-05 4.57803e-05 0)
(-0.000103813 0.000126063 0)
(-0.000229933 0.000214696 0)
(-0.000402846 0.000307469 0)
(-0.000623919 0.000401299 0)
(-0.000893296 0.000493943 0)
(-0.00121017 0.000583765 0)
(-0.00157298 0.000669576 0)
(-0.00197963 0.000750515 0)
(-0.00242757 0.000825967 0)
(-0.00291396 0.000895504 0)
(-0.0034357 0.000958835 0)
(-0.00398955 0.00101578 0)
(-0.00457213 0.00106623 0)
(-0.00518003 0.00111015 0)
(-0.00580979 0.00114756 0)
(-0.00645793 0.00117852 0)
(-0.00712101 0.00120312 0)
(-0.00779564 0.00122146 0)
(-0.00847846 0.0012337 0)
(-0.00916618 0.00123997 0)
(-0.00985559 0.00124046 0)
(-0.0105436 0.00123533 0)
(-0.0112271 0.00122478 0)
(-0.0119033 0.00120901 0)
(-0.0125692 0.00118821 0)
(-0.0132222 0.00116258 0)
(-0.0138597 0.00113234 0)
(-0.0144791 0.00109771 0)
(-0.0150781 0.00105888 0)
(-0.0156545 0.00101608 0)
(-0.016206 0.00096953 0)
(-0.0167306 0.000919441 0)
(-0.0172265 0.000866033 0)
(-0.0176918 0.000809528 0)
(-0.0181249 0.000750145 0)
(-0.0185242 0.00068811 0)
(-0.0188884 0.000623643 0)
(-0.0192161 0.00055697 0)
(-0.0195062 0.000488318 0)
(-0.0197577 0.000417917 0)
(-0.0199696 0.000345998 0)
(-0.0201411 0.000272795 0)
(-0.0202717 0.000198542 0)
(-0.0203607 0.00012348 0)
(-0.0204079 4.78505e-05 0)
(-0.020413 -2.81e-05 0)
(-0.0203759 -0.000104123 0)
(-0.0202967 -0.000179965 0)
(-0.0201754 -0.000255372 0)
(-0.0200124 -0.000330085 0)
(-0.0198083 -0.000403842 0)
(-0.0195635 -0.000476377 0)
(-0.0192789 -0.000547421 0)
(-0.0189555 -0.000616705 0)
(-0.0185941 -0.000683954 0)
(-0.0181961 -0.000748894 0)
(-0.0177629 -0.000811248 0)
(-0.0172959 -0.000870741 0)
(-0.0167967 -0.000927095 0)
(-0.0162674 -0.000980035 0)
(-0.0157097 -0.00102929 0)
(-0.0151258 -0.00107458 0)
(-0.0145181 -0.00111564 0)
(-0.0138888 -0.00115222 0)
(-0.0132406 -0.00118405 0)
(-0.0125761 -0.00121088 0)
(-0.0118981 -0.00123248 0)
(-0.0112097 -0.00124861 0)
(-0.0105138 -0.00125907 0)
(-0.0098136 -0.00126363 0)
(-0.00911239 -0.00126212 0)
(-0.00841352 -0.00125437 0)
(-0.00772043 -0.00124023 0)
(-0.00703661 -0.00121957 0)
(-0.00636561 -0.00119231 0)
(-0.00571102 -0.00115836 0)
(-0.00507641 -0.00111771 0)
(-0.00446537 -0.00107036 0)
(-0.00388143 -0.00101637 0)
(-0.00332806 -0.000955871 0)
(-0.00280859 -0.00088905 0)
(-0.00232623 -0.00081619 0)
(-0.00188395 -0.000737686 0)
(-0.00148444 -0.000654072 0)
(-0.00113003 -0.000566069 0)
(-0.000822567 -0.000474639 0)
(-0.000563284 -0.000381066 0)
(-0.000352644 -0.000287071 0)
(-0.000190124 -0.000194964 0)
(-7.39527e-05 -0.000107857 0)
(-8.06488e-07 -2.99425e-05 0)
(3.44808e-05 3.31508e-05 0)
(3.93061e-05 7.40084e-05 0)
(2.48413e-05 8.30744e-05 0)
(7.24944e-06 4.77916e-05 0)
(4.70539e-06 -5.76209e-05 0)
(9.75903e-06 -8.57018e-05 0)
(-1.55603e-06 -5.31897e-05 0)
(-4.33909e-05 2.25028e-05 0)
(-0.000125982 0.000128574 0)
(-0.000256463 0.00025489 0)
(-0.000439742 0.000393581 0)
(-0.000678856 0.000538665 0)
(-0.000975255 0.000685626 0)
(-0.00132909 0.000831062 0)
(-0.00173946 0.000972432 0)
(-0.00220462 0.00110783 0)
(-0.00272216 0.00123585 0)
(-0.00328916 0.00135545 0)
(-0.00390229 0.0014659 0)
(-0.00455793 0.00156665 0)
(-0.00525223 0.00165738 0)
(-0.00598118 0.00173786 0)
(-0.00674069 0.00180801 0)
(-0.00752659 0.0018678 0)
(-0.0083347 0.00191729 0)
(-0.00916084 0.00195661 0)
(-0.0100009 0.00198591 0)
(-0.0108507 0.00200539 0)
(-0.0117064 0.00201529 0)
(-0.0125638 0.00201585 0)
(-0.0134194 0.00200735 0)
(-0.0142692 0.0019901 0)
(-0.0151097 0.00196438 0)
(-0.0159374 0.00193053 0)
(-0.016749 0.00188886 0)
(-0.0175412 0.0018397 0)
(-0.0183109 0.00178341 0)
(-0.0190552 0.00172031 0)
(-0.0197713 0.00165076 0)
(-0.0204565 0.00157511 0)
(-0.0211083 0.00149371 0)
(-0.0217243 0.00140691 0)
(-0.0223023 0.00131507 0)
(-0.0228402 0.00121855 0)
(-0.0233362 0.00111772 0)
(-0.0237885 0.00101294 0)
(-0.0241955 0.000904565 0)
(-0.0245557 0.00079298 0)
(-0.0248679 0.000678555 0)
(-0.0251309 0.000561666 0)
(-0.0253437 0.000442693 0)
(-0.0255057 0.000322023 0)
(-0.025616 0.000200046 0)
(-0.0256744 7.71576e-05 0)
(-0.0256804 -4.62422e-05 0)
(-0.0256341 -0.000169748 0)
(-0.0255353 -0.00029295 0)
(-0.0253844 -0.000415431 0)
(-0.0251817 -0.00053677 0)
(-0.0249279 -0.000656542 0)
(-0.0246237 -0.000774315 0)
(-0.02427 -0.000889652 0)
(-0.0238681 -0.00100212 0)
(-0.0234192 -0.00111126 0)
(-0.0229248 -0.00121665 0)
(-0.0223866 -0.00131783 0)
(-0.0218066 -0.00141435 0)
(-0.0211867 -0.00150577 0)
(-0.0205293 -0.00159164 0)
(-0.0198367 -0.00167153 0)
(-0.0191117 -0.00174499 0)
(-0.018357 -0.0018116 0)
(-0.0175756 -0.00187093 0)
(-0.0167706 -0.00192258 0)
(-0.0159454 -0.00196614 0)
(-0.0151034 -0.00200125 0)
(-0.0142483 -0.00202752 0)
(-0.0133837 -0.00204463 0)
(-0.0125137 -0.00205225 0)
(-0.0116422 -0.00205009 0)
(-0.0107732 -0.00203789 0)
(-0.00991112 -0.00201542 0)
(-0.00906009 -0.00198252 0)
(-0.00822446 -0.00193902 0)
(-0.00740858 -0.00188486 0)
(-0.0066168 -0.00182001 0)
(-0.00585343 -0.00174452 0)
(-0.00512272 -0.00165852 0)
(-0.00442881 -0.00156224 0)
(-0.0037757 -0.00145604 0)
(-0.00316717 -0.00134042 0)
(-0.00260671 -0.00121605 0)
(-0.00209747 -0.00108384 0)
(-0.00164213 -0.000944995 0)
(-0.00124279 -0.000801072 0)
(-0.000900855 -0.000654118 0)
(-0.000616819 -0.000506801 0)
(-0.000390104 -0.000362611 0)
(-0.000218802 -0.000226109 0)
(-9.94094e-05 -0.000103253 0)
(-2.65693e-05 -1.80227e-06 0)
(7.27806e-06 6.82953e-05 0)
(1.29325e-05 9.44064e-05 0)
(5.15724e-06 5.95023e-05 0)
(1.90113e-06 -6.01597e-05 0)
(-6.1535e-06 -7.38049e-05 0)
(-4.37766e-05 -1.20075e-05 0)
(-0.000122212 0.000104059 0)
(-0.00025047 0.000258821 0)
(-0.000435311 0.000439792 0)
(-0.000681388 0.000637085 0)
(-0.00099156 0.000842998 0)
(-0.00136716 0.00105157 0)
(-0.00180819 0.00125819 0)
(-0.00231361 0.00145934 0)
(-0.00288145 0.00165233 0)
(-0.00350902 0.00183511 0)
(-0.00419305 0.00200615 0)
(-0.00492981 0.00216433 0)
(-0.0057152 0.00230883 0)
(-0.00654488 0.00243908 0)
(-0.00741428 0.00255474 0)
(-0.00831873 0.00265561 0)
(-0.00925343 0.00274162 0)
(-0.0102136 0.00281283 0)
(-0.0111944 0.00286935 0)
(-0.012191 0.00291139 0)
(-0.0131987 0.00293922 0)
(-0.0142128 0.00295315 0)
(-0.0152287 0.00295352 0)
(-0.016242 0.00294072 0)
(-0.0172483 0.00291517 0)
(-0.0182434 0.00287729 0)
(-0.0192232 0.00282754 0)
(-0.0201837 0.00276638 0)
(-0.0211211 0.00269429 0)
(-0.0220319 0.00261176 0)
(-0.0229125 0.00251929 0)
(-0.0237596 0.00241737 0)
(-0.0245702 0.00230652 0)
(-0.0253411 0.00218725 0)
(-0.0260697 0.00206008 0)
(-0.0267533 0.00192554 0)
(-0.0273895 0.00178414 0)
(-0.027976 0.00163642 0)
(-0.0285108 0.00148291 0)
(-0.028992 0.00132416 0)
(-0.0294178 0.0011607 0)
(-0.0297868 0.000993082 0)
(-0.0300976 0.000821864 0)
(-0.0303491 0.000647603 0)
(-0.0305403 0.000470867 0)
(-0.0306706 0.000292228 0)
(-0.0307394 0.000112266 0)
(-0.0307463 -6.84322e-05 0)
(-0.0306911 -0.000249271 0)
(-0.0305741 -0.000429649 0)
(-0.0303954 -0.000608956 0)
(-0.0301555 -0.000786575 0)
(-0.0298552 -0.000961882 0)
(-0.0294953 -0.00113425 0)
(-0.029077 -0.00130303 0)
(-0.0286016 -0.0014676 0)
(-0.0280707 -0.00162729 0)
(-0.027486 -0.00178147 0)
(-0.0268496 -0.00192949 0)
(-0.0261637 -0.00207068 0)
(-0.0254308 -0.0022044 0)
(-0.0246535 -0.00233002 0)
(-0.0238346 -0.00244687 0)
(-0.0229774 -0.00255434 0)
(-0.022085 -0.0026518 0)
(-0.0211609 -0.00273864 0)
(-0.020209 -0.00281428 0)
(-0.019233 -0.00287813 0)
(-0.018237 -0.00292966 0)
(-0.0172252 -0.00296835 0)
(-0.0162022 -0.0029937 0)
(-0.0151723 -0.00300526 0)
(-0.0141403 -0.00300264 0)
(-0.013111 -0.00298546 0)
(-0.0120893 -0.00295342 0)
(-0.0110801 -0.00290628 0)
(-0.0100884 -0.00284387 0)
(-0.00911923 -0.00276608 0)
(-0.00817767 -0.00267292 0)
(-0.00726864 -0.00256449 0)
(-0.00639703 -0.00244104 0)
(-0.00556757 -0.00230294 0)
(-0.00478482 -0.00215074 0)
(-0.00405306 -0.00198523 0)
(-0.00337624 -0.00180743 0)
(-0.0027579 -0.0016187 0)
(-0.00220104 -0.00142079 0)
(-0.00170802 -0.00121595 0)
(-0.00128042 -0.00100707 0)
(-0.000918878 -0.000797839 0)
(-0.000622883 -0.000592984 0)
(-0.000390608 -0.000398531 0)
(-0.000218664 -0.000222168 0)
(-0.000101869 -7.36724e-05 0)
(-3.29409e-05 3.46579e-05 0)
(-2.18221e-06 8.742e-05 0)
(2.51309e-06 6.39192e-05 0)
(-1.10075e-06 -5.39023e-05 0)
(-2.36771e-05 -3.95687e-05 0)
(-9.06405e-05 6.27692e-05 0)
(-0.000209622 0.000229143 0)
(-0.000387899 0.000441664 0)
(-0.000631523 0.000685793 0)
(-0.000944592 0.000949812 0)
(-0.00132955 0.00122441 0)
(-0.0017874 0.00150223 0)
(-0.0023179 0.00177749 0)
(-0.00291973 0.00204565 0)
(-0.00359067 0.00230319 0)
(-0.00432774 0.00254739 0)
(-0.00512732 0.00277617 0)
(-0.00598531 0.00298796 0)
(-0.00689721 0.00318163 0)
(-0.0078582 0.00335636 0)
(-0.00886324 0.0035116 0)
(-0.00990711 0.00364703 0)
(-0.0109845 0.00376252 0)
(-0.0120901 0.00385809 0)
(-0.0132184 0.00393386 0)
(-0.014364 0.00399007 0)
(-0.0155217 0.00402706 0)
(-0.0166862 0.0040452 0)
(-0.0178523 0.00404496 0)
(-0.019015 0.00402682 0)
(-0.0201693 0.00399134 0)
(-0.0213104 0.00393909 0)
(-0.0224337 0.00387065 0)
(-0.0235347 0.00378667 0)
(-0.0246091 0.00368778 0)
(-0.0256528 0.00357464 0)
(-0.0266618 0.00344792 0)
(-0.0276323 0.0033083 0)
(-0.0285608 0.00315647 0)
(-0.0294439 0.00299314 0)
(-0.0302783 0.002819 0)
(-0.0310613 0.00263478 0)
(-0.0317898 0.00244118 0)
(-0.0324614 0.00223894 0)
(-0.0330737 0.00202879 0)
(-0.0336246 0.00181147 0)
(-0.034112 0.00158771 0)
(-0.0345344 0.00135828 0)
(-0.0348901 0.00112392 0)
(-0.0351778 0.000885418 0)
(-0.0353966 0.000643539 0)
(-0.0355456 0.00039907 0)
(-0.0356241 0.000152806 0)
(-0.0356318 -9.44481e-05 0)
(-0.0355685 -0.000341878 0)
(-0.0354343 -0.00058866 0)
(-0.0352295 -0.000833959 0)
(-0.0349547 -0.00107693 0)
(-0.0346107 -0.00131672 0)
(-0.0341986 -0.00155247 0)
(-0.0337195 -0.00178331 0)
(-0.0331752 -0.00200837 0)
(-0.0325672 -0.00222675 0)
(-0.0318978 -0.00243759 0)
(-0.0311692 -0.00263998 0)
(-0.0303839 -0.00283305 0)
(-0.0295447 -0.00301592 0)
(-0.0286547 -0.00318769 0)
(-0.0277171 -0.00334752 0)
(-0.0267354 -0.00349453 0)
(-0.0257134 -0.00362789 0)
(-0.0246551 -0.00374679 0)
(-0.0235647 -0.00385041 0)
(-0.0224466 -0.003938 0)
(-0.0213053 -0.00400881 0)
(-0.0201458 -0.00406217 0)
(-0.0189729 -0.00409741 0)
(-0.0177919 -0.00411394 0)
(-0.016608 -0.00411122 0)
(-0.0154266 -0.00408879 0)
(-0.0142532 -0.00404625 0)
(-0.0130933 -0.0039833 0)
(-0.0119528 -0.00389973 0)
(-0.010837 -0.00379544 0)
(-0.00975178 -0.00367049 0)
(-0.00870255 -0.00352505 0)
(-0.00769478 -0.00335948 0)
(-0.00673373 -0.00317435 0)
(-0.00582445 -0.00297047 0)
(-0.00497168 -0.00274892 0)
(-0.00417978 -0.00251114 0)
(-0.00345266 -0.00225899 0)
(-0.00279365 -0.00199483 0)
(-0.00220536 -0.00172165 0)
(-0.00168964 -0.00144324 0)
(-0.00124732 -0.00116432 0)
(-0.000878129 -0.000890869 0)
(-0.000580505 -0.000630322 0)
(-0.000351419 -0.000392001 0)
(-0.000186158 -0.00018753 0)
(-7.80604e-05 -3.12799e-05 0)
(-1.9034e-05 5.90178e-05 0)
(-3.6405e-07 5.9903e-05 0)
(-4.13971e-06 -3.83406e-05 0)
(-4.192e-05 1.87351e-05 0)
(-0.000139961 0.000173837 0)
(-0.000301949 0.000401064 0)
(-0.000533124 0.000680698 0)
(-0.000838575 0.000996485 0)
(-0.00122164 0.00133511 0)
(-0.00168411 0.00168581 0)
(-0.00222653 0.00203993 0)
(-0.00284826 0.00239054 0)
(-0.00354763 0.00273214 0)
(-0.00432208 0.00306036 0)
(-0.00516831 0.00337178 0)
(-0.00608235 0.00366375 0)
(-0.00705973 0.00393425 0)
(-0.00809556 0.00418174 0)
(-0.00918459 0.00440513 0)
(-0.0103213 0.00460368 0)
(-0.0115002 0.00477691 0)
(-0.0127152 0.00492459 0)
(-0.0139606 0.00504669 0)
(-0.0152305 0.00514334 0)
(-0.0165189 0.0052148 0)
(-0.0178199 0.00526145 0)
(-0.0191279 0.00528376 0)
(-0.020437 0.0052823 0)
(-0.0217418 0.00525768 0)
(-0.0230367 0.00521057 0)
(-0.0243164 0.00514171 0)
(-0.0255759 0.00505186 0)
(-0.02681 0.00494181 0)
(-0.0280141 0.00481239 0)
(-0.0291836 0.00466443 0)
(-0.030314 0.00449881 0)
(-0.0314012 0.0043164 0)
(-0.0324412 0.00411811 0)
(-0.0334302 0.00390483 0)
(-0.0343647 0.00367748 0)
(-0.0352413 0.00343699 0)
(-0.036057 0.0031843 0)
(-0.0368089 0.00292034 0)
(-0.0374944 0.00264608 0)
(-0.038111 0.00236247 0)
(-0.0386566 0.00207049 0)
(-0.0391292 0.00177112 0)
(-0.0395273 0.00146535 0)
(-0.0398493 0.00115418 0)
(-0.0400941 0.000838626 0)
(-0.0402607 0.000519711 0)
(-0.0403484 0.000198474 0)
(-0.0403569 -0.000124036 0)
(-0.040286 -0.000446756 0)
(-0.0401357 -0.000768612 0)
(-0.0399064 -0.00108852 0)
(-0.0395987 -0.00140537 0)
(-0.0392136 -0.00171806 0)
(-0.0387523 -0.00202546 0)
(-0.038216 -0.00232645 0)
(-0.0376067 -0.00261989 0)
(-0.0369263 -0.00290463 0)
(-0.036177 -0.00317952 0)
(-0.0353614 -0.00344342 0)
(-0.0344824 -0.00369517 0)
(-0.033543 -0.00393363 0)
(-0.0325466 -0.00415766 0)
(-0.0314969 -0.00436615 0)
(-0.0303977 -0.00455798 0)
(-0.0292533 -0.00473207 0)
(-0.0280681 -0.00488737 0)
(-0.0268466 -0.00502285 0)
(-0.0255939 -0.00513753 0)
(-0.024315 -0.00523046 0)
(-0.0230152 -0.00530076 0)
(-0.0217 -0.00534761 0)
(-0.0203752 -0.00537025 0)
(-0.0190465 -0.00536801 0)
(-0.01772 -0.00534031 0)
(-0.0164016 -0.00528666 0)
(-0.0150976 -0.0052067 0)
(-0.0138141 -0.0051002 0)
(-0.0125573 -0.00496708 0)
(-0.0113334 -0.00480742 0)
(-0.0101484 -0.00462152 0)
(-0.00900822 -0.00440989 0)
(-0.0079187 -0.00417329 0)
(-0.00688531 -0.00391282 0)
(-0.0059132 -0.00362992 0)
(-0.00500714 -0.00332647 0)
(-0.00417138 -0.00300487 0)
(-0.0034096 -0.00266811 0)
(-0.00272474 -0.00231997 0)
(-0.00211892 -0.00196512 0)
(-0.00159333 -0.00160935 0)
(-0.00114803 -0.0012598 0)
(-0.000781894 -0.000925245 0)
(-0.00049246 -0.000616505 0)
(-0.000275705 -0.000346832 0)
(-0.000125844 -0.00013235 0)
(-3.66974e-05 7.3612e-06 0)
(-3.2998e-06 4.68939e-05 0)
(-7.12992e-06 -1.33204e-05 0)
(-6.0339e-05 0.000101947 0)
(-0.000190299 0.000322723 0)
(-0.000396665 0.000621855 0)
(-0.000682488 0.000978264 0)
(-0.00105173 0.00137431 0)
(-0.0015068 0.00179534 0)
(-0.0020487 0.00222931 0)
(-0.00267736 0.00266639 0)
(-0.00339161 0.0030986 0)
(-0.00418936 0.00351949 0)
(-0.00506766 0.00392389 0)
(-0.0060228 0.00430768 0)
(-0.00705046 0.00466762 0)
(-0.00814579 0.00500121 0)
(-0.00930351 0.00530653 0)
(-0.010518 0.00558219 0)
(-0.0117833 0.00582719 0)
(-0.0130933 0.00604091 0)
(-0.0144419 0.00622301 0)
(-0.0158225 0.00637338 0)
(-0.017229 0.00649214 0)
(-0.0186548 0.00657958 0)
(-0.0200936 0.00663613 0)
(-0.0215392 0.00666234 0)
(-0.0229853 0.00665888 0)
(-0.0244259 0.00662649 0)
(-0.0258551 0.006566 0)
(-0.0272671 0.00647828 0)
(-0.0286563 0.00636428 0)
(-0.0300172 0.00622498 0)
(-0.0313448 0.00606138 0)
(-0.0326338 0.00587455 0)
(-0.0338796 0.00566555 0)
(-0.0350776 0.00543549 0)
(-0.0362234 0.00518548 0)
(-0.0373129 0.00491664 0)
(-0.0383422 0.00463014 0)
(-0.0393077 0.00432713 0)
(-0.040206 0.00400879 0)
(-0.041034 0.0036763 0)
(-0.0417888 0.00333086 0)
(-0.0424677 0.00297368 0)
(-0.0430683 0.00260598 0)
(-0.0435887 0.00222901 0)
(-0.0440269 0.00184399 0)
(-0.0443813 0.00145221 0)
(-0.0446508 0.00105493 0)
(-0.0448342 0.000653438 0)
(-0.0449307 0.000249047 0)
(-0.0449401 -0.000156924 0)
(-0.0448619 -0.000563141 0)
(-0.0446965 -0.00096825 0)
(-0.0444441 -0.00137089 0)
(-0.0441055 -0.00176967 0)
(-0.0436817 -0.0021632 0)
(-0.0431739 -0.00255007 0)
(-0.0425837 -0.00292886 0)
(-0.041913 -0.00329815 0)
(-0.041164 -0.00365649 0)
(-0.0403392 -0.00400246 0)
(-0.0394414 -0.00433461 0)
(-0.0384736 -0.0046515 0)
(-0.0374393 -0.0049517 0)
(-0.0363422 -0.0052338 0)
(-0.0351862 -0.0054964 0)
(-0.0339756 -0.00573811 0)
(-0.0327149 -0.00595759 0)
(-0.0314091 -0.00615352 0)
(-0.030063 -0.00632463 0)
(-0.0286822 -0.0064697 0)
(-0.0272721 -0.00658756 0)
(-0.0258385 -0.00667714 0)
(-0.0243874 -0.00673741 0)
(-0.0229251 -0.00676746 0)
(-0.0214578 -0.00676646 0)
(-0.019992 -0.00673372 0)
(-0.0185343 -0.00666866 0)
(-0.0170914 -0.00657086 0)
(-0.0156699 -0.00644006 0)
(-0.0142765 -0.00627622 0)
(-0.012918 -0.00607947 0)
(-0.0116007 -0.00585023 0)
(-0.0103312 -0.00558916 0)
(-0.0091157 -0.0052973 0)
(-0.00796005 -0.00497601 0)
(-0.00686985 -0.00462712 0)
(-0.00585026 -0.00425299 0)
(-0.00490591 -0.00385656 0)
(-0.00404084 -0.0034415 0)
(-0.00325835 -0.00301234 0)
(-0.00256096 -0.00257465 0)
(-0.00195025 -0.00213522 0)
(-0.00142677 -0.00170229 0)
(-0.000989951 -0.0012859 0)
(-0.000638054 -0.000898168 0)
(-0.000367922 -0.000553748 0)
(-0.000174805 -0.000270194 0)
(-5.46036e-05 -6.84833e-05 0)
(-6.20216e-06 2.47001e-05 0)
(-1.00324e-05 2.1101e-05 0)
(-7.86105e-05 0.000210331 0)
(-0.000240724 0.000510121 0)
(-0.000492067 0.000892607 0)
(-0.000833446 0.00133574 0)
(-0.00126761 0.00182081 0)
(-0.00179591 0.00233206 0)
(-0.00241847 0.00285636 0)
(-0.00313446 0.00338284 0)
(-0.00394214 0.00390256 0)
(-0.00483886 0.0044082 0)
(-0.0058212 0.00489381 0)
(-0.00688506 0.0053546 0)
(-0.00802568 0.00578677 0)
(-0.00923784 0.00618732 0)
(-0.0105158 0.00655395 0)
(-0.0118537 0.00688494 0)
(-0.013245 0.00717907 0)
(-0.0146833 0.00743551 0)
(-0.0161619 0.00765381 0)
(-0.017674 0.0078338 0)
(-0.0192129 0.00797558 0)
(-0.0207716 0.00807944 0)
(-0.0223435 0.00814586 0)
(-0.0239217 0.00817548 0)
(-0.0254997 0.00816907 0)
(-0.0270709 0.00812751 0)
(-0.028629 0.00805177 0)
(-0.0301678 0.0079429 0)
(-0.0316813 0.00780202 0)
(-0.0331636 0.0076303 0)
(-0.034609 0.00742898 0)
(-0.0360124 0.00719932 0)
(-0.0373683 0.00694261 0)
(-0.038672 0.00666019 0)
(-0.0399187 0.00635341 0)
(-0.0411039 0.00602366 0)
(-0.0422236 0.00567232 0)
(-0.0432737 0.00530082 0)
(-0.0442507 0.00491058 0)
(-0.0451511 0.00450307 0)
(-0.0459718 0.00407973 0)
(-0.04671 0.00364205 0)
(-0.0473631 0.00319153 0)
(-0.0479288 0.00272967 0)
(-0.0484053 0.00225801 0)
(-0.0487906 0.00177807 0)
(-0.0490836 0.00129144 0)
(-0.049283 0.000799674 0)
(-0.0493881 0.000304382 0)
(-0.0493984 -0.000192824 0)
(-0.0493136 -0.000690309 0)
(-0.049134 -0.00118642 0)
(-0.0488598 -0.00167949 0)
(-0.048492 -0.00216783 0)
(-0.0480314 -0.00264973 0)
(-0.0474797 -0.00312348 0)
(-0.0468383 -0.00358734 0)
(-0.0461095 -0.00403957 0)
(-0.0452955 -0.00447843 0)
(-0.044399 -0.00490216 0)
(-0.0434231 -0.005309 0)
(-0.042371 -0.00569721 0)
(-0.0412465 -0.00606505 0)
(-0.0400535 -0.0064108 0)
(-0.0387963 -0.00673275 0)
(-0.0374795 -0.00702923 0)
(-0.036108 -0.00729861 0)
(-0.034687 -0.0075393 0)
(-0.0332219 -0.00774975 0)
(-0.0317185 -0.00792851 0)
(-0.0301828 -0.00807416 0)
(-0.0286209 -0.0081854 0)
(-0.0270394 -0.00826101 0)
(-0.0254448 -0.00829991 0)
(-0.023844 -0.00830111 0)
(-0.0222439 -0.0082638 0)
(-0.0206515 -0.00818731 0)
(-0.019074 -0.00807116 0)
(-0.0175185 -0.00791508 0)
(-0.0159922 -0.00771904 0)
(-0.0145023 -0.00748325 0)
(-0.0130556 -0.00720826 0)
(-0.0116592 -0.00689492 0)
(-0.0103195 -0.0065445 0)
(-0.009043 -0.0061587 0)
(-0.00783562 -0.00573973 0)
(-0.00670295 -0.00529043 0)
(-0.00565 -0.0048143 0)
(-0.00468121 -0.00431568 0)
(-0.00380032 -0.00379985 0)
(-0.00301028 -0.00327323 0)
(-0.00231317 -0.00274354 0)
(-0.00171011 -0.00222008 0)
(-0.00120122 -0.00171398 0)
(-0.000785594 -0.00123851 0)
(-0.000461052 -0.000809489 0)
(-0.000223983 -0.000445608 0)
(-7.24104e-05 -0.000168849 0)
(-9.02513e-06 -6.65298e-06 0)
(-1.28308e-05 6.47582e-05 0)
(-9.65506e-05 0.000343785 0)
(-0.000290661 0.000736169 0)
(-0.000587035 0.00121373 0)
(-0.000984271 0.00175378 0)
(-0.00148385 0.00233681 0)
(-0.00208602 0.00294618 0)
(-0.00278991 0.00356785 0)
(-0.0035939 0.00419005 0)
(-0.00449552 0.004803 0)
(-0.00549156 0.00539856 0)
(-0.00657806 0.0059701 0)
(-0.00775043 0.00651217 0)
(-0.00900348 0.00702042 0)
(-0.0103316 0.00749138 0)
(-0.0117286 0.00792237 0)
(-0.0131881 0.00831134 0)
(-0.0147033 0.00865683 0)
(-0.0162675 0.00895784 0)
(-0.0178734 0.00921377 0)
(-0.0195139 0.0094244 0)
(-0.0211818 0.00958977 0)
(-0.0228699 0.00971021 0)
(-0.0245708 0.00978624 0)
(-0.0262776 0.00981858 0)
(-0.0279831 0.00980811 0)
(-0.0296805 0.00975584 0)
(-0.0313629 0.0096629 0)
(-0.0330239 0.00953052 0)
(-0.0346569 0.00936001 0)
(-0.0362558 0.00915276 0)
(-0.0378146 0.00891019 0)
(-0.0393276 0.00863382 0)
(-0.0407892 0.00832518 0)
(-0.0421941 0.00798585 0)
(-0.0435375 0.00761744 0)
(-0.0448144 0.00722159 0)
(-0.0460206 0.00679996 0)
(-0.0471517 0.00635424 0)
(-0.0482039 0.00588614 0)
(-0.0491735 0.0053974 0)
(-0.0500573 0.00488975 0)
(-0.0508522 0.00436497 0)
(-0.0515554 0.00382485 0)
(-0.0521646 0.00327118 0)
(-0.0526776 0.00270581 0)
(-0.0530927 0.00213056 0)
(-0.0534082 0.00154732 0)
(-0.0536231 0.000957962 0)
(-0.0537365 0.000364404 0)
(-0.0537478 -0.000231424 0)
(-0.0536569 -0.000827568 0)
(-0.0534639 -0.00142205 0)
(-0.0531692 -0.00201288 0)
(-0.0527736 -0.00259804 0)
(-0.0522784 -0.00317549 0)
(-0.0516848 -0.00374318 0)
(-0.0509949 -0.00429905 0)
(-0.0502107 -0.00484101 0)
(-0.0493348 -0.00536698 0)
(-0.0483701 -0.00587487 0)
(-0.0473197 -0.00636259 0)
(-0.0461872 -0.00682807 0)