/*--------------------------------*- C++ -*----------------------------------*\
| =========                 |                                                 |
| \\      /  F ield         | OpenFOAM: The Open Source CFD Toolbox           |
|  \\    /   O peration     | Version:  2212                                  |
|   \\  /    A nd           | Website:  www.openfoam.com                      |
|    \\/     M anipulation  |                                                 |
\*---------------------------------------------------------------------------*/
FoamFile
{
    version     2.0;
    format      ascii;
    arch        "LSB;label=32;scalar=64";
    class       surfaceScalarField;
    location    "0.098";
    object      phi;
}
// * * * * * * * * * * * * * * * * * * * * * * * * * * * * * * * * * * * * * //

dimensions      [0 3 -1 0 0 0 0];

oriented        oriented;

internalField   nonuniform List<scalar> 
19800
(
7.07122e-11
-7.07182e-11
2.45484e-10
-1.74746e-10
4.399e-10
-1.94411e-10
5.92917e-10
-1.5302e-10
6.7031e-10
-7.73913e-11
6.53776e-10
1.65277e-11
5.34383e-10
1.19403e-10
3.08917e-10
2.25428e-10
-2.20809e-11
3.31028e-10
-4.5589e-10
4.33803e-10
-9.88158e-10
5.32274e-10
-1.61357e-09
6.25415e-10
-2.32611e-09
7.12531e-10
-3.11929e-09
7.93212e-10
-3.98642e-09
8.6714e-10
-4.9206e-09
9.34179e-10
-5.91484e-09
9.9424e-10
-6.96219e-09
1.04734e-09
-8.05572e-09
1.09352e-09
-9.18857e-09
1.13286e-09
-1.0354e-08
1.16546e-09
-1.15455e-08
1.19146e-09
-1.27565e-08
1.21104e-09
-1.39809e-08
1.22434e-09
-1.52125e-08
1.23156e-09
-1.64454e-08
1.23288e-09
-1.76739e-08
1.22851e-09
-1.88925e-08
1.21864e-09
-2.0096e-08
1.20348e-09
-2.12793e-08
1.18324e-09
-2.24374e-08
1.15813e-09
-2.35657e-08
1.12836e-09
-2.46599e-08
1.09414e-09
-2.57156e-08
1.05569e-09
-2.67288e-08
1.01323e-09
-2.76958e-08
9.6697e-10
-2.86129e-08
9.17137e-10
-2.94769e-08
8.63956e-10
-3.02845e-08
8.07639e-10
-3.10329e-08
7.48406e-10
-3.17194e-08
6.86477e-10
-3.23415e-08
6.22086e-10
-3.2897e-08
5.55461e-10
-3.33838e-08
4.86825e-10
-3.38002e-08
4.16407e-10
-3.41446e-08
3.4444e-10
-3.44158e-08
2.71159e-10
-3.46126e-08
1.96806e-10
-3.47342e-08
1.21625e-10
-3.47801e-08
4.58641e-11
-3.47499e-08
-3.02175e-11
-3.46435e-08
-1.06376e-10
-3.44611e-08
-1.82367e-10
-3.42032e-08
-2.5792e-10
-3.38704e-08
-3.32766e-10
-3.34638e-08
-4.06642e-10
-3.29845e-08
-4.7927e-10
-3.24341e-08
-5.50372e-10
-3.18145e-08
-6.19682e-10
-3.11276e-08
-6.86921e-10
-3.03758e-08
-7.51798e-10
-2.95617e-08
-8.14029e-10
-2.86884e-08
-8.73341e-10
-2.77589e-08
-9.29444e-10
-2.67769e-08
-9.82047e-10
-2.5746e-08
-1.03087e-09
-2.46704e-08
-1.07566e-09
-2.35543e-08
-1.11613e-09
-2.24022e-08
-1.15201e-09
-2.12192e-08
-1.18304e-09
-2.00102e-08
-1.20898e-09
-1.87807e-08
-1.22955e-09
-1.75361e-08
-1.24454e-09
-1.62824e-08
-1.25372e-09
-1.50255e-08
-1.25688e-09
-1.37717e-08
-1.25382e-09
-1.25273e-08
-1.24437e-09
-1.1299e-08
-1.22836e-09
-1.00933e-08
-1.20565e-09
-8.9172e-09
-1.17612e-09
-7.77753e-09
-1.13967e-09
-6.68129e-09
-1.09624e-09
-5.6355e-09
-1.04579e-09
-4.64715e-09
-9.88351e-10
-3.72318e-09
-9.23971e-10
-2.8704e-09
-8.52775e-10
-2.09545e-09
-7.74958e-10
-1.40464e-09
-6.9081e-10
-8.03893e-10
-6.00748e-10
-2.98533e-10
-5.0536e-10
1.06947e-10
-4.05479e-10
4.09235e-10
-3.02287e-10
6.06721e-10
-1.97487e-10
7.00315e-10
-9.35951e-11
6.94737e-10
5.57949e-12
6.00605e-10
9.41348e-11
4.37693e-10
1.62913e-10
2.40478e-10
1.97215e-10
6.74579e-11
1.7302e-10
6.74595e-11
1.70864e-10
-2.41617e-10
4.73582e-10
-4.77461e-10
7.67396e-10
-4.88232e-10
9.47133e-10
-3.32749e-10
9.40011e-10
-7.02899e-11
6.99946e-10
2.56618e-10
2.00267e-10
6.19067e-10
-5.71821e-10
9.97538e-10
-1.61943e-09
1.37864e-09
-2.93888e-09
1.75323e-09
-4.52153e-09
2.11495e-09
-6.35544e-09
2.45929e-09
-8.42613e-09
2.78321e-09
-1.07174e-08
3.08453e-09
-1.32121e-08
3.36177e-09
-1.5892e-08
3.61405e-09
-1.87385e-08
3.8408e-09
-2.17329e-08
4.04175e-09
-2.48563e-08
4.21691e-09
-2.80899e-08
4.36644e-09
-3.14151e-08
4.49063e-09
-3.48135e-08
4.5899e-09
-3.82672e-08
4.66475e-09
-4.17586e-08
4.71573e-09
-4.52705e-08
4.74348e-09
-4.87863e-08
4.74869e-09
-5.22898e-08
4.73203e-09
-5.57654e-08
4.69427e-09
-5.91981e-08
4.63615e-09
-6.25733e-08
4.55846e-09
-6.58771e-08
4.46198e-09
-6.90963e-08
4.34753e-09
-7.22181e-08
4.21592e-09
-7.52304e-08
4.06796e-09
-7.81216e-08
3.90449e-09
-8.0881e-08
3.72633e-09
-8.34982e-08
3.53433e-09
-8.59635e-08
3.32935e-09
-8.82681e-08
3.11223e-09
-9.04036e-08
2.88383e-09
-9.23621e-08
2.64501e-09
-9.41366e-08
2.39666e-09
-9.57208e-08
2.13964e-09
-9.71089e-08
1.87485e-09
-9.82957e-08
1.60319e-09
-9.92768e-08
1.32558e-09
-1.00049e-07
1.04292e-09
-1.00608e-07
7.56139e-10
-1.00952e-07
4.66195e-10
-1.01081e-07
1.74044e-10
-1.00991e-07
-1.19345e-10
-1.00685e-07
-4.12982e-10
-1.00161e-07
-7.05877e-10
-9.94223e-08
-9.97022e-10
-9.84697e-08
-1.28538e-09
-9.73064e-08
-1.5699e-09
-9.59361e-08
-1.84955e-09
-9.43632e-08
-2.12328e-09
-9.25929e-08
-2.39e-09
-9.06312e-08
-2.64864e-09
-8.84849e-08
-2.89813e-09
-8.61616e-08
-3.13736e-09
-8.36697e-08
-3.36526e-09
-8.10184e-08
-3.58074e-09
-7.82177e-08
-3.78272e-09
-7.52785e-08
-3.97013e-09
-7.22122e-08
-4.14194e-09
-6.90312e-08
-4.2971e-09
-6.57486e-08
-4.43462e-09
-6.23782e-08
-4.55348e-09
-5.89344e-08
-4.65274e-09
-5.54325e-08
-4.73147e-09
-5.18882e-08
-4.7888e-09
-4.8318e-08
-4.8239e-09
-4.47389e-08
-4.836e-09
-4.11684e-08
-4.82438e-09
-3.76243e-08
-4.7884e-09
-3.41252e-08
-4.7275e-09
-3.06896e-08
-4.64119e-09
-2.73367e-08
-4.52909e-09
-2.40854e-08
-4.39093e-09
-2.09551e-08
-4.22656e-09
-1.79649e-08
-4.036e-09
-1.51338e-08
-3.81943e-09
-1.24805e-08
-3.57726e-09
-1.00231e-08
-3.31015e-09
-7.77901e-09
-3.01909e-09
-5.76435e-09
-2.70547e-09
-3.99386e-09
-2.37123e-09
-2.4802e-09
-2.01902e-09
-1.23323e-09
-1.65245e-09
-2.59049e-10
-1.27647e-09
4.41416e-10
-8.97951e-10
8.74331e-10
-5.26508e-10
1.05569e-09
-1.75777e-10
1.01509e-09
1.34736e-10
8.00824e-10
3.7718e-10
4.85899e-10
5.12139e-10
1.72927e-10
4.85994e-10
2.40386e-10
1.87695e-10
-4.29306e-10
4.77252e-10
-7.67047e-10
6.96327e-10
-7.07301e-10
7.19737e-10
-3.56167e-10
4.56558e-10
1.92914e-10
-1.55163e-10
8.6831e-10
-1.15396e-09
1.61789e-09
-2.5606e-09
2.40414e-09
-4.38215e-09
3.20019e-09
-6.61561e-09
3.9867e-09
-9.25034e-09
4.74968e-09
-1.22701e-08
5.47906e-09
-1.56545e-08
6.16758e-09
-1.938e-08
6.81003e-09
-2.3421e-08
7.40282e-09
-2.77504e-08
7.94345e-09
-3.234e-08
8.43034e-09
-3.71609e-08
8.86265e-09
-4.2184e-08
9.24005e-09
-4.73802e-08
9.56262e-09
-5.27203e-08
9.8308e-09
-5.81757e-08
1.00453e-08
-6.37181e-08
1.02071e-08
-6.93197e-08
1.03173e-08
-7.49533e-08
1.03771e-08
-8.05925e-08
1.03879e-08
-8.62117e-08
1.03512e-08
-9.17859e-08
1.02684e-08
-9.7291e-08
1.01413e-08
-1.02704e-07
9.97146e-09
-1.08003e-07
9.76054e-09
-1.13165e-07
9.5103e-09
-1.18172e-07
9.22249e-09
-1.23003e-07
8.8989e-09
-1.2764e-07
8.54132e-09
-1.32065e-07
8.15158e-09
-1.36262e-07
7.7315e-09
-1.40216e-07
7.28294e-09
-1.43911e-07
6.80777e-09
-1.47335e-07
6.30786e-09
-1.50475e-07
5.78513e-09
-1.5332e-07
5.24149e-09
-1.5586e-07
4.67887e-09
-1.58084e-07
4.09923e-09
-1.59985e-07
3.50454e-09
-1.61556e-07
2.89681e-09
-1.62792e-07
2.27808e-09
-1.63686e-07
1.65038e-09
-1.64235e-07
1.0158e-09
-1.64438e-07
3.76454e-10
-1.64292e-07
-2.6553e-10
-1.63797e-07
-9.08001e-10
-1.62954e-07
-1.54876e-09
-1.61765e-07
-2.18557e-09
-1.60234e-07
-2.81619e-09
-1.58366e-07
-3.43834e-09
-1.56166e-07
-4.04971e-09
-1.53641e-07
-4.648e-09
-1.508e-07
-5.23087e-09
-1.47653e-07
-5.79597e-09
-1.4421e-07
-6.34093e-09
-1.40484e-07
-6.86339e-09
-1.36488e-07
-7.36099e-09
-1.32238e-07
-7.83137e-09
-1.27748e-07
-8.2722e-09
-1.23037e-07
-8.68116e-09
-1.18123e-07
-9.05599e-09
-1.13026e-07
-9.39446e-09
-1.07766e-07
-9.69437e-09
-1.02366e-07
-9.9536e-09
-9.68486e-08
-1.01701e-08
-9.12382e-08
-1.03419e-08
-8.55599e-08
-1.04671e-08
-7.98397e-08
-1.05441e-08
-7.41046e-08
-1.0571e-08
-6.83824e-08
-1.05466e-08
-6.27014e-08
-1.04694e-08
-5.70906e-08
-1.03383e-08
-5.15794e-08
-1.01524e-08
-4.61975e-08
-9.91093e-09
-4.0975e-08
-9.61347e-09
-3.59417e-08
-9.25987e-09
-3.11274e-08
-8.85034e-09
-2.65612e-08
-8.38553e-09
-2.22719e-08
-7.86656e-09
-1.82869e-08
-7.29516e-09
-1.46322e-08
-6.6738e-09
-1.13318e-08
-6.0059e-09
-8.40697e-09
-5.29607e-09
-5.8755e-09
-4.55049e-09
-3.75057e-09
-3.77738e-09
-2.03928e-09
-2.98776e-09
-7.40808e-10
-2.19643e-09
1.56062e-10
-1.42338e-09
6.76068e-10
-6.95782e-10
8.61458e-10
-5.06509e-11
7.76804e-10
4.61836e-10
5.14105e-10
7.74839e-10
1.97696e-10
8.02406e-10
4.38082e-10
1.49356e-10
-5.78654e-10
3.27087e-10
-9.44759e-10
3.51183e-10
-7.31408e-10
8.93507e-11
-9.4354e-11
-5.56107e-10
8.38364e-10
-1.65397e-09
1.96618e-09
-3.24895e-09
3.21286e-09
-5.3663e-09
4.52148e-09
-8.0157e-09
5.84963e-09
-1.11948e-08
7.16577e-09
-1.48916e-08
8.44645e-09
-1.90868e-08
9.67428e-09
-2.37555e-08
1.08364e-08
-2.88687e-08
1.19233e-08
-3.43941e-08
1.29282e-08
-4.02971e-08
1.38464e-08
-4.65414e-08
1.46747e-08
-5.30898e-08
1.54111e-08
-5.99044e-08
1.60546e-08
-6.69469e-08
1.66051e-08
-7.41792e-08
1.70631e-08
-8.15633e-08
1.74295e-08
-8.90619e-08
1.77056e-08
-9.66378e-08
1.78933e-08
-1.04255e-07
1.79944e-08
-1.11878e-07
1.80112e-08
-1.19473e-07
1.79461e-08
-1.27007e-07
1.78017e-08
-1.34446e-07
1.75806e-08
-1.4176e-07
1.72857e-08
-1.48919e-07
1.69197e-08
-1.55895e-07
1.64857e-08
-1.62659e-07
1.59865e-08
-1.69185e-07
1.54254e-08
-1.75449e-07
1.48054e-08
-1.81427e-07
1.41295e-08
-1.87097e-07
1.34011e-08
-1.92437e-07
1.26232e-08
-1.97428e-07
1.17991e-08
-2.02053e-07
1.09322e-08
-2.06293e-07
1.00256e-08
-2.10134e-07
9.08273e-09
-2.13562e-07
8.10696e-09
-2.16565e-07
7.10169e-09
-2.19131e-07
6.07036e-09
-2.2125e-07
5.01645e-09
-2.22916e-07
3.94349e-09
-2.2412e-07
2.85505e-09
-2.24859e-07
1.75476e-09
-2.25129e-07
6.46288e-10
-2.24928e-07
-4.66654e-10
-2.24256e-07
-1.58031e-09
-2.23114e-07
-2.69086e-09
-2.21505e-07
-3.79446e-09
-2.19434e-07
-4.88717e-09
-2.16907e-07
-5.96507e-09
-2.13933e-07
-7.02417e-09
-2.1052e-07
-8.06045e-09
-2.06681e-07
-9.06985e-09
-2.02429e-07
-1.00483e-08
-1.97778e-07
-1.09918e-08
-1.92745e-07
-1.18962e-08
-1.87349e-07
-1.27575e-08
-1.81609e-07
-1.35715e-08
-1.75546e-07
-1.43343e-08
-1.69186e-07
-1.5042e-08
-1.62551e-07
-1.56905e-08
-1.55669e-07
-1.62761e-08
-1.48569e-07
-1.67951e-08
-1.41279e-07
-1.72438e-08
-1.3383e-07
-1.76188e-08
-1.26255e-07
-1.79166e-08
-1.18588e-07
-1.81342e-08
-1.10864e-07
-1.82686e-08
-1.03117e-07
-1.83171e-08
-9.53867e-08
-1.82773e-08
-8.77092e-08
-1.81469e-08
-8.01234e-08
-1.79242e-08
-7.26681e-08
-1.76076e-08
-6.53829e-08
-1.71962e-08
-5.8307e-08
-1.66893e-08
-5.14798e-08
-1.60871e-08
-4.49402e-08
-1.539e-08
-3.87262e-08
-1.45995e-08
-3.28748e-08
-1.3718e-08
-2.74213e-08
-1.27486e-08
-2.23988e-08
-1.16963e-08
-1.78376e-08
-1.05672e-08
-1.3764e-08
-9.36967e-09
-1.01996e-08
-8.11481e-09
-7.16006e-09
-6.81696e-09
-4.6529e-09
-5.49491e-09
-2.67599e-09
-4.17334e-09
-1.21476e-09
-2.8846e-09
-2.39228e-10
-1.67131e-09
2.9966e-10
-5.89538e-10
4.74253e-10
2.87241e-10
3.84753e-10
8.64338e-10
1.65105e-10
1.02206e-09
6.0319e-10
7.88154e-11
-6.57466e-10
7.57643e-11
-9.41729e-10
-1.82307e-10
-4.73313e-10
-8.24349e-10
5.47684e-10
-1.94699e-09
1.961e-09
-3.61957e-09
3.63878e-09
-5.88819e-09
5.48148e-09
-8.77944e-09
7.41271e-09
-1.23037e-08
9.37392e-09
-1.64584e-08
1.13204e-08
-2.123e-08
1.32181e-08
-2.65967e-08
1.5041e-08
-3.25301e-08
1.67697e-08
-3.89963e-08
1.83895e-08
-4.59576e-08
1.98895e-08
-5.33732e-08
2.1262e-08
-6.12002e-08
2.25016e-08
-6.9394e-08
2.36049e-08
-7.79092e-08
2.45698e-08
-8.66997e-08
2.53956e-08
-9.57193e-08
2.60827e-08
-1.04922e-07
2.66321e-08
-1.14262e-07
2.70456e-08
-1.23694e-07
2.73256e-08
-1.33175e-07
2.74748e-08
-1.4266e-07
2.74963e-08
-1.52107e-07
2.73938e-08
-1.61477e-07
2.71709e-08
-1.70727e-07
2.68315e-08
-1.79822e-07
2.63798e-08
-1.88722e-07
2.58201e-08
-1.97393e-07
2.51568e-08
-2.05801e-07
2.43943e-08
-2.13913e-07
2.35373e-08
-2.21698e-07
2.25905e-08
-2.29127e-07
2.15586e-08
-2.36172e-07
2.04464e-08
-2.42808e-07
1.92588e-08
-2.4901e-07
1.80008e-08
-2.54755e-07
1.66773e-08
-2.60022e-07
1.52933e-08
-2.64794e-07
1.3854e-08
-2.69051e-07
1.23644e-08
-2.72779e-07
1.08299e-08
-2.75965e-07
9.2557e-09
-2.78595e-07
7.64709e-09
-2.80661e-07
6.00948e-09
-2.82155e-07
4.34836e-09
-2.83069e-07
2.66927e-09
-2.83401e-07
9.7782e-10
-2.83147e-07
-7.2032e-10
-2.82308e-07
-2.41939e-09
-2.80885e-07
-4.11356e-09
-2.78883e-07
-5.79693e-09
-2.76306e-07
-7.46355e-09
-2.73164e-07
-9.10739e-09
-2.69466e-07
-1.07224e-08
-2.65224e-07
-1.23024e-08
-2.60453e-07
-1.38413e-08
-2.55168e-07
-1.53329e-08
-2.49389e-07
-1.6771e-08
-2.43136e-07
-1.81494e-08
-2.36431e-07
-1.9462e-08
-2.293e-07
-2.07025e-08
-2.21769e-07
-2.1865e-08
-2.13868e-07
-2.29434e-08
-2.05627e-07
-2.39318e-08
-1.97078e-07
-2.48245e-08
-1.88258e-07
-2.56158e-08
-1.79201e-07
-2.63003e-08
-1.69947e-07
-2.68729e-08
-1.60535e-07
-2.73284e-08
-1.51007e-07
-2.76622e-08
-1.41406e-07
-2.78701e-08
-1.31775e-07
-2.79478e-08
-1.2216e-07
-2.7892e-08
-1.12608e-07
-2.76994e-08
-1.03165e-07
-2.73675e-08
-9.38781e-08
-2.68942e-08
-8.47961e-08
-2.62783e-08
-7.59663e-08
-2.55191e-08
-6.74364e-08
-2.4617e-08
-5.92531e-08
-2.35733e-08
-5.14622e-08
-2.23904e-08
-4.41078e-08
-2.10724e-08
-3.72318e-08
-1.96246e-08
-3.08733e-08
-1.80548e-08
-2.50677e-08
-1.63728e-08
-1.98455e-08
-1.45918e-08
-1.52316e-08
-1.27287e-08
-1.12436e-08
-1.0805e-08
-7.88996e-09
-8.84857e-09
-5.16817e-09
-6.89512e-09
-3.06237e-09
-4.9904e-09
-1.54054e-09
-3.19314e-09
-5.51435e-10
-1.57864e-09
-2.10131e-11
-2.43182e-10
1.51569e-10
6.91754e-10
9.92515e-11
1.07438e-09
7.02446e-10
-1.0154e-11
-6.47319e-10
-2.39128e-10
-7.12727e-10
-8.40151e-10
1.27673e-10
-1.93082e-09
1.63836e-09
-3.6008e-09
3.631e-09
-5.91532e-09
5.95326e-09
-8.91798e-09
8.48418e-09
-1.2634e-08
1.11287e-08
-1.70724e-08
1.38123e-08
-2.2229e-08
1.64771e-08
-2.80885e-08
1.90776e-08
-3.46265e-08
2.1579e-08
-4.1811e-08
2.39542e-08
-4.96041e-08
2.61826e-08
-5.79635e-08
2.82489e-08
-6.6843e-08
3.01415e-08
-7.61938e-08
3.18525e-08
-8.59652e-08
3.33763e-08
-9.61051e-08
3.47096e-08
-1.0656e-07
3.5851e-08
-1.17278e-07
3.68003e-08
-1.28205e-07
3.75587e-08
-1.39287e-07
3.81283e-08
-1.50474e-07
3.8512e-08
-1.61713e-07
3.87134e-08
-1.72953e-07
3.87366e-08
-1.84145e-07
3.85864e-08
-1.95242e-07
3.82677e-08
-2.06197e-07
3.77859e-08
-2.16963e-07
3.71468e-08
-2.27499e-07
3.63561e-08
-2.37763e-07
3.54199e-08
-2.47713e-07
3.43446e-08
-2.57312e-07
3.31364e-08
-2.66523e-07
3.1802e-08
-2.75313e-07
3.0348e-08
-2.83648e-07
2.87811e-08
-2.91497e-07
2.71082e-08
-2.98832e-07
2.53361e-08
-3.05627e-07
2.34719e-08
-3.11856e-07
2.15227e-08
-3.17498e-07
1.94957e-08
-3.22532e-07
1.7398e-08
-3.26939e-07
1.52371e-08
-3.30704e-07
1.30204e-08
-3.33812e-07
1.07554e-08
-3.36252e-07
8.44973e-09
-3.38015e-07
6.1111e-09
-3.39093e-07
3.74732e-09
-3.39481e-07
1.3663e-09
-3.39178e-07
-1.02394e-09
-3.38182e-07
-3.4153e-09
-3.36496e-07
-5.79957e-09
-3.34124e-07
-8.16845e-09
-3.31074e-07
-1.05136e-08
-3.27355e-07
-1.28264e-08
-3.22979e-07
-1.50985e-08
-3.1796e-07
-1.73212e-08
-3.12316e-07
-1.94859e-08
-3.06065e-07
-2.1584e-08
-2.99229e-07
-2.36066e-08
-2.91833e-07
-2.55453e-08
-2.83904e-07
-2.73913e-08
-2.7547e-07
-2.91361e-08
-2.66564e-07
-3.07711e-08
-2.57219e-07
-3.22881e-08
-2.47472e-07
-3.36788e-08
-2.37362e-07
-3.49351e-08
-2.26928e-07
-3.60494e-08
-2.16215e-07
-3.7014e-08
-2.05266e-07
-3.78217e-08
-1.94129e-07
-3.84656e-08
-1.82851e-07
-3.89395e-08
-1.71484e-07
-3.92371e-08
-1.60079e-07
-3.93533e-08
-1.48688e-07
-3.9283e-08
-1.37365e-07
-3.90222e-08
-1.26165e-07
-3.85674e-08
-1.15143e-07
-3.79162e-08
-1.04354e-07
-3.7067e-08
-9.38543e-08
-3.60192e-08
-8.36975e-08
-3.47738e-08
-7.39378e-08
-3.3333e-08
-6.46276e-08
-3.17006e-08
-5.58172e-08
-2.98827e-08
-4.75544e-08
-2.78875e-08
-3.98833e-08
-2.57259e-08
-3.28438e-08
-2.34123e-08
-2.64703e-08
-2.09653e-08
-2.07907e-08
-1.84083e-08
-1.58248e-08
-1.57709e-08
-1.15825e-08
-1.30909e-08
-8.06233e-09
-1.04153e-08
-5.24916e-09
-7.80358e-09
-3.11173e-09
-5.33056e-09
-1.60031e-09
-3.09006e-09
-6.43811e-10
-1.19968e-09
-1.46749e-10
1.94694e-10
1.46468e-11
9.12985e-10
7.17095e-10
-1.08842e-10
-5.38469e-10
-5.91466e-10
-2.30102e-10
-1.57548e-09
1.11171e-09
-3.16211e-09
3.22497e-09
-5.42968e-09
5.89858e-09
-8.43557e-09
8.95919e-09
-1.22181e-08
1.22666e-08
-1.67982e-08
1.57088e-08
-2.21822e-08
1.91963e-08
-2.83629e-08
2.26578e-08
-3.53222e-08
2.60369e-08
-4.30327e-08
2.92894e-08
-5.14589e-08
3.23804e-08
-6.05593e-08
3.5283e-08
-7.0287e-08
3.79766e-08
-8.05912e-08
4.04457e-08
-9.14179e-08
4.26792e-08
-1.02711e-07
4.46692e-08
-1.14412e-07
4.64108e-08
-1.26462e-07
4.79014e-08
-1.38802e-07
4.91405e-08
-1.51373e-07
5.01289e-08
-1.64113e-07
5.08691e-08
-1.76966e-07
5.13644e-08
-1.89872e-07
5.16194e-08
-2.02774e-07
5.16392e-08
-2.15618e-07
5.14296e-08
-2.28347e-07
5.09973e-08
-2.4091e-07
5.0349e-08
-2.53256e-07
4.9492e-08
-2.65334e-07
4.84342e-08
-2.77097e-07
4.71833e-08
-2.885e-07
4.57477e-08
-2.99499e-07
4.41356e-08
-3.10053e-07
4.23559e-08
-3.20122e-07
4.04171e-08
-3.2967e-07
3.83283e-08
-3.3866e-07
3.60984e-08
-3.47061e-07
3.37368e-08
-3.54841e-07
3.12527e-08
-3.61974e-07
2.86555e-08
-3.68433e-07
2.59548e-08
-3.74195e-07
2.31602e-08
-3.7924e-07
2.02816e-08
-3.83548e-07
1.73288e-08
-3.87105e-07
1.43119e-08
-3.89896e-07
1.1241e-08
-3.91911e-07
8.12642e-09
-3.93143e-07
4.97856e-09
-3.93584e-07
1.80795e-09
-3.93233e-07
-1.37472e-09
-3.9209e-07
-4.55865e-09
-3.90157e-07
-7.73292e-09
-3.87439e-07
-1.08865e-08
-3.83944e-07
-1.40082e-08
-3.79684e-07
-1.70868e-08
-3.74671e-07
-2.0111e-08
-3.68923e-07
-2.30693e-08
-3.62459e-07
-2.59502e-08
-3.553e-07
-2.87424e-08
-3.47473e-07
-3.14343e-08
-3.39004e-07
-3.40143e-08
-3.29924e-07
-3.64712e-08
-3.20266e-07
-3.87935e-08
-3.10068e-07
-4.097e-08
-2.99366e-07
-4.29897e-08
-2.88203e-07
-4.48419e-08
-2.76622e-07
-4.65158e-08
-2.6467e-07
-4.80013e-08
-2.52396e-07
-4.92885e-08
-2.39849e-07
-5.0368e-08
-2.27084e-07
-5.12308e-08
-2.14155e-07
-5.18685e-08
-2.01119e-07
-5.22734e-08
-1.88034e-07
-5.24385e-08
-1.74959e-07
-5.23577e-08
-1.61955e-07
-5.20257e-08
-1.49085e-07
-5.14383e-08
-1.36408e-07
-5.05924e-08
-1.23989e-07
-4.94864e-08
-1.11888e-07
-4.812e-08
-1.00167e-07
-4.64948e-08
-8.88861e-08
-4.46141e-08
-7.81032e-08
-4.24836e-08
-6.78743e-08
-4.01116e-08
-5.82522e-08
-3.75095e-08
-4.92859e-08
-3.46922e-08
-4.10193e-08
-3.16789e-08
-3.34906e-08
-2.8494e-08
-2.67308e-08
-2.51681e-08
-2.07622e-08
-2.17395e-08
-1.55974e-08
-1.82557e-08
-1.12371e-08
-1.47755e-08
-7.66871e-09
-1.1372e-08
-4.86423e-09
-8.13505e-09
-2.77842e-09
-5.17586e-09
-1.34681e-09
-2.63129e-09
-4.83666e-10
-6.68446e-10
-7.99144e-11
5.09239e-10
6.37182e-10
-2.11875e-10
-3.2664e-10
-9.6356e-10
5.21618e-10
-2.35528e-09
2.50339e-09
-4.46878e-09
5.33845e-09
-7.36824e-09
8.79802e-09
-1.11005e-08
1.26915e-08
-1.5696e-08
1.68622e-08
-2.11699e-08
2.11827e-08
-2.75235e-08
2.55498e-08
-3.47456e-08
2.98799e-08
-4.28145e-08
3.41058e-08
-5.1699e-08
3.81739e-08
-6.13602e-08
4.20416e-08
-7.17525e-08
4.56753e-08
-8.28249e-08
4.9049e-08
-9.45221e-08
5.21429e-08
-1.06785e-07
5.49425e-08
-1.19553e-07
5.74372e-08
-1.32763e-07
5.96205e-08
-1.4635e-07
6.14882e-08
-1.60249e-07
6.30392e-08
-1.74394e-07
6.42741e-08
-1.8872e-07
6.51955e-08
-2.03163e-07
6.58072e-08
-2.17658e-07
6.61145e-08
-2.32143e-07
6.61236e-08
-2.46555e-07
6.58418e-08
-2.60834e-07
6.52769e-08
-2.74923e-07
6.44376e-08
-2.88764e-07
6.33329e-08
-3.02302e-07
6.19724e-08
-3.15485e-07
6.03662e-08
-3.28262e-07
5.85244e-08
-3.40584e-07
5.64579e-08
-3.52406e-07
5.41775e-08
-3.63683e-07
5.16943e-08
-3.74374e-07
4.90196e-08
-3.84441e-07
4.6165e-08
-3.93846e-07
4.31423e-08
-4.02557e-07
3.99631e-08
-4.10541e-07
3.66397e-08
-4.1777e-07
3.31842e-08
-4.24219e-07
2.96089e-08
-4.29864e-07
2.59264e-08
-4.34685e-07
2.21494e-08
-4.38663e-07
1.82905e-08
-4.41785e-07
1.43629e-08
-4.44038e-07
1.03797e-08
-4.45414e-07
6.3542e-09
-4.45906e-07
2.29988e-09
-4.45511e-07
-1.76963e-09
-4.44229e-07
-5.8405e-09
-4.42063e-07
-9.89879e-09
-4.39019e-07
-1.39304e-08
-4.35107e-07
-1.79211e-08
-4.30337e-07
-2.18565e-08
-4.24726e-07
-2.57222e-08
-4.18291e-07
-2.95036e-08
-4.11055e-07
-3.31862e-08
-4.03042e-07
-3.67552e-08
-3.94281e-07
-4.01961e-08
-3.84801e-07
-4.34943e-08
-3.74636e-07
-4.66353e-08
-3.63825e-07
-4.96046e-08
-3.52407e-07
-5.23881e-08
-3.40425e-07
-5.49718e-08
-3.27925e-07
-5.7342e-08
-3.14956e-07
-5.94852e-08
-3.01568e-07
-6.13887e-08
-2.87817e-07
-6.304e-08
-2.73758e-07
-6.44271e-08
-2.5945e-07
-6.55389e-08
-2.44953e-07
-6.63649e-08
-2.30331e-07
-6.68955e-08
-2.15648e-07
-6.71219e-08
-2.00969e-07
-6.70367e-08
-1.86361e-07
-6.66335e-08
-1.71892e-07
-6.59072e-08
-1.5763e-07
-6.48543e-08
-1.43644e-07
-6.3473e-08
-1.3e-07
-6.17635e-08
-1.16767e-07
-5.97281e-08
-1.04009e-07
-5.73716e-08
-9.1791e-08
-5.47017e-08
-8.01733e-08
-5.17294e-08
-6.92135e-08
-4.84693e-08
-5.8965e-08
-4.49407e-08
-4.94759e-08
-4.1168e-08
-4.0788e-08
-3.71819e-08
-3.29358e-08
-3.30204e-08
-2.59449e-08
-2.87303e-08
-1.98313e-08
-2.43693e-08
-1.45993e-08
-2.00075e-08
-1.02404e-08
-1.57308e-08
-6.73208e-09
-1.16434e-08
-4.03584e-09
-7.8721e-09
-2.09659e-09
-4.57054e-09
-8.41386e-10
-1.92365e-09
-1.7902e-10
-1.5312e-10
4.58161e-10
-3.15935e-10
-1.06829e-11
-1.34389e-09
1.54958e-09
-3.15673e-09
4.31625e-09
-5.8156e-09
7.99736e-09
-9.36875e-09
1.23512e-08
-1.38507e-08
1.71734e-08
-1.92821e-08
2.22936e-08
-2.56705e-08
2.75711e-08
-3.3011e-08
3.28903e-08
-4.12873e-08
3.81562e-08
-5.04729e-08
4.32915e-08
-6.05326e-08
4.82336e-08
-7.14231e-08
5.29321e-08
-8.30949e-08
5.73471e-08
-9.54929e-08
6.14469e-08
-1.08557e-07
6.52073e-08
-1.22225e-07
6.86102e-08
-1.3643e-07
7.16423e-08
-1.51104e-07
7.42947e-08
-1.66178e-07
7.65622e-08
-1.81582e-07
7.84427e-08
-1.97244e-07
7.99363e-08
-2.13094e-07
8.10457e-08
-2.29062e-07
8.17754e-08
-2.45079e-07
8.21312e-08
-2.61076e-07
8.21206e-08
-2.76986e-07
8.17519e-08
-2.92744e-07
8.10348e-08
-3.08286e-07
7.99795e-08
-3.2355e-07
7.8597e-08
-3.38477e-07
7.68989e-08
-3.53008e-07
7.48975e-08
-3.67089e-07
7.26054e-08
-3.80667e-07
7.00355e-08
-3.9369e-07
6.72013e-08
-4.06113e-07
6.41165e-08
-4.17888e-07
6.07949e-08
-4.28974e-07
5.72509e-08
-4.3933e-07
5.34988e-08
-4.48921e-07
4.95534e-08
-4.5771e-07
4.54296e-08
-4.65669e-07
4.11424e-08
-4.72767e-07
3.6707e-08
-4.78979e-07
3.21391e-08
-4.84284e-07
2.74543e-08
-4.88662e-07
2.26685e-08
-4.92097e-07
1.77978e-08
-4.94576e-07
1.28584e-08
-4.96089e-07
7.86693e-09
-4.96629e-07
2.84001e-09
-4.96193e-07
-2.20544e-09
-4.94781e-07
-7.25234e-09
-4.92396e-07
-1.22834e-08
-4.89046e-07
-1.72812e-08
-4.84739e-07
-2.22282e-08
-4.79489e-07
-2.71065e-08
-4.73313e-07
-3.18983e-08
-4.66231e-07
-3.65856e-08
-4.58266e-07
-4.11505e-08
-4.49447e-07
-4.55749e-08
-4.39802e-07
-4.98406e-08
-4.29367e-07
-5.39299e-08
-4.18177e-07
-5.78247e-08
-4.06274e-07
-6.15073e-08
-3.93702e-07
-6.49604e-08
-3.80507e-07
-6.81667e-08
-3.6674e-07
-7.11094e-08
-3.52453e-07
-7.37721e-08
-3.37703e-07
-7.61389e-08
-3.22548e-07
-7.81948e-08
-3.0705e-07
-7.99252e-08
-2.91272e-07
-8.13164e-08
-2.75282e-07
-8.23558e-08
-2.59145e-07
-8.30316e-08
-2.42934e-07
-8.33335e-08
-2.26718e-07
-8.32524e-08
-2.10571e-07
-8.27808e-08
-1.94565e-07
-8.19128e-08
-1.78775e-07
-8.06444e-08
-1.63274e-07
-7.89739e-08
-1.48136e-07
-7.69018e-08
-1.33433e-07
-7.44314e-08
-1.19235e-07
-7.15691e-08
-1.05612e-07
-6.83248e-08
-9.26292e-08
-6.47122e-08
-8.03486e-08
-6.07498e-08
-6.88279e-08
-5.64613e-08
-5.81194e-08
-5.18765e-08
-4.82689e-08
-4.70324e-08
-3.93147e-08
-4.19746e-08
-3.12866e-08
-3.67584e-08
-2.42047e-08
-3.14512e-08
-1.80782e-08
-2.61341e-08
-1.29042e-08
-2.09048e-08
-8.66699e-09
-1.58806e-08
-5.33692e-09
-1.12022e-08
-2.87009e-09
-7.03737e-09
-1.20823e-09
-3.5855e-09
-2.79404e-10
-1.08194e-09
1.78757e-10
-4.19159e-10
4.08474e-10
-1.72498e-09
2.85537e-09
-3.96445e-09
6.55573e-09
-7.17795e-09
1.12109e-08
-1.13969e-08
1.65701e-08
-1.66423e-08
2.24188e-08
-2.29239e-08
2.85752e-08
-3.02404e-08
3.48876e-08
-3.85793e-08
4.12292e-08
-4.79182e-08
4.74951e-08
-5.82251e-08
5.35985e-08
-6.94599e-08
5.94684e-08
-8.15749e-08
6.50471e-08
-9.45159e-08
7.02881e-08
-1.08224e-07
7.51546e-08
-1.22634e-07
7.96178e-08
-1.3768e-07
8.36557e-08
-1.5329e-07
8.72524e-08
-1.69392e-07
9.03969e-08
-1.85912e-07
9.30823e-08
-2.02775e-07
9.53054e-08
-2.19905e-07
9.70663e-08
-2.37226e-07
9.83675e-08
-2.54665e-07
9.92137e-08
-2.72145e-07
9.96119e-08
-2.89595e-07
9.95703e-08
-3.06942e-07
9.90989e-08
-3.24116e-07
9.82087e-08
-3.41048e-07
9.69119e-08
-3.57673e-07
9.52214e-08
-3.73925e-07
9.31511e-08
-3.89743e-07
9.07155e-08
-4.05067e-07
8.79296e-08
-4.19841e-07
8.4809e-08
-4.34009e-07
8.13697e-08
-4.47521e-07
7.76281e-08
-4.60327e-07
7.36011e-08
-4.72382e-07
6.93057e-08
-4.83642e-07
6.47593e-08
-4.94068e-07
5.99797e-08
-5.03624e-07
5.49847e-08
-5.12274e-07
4.97926e-08
-5.19989e-07
4.44219e-08
-5.26741e-07
3.88912e-08
-5.32506e-07
3.32196e-08
-5.37264e-07
2.74261e-08
-5.40996e-07
2.15303e-08
-5.4369e-07
1.55519e-08
-5.45334e-07
9.51078e-09
-5.45921e-07
3.42709e-09
-5.45447e-07
-2.67872e-09
-5.43914e-07
-8.78603e-09
-5.41323e-07
-1.4874e-08
-5.37683e-07
-2.09215e-08
-5.33004e-07
-2.69074e-08
-5.273e-07
-3.28102e-08
-5.2059e-07
-3.86085e-08
-5.12895e-07
-4.42804e-08
-5.04241e-07
-4.98045e-08
-4.94657e-07
-5.51588e-08
-4.84176e-07
-6.03217e-08
-4.72834e-07
-6.52716e-08
-4.60672e-07
-6.9987e-08
-4.47733e-07
-7.44466e-08
-4.34063e-07
-7.86295e-08
-4.19715e-07
-8.2515e-08
-4.04742e-07
-8.60829e-08
-3.892e-07
-8.93138e-08
-3.7315e-07
-9.21886e-08
-3.56656e-07
-9.46893e-08
-3.39783e-07
-9.67984e-08
-3.22599e-07
-9.84998e-08
-3.05176e-07
-9.97784e-08
-2.87588e-07
-1.00621e-07
-2.69907e-07
-1.01014e-07
-2.52212e-07
-1.00947e-07
-2.3458e-07
-1.00413e-07
-2.17089e-07
-9.94036e-08
-1.99819e-07
-9.79149e-08
-1.82848e-07
-9.59451e-08
-1.66254e-07
-9.34953e-08
-1.50116e-07
-9.05699e-08
-1.34508e-07
-8.7177e-08
-1.19504e-07
-8.33285e-08
-1.05175e-07
-7.90415e-08
-9.15866e-08
-7.4338e-08
-7.88015e-08
-6.92464e-08
-6.68761e-08
-6.38019e-08
-5.58605e-08
-5.8048e-08
-4.57974e-08
-5.20376e-08
-3.67214e-08
-4.58344e-08
-2.86577e-08
-3.95149e-08
-2.16212e-08
-3.31706e-08
-1.56159e-08
-2.69101e-08
-1.06342e-08
-2.08623e-08
-6.65666e-09
-1.51797e-08
-3.65169e-09
-1.00423e-08
-1.57666e-09
-5.66053e-09
-3.79126e-10
-2.27947e-09
-2.00367e-10
-5.20429e-10
9.2892e-10
-2.10218e-09
4.43713e-09
-4.76831e-09
9.22186e-09
-8.539e-09
1.49815e-08
-1.34287e-08
2.14598e-08
-1.94442e-08
2.84343e-08
-2.65835e-08
3.57146e-08
-3.48354e-08
4.31395e-08
-4.41793e-08
5.0573e-08
-5.45854e-08
5.79012e-08
-6.60157e-08
6.50288e-08
-7.84244e-08
7.18771e-08
-9.17588e-08
7.83815e-08
-1.0596e-07
8.44894e-08
-1.20964e-07
9.01588e-08
-1.36703e-07
9.53565e-08
-1.53104e-07
1.00057e-07
-1.70093e-07
1.04241e-07
-1.87593e-07
1.07896e-07
-2.05524e-07
1.11014e-07
-2.23808e-07
1.13589e-07
-2.42364e-07
1.15623e-07
-2.61113e-07
1.17116e-07
-2.79975e-07
1.18075e-07
-2.9887e-07
1.18507e-07
-3.17721e-07
1.18422e-07
-3.36452e-07
1.1783e-07
-3.54989e-07
1.16745e-07
-3.73257e-07
1.1518e-07
-3.91187e-07
1.13152e-07
-4.08711e-07
1.10675e-07
-4.25762e-07
1.07766e-07
-4.42276e-07
1.04444e-07
-4.58193e-07
1.00726e-07
-4.73456e-07
9.66323e-08
-4.88009e-07
9.21808e-08
-5.01799e-07
8.73919e-08
-5.14779e-07
8.22856e-08
-5.26902e-07
7.68825e-08
-5.38126e-07
7.12035e-08
-5.48411e-07
6.52699e-08
-5.57722e-07
5.91031e-08
-5.66025e-07
5.27251e-08
-5.73292e-07
4.6158e-08
-5.79496e-07
3.94241e-08
-5.84617e-07
3.25463e-08
-5.88634e-07
2.55476e-08
-5.91533e-07
1.84513e-08
-5.93304e-07
1.1281e-08
-5.93937e-07
4.0606e-09
-5.9343e-07
-3.18578e-09
-5.91782e-07
-1.04337e-08
-5.88998e-07
-1.76585e-08
-5.85084e-07
-2.48352e-08
-5.80053e-07
-3.19388e-08
-5.73919e-07
-3.89439e-08
-5.66703e-07
-4.5825e-08
-5.58426e-07
-5.25567e-08
-5.49117e-07
-5.91132e-08
-5.38807e-07
-6.5469e-08
-5.27531e-07
-7.15983e-08
-5.15327e-07
-7.74757e-08
-5.02238e-07
-8.30759e-08
-4.8831e-07
-8.83738e-08
-4.73595e-07
-9.33448e-08
-4.58146e-07
-9.79645e-08
-4.42019e-07
-1.02209e-07
-4.25277e-07
-1.06056e-07
-4.07983e-07
-1.09483e-07
-3.90204e-07
-1.12468e-07
-3.72011e-07
-1.14992e-07
-3.53476e-07
-1.17035e-07
-3.34675e-07
-1.18579e-07
-3.15686e-07
-1.1961e-07
-2.96588e-07
-1.20112e-07
-2.77462e-07
-1.20073e-07
-2.5839e-07
-1.19484e-07
-2.39457e-07
-1.18337e-07
-2.20746e-07
-1.16626e-07
-2.02341e-07
-1.14351e-07
-1.84324e-07
-1.11512e-07
-1.66778e-07
-1.08116e-07
-1.49784e-07
-1.04171e-07
-1.33419e-07
-9.96935e-08
-1.17758e-07
-9.47022e-08
-1.02873e-07
-8.92232e-08
-8.88298e-08
-8.32896e-08
-7.56897e-08
-7.69421e-08
-6.35075e-08
-7.02302e-08
-5.23311e-08
-6.32141e-08
-4.22001e-08
-5.59653e-08
-3.31458e-08
-4.85692e-08
-2.51898e-08
-4.11266e-08
-1.83438e-08
-3.3756e-08
-1.26094e-08
-2.65967e-08
-7.97798e-09
-1.98112e-08
-4.4311e-09
-1.35892e-08
-1.94195e-09
-8.14968e-09
-4.77068e-10
-3.74435e-09
-6.77433e-10
-6.19152e-10
1.54808e-09
-2.47275e-09
6.29069e-09
-5.56192e-09
1.2311e-08
-9.88759e-09
1.93072e-08
-1.54476e-08
2.70198e-08
-2.22344e-08
3.5221e-08
-3.02337e-08
4.37139e-08
-3.94237e-08
5.23295e-08
-4.97748e-08
6.09241e-08
-6.12495e-08
6.93759e-08
-7.38029e-08
7.75822e-08
-8.73831e-08
8.54573e-08
-1.01932e-07
9.29302e-08
-1.17385e-07
9.99428e-08
-1.33674e-07
1.06448e-07
-1.50727e-07
1.12409e-07
-1.68465e-07
1.17795e-07
-1.86811e-07
1.22587e-07
-2.05682e-07
1.26768e-07
-2.24996e-07
1.30328e-07
-2.44669e-07
1.33263e-07
-2.64617e-07
1.3557e-07
-2.84755e-07
1.37254e-07
-3.05e-07
1.3832e-07
-3.25268e-07
1.38775e-07
-3.45477e-07
1.38631e-07
-3.65547e-07
1.379e-07
-3.854e-07
1.36598e-07
-4.04958e-07
1.34739e-07
-4.24147e-07
1.32341e-07
-4.42895e-07
1.29422e-07
-4.61131e-07
1.26003e-07
-4.7879e-07
1.22103e-07
-4.95806e-07
1.17743e-07
-5.12119e-07
1.12945e-07
-5.27671e-07
1.07732e-07
-5.42405e-07
1.02127e-07
-5.56272e-07
9.61521e-08
-5.69222e-07
8.98323e-08
-5.8121e-07
8.31915e-08
-5.92194e-07
7.62544e-08
-6.02137e-07
6.90461e-08
-6.11004e-07
6.1592e-08
-6.18764e-07
5.39179e-08
-6.2539e-07
4.605e-08
-6.30858e-07
3.80147e-08
-6.35149e-07
2.98388e-08
-6.38247e-07
2.15494e-08
-6.40141e-07
1.31741e-08
-6.40821e-07
4.74071e-09
-6.40284e-07
-3.72272e-09
-6.3853e-07
-1.21877e-08
-6.35563e-07
-2.06256e-08
-6.3139e-07
-2.90074e-08
-6.26025e-07
-3.73039e-08
-6.19484e-07
-4.54856e-08
-6.11786e-07
-5.35229e-08
-6.02956e-07
-6.13862e-08
-5.93024e-07