/*--------------------------------*- C++ -*----------------------------------*\
| =========                 |                                                 |
| \\      /  F ield         | OpenFOAM: The Open Source CFD Toolbox           |
|  \\    /   O peration     | Version:  2212                                  |
|   \\  /    A nd           | Website:  www.openfoam.com                      |
|    \\/     M anipulation  |                                                 |
\*---------------------------------------------------------------------------*/
FoamFile
{
    version     2.0;
    format      ascii;
    arch        "LSB;label=32;scalar=64";
    class       surfaceScalarField;
    location    "0.0135";
    object      phi_0;
}
// * * * * * * * * * * * * * * * * * * * * * * * * * * * * * * * * * * * * * //

dimensions      [0 3 -1 0 0 0 0];

oriented        oriented;

internalField   nonuniform List<scalar> 
19800
(
6.48451e-11
-6.49048e-11
1.24023e-10
-5.91854e-11
1.09672e-10
1.43525e-11
4.29029e-11
6.67705e-11
-7.61758e-11
1.19083e-10
-2.55647e-10
1.79464e-10
-5.01999e-10
2.46368e-10
-8.16998e-10
3.14999e-10
-1.19939e-09
3.82405e-10
-1.64554e-09
4.46142e-10
-2.15057e-09
5.05031e-10
-2.70895e-09
5.58382e-10
-3.31471e-09
6.05748e-10
-3.96199e-09
6.47283e-10
-4.64487e-09
6.82888e-10
-5.35752e-09
7.12648e-10
-6.09455e-09
7.37036e-10
-6.85069e-09
7.56146e-10
-7.62113e-09
7.70445e-10
-8.40134e-09
7.80215e-10
-9.18697e-09
7.85627e-10
-9.97389e-09
7.86927e-10
-1.07585e-08
7.8459e-10
-1.15372e-08
7.78762e-10
-1.2307e-08
7.69738e-10
-1.30648e-08
7.57858e-10
-1.38081e-08
7.43238e-10
-1.45341e-08
7.26051e-10
-1.52408e-08
7.06673e-10
-1.59262e-08
6.85345e-10
-1.65883e-08
6.62153e-10
-1.72256e-08
6.37251e-10
-1.78364e-08
6.10803e-10
-1.84193e-08
5.82979e-10
-1.89732e-08
5.53862e-10
-1.94968e-08
5.23543e-10
-1.9989e-08
4.92209e-10
-2.04489e-08
4.59945e-10
-2.08757e-08
4.26785e-10
-2.12685e-08
3.92779e-10
-2.16265e-08
3.58046e-10
-2.19493e-08
3.2276e-10
-2.22362e-08
2.86925e-10
-2.24867e-08
2.50492e-10
-2.27003e-08
2.13568e-10
-2.28766e-08
1.76304e-10
-2.30153e-08
1.38769e-10
-2.31163e-08
1.00962e-10
-2.31792e-08
6.29088e-11
-2.32039e-08
2.46974e-11
-2.31903e-08
-1.35954e-11
-2.31384e-08
-5.19353e-11
-2.30481e-08
-9.02949e-11
-2.29194e-08
-1.28615e-10
-2.27527e-08
-1.66795e-10
-2.25479e-08
-2.04753e-10
-2.23055e-08
-2.42449e-10
-2.20256e-08
-2.79847e-10
-2.17087e-08
-3.16887e-10
-2.13552e-08
-3.53468e-10
-2.09658e-08
-3.89462e-10
-2.0541e-08
-4.24786e-10
-2.00816e-08
-4.59401e-10
-1.95884e-08
-4.93233e-10
-1.90622e-08
-5.26143e-10
-1.85042e-08
-5.57984e-10
-1.79156e-08
-5.88627e-10
-1.72977e-08
-6.17956e-10
-1.66518e-08
-6.45867e-10
-1.59796e-08
-6.72227e-10
-1.52827e-08
-6.96821e-10
-1.45633e-08
-7.19409e-10
-1.38235e-08
-7.39814e-10
-1.30656e-08
-7.57917e-10
-1.22921e-08
-7.7354e-10
-1.15056e-08
-7.86411e-10
-1.07094e-08
-7.96248e-10
-9.90659e-09
-8.02815e-10
-9.10074e-09
-8.05852e-10
-8.2957e-09
-8.05035e-10
-7.49567e-09
-8.00028e-10
-6.70511e-09
-7.90558e-10
-5.92872e-09
-7.76378e-10
-5.17152e-09
-7.572e-10
-4.43882e-09
-7.32698e-10
-3.73625e-09
-7.02565e-10
-3.06975e-09
-6.66505e-10
-2.44554e-09
-6.2421e-10
-1.87014e-09
-5.754e-10
-1.35022e-09
-5.1991e-10
-8.92489e-10
-4.57735e-10
-5.03463e-10
-3.89033e-10
-1.89297e-10
-3.14171e-10
4.4645e-11
-2.33938e-10
1.94611e-10
-1.49961e-10
2.59962e-10
-6.5351e-11
2.45851e-10
1.41108e-11
1.68185e-10
7.76697e-11
6.32813e-11
1.0491e-10
6.32909e-11
1.5126e-10
-2.16172e-10
2.73322e-10
-1.81216e-10
2.31267e-10
5.63993e-11
1.47971e-11
2.83243e-10
-3.80443e-10
5.1432e-10
-9.62113e-10
7.61142e-10
-1.73315e-09
1.01738e-09
-2.69193e-09
1.27379e-09
-3.83167e-09
1.52214e-09
-5.14189e-09
1.75638e-09
-6.60973e-09
1.97289e-09
-8.22054e-09
2.1692e-09
-9.95907e-09
2.34428e-09
-1.18096e-08
2.49783e-09
-1.37567e-08
2.62993e-09
-1.57851e-08
2.74109e-09
-1.78802e-08
2.83214e-09
-2.0028e-08
2.90392e-09
-2.22152e-08
2.95762e-09
-2.44291e-08
2.99418e-09
-2.66581e-08
3.01456e-09
-2.8891e-08
3.01986e-09
-3.11176e-08
3.01112e-09
-3.3328e-08
2.98924e-09
-3.55136e-08
2.95529e-09
-3.7666e-08
2.91025e-09
-3.97776e-08
2.85487e-09
-4.18416e-08
2.78998e-09
-4.38514e-08
2.71651e-09
-4.58013e-08
2.63522e-09
-4.76858e-08
2.54665e-09
-4.95e-08
2.45147e-09
-5.12395e-08
2.35029e-09
-5.29001e-08
2.24362e-09
-5.44782e-08
2.13193e-09
-5.59703e-08
2.01566e-09
-5.73734e-08
1.8953e-09
-5.86847e-08
1.77123e-09
-5.99016e-08
1.64369e-09
-6.10219e-08
1.51303e-09
-6.20435e-08
1.37964e-09
-6.29645e-08
1.24382e-09
-6.37834e-08
1.1058e-09
-6.44986e-08
9.65762e-10
-6.51091e-08
8.23982e-10
-6.56135e-08
6.80759e-10
-6.60111e-08
5.36338e-10
-6.6301e-08
3.90897e-10
-6.64827e-08
2.44596e-10
-6.65557e-08
9.76895e-11
-6.65197e-08
-4.95635e-11
-6.63747e-08
-1.97004e-10
-6.61205e-08
-3.44456e-10
-6.57574e-08
-4.91662e-10
-6.52859e-08
-6.38354e-10
-6.47063e-08
-7.84281e-10
-6.40196e-08
-9.29203e-10
-6.32265e-08
-1.07289e-09
-6.23284e-08
-1.21508e-09
-6.13264e-08
-1.35544e-09
-6.02223e-08
-1.4936e-09
-5.90178e-08
-1.62921e-09
-5.77152e-08
-1.76199e-09
-5.63169e-08
-1.89158e-09
-5.48255e-08
-2.01751e-09
-5.32442e-08
-2.13927e-09
-5.15765e-08
-2.25639e-09
-4.9826e-08
-2.36844e-09
-4.7997e-08
-2.47485e-09
-4.60942e-08
-2.57502e-09
-4.41228e-08
-2.66829e-09
-4.20882e-08
-2.75398e-09
-3.99966e-08
-2.83138e-09
-3.78548e-08
-2.89975e-09
-3.567e-08
-2.95831e-09
-3.34502e-08
-3.0062e-09
-3.12039e-08
-3.04252e-09
-2.89405e-08
-3.06631e-09
-2.66698e-08
-3.07653e-09
-2.44027e-08
-3.07215e-09
-2.21506e-08
-3.05213e-09
-1.99257e-08
-3.01543e-09
-1.77411e-08
-2.96096e-09
-1.56106e-08
-2.88768e-09
-1.35487e-08
-2.79457e-09
-1.15707e-08
-2.68064e-09
-9.69222e-09
-2.54494e-09
-7.92981e-09
-2.38662e-09
-6.3001e-09
-2.20511e-09
-4.81979e-09
-2.00023e-09
-3.50522e-09
-1.77231e-09
-2.37186e-09
-1.52239e-09
-1.43339e-09
-1.25264e-09
-7.00328e-10
-9.66997e-10
-1.78033e-10
-6.7226e-10
1.3652e-10
-3.79897e-10
2.59546e-10
-1.08911e-10
2.27307e-10
1.09903e-10
1.04719e-10
2.27498e-10
1.68009e-10
1.68013e-10
-3.84183e-10
2.70241e-10
-2.83463e-10
1.36444e-10
1.90212e-10
-2.76822e-10
6.96505e-10
-9.85011e-10
1.22251e-09
-1.99384e-09
1.76996e-09
-3.30175e-09
2.32531e-09
-4.90097e-09
2.87302e-09
-6.77837e-09
3.39951e-09
-8.91688e-09
3.89489e-09
-1.12964e-08
4.35243e-09
-1.3895e-08
4.76781e-09
-1.66897e-08
5.13893e-09
-1.96568e-08
5.46492e-09
-2.27728e-08
5.74598e-09
-2.60147e-08
5.98304e-09
-2.93602e-08
6.17757e-09
-3.27877e-08
6.33142e-09
-3.62765e-08
6.44643e-09
-3.98072e-08
6.5249e-09
-4.33614e-08
6.56878e-09
-4.69218e-08
6.58029e-09
-5.04723e-08
6.56156e-09
-5.39977e-08
6.51464e-09
-5.7484e-08
6.44159e-09
-6.09181e-08
6.34434e-09
-6.42879e-08
6.22471e-09
-6.75824e-08
6.08451e-09
-7.07914e-08
5.92545e-09
-7.39053e-08
5.74911e-09
-7.69155e-08
5.5569e-09
-7.98142e-08
5.35013e-09
-8.2594e-08
5.13012e-09
-8.52483e-08
4.89796e-09
-8.77712e-08
4.65473e-09
-9.0157e-08
4.40147e-09
-9.24008e-08
4.1391e-09
-9.4498e-08
3.86845e-09
-9.64446e-08
3.59028e-09
-9.82368e-08
3.30528e-09
-9.98714e-08
3.01422e-09
-1.01345e-07
2.71779e-09
-1.02656e-07
2.41647e-09
-1.03801e-07
2.11081e-09
-1.04779e-07
1.80142e-09
-1.05587e-07
1.48883e-09
-1.06224e-07
1.17352e-09
-1.06689e-07
8.55973e-10
-1.06981e-07
5.36631e-10
-1.07099e-07
2.15985e-10
-1.07043e-07
-1.05471e-10
-1.06813e-07
-4.27292e-10
-1.06408e-07
-7.49035e-10
-1.0583e-07
-1.07019e-09
-1.05078e-07
-1.39019e-09
-1.04154e-07
-1.70848e-09
-1.03058e-07
-2.02455e-09
-1.01793e-07
-2.33788e-09
-1.00361e-07
-2.64781e-09
-9.87626e-08
-2.9536e-09
-9.70016e-08
-3.25457e-09
-9.50808e-08
-3.55003e-09
-9.30036e-08
-3.83917e-09
-9.07741e-08
-4.12111e-09
-8.83967e-08
-4.39493e-09
-8.58763e-08
-4.65967e-09
-8.32184e-08
-4.91423e-09
-8.04294e-08
-5.15747e-09
-7.7516e-08
-5.38826e-09
-7.44857e-08
-5.60534e-09
-7.13467e-08
-5.80729e-09
-6.8108e-08
-5.99259e-09
-6.47797e-08
-6.15973e-09
-6.13723e-08
-6.30713e-09
-5.78976e-08
-6.43307e-09
-5.43681e-08
-6.53569e-09
-5.07976e-08
-6.61304e-09
-4.72007e-08
-6.66317e-09
-4.35932e-08
-6.68399e-09
-3.9992e-08
-6.67334e-09
-3.64152e-08
-6.62902e-09
-3.28817e-08
-6.54885e-09
-2.9412e-08
-6.43068e-09
-2.60273e-08
-6.2724e-09
-2.27499e-08
-6.07194e-09
-1.96031e-08
-5.8274e-09
-1.66109e-08
-5.53713e-09
-1.37977e-08
-5.19981e-09
-1.11881e-08
-4.81472e-09
-8.80644e-09
-4.38194e-09
-6.67601e-09
-3.90274e-09
-4.81831e-09
-3.38009e-09
-3.25159e-09
-2.81936e-09
-1.98901e-09
-2.22957e-09
-1.03607e-09
-1.62519e-09
-3.86927e-10
-1.02904e-09
-1.94685e-11
-4.76371e-10
1.10807e-10
-2.03639e-11
7.78662e-11
2.60436e-10
2.45876e-10
9.28934e-11
-4.77069e-10
5.98931e-11
-2.50465e-10
-2.66501e-10
5.16599e-10
-9.50888e-10
1.3809e-09
-2.01969e-09
2.29132e-09
-3.48103e-09
3.2313e-09
-5.33148e-09
4.17577e-09
-7.55936e-09
5.10091e-09
-1.0147e-08
5.98716e-09
-1.3072e-08
6.81993e-09
-1.63087e-08
7.58907e-09
-1.9829e-08
8.28816e-09
-2.36036e-08
8.91355e-09
-2.76026e-08
9.46385e-09
-3.17958e-08
9.93919e-09
-3.61537e-08
1.03409e-08
-4.06472e-08
1.06711e-08
-4.52484e-08
1.09326e-08
-4.99305e-08
1.11285e-08
-5.46678e-08
1.12623e-08
-5.94363e-08
1.13372e-08
-6.4213e-08
1.1357e-08
-6.89766e-08
1.13251e-08
-7.3707e-08
1.1245e-08
-7.83855e-08
1.11201e-08
-8.29947e-08
1.09536e-08
-8.75185e-08
1.07485e-08
-9.1942e-08
1.0508e-08
-9.62513e-08
1.02348e-08
-1.00434e-07
9.93152e-09
-1.04478e-07
9.60074e-09
-1.08372e-07
9.24472e-09
-1.12108e-07
8.86562e-09
-1.15675e-07
8.46541e-09
-1.19066e-07
8.04589e-09
-1.22274e-07
7.60887e-09
-1.25291e-07
7.15594e-09
-1.28111e-07
6.6885e-09
-1.30728e-07
6.20796e-09
-1.33139e-07
5.71564e-09
-1.35337e-07
5.2127e-09
-1.3732e-07
4.70029e-09
-1.39083e-07
4.17941e-09
-1.40623e-07
3.65104e-09
-1.41938e-07
3.11616e-09
-1.43024e-07
2.5757e-09
-1.43881e-07
2.03052e-09
-1.44507e-07
1.48143e-09
-1.44899e-07
9.29266e-10
-1.45058e-07
3.7491e-10
-1.44983e-07
-1.80834e-10
-1.44673e-07
-7.37219e-10
-1.44129e-07
-1.29338e-09
-1.43351e-07
-1.84836e-09
-1.42339e-07
-2.4013e-09
-1.41097e-07
-2.95129e-09
-1.39624e-07
-3.49735e-09
-1.37923e-07
-4.03843e-09
-1.35998e-07
-4.57352e-09
-1.3385e-07
-5.10145e-09
-1.31483e-07
-5.62092e-09
-1.28903e-07
-6.13066e-09
-1.26113e-07
-6.62934e-09
-1.23118e-07
-7.11548e-09
-1.19926e-07
-7.58743e-09
-1.16542e-07
-8.04345e-09
-1.12974e-07
-8.48177e-09
-1.09231e-07
-8.90049e-09
-1.05322e-07
-9.29752e-09
-1.01257e-07
-9.67062e-09
-9.70467e-08
-1.00174e-08
-9.27039e-08
-1.03354e-08
-8.82415e-08
-1.06221e-08
-8.36741e-08
-1.08745e-08
-7.90174e-08
-1.10898e-08
-7.42882e-08
-1.12649e-08
-6.95048e-08
-1.13965e-08
-6.46867e-08
-1.14813e-08
-5.98548e-08
-1.15158e-08
-5.50317e-08
-1.14965e-08
-5.02409e-08
-1.14198e-08
-4.55077e-08
-1.12821e-08
-4.08585e-08
-1.10799e-08
-3.63212e-08
-1.08097e-08
-3.19246e-08
-1.04685e-08
-2.76986e-08
-1.00534e-08
-2.36738e-08
-9.56193e-09
-1.98811e-08
-8.99247e-09
-1.63515e-08
-8.3444e-09
-1.31149e-08
-7.61855e-09
-1.01998e-08
-6.81782e-09
-7.63199e-09
-5.94788e-09
-5.43292e-09
-5.01843e-09
-3.61765e-09
-4.04483e-09
-2.19227e-09
-3.05058e-09
-1.15042e-09
-2.0709e-09
-4.69156e-10
-1.15763e-09
-1.04186e-10
-3.85321e-10
1.57117e-11
1.40539e-10
2.61592e-10
-1.228e-11
-4.64782e-10
-2.46138e-10
-1.66111e-11
-8.36143e-10
1.10661e-09
-1.85162e-09
2.39637e-09
-3.32416e-09
3.76386e-09
-5.2635e-09
5.17064e-09
-7.6653e-09
6.57756e-09
-1.05155e-08
7.95111e-09
-1.37929e-08
9.26459e-09
-1.74713e-08
1.04983e-08
-2.15203e-08
1.16381e-08
-2.59074e-08
1.26752e-08
-3.05981e-08
1.36042e-08
-3.55569e-08
1.44227e-08
-4.07487e-08
1.51309e-08
-4.6138e-08
1.57303e-08
-5.16907e-08
1.62237e-08
-5.7373e-08
1.6615e-08
-6.3153e-08
1.69085e-08
-6.89998e-08
1.7109e-08
-7.4884e-08
1.72215e-08
-8.07781e-08
1.72511e-08
-8.66559e-08
1.72029e-08
-9.2493e-08
1.70821e-08
-9.82664e-08
1.68935e-08
-1.03955e-07
1.66419e-08
-1.09538e-07
1.63321e-08
-1.14999e-07
1.59684e-08
-1.20319e-07
1.5555e-08
-1.25483e-07
1.50958e-08
-1.30477e-07
1.45946e-08
-1.35287e-07
1.40548e-08
-1.39901e-07
1.34797e-08
-1.44308e-07
1.28724e-08
-1.48498e-07
1.22356e-08
-1.52461e-07
1.15719e-08
-1.56189e-07
1.08838e-08
-1.59674e-07
1.01735e-08
-1.62909e-07
9.44307e-09
-1.65888e-07
8.6946e-09
-1.68605e-07
7.92987e-09
-1.71055e-07
7.15056e-09
-1.73234e-07
6.35825e-09
-1.75138e-07
5.55453e-09
-1.76762e-07
4.74088e-09
-1.78105e-07
3.91863e-09
-1.79164e-07
3.08913e-09
-1.79936e-07
2.25372e-09
-1.80421e-07
1.41368e-09
-1.80616e-07
5.70254e-10
-1.80521e-07
-2.75253e-10
-1.80137e-07
-1.12158e-09
-1.79463e-07
-1.96746e-09
-1.785e-07
-2.81156e-09
-1.77249e-07
-3.65242e-09
-1.75711e-07
-4.48862e-09
-1.7389e-07
-5.31872e-09
-1.71787e-07
-6.1412e-09
-1.69406e-07
-6.95433e-09
-1.66752e-07
-7.7563e-09
-1.63827e-07
-8.54532e-09
-1.60638e-07
-9.31945e-09
-1.57191e-07
-1.00765e-08
-1.53492e-07
-1.08143e-08
-1.4955e-07
-1.15302e-08
-1.45371e-07
-1.22219e-08
-1.40967e-07
-1.28864e-08
-1.36346e-07
-1.3521e-08
-1.31521e-07
-1.41223e-08
-1.26505e-07
-1.46872e-08
-1.2131e-07
-1.52119e-08
-1.15953e-07
-1.56929e-08
-1.10449e-07
-1.6126e-08
-1.04816e-07
-1.65072e-08
-9.90741e-08
-1.6832e-08
-9.32432e-08
-1.70957e-08
-8.7346e-08
-1.72937e-08
-8.14063e-08
-1.7421e-08
-7.54497e-08
-1.74724e-08
-6.95033e-08
-1.74429e-08
-6.3596e-08
-1.73271e-08
-5.7758e-08
-1.712e-08
-5.20214e-08
-1.68165e-08
-4.64192e-08
-1.64119e-08
-4.0986e-08
-1.59018e-08
-3.5757e-08
-1.52823e-08
-3.07684e-08
-1.45505e-08
-2.60562e-08
-1.37046e-08
-2.16563e-08
-1.27443e-08
-1.76033e-08
-1.16716e-08
-1.39295e-08
-1.04915e-08
-1.06643e-08
-9.21315e-09
-7.83156e-09
-7.85114e-09
-5.44861e-09
-6.42778e-09
-3.52324e-09
-4.97594e-09
-2.05115e-09
-3.54299e-09
-1.01268e-09
-2.1961e-09
-3.69601e-10
-1.0284e-09
-6.16824e-11
-1.67376e-10
1.99911e-10
-1.18712e-10
-3.4608e-10
-5.76987e-10
4.41671e-10
-1.46825e-09
1.99785e-09
-2.85225e-09
3.78039e-09
-4.75834e-09
5.66994e-09
-7.19473e-09
7.60702e-09
-1.01552e-08
9.53807e-09
-1.36232e-08
1.14191e-08
-1.75748e-08
1.32161e-08
-2.198e-08
1.49035e-08
-2.68053e-08
1.64635e-08
-3.20139e-08
1.78838e-08
-3.75673e-08
1.91575e-08
-4.34258e-08
2.02812e-08
-4.95494e-08
2.12546e-08
-5.58985e-08
2.20793e-08
-6.24338e-08
2.27591e-08
-6.91175e-08
2.32986e-08
-7.59125e-08
2.37036e-08
-8.27837e-08
2.39802e-08
-8.96974e-08
2.41352e-08
-9.66216e-08
2.41753e-08
-1.03526e-07
2.41075e-08
-1.10383e-07
2.39385e-08
-1.17164e-07
2.36752e-08
-1.23846e-07
2.33241e-08
-1.30406e-07
2.28915e-08
-1.36821e-07
2.23835e-08
-1.43072e-07
2.18058e-08
-1.4914e-07
2.11639e-08
-1.55008e-07
2.0463e-08
-1.60661e-07
1.97078e-08
-1.66085e-07
1.89029e-08
-1.71265e-07
1.80525e-08
-1.7619e-07
1.71606e-08
-1.80849e-07
1.62308e-08
-1.85231e-07
1.52665e-08
-1.89329e-07
1.42708e-08
-1.93132e-07
1.32468e-08
-1.96635e-07
1.21973e-08
-1.9983e-07
1.11247e-08
-2.02711e-07
1.00315e-08
-2.05273e-07
8.92004e-09
-2.0751e-07
7.79241e-09
-2.0942e-07
6.65075e-09
-2.10999e-07
5.49701e-09
-2.12243e-07
4.33305e-09
-2.1315e-07
3.16072e-09
-2.13718e-07
1.98193e-09
-2.13946e-07
7.98491e-10
-2.13833e-07
-3.87866e-10
-2.1338e-07
-1.57538e-09
-2.12585e-07
-2.7621e-09
-2.11451e-07
-3.94608e-09
-2.09978e-07
-5.12546e-09
-2.08168e-07
-6.29827e-09
-2.06024e-07
-7.46233e-09
-2.0355e-07
-8.61539e-09
-2.00749e-07
-9.75515e-09
-1.97626e-07
-1.08792e-08
-1.94187e-07
-1.19848e-08
-1.90437e-07
-1.30692e-08
-1.86384e-07
-1.41295e-08
-1.82036e-07
-1.51625e-08
-1.77402e-07
-1.61647e-08
-1.72491e-07
-1.71326e-08
-1.67315e-07
-1.80622e-08
-1.61886e-07
-1.89496e-08
-1.56218e-07
-1.97903e-08
-1.50326e-07
-2.05797e-08
-1.44225e-07
-2.13127e-08
-1.37934e-07
-2.19842e-08
-1.31471e-07
-2.25887e-08
-1.24858e-07
-2.31205e-08
-1.18116e-07
-2.35733e-08
-1.11271e-07
-2.39409e-08
-1.04348e-07
-2.42167e-08
-9.73749e-08
-2.43941e-08
-9.03813e-08
-2.4466e-08
-8.33986e-08
-2.44256e-08
-7.646e-08
-2.42657e-08
-6.96003e-08
-2.39797e-08
-6.2856e-08
-2.35609e-08
-5.62649e-08
-2.3003e-08
-4.98661e-08
-2.23006e-08
-4.36996e-08
-2.14488e-08
-3.78058e-08
-2.04443e-08
-3.22253e-08
-1.92852e-08
-2.69977e-08
-1.79719e-08
-2.21615e-08
-1.65078e-08
-1.77525e-08
-1.49006e-08
-1.38027e-08
-1.31629e-08
-1.03392e-08
-1.13147e-08
-7.38178e-09
-9.38516e-09
-4.94157e-09
-7.41615e-09
-3.01848e-09
-5.46607e-09
-1.59931e-09
-3.61527e-09
-6.55947e-10
-1.97177e-09
-1.44011e-10
-6.79308e-10
5.5895e-11
-2.17002e-10
-1.29064e-10
-9.02731e-10
1.12738e-09
-2.10923e-09
3.20436e-09
-3.87958e-09
5.55073e-09
-6.23481e-09
8.02518e-09
-9.17808e-09
1.05503e-08
-1.26996e-08
1.30595e-08
-1.67795e-08
1.5499e-08
-2.13905e-08
1.78272e-08
-2.64999e-08
2.0013e-08
-3.20706e-08
2.20341e-08
-3.80624e-08
2.38756e-08
-4.44332e-08
2.55284e-08
-5.11398e-08
2.69878e-08
-5.81383e-08
2.82531e-08
-6.53853e-08
2.93263e-08
-7.28375e-08
3.02113e-08
-8.04531e-08
3.09142e-08
-8.81913e-08
3.14417e-08
-9.60129e-08
3.18018e-08
-1.0388e-07
3.20026e-08
-1.11758e-07
3.20529e-08
-1.19612e-07
3.19615e-08
-1.27411e-07
3.17371e-08
-1.35124e-07
3.13885e-08
-1.42724e-07
3.09239e-08
-1.50184e-07
3.03518e-08
-1.5748e-07
2.96798e-08
-1.6459e-07
2.89155e-08
-1.71492e-07
2.80662e-08
-1.78168e-07
2.71384e-08
-1.84598e-07
2.61385e-08
-1.90768e-07
2.50725e-08
-1.96661e-07
2.3946e-08
-2.02265e-07
2.27641e-08
-2.07566e-07
2.15317e-08
-2.12552e-07
2.02533e-08
-2.17215e-07
1.89331e-08
-2.21543e-07
1.75751e-08
-2.25529e-07
1.61829e-08
-2.29164e-07
1.47601e-08
-2.32442e-07
1.33097e-08
-2.35357e-07
1.18348e-08
-2.37903e-07
1.03385e-08
-2.40076e-07
8.82348e-09
-2.41871e-07
7.29223e-09
-2.43285e-07
5.74742e-09
-2.44316e-07
4.19162e-09
-2.44961e-07
2.62718e-09
-2.45219e-07
1.05649e-09
-2.45089e-07
-5.17963e-10
-2.44571e-07
-2.09373e-09
-2.43665e-07
-3.66838e-09
-2.42371e-07
-5.23937e-09
-2.40693e-07
-6.80407e-09
-2.38631e-07
-8.35979e-09
-2.3619e-07
-9.90373e-09
-2.33372e-07
-1.14329e-08
-2.30183e-07
-1.29442e-08
-2.26628e-07
-1.44344e-08
-2.22713e-07
-1.58999e-08
-2.18445e-07
-1.73371e-08
-2.13833e-07
-1.8742e-08
-2.08885e-07
-2.01103e-08
-2.03612e-07
-2.14376e-08
-1.98025e-07
-2.27192e-08
-1.92138e-07
-2.39499e-08
-1.85963e-07
-2.51242e-08
-1.79517e-07
-2.62365e-08
-1.72816e-07
-2.72805e-08
-1.65879e-07
-2.82498e-08
-1.58726e-07
-2.91375e-08
-1.51378e-07
-2.99364e-08
-1.4386e-07
-3.0639e-08
-1.36196e-07
-3.12373e-08
-1.28414e-07
-3.1723e-08
-1.20543e-07
-3.20878e-08
-1.12614e-07
-3.23228e-08
-1.0466e-07
-3.24194e-08
-9.67176e-08
-3.23684e-08
-8.88222e-08
-3.21611e-08
-8.1013e-08
-3.17889e-08
-7.33304e-08
-3.12435e-08
-6.58161e-08
-3.05173e-08
-5.85132e-08
-2.96034e-08
-5.14656e-08
-2.84965e-08
-4.47174e-08
-2.71925e-08
-3.83128e-08
-2.56898e-08
-3.22949e-08
-2.39897e-08
-2.67055e-08
-2.20973e-08
-2.15833e-08
-2.00228e-08
-1.69636e-08
-1.77826e-08
-1.28765e-08
-1.54017e-08
-9.34564e-09
-1.29161e-08
-6.38637e-09
-1.03754e-08
-4.00479e-09
-7.84765e-09
-2.19637e-09
-5.4237e-09
-9.45548e-10
-3.22259e-09
-2.25875e-10
-1.39898e-09
-1.69983e-10
-3.06295e-10
1.77227e-10
-1.21134e-09
2.03244e-09
-2.73227e-09
4.72528e-09
-4.89221e-09
7.71067e-09
-7.70003e-09
1.0833e-08
-1.11512e-08
1.40014e-08
-1.52301e-08
1.71384e-08
-1.99127e-08
2.01817e-08
-2.51682e-08
2.30826e-08
-3.09602e-08
2.5805e-08
-3.72486e-08
2.83225e-08
-4.39899e-08
3.0617e-08
-5.1139e-08
3.26774e-08
-5.86492e-08
3.4498e-08
-6.64734e-08
3.60774e-08
-7.45648e-08
3.74176e-08
-8.28769e-08
3.85234e-08
-9.13643e-08
3.94016e-08
-9.99829e-08
4.00603e-08
-1.0869e-07
4.05089e-08
-1.17445e-07
4.07575e-08
-1.26209e-07
4.08167e-08
-1.34944e-07
4.06972e-08
-1.43617e-07
4.04098e-08
-1.52194e-07
3.99652e-08
-1.60644e-07
3.9374e-08
-1.68938e-07
3.86462e-08
-1.7705e-07
3.77918e-08
-1.84955e-07
3.68201e-08
-1.92629e-07
3.57401e-08
-2.00051e-07
3.45602e-08
-2.07201e-07
3.32884e-08
-2.14061e-07
3.19323e-08
-2.20613e-07
3.04989e-08
-2.26844e-07
2.89948e-08
-2.32739e-07
2.7426e-08
-2.38284e-07
2.57985e-08
-2.43468e-07
2.41175e-08
-2.48281e-07
2.23881e-08
-2.52713e-07
2.06149e-08
-2.56756e-07
1.88024e-08
-2.60401e-07
1.69548e-08
-2.63642e-07
1.50759e-08
-2.66472e-07
1.31693e-08
-2.68888e-07
1.12388e-08
-2.70883e-07
9.2877e-09
-2.72455e-07
7.31924e-09
-2.736e-07
5.33665e-09
-2.74316e-07
3.34311e-09
-2.74601e-07
1.34173e-09
-2.74455e-07
-6.64421e-10
-2.73876e-07
-2.67221e-09
-2.72866e-07
-4.67841e-09
-2.71426e-07
-6.67975e-09
-2.69557e-07
-8.67294e-09
-2.67262e-07
-1.06546e-08
-2.64545e-07
-1.26209e-08
-2.6141e-07
-1.45682e-08
-2.57862e-07
-1.64925e-08
-2.53906e-07
-1.83896e-08
-2.49551e-07
-2.02551e-08
-2.44804e-07
-2.20842e-08
-2.39674e-07
-2.38719e-08
-2.34172e-07
-2.56127e-08
-2.28308e-07
-2.73011e-08
-2.22096e-07
-2.8931e-08
-2.1555e-07
-3.04958e-08
-2.08686e-07
-3.19887e-08
-2.0152e-07
-3.34024e-08
-1.94071e-07
-3.47291e-08
-1.8636e-07
-3.59607e-08
-1.78409e-07
-3.70884e-08
-1.70242e-07
-3.81033e-08
-1.61886e-07
-3.89958e-08
-1.53367e-07
-3.9756e-08
-1.44716e-07
-4.03737e-08
-1.35966e-07
-4.08382e-08
-1.2715e-07
-4.11389e-08
-1.18304e-07
-4.12647e-08
-1.09468e-07
-4.12048e-08
-1.00681e-07
-4.09482e-08
-9.1985e-08
-4.04847e-08
-8.34244e-08
-3.98042e-08
-7.5044e-08
-3.88976e-08
-6.68904e-08
-3.77571e-08
-5.90107e-08
-3.63762e-08
-5.14524e-08
-3.47508e-08
-4.42628e-08
-3.28794e-08
-3.74882e-08
-3.07643e-08
-3.11733e-08
-2.84123e-08
-2.536e-08
-2.5836e-08
-2.0087e-08
-2.30556e-08
-1.5388e-08
-2.01008e-08
-1.12909e-08
-1.70132e-08
-7.81685e-09
-1.38495e-08
-4.97929e-09
-1.06852e-08
-2.78374e-09
-7.61926e-09
-1.22824e-09
-4.77809e-09
-3.04565e-10
-2.32266e-09
-4.74545e-10
-3.86689e-10
5.63923e-10
-1.49901e-09
3.14475e-09
-3.32509e-09
6.55135e-09
-5.86783e-09
1.02534e-08
-9.12245e-09
1.40876e-08
-1.30746e-08
1.79536e-08
-1.7702e-08
2.17658e-08
-2.29749e-08
2.54546e-08
-2.88582e-08
2.89659e-08
-3.53118e-08
3.22587e-08
-4.22922e-08
3.53028e-08
-4.97528e-08
3.80776e-08
-5.76452e-08
4.05699e-08
-6.59199e-08
4.27728e-08
-7.4527e-08
4.46845e-08
-8.34164e-08
4.6307e-08
-9.25387e-08
4.76458e-08
-1.01846e-07
4.87084e-08
-1.1129e-07
4.95046e-08
-1.20826e-07
5.00452e-08
-1.30411e-07
5.0342e-08
-1.40002e-07
5.04076e-08
-1.49559e-07
5.02548e-08
-1.59046e-07
4.98965e-08
-1.68426e-07
4.93456e-08
-1.77667e-07
4.86147e-08
-1.86737e-07
4.7716e-08
-1.95607e-07
4.66616e-08
-2.04249e-07
4.54627e-08
-2.12639e-07
4.41303e-08
-2.20754e-07
4.26746e-08
-2.28571e-07
4.11055e-08
-2.36071e-07
3.94322e-08
-2.43235e-07
3.76633e-08
-2.50047e-07
3.58068e-08
-2.56492e-07
3.38704e-08
-2.62554e-07
3.18612e-08
-2.68222e-07
2.97857e-08
-2.73485e-07
2.76501e-08
-2.7833e-07
2.54604e-08
-2.82749e-07
2.32219e-08
-2.86734e-07
2.09397e-08
-2.90277e-07
1.86188e-08
-2.93372e-07
1.62637e-08
-2.96012e-07
1.38789e-08
-2.98192e-07
1.14684e-08
-2.9991e-07
9.03656e-09
-3.0116e-07
6.5873e-09
-3.01942e-07
4.12447e-09
-3.02252e-07
1.65194e-09
-3.0209e-07
-8.2636e-10
-3.01456e-07
-3.30652e-09
-3.0035e-07
-5.7846e-09
-2.98773e-07
-8.2566e-09
-2.96727e-07
-1.07184e-08
-2.94216e-07
-1.31656e-08
-2.91244e-07
-1.55937e-08
-2.87814e-07
-1.79981e-08
-2.83932e-07
-2.03738e-08
-2.79606e-07
-2.27157e-08
-2.74843e-07
-2.50183e-08
-2.69652e-07
-2.72756e-08
-2.64042e-07
-2.94815e-08
-2.58025e-07
-3.16294e-08
-2.51614e-07
-3.37122e-08
-2.44823e-07
-3.57225e-08
-2.37666e-07
-3.76523e-08
-2.30162e-07
-3.94932e-08
-2.22328e-07
-4.12362e-08
-2.14185e-07
-4.28718e-08
-2.05756e-07
-4.43899e-08
-1.97065e-07
-4.57801e-08
-1.88137e-07
-4.70313e-08
-1.79e-07
-4.81319e-08
-1.69687e-07
-4.90698e-08
-1.60228e-07
-4.98328e-08
-1.50658e-07
-5.04079e-08
-1.41014e-07
-5.07823e-08
-1.31336e-07
-5.09429e-08
-1.21665e-07
-5.08765e-08
-1.12042e-07
-5.05705e-08
-1.02515e-07
-5.00123e-08
-9.31284e-08
-4.91905e-08
-8.39316e-08
-4.80944e-08
-7.49738e-08
-4.67149e-08
-6.63051e-08
-4.50449e-08
-5.79758e-08
-4.308e-08
-5.00362e-08
-4.0819e-08
-4.25356e-08
-3.8265e-08
-3.55216e-08
-3.54262e-08
-2.90396e-08
-3.23179e-08
-2.31317e-08
-2.89635e-08
-1.78358e-08
-2.53967e-08
-1.3185e-08
-2.1664e-08
-9.2068e-09
-1.78277e-08
-5.92291e-09
-1.39691e-08
-3.34954e-09
-1.01926e-08
-1.49845e-09
-6.62918e-09
-3.78839e-10
-3.44227e-09
-8.53382e-10
-4.59374e-10
1.02329e-09
-1.76537e-09
4.45074e-09
-3.88259e-09
8.66858e-09
-6.79522e-09
1.31661e-08
-1.04844e-08
1.77768e-08
-1.49254e-08
2.23946e-08
-2.00875e-08
2.69279e-08
-2.59353e-08
3.13024e-08
-3.24283e-08
3.5459e-08
-3.95224e-08
3.93528e-08
-4.71703e-08
4.29507e-08
-5.53222e-08
4.62295e-08
-6.39268e-08
4.91744e-08
-7.29315e-08
5.17775e-08
-8.22836e-08
5.40365e-08
-9.19303e-08
5.59538e-08
-1.0182e-07
5.75351e-08
-1.119e-07
5.87892e-08
-1.22123e-07
5.97271e-08
-1.32439e-07
6.03613e-08
-1.42803e-07
6.07055e-08
-1.53169e-07
6.07742e-08
-1.63497e-07
6.05823e-08
-1.73745e-07
6.01449e-08
-1.83876e-07
5.94771e-08
-1.93855e-07
5.85937e-08
-2.03649e-07
5.75093e-08
-2.13225e-07
5.62379e-08
-2.22555e-07
5.4793e-08
-2.31612e-07
5.31875e-08
-2.40372e-07
5.14339e-08
-2.4881e-07
4.95435e-08
-2.56905e-07
4.75276e-08
-2.64638e-07
4.53964e-08
-2.71991e-07
4.31595e-08
-2.78946e-07
4.08261e-08
-2.8549e-07
3.84047e-08
-2.91608e-07
3.59034e-08
-2.97287e-07
3.33295e-08
-3.02517e-07
3.069e-08
-3.07286e-07
2.79915e-08
-3.11587e-07
2.52403e-08
-3.1541e-07
2.24422e-08
-3.18749e-07
1.96028e-08
-3.21598e-07
1.67274e-08
-3.23951e-07
1.38212e-08
-3.25803e-07
1.08891e-08
-3.27152e-07
7.93593e-09
-3.27994e-07
4.96644e-09
-3.28327e-07
1.98536e-09
-3.28151e-07
-1.00259e-09
-3.27465e-07
-3.99271e-09
-3.26269e-07
-6.98022e-09
-3.24566e-07
-9.96022e-09
-3.22356e-07
-1.29277e-08
-3.19644e-07
-1.58774e-08
-3.16434e-07
-1.88039e-08
-3.12731e-07
-2.17016e-08
-3.0854e-07
-2.45645e-08
-3.03869e-07
-2.73864e-08
-2.98727e-07
-3.01605e-08
-2.93123e-07
-3.28799e-08
-2.87067e-07
-3.5537e-08
-2.80573e-07
-3.8124e-08
-2.73652e-07
-4.06324e-08
-2.66322e-07
-4.30532e-08
-2.58597e-07
-4.53769e-08
-2.50497e-07
-4.75932e-08
-2.42042e-07
-4.96916e-08
-2.33253e-07
-5.16607e-08
-2.24154e-07
-5.34884e-08
-2.14772e-07
-5.51623e-08
-2.05134e-07
-5.66692e-08
-1.95271e-07
-5.79952e-08
-1.85215e-07
-5.91263e-08
-1.75e-07
-6.00476e-08
-1.64663e-07
-6.07443e-08
-1.54245e-07
-6.1201e-08
-1.43785e-07
-6.14023e-08
-1.33329e-07
-6.13332e-08
-1.22921e-07
-6.09785e-08
-1.12609e-07
-6.03242e-08
-1.02442e-07
-5.93568e-08
-9.24725e-08
-5.80642e-08
-8.27512e-08
-5.64362e-08
-7.33312e-08
-5.44649e-08
-6.42658e-08
-5.21455e-08
-5.56079e-08
-4.94769e-08
-4.74097e-08
-4.64631e-08
-3.97222e-08
-4.31138e-08
-3.2594e-08
-3.94461e-08
-2.60711e-08
-3.54864e-08
-2.01961e-08
-3.12716e-08
-1.50078e-08
-2.68524e-08
-1.05405e-08
-2.2295e-08
-6.82462e-09
-1.7685e-08
-3.88726e-09
-1.313e-08
-1.75336e-09
-8.76308e-09
-4.48157e-10
-4.74747e-09
-1.30154e-09
-5.25154e-10
1.54845e-09
-2.01104e-09
5.93663e-09
-4.40357e-09
1.10611e-08
-7.66991e-09
1.64324e-08
-1.17776e-08
2.18845e-08
-1.6691e-08
2.7308e-08
-2.23714e-08
3.26083e-08
-2.87762e-08
3.77072e-08
-3.58597e-08
4.25424e-08
-4.3573e-08
4.70661e-08
-5.18649e-08
5.12426e-08
-6.06822e-08
5.50468e-08
-6.99705e-08
5.84626e-08
-7.96742e-08
6.14813e-08
-8.9738e-08
6.41003e-08
-1.00106e-07
6.63222e-08
-1.10725e-07
6.81536e-08
-1.2154e-07
6.96043e-08
-1.32499e-07
7.06865e-08
-1.43553e-07
7.14146e-08
-1.54651e-07
7.18041e-08
-1.65749e-07
7.18716e-08
-1.76801e-07
7.16341e-08
-1.87765e-07
7.1109e-08
-1.98601e-07
7.03136e-08
-2.09273e-07
6.92652e-08
-2.19744e-07
6.79804e-08
-2.29982e-07
6.64758e-08
-2.39956e-07
6.47669e-08
-2.49637e-07
6.28687e-08
-2.58999e-07
6.07958e-08
-2.68017e-07
5.85616e-08
-2.76668e-07
5.61791e-08
-2.84932e-07
5.36603e-08
-2.92789e-07
5.10166e-08
-3.00222e-07
4.82589e-08
-3.07214e-07
4.5397e-08
-3.13751e-07
4.24403e-08
-3.19819e-07
3.93978e-08
-3.25407e-07
3.62776e-08
-3.30503e-07
3.30876e-08
-3.35098e-07
2.9835e-08
-3.39183e-07
2.6527e-08
-3.4275e-07
2.317e-08
-3.45793e-07
1.97704e-08
-3.48306e-07
1.63343e-08
-3.50284e-07
1.28675e-08
-3.51724e-07
9.37593e-09
-3.52623e-07
5.86505e-09
-3.52978e-07
2.34052e-09
-3.52789e-07
-1.19207e-09
-3.52054e-07
-4.7271e-09
-3.50775e-07
-8.25893e-09
-3.48954e-07
-1.17817e-08
-3.46592e-07
-1.52896e-08
-3.43693e-07
-1.87762e-08
-3.40262e-07
-2.22352e-08
-3.36304e-07
-2.56599e-08
-3.31825e-07
-2.90433e-08
-3.26833e-07
-3.2378e-08
-3.21338e-07
-3.5656e-08
-3.15349e-07
-3.8869e-08
-3.08877e-07
-4.20083e-08
-3.01937e-07
-4.50645e-08
-2.94541e-07
-4.80277e-08
-2.86708e-07
-5.08872e-08
-2.78453e-07
-5.36318e-08
-2.69796e-07
-5.62496e-08
-2.6076e-07
-5.87281e-08
-2.51367e-07
-6.10539e-08
-2.41642e-07
-6.32131e-08
-2.31613e-07
-6.5191e-08
-2.2131e-07
-6.69721e-08
-2.10765e-07
-6.85405e-08
-2.00012e-07
-6.98796e-08
-1.89087e-07
-7.09724e-08
-1.7803e-07
-7.18016e-08
-1.66881e-07
-7.23495e-08
-1.55685e-07
-7.25984e-08
-1.44487e-07
-7.25308e-08
-1.33336e-07
-7.21298e-08
-1.22281e-07
-7.13791e-08
-1.11374e-07
-7.02635e-08
-1.00669e-07
-6.87694e-08
-9.022e-08
-6.68853e-08
-8.00823e-08
-6.46026e-08
-7.03119e-08
-6.19159e-08
-6.09646e-08
-5.88243e-08
-5.20955e-08
-5.53322e-08
-4.37587e-08
-5.14505e-08
-3.60068e-08
-4.71981e-08
-2.88898e-08
-4.26034e-08
-2.24553e-08
-3.77061e-08
-1.67479e-08
-3.25597e-08
-1.18094e-08
-2.72335e-08
-7.67889e-09
-2.18155e-08
-4.39388e-09
-1.6415e-08
-1.99181e-09
-1.11652e-08
-5.12288e-10
-6.22699e-09
-1.81383e-09
-5.8496e-10
2.13341e-09
-2.23782e-09
7.58949e-09
-4.88919e-09
1.37125e-08
-8.49133e-09
2.00345e-08
-1.29992e-08
2.63923e-08
-1.83668e-08
3.26756e-08
-2.45467e-08
3.87882e-08
-3.14895e-08
4.46499e-08
-3.91434e-08
5.01964e-08
-4.74548e-08
5.53775e-08
-5.63682e-08
6.0156e-08
-6.58268e-08
6.45054e-08
-7.57728e-08
6.84086e-08
-8.61479e-08
7.18564e-08
-9.68938e-08
7.48462e-08
-1.07953e-07
7.73811e-08
-1.19267e-07
7.94684e-08
-1.30782e-07
8.11191e-08
-1.42443e-07
8.2347e-08
-1.54196e-07
8.31681e-08
-1.65992e-07
8.35999e-08
-1.77782e-07
8.36611e-08
-1.89518e-07
8.33709e-08
-2.01158e-07
8.27491e-08
-2.1266e-07
8.18154e-08
-2.23984e-07
8.05893e-08
-2.35094e-07
7.909e-08
-2.45954e-07
7.73362e-08
-2.56533e-07
7.53457e-08
-2.66801e-07
7.31361e-08
-2.76728e-07
7.07237e-08
-2.86291e-07
6.8124e-08
-2.95464e-07
6.53521e-08
-3.04226e-07
6.24219e-08
-3.12555e-07
5.93466e-08
-3.20435e-07
5.61385e-08
-3.27847e-07
5.28092e-08
-3.34777e-07
4.93697e-08
-3.41209e-07
4.58302e-08
-3.47132e-07
4.22003e-08
-3.52533e-07
3.8489e-08
-3.57403e-07
3.4705e-08
-3.61733e-07
3.08563e-08
-3.65513e-07
2.69505e-08
-3.68738e-07
2.29952e-08
-3.71401e-07
1.89974e-08
-3.73498e-07
1.4964e-08
-3.75023e-07
1.09016e-08
-3.75975e-07
6.81681e-09
-3.76351e-07
2.71625e-09
-3.76149e-07
-1.3936e-09
-3.7537e-07
-5.50623e-09
-3.74014e-07
-9.61502e-09
-3.72083e-07
-1.37132e-08
-3.69578e-07
-1.77937e-08
-3.66505e-07
-2.18494e-08
-3.62868e-07
-2.58729e-08