/*--------------------------------*- C++ -*----------------------------------*\
| =========                 |                                                 |
| \\      /  F ield         | OpenFOAM: The Open Source CFD Toolbox           |
|  \\    /   O peration     | Version:  2212                                  |
|   \\  /    A nd           | Website:  www.openfoam.com                      |
|    \\/     M anipulation  |                                                 |
\*---------------------------------------------------------------------------*/
FoamFile
{
    version     2.0;
    format      ascii;
    arch        "LSB;label=32;scalar=64";
    class       surfaceScalarField;
    location    "0.085";
    object      phi;
}
// * * * * * * * * * * * * * * * * * * * * * * * * * * * * * * * * * * * * * //

dimensions      [0 3 -1 0 0 0 0];

oriented        oriented;

internalField   nonuniform List<scalar> 
19800
(
7.02989e-11
-7.01722e-11
2.41394e-10
-1.71098e-10
4.29911e-10
-1.88504e-10
5.77873e-10
-1.47961e-10
6.52088e-10
-7.42193e-11
6.34266e-10
1.78275e-11
5.15228e-10
1.19037e-10
2.91603e-10
2.2363e-10
-3.63213e-11
3.27929e-10
-4.65891e-10
4.29566e-10
-9.92891e-10
5.26992e-10
-1.61207e-09
6.1917e-10
-2.31748e-09
7.0541e-10
-3.10273e-09
7.85266e-10
-3.96118e-09
8.5845e-10
-4.88598e-09
9.24803e-10
-5.87023e-09
9.84255e-10
-6.90703e-09
1.0368e-09
-7.98952e-09
1.08249e-09
-9.11093e-09
1.1214e-09
-1.02646e-08
1.15365e-09
-1.1444e-08
1.17938e-09
-1.26427e-08
1.19874e-09
-1.38546e-08
1.21189e-09
-1.50736e-08
1.21903e-09
-1.6294e-08
1.22032e-09
-1.75099e-08
1.21596e-09
-1.87161e-08
1.20616e-09
-1.99072e-08
1.19114e-09
-2.10783e-08
1.17109e-09
-2.22245e-08
1.14622e-09
-2.33413e-08
1.11675e-09
-2.44242e-08
1.08289e-09
-2.5469e-08
1.04484e-09
-2.64719e-08
1.00283e-09
-2.74289e-08
9.57068e-10
-2.83367e-08
9.07773e-10
-2.91918e-08
8.55158e-10
-2.99913e-08
7.99447e-10
-3.07321e-08
7.40854e-10
-3.14117e-08
6.79596e-10
-3.20277e-08
6.15902e-10
-3.25777e-08
5.49996e-10
-3.30598e-08
4.82101e-10
-3.34722e-08
4.12449e-10
-3.38135e-08
3.41263e-10
-3.40822e-08
2.68772e-10
-3.42774e-08
1.9522e-10
-3.43983e-08
1.20848e-10
-3.44442e-08
4.5897e-11
-3.44148e-08
-2.938e-11
-3.43101e-08
-1.04734e-10
-3.41302e-08
-1.79916e-10
-3.38755e-08
-2.54667e-10
-3.35468e-08
-3.28725e-10
-3.31449e-08
-4.01829e-10
-3.26712e-08
-4.73708e-10
-3.21271e-08
-5.44089e-10
-3.15144e-08
-6.12701e-10
-3.08352e-08
-6.79267e-10
-3.00917e-08
-7.43509e-10
-2.92865e-08
-8.05148e-10
-2.84226e-08
-8.63901e-10
-2.75031e-08
-9.19483e-10
-2.65315e-08
-9.71614e-10
-2.55115e-08
-1.02002e-09
-2.4447e-08
-1.06443e-09
-2.33425e-08
-1.10456e-09
-2.22023e-08
-1.14016e-09
-2.10313e-08
-1.17097e-09
-1.98346e-08
-1.19674e-09
-1.86174e-08
-1.21722e-09
-1.73852e-08
-1.23218e-09
-1.61438e-08
-1.2414e-09
-1.48992e-08
-1.24465e-09
-1.36574e-08
-1.24175e-09
-1.24249e-08
-1.23251e-09
-1.12081e-08
-1.21678e-09
-1.00137e-08
-1.19442e-09
-8.84842e-09
-1.16529e-09
-7.71912e-09
-1.1293e-09
-6.63272e-09
-1.0864e-09
-5.59617e-09
-1.03654e-09
-4.61642e-09
-9.79753e-10
-3.70034e-09
-9.16077e-10
-2.85469e-09
-8.45642e-10
-2.08604e-09
-7.68645e-10
-1.40068e-09
-6.85365e-10
-8.04489e-10
-5.96202e-10
-3.02746e-10
-5.01741e-10
1.00074e-10
-4.02811e-10
4.0066e-10
-3.00582e-10
5.97387e-10
-1.96732e-10
6.91131e-10
-9.37475e-11
6.86536e-10
4.60041e-12
5.94085e-10
9.24636e-11
4.33304e-10
1.60783e-10
2.3829e-10
1.95006e-10
6.69569e-11
1.71328e-10
6.69612e-11
1.71143e-10
-2.41325e-10
4.70424e-10
-4.70376e-10
7.57511e-10
-4.75595e-10
9.307e-10
-3.21146e-10
9.19312e-10
-6.28529e-11
6.78101e-10
2.59032e-10
1.80651e-10
6.16468e-10
-5.85879e-10
9.90146e-10
-1.62473e-09
1.36678e-09
-2.93234e-09
1.73718e-09
-4.50029e-09
2.09496e-09
-6.31676e-09
2.43565e-09
-8.36747e-09
2.75613e-09
-1.06365e-08
3.05426e-09
-1.31066e-08
3.32859e-09
-1.576e-08
3.57818e-09
-1.85782e-08
3.8025e-09
-2.15427e-08
4.00129e-09
-2.46348e-08
4.17455e-09
-2.78358e-08
4.32244e-09
-3.11274e-08
4.44524e-09
-3.44914e-08
4.54338e-09
-3.791e-08
4.61735e-09
-4.13658e-08
4.66771e-09
-4.48419e-08
4.69508e-09
-4.83217e-08
4.70013e-09
-5.17893e-08
4.68357e-09
-5.52293e-08
4.64611e-09
-5.86267e-08
4.58852e-09
-6.19672e-08
4.51158e-09
-6.5237e-08
4.41607e-09
-6.8423e-08
4.30279e-09
-7.15127e-08
4.17254e-09
-7.4494e-08
4.02612e-09
-7.73555e-08
3.86438e-09
-8.00866e-08
3.68812e-09
-8.2677e-08
3.49818e-09
-8.51172e-08
3.29541e-09
-8.73984e-08
3.08064e-09
-8.95123e-08
2.85472e-09
-9.14512e-08
2.6185e-09
-9.32081e-08
2.37285e-09
-9.47767e-08
2.11863e-09
-9.61513e-08
1.85671e-09
-9.73269e-08
1.588e-09
-9.82991e-08
1.3134e-09
-9.90641e-08
1.0338e-09
-9.9619e-08
7.50121e-10
-9.99614e-08
4.63308e-10
-1.0009e-07
1.74298e-10
-1.00003e-07
-1.15953e-10
-9.97015e-08
-4.0646e-10
-9.91852e-08
-6.96237e-10
-9.84556e-08
-9.84291e-10
-9.75147e-08
-1.26961e-09
-9.63654e-08
-1.55116e-09
-9.50111e-08
-1.82792e-09
-9.34564e-08
-2.09884e-09
-9.17062e-08
-2.36286e-09
-8.97666e-08
-2.61892e-09
-8.76442e-08
-2.86594e-09
-8.53464e-08
-3.10286e-09
-8.28817e-08
-3.32859e-09
-8.02591e-08
-3.54207e-09
-7.74885e-08
-3.74222e-09
-7.45806e-08
-3.92799e-09
-7.15467e-08
-4.09833e-09
-6.8399e-08
-4.25223e-09
-6.51505e-08
-4.38867e-09
-6.18148e-08
-4.50669e-09
-5.84062e-08
-4.60532e-09
-5.49397e-08
-4.68367e-09
-5.14311e-08
-4.74086e-09
-4.78964e-08
-4.77606e-09
-4.43525e-08
-4.78849e-09
-4.08168e-08
-4.77745e-09
-3.7307e-08
-4.7423e-09
-3.38414e-08
-4.68246e-09
-3.04384e-08
-4.59745e-09
-2.71167e-08
-4.48689e-09
-2.38955e-08
-4.3505e-09
-2.07938e-08
-4.18814e-09
-1.78305e-08
-3.99982e-09
-1.50245e-08
-3.78571e-09
-1.23944e-08
-3.54622e-09
-9.95806e-09
-3.28199e-09
-7.73272e-09
-2.99399e-09
-5.73448e-09
-2.68361e-09
-3.97795e-09
-2.35273e-09
-2.47571e-09
-2.00397e-09
-1.2376e-09
-1.64092e-09
-2.69724e-10
-1.26847e-09
4.26935e-10
-8.93397e-10
8.5841e-10
-5.25223e-10
1.04045e-09
-1.77442e-10
1.00229e-09
1.30631e-10
7.91657e-10
3.71419e-10
4.80776e-10
5.05879e-10
1.71258e-10
4.80849e-10
2.38223e-10
1.89153e-10
-4.30466e-10
4.7768e-10
-7.58905e-10
6.92977e-10
-6.90897e-10
7.12573e-10
-3.40732e-10
4.47702e-10
2.02022e-10
-1.62173e-10
8.68904e-10
-1.15494e-09
1.60923e-09
-2.55098e-09
2.38618e-09
-4.35736e-09
3.17315e-09
-6.5711e-09
3.95091e-09
-9.18172e-09
4.70558e-09
-1.21732e-08
5.42708e-09
-1.55252e-08
6.1082e-09
-1.92147e-08
6.74377e-09
-2.32163e-08
7.33017e-09
-2.75031e-08
7.86495e-09
-3.20471e-08
8.34655e-09
-3.68199e-08
8.77412e-09
-4.17927e-08
9.14733e-09
-4.69366e-08
9.46629e-09
-5.22227e-08
9.73143e-09
-5.76228e-08
9.94347e-09
-6.31088e-08
1.01033e-08
-6.86532e-08
1.02121e-08
-7.42292e-08
1.02711e-08
-7.98106e-08
1.02815e-08
-8.53721e-08
1.0245e-08
-9.08889e-08
1.0163e-08
-9.63374e-08
1.0037e-08
-1.01695e-07
9.86879e-09
-1.06939e-07
9.65999e-09
-1.12048e-07
9.41232e-09
-1.17003e-07
9.1275e-09
-1.21784e-07
8.80731e-09
-1.26373e-07
8.45352e-09
-1.30753e-07
8.06794e-09
-1.34907e-07
7.65237e-09
-1.38821e-07
7.20865e-09
-1.42479e-07
6.73862e-09
-1.45868e-07
6.24415e-09
-1.48977e-07
5.72711e-09
-1.51793e-07
5.18939e-09
-1.54308e-07
4.63291e-09
-1.5651e-07
4.05959e-09
-1.58394e-07
3.47139e-09
-1.59951e-07
2.87027e-09
-1.61175e-07
2.25827e-09
-1.62062e-07
1.63738e-09
-1.62609e-07
1.00967e-09
-1.62812e-07
3.77211e-10
-1.6267e-07
-2.57883e-10
-1.62183e-07
-8.93478e-10
-1.61352e-07
-1.5274e-09
-1.60178e-07
-2.15745e-09
-1.58667e-07
-2.78142e-09
-1.56821e-07
-3.39706e-09
-1.54646e-07
-4.00209e-09
-1.52151e-07
-4.59425e-09
-1.49343e-07
-5.1712e-09
-1.46231e-07
-5.73063e-09
-1.42827e-07
-6.2702e-09
-1.39142e-07
-6.78759e-09
-1.3519e-07
-7.28044e-09
-1.30986e-07
-7.74643e-09
-1.26545e-07
-8.18324e-09
-1.21884e-07
-8.58858e-09
-1.17022e-07
-8.96021e-09
-1.11979e-07
-9.29589e-09
-1.06774e-07
-9.59347e-09
-1.0143e-07
-9.85085e-09
-9.5969e-08
-1.0066e-08
-9.04158e-08
-1.02369e-08
-8.47948e-08
-1.03618e-08
-7.91319e-08
-1.04389e-08
-7.34538e-08
-1.04666e-08
-6.77879e-08
-1.04434e-08
-6.21623e-08
-1.03679e-08
-5.66056e-08
-1.02391e-08
-5.1147e-08
-1.0056e-08
-4.5816e-08
-9.81788e-09
-4.06423e-08
-9.52425e-09
-3.56554e-08
-9.17499e-09
-3.08849e-08
-8.7703e-09
-2.63598e-08
-8.3108e-09
-2.21084e-08
-7.79759e-09
-1.81581e-08
-7.23236e-09
-1.45345e-08
-6.61756e-09
-1.12616e-08
-5.95655e-09
-8.3604e-09
-5.25388e-09
-5.84872e-09
-4.51566e-09
-3.73964e-09
-3.75e-09
-2.0403e-09
-2.96781e-09
-7.4997e-10
-2.18372e-09
1.42326e-10
-1.41752e-09
6.60976e-10
-6.96096e-10
8.47705e-10
-5.60962e-11
7.66349e-10
4.52779e-10
5.07927e-10
7.64304e-10
1.95535e-10
7.93247e-10
4.3376e-10
1.50263e-10
-5.80727e-10
3.28191e-10
-9.36828e-10
3.51591e-10
-7.1431e-10
8.99284e-11
-7.90749e-11
-5.52707e-10
8.44645e-10
-1.64371e-09
1.9599e-09
-3.22688e-09
3.1924e-09
-5.32696e-09
4.48627e-09
-7.95348e-09
5.79968e-09
-1.1104e-08
7.10139e-09
-1.47665e-08
8.36816e-09
-1.89222e-08
9.5827e-09
-2.35462e-08
1.07322e-08
-2.86098e-08
1.18074e-08
-3.4081e-08
1.28014e-08
-3.99257e-08
1.37096e-08
-4.61079e-08
1.45288e-08
-5.25908e-08
1.5257e-08
-5.93369e-08
1.58934e-08
-6.63083e-08
1.64377e-08
-7.34673e-08
1.68904e-08
-8.07763e-08
1.72525e-08
-8.81983e-08
1.75253e-08
-9.56967e-08
1.77106e-08
-1.03236e-07
1.78102e-08
-1.10781e-07
1.78265e-08
-1.18298e-07
1.77618e-08
-1.25753e-07
1.76186e-08
-1.33116e-07
1.73995e-08
-1.40354e-07
1.71075e-08
-1.4744e-07
1.67452e-08
-1.54343e-07
1.63156e-08
-1.61037e-07
1.58217e-08
-1.67496e-07
1.52665e-08
-1.73696e-07
1.4653e-08
-1.79612e-07
1.39844e-08
-1.85224e-07
1.32638e-08
-1.90509e-07
1.24943e-08
-1.9545e-07
1.16792e-08
-2.00027e-07
1.08217e-08
-2.04225e-07
9.92499e-09
-2.08028e-07
8.99243e-09
-2.11423e-07
8.02732e-09
-2.14396e-07
7.03304e-09
-2.16938e-07
6.01298e-09
-2.19038e-07
4.97057e-09
-2.20689e-07
3.9093e-09
-2.21884e-07
2.8327e-09
-2.22619e-07
1.74434e-09
-2.2289e-07
6.47848e-10
-2.22695e-07
-4.5311e-10
-2.22033e-07
-1.55482e-09
-2.20907e-07
-2.65352e-09
-2.19319e-07
-3.74539e-09
-2.17274e-07
-4.82658e-09
-2.14778e-07
-5.89319e-09
-2.11839e-07
-6.94129e-09
-2.08466e-07
-7.96692e-09
-2.04671e-07
-8.96606e-09
-2.00467e-07
-9.93472e-09
-1.95868e-07
-1.08689e-08
-1.90891e-07
-1.17645e-08
-1.85554e-07
-1.26175e-08
-1.79877e-07
-1.34239e-08
-1.73881e-07
-1.41797e-08
-1.67588e-07
-1.48811e-08
-1.61024e-07
-1.5524e-08
-1.54215e-07
-1.61048e-08
-1.47189e-07
-1.66198e-08
-1.39975e-07
-1.70652e-08
-1.32603e-07
-1.74378e-08
-1.25106e-07
-1.77341e-08
-1.17516e-07
-1.79511e-08
-1.09869e-07
-1.80858e-08
-1.02201e-07
-1.81354e-08
-9.45464e-08
-1.80976e-08
-8.69441e-08
-1.79702e-08
-7.94318e-08
-1.77514e-08
-7.20482e-08
-1.74396e-08
-6.48322e-08
-1.70339e-08
-5.78229e-08
-1.65336e-08
-5.10592e-08
-1.59387e-08
-4.45796e-08
-1.52499e-08
-3.84219e-08
-1.44685e-08
-3.26228e-08
-1.35967e-08
-2.72173e-08
-1.26379e-08
-2.22382e-08
-1.15966e-08
-1.77156e-08
-1.04792e-08
-1.36756e-08
-9.29383e-09
-1.01399e-08
-8.05138e-09
-7.1238e-09
-6.76608e-09
-4.6351e-09
-5.45651e-09
-2.67174e-09
-4.14707e-09
-1.21945e-09
-2.86981e-09
-2.48647e-10
-1.66689e-09
2.89094e-10
-5.93832e-10
4.65297e-10
2.76577e-10
3.79084e-10
8.50515e-10
1.63022e-10
1.00931e-09
5.96781e-10
7.90194e-11
-6.59748e-10
7.7086e-11
-9.34885e-10
-1.78671e-10
-4.58553e-10
-8.16083e-10
5.58341e-10
-1.93046e-09
1.95902e-09
-3.58996e-09
3.61939e-09
-5.8398e-09
5.44223e-09
-8.70599e-09
7.35245e-09
-1.21987e-08
9.29237e-09
-1.63151e-08
1.12178e-08
-2.10419e-08
1.3095e-08
-2.63574e-08
1.48982e-08
-3.22334e-08
1.66082e-08
-3.86365e-08
1.82104e-08
-4.55292e-08
1.96941e-08
-5.28713e-08
2.10517e-08
-6.06201e-08
2.22776e-08
-6.87317e-08
2.33686e-08
-7.7161e-08
2.43227e-08
-8.58625e-08
2.51392e-08
-9.47904e-08
2.58183e-08
-1.03899e-07
2.63613e-08
-1.13144e-07
2.67698e-08
-1.22479e-07
2.70461e-08
-1.31862e-07
2.71932e-08
-1.4125e-07
2.7214e-08
-1.506e-07
2.7112e-08
-1.59872e-07
2.6891e-08
-1.69028e-07
2.65548e-08
-1.78028e-07
2.61076e-08
-1.86836e-07
2.55535e-08
-1.95417e-07
2.4897e-08
-2.03738e-07
2.41425e-08
-2.11766e-07
2.32946e-08
-2.19471e-07
2.23578e-08
-2.26824e-07
2.1337e-08
-2.33797e-07
2.02368e-08
-2.40365e-07
1.90621e-08
-2.46503e-07
1.78177e-08
-2.5219e-07
1.65086e-08
-2.57405e-07
1.51398e-08
-2.62129e-07
1.37162e-08
-2.66344e-07
1.2243e-08
-2.70036e-07
1.07253e-08
-2.73192e-07
9.16827e-09
-2.75798e-07
7.57724e-09
-2.77847e-07
5.95752e-09
-2.79328e-07
4.31449e-09
-2.80238e-07
2.65364e-09
-2.8057e-07
9.80496e-10
-2.80324e-07
-6.99329e-10
-2.79499e-07
-2.38015e-09
-2.78096e-07
-4.05621e-09
-2.7612e-07
-5.7217e-09
-2.73576e-07
-7.37073e-09
-2.70472e-07
-8.99735e-09
-2.66817e-07
-1.05956e-08
-2.62625e-07
-1.21593e-08
-2.57908e-07
-1.36826e-08
-2.52684e-07
-1.51592e-08
-2.4697e-07
-1.6583e-08
-2.40786e-07
-1.7948e-08
-2.34156e-07
-1.92479e-08
-2.27103e-07
-2.04768e-08
-2.19654e-07
-2.16287e-08
-2.11837e-07
-2.26974e-08
-2.03684e-07
-2.36774e-08
-1.95226e-07
-2.45627e-08
-1.86498e-07
-2.53478e-08
-1.77536e-07
-2.60274e-08
-1.68378e-07
-2.65962e-08
-1.59062e-07
-2.70494e-08
-1.49631e-07
-2.73822e-08
-1.40127e-07
-2.75903e-08
-1.30592e-07
-2.76698e-08
-1.21073e-07
-2.7617e-08
-1.11615e-07
-2.74288e-08
-1.02263e-07
-2.71027e-08
-9.30662e-08
-2.66366e-08
-8.40709e-08
-2.60292e-08
-7.53246e-08
-2.52799e-08
-6.68744e-08
-2.43889e-08
-5.87668e-08
-2.33575e-08
-5.1047e-08
-2.21883e-08
-4.37588e-08
-2.08849e-08
-3.69438e-08
-1.94529e-08
-3.06408e-08
-1.78996e-08
-2.48849e-08
-1.62351e-08
-1.97066e-08
-1.44722e-08
-1.51306e-08
-1.26274e-08
-1.11742e-08
-1.07224e-08
-7.84627e-09
-8.78449e-09
-5.14431e-09
-6.84905e-09
-3.05276e-09
-4.96135e-09
-1.54009e-09
-3.17955e-09
-5.55697e-10
-1.57822e-09
-2.64019e-11
-2.5272e-10
1.47524e-10
6.76586e-10
9.76106e-11
1.05922e-09
6.9439e-10
-1.00902e-11
-6.49663e-10
-2.36703e-10
-7.08262e-10
-8.32186e-10
1.36917e-10
-1.91347e-09
1.63962e-09
-3.56925e-09
3.61481e-09
-5.86377e-09
5.9139e-09
-8.83994e-09
8.41839e-09
-1.25223e-08
1.10348e-08
-1.69198e-08
1.36898e-08
-2.2028e-08
1.6326e-08
-2.78318e-08
1.88987e-08
-3.43067e-08
2.13732e-08
-4.14212e-08
2.37227e-08
-4.91378e-08
2.59271e-08
-5.74145e-08
2.79708e-08
-6.62055e-08
2.98427e-08
-7.54627e-08
3.15348e-08
-8.51357e-08
3.30417e-08
-9.51731e-08
3.436e-08
-1.05522e-07
3.54884e-08
-1.16131e-07
3.64268e-08
-1.26946e-07
3.71763e-08
-1.37915e-07
3.7739e-08
-1.48987e-07
3.81177e-08
-1.6011e-07
3.83161e-08
-1.71234e-07
3.83384e-08
-1.82311e-07
3.8189e-08
-1.93293e-07
3.78731e-08
-2.04134e-07
3.73959e-08
-2.1479e-07
3.67631e-08
-2.25217e-07
3.59804e-08
-2.35374e-07
3.50539e-08
-2.45221e-07
3.39899e-08
-2.54721e-07
3.27945e-08
-2.63837e-07
3.14744e-08
-2.72536e-07
3.0036e-08
-2.80786e-07
2.8486e-08
-2.88555e-07
2.68312e-08
-2.95815e-07
2.50784e-08
-3.02541e-07
2.32346e-08
-3.08708e-07
2.13067e-08
-3.14294e-07
1.93019e-08
-3.19278e-07
1.72272e-08
-3.23643e-07
1.509e-08
-3.27372e-07
1.28976e-08
-3.30452e-07
1.06573e-08
-3.32872e-07
8.37686e-09
-3.34621e-07
6.06372e-09
-3.35693e-07
3.72564e-09
-3.36083e-07
1.37042e-09
-3.35788e-07
-9.94014e-10
-3.34809e-07
-3.35967e-09
-3.33146e-07
-5.71845e-09
-3.30806e-07
-8.06215e-09
-3.27794e-07
-1.03825e-08
-3.2412e-07
-1.26711e-08
-3.19796e-07
-1.49196e-08
-3.14836e-07
-1.71194e-08
-3.09257e-07
-1.92621e-08
-3.03077e-07
-2.13391e-08
-2.96318e-07
-2.33417e-08
-2.89005e-07
-2.52614e-08
-2.81163e-07
-2.70897e-08
-2.72822e-07
-2.88181e-08
-2.64012e-07
-3.04381e-08
-2.54768e-07
-3.19415e-08
-2.45125e-07
-3.33202e-08
-2.35122e-07
-3.45662e-08
-2.24798e-07
-3.56717e-08
-2.14196e-07
-3.66292e-08
-2.03361e-07
-3.74317e-08
-1.92338e-07
-3.80723e-08
-1.81175e-07
-3.85445e-08
-1.69923e-07
-3.88426e-08
-1.58632e-07
-3.89609e-08
-1.47354e-07
-3.88948e-08
-1.36143e-07
-3.86401e-08
-1.25052e-07
-3.81934e-08
-1.14137e-07
-3.7552e-08
-1.03451e-07
-3.67146e-08
-9.30506e-08
-3.56804e-08
-8.29891e-08
-3.44504e-08
-7.332e-08
-3.30267e-08
-6.40952e-08
-3.14131e-08
-5.53646e-08
-2.96154e-08
-4.71756e-08
-2.76419e-08
-3.9572e-08
-2.55032e-08
-3.25935e-08
-2.32136e-08
-2.62743e-08
-2.07914e-08
-2.0642e-08
-1.82597e-08
-1.57164e-08
-1.5648e-08
-1.15076e-08
-1.29933e-08
-8.01421e-09
-1.03424e-08
-5.22137e-09
-7.75419e-09
-3.09833e-09
-5.30258e-09
-1.59601e-09
-3.08054e-09
-6.44175e-10
-1.20456e-09
-1.48412e-10
1.80821e-10
1.36744e-11
8.97126e-10
7.08066e-10
-1.08405e-10
-5.41262e-10
-5.86871e-10
-2.29787e-10
-1.56185e-09
1.11189e-09
-3.13405e-09
3.2118e-09
-5.38113e-09
5.86188e-09
-8.35975e-09
8.89252e-09
-1.21075e-08
1.21662e-08
-1.66451e-08
1.55724e-08
-2.19784e-08
1.90231e-08
-2.81003e-08
2.24479e-08
-3.49926e-08
2.5791e-08
-4.26281e-08
2.90087e-08
-5.09718e-08
3.20664e-08
-5.99824e-08
3.49376e-08
-6.96135e-08
3.76019e-08
-7.98148e-08
4.0044e-08
-9.05328e-08
4.22528e-08
-1.01712e-07
4.42207e-08
-1.13295e-07
4.59428e-08
-1.25223e-07
4.74165e-08
-1.37437e-07
4.86412e-08
-1.49879e-07
4.9618e-08
-1.62489e-07
5.03492e-08
-1.7521e-07
5.08382e-08
-1.87983e-07
5.10894e-08
-2.00752e-07
5.1108e-08
-2.13463e-07
5.08998e-08
-2.26061e-07
5.04712e-08
-2.38494e-07
4.98291e-08
-2.50712e-07
4.89807e-08
-2.62665e-07
4.79336e-08
-2.74307e-07
4.66957e-08
-2.85592e-07
4.52751e-08
-2.96478e-07
4.36802e-08
-3.06923e-07
4.19195e-08
-3.16889e-07
4.00016e-08
-3.26338e-07
3.79353e-08
-3.35237e-07
3.57297e-08
-3.43552e-07
3.33938e-08
-3.51254e-07
3.09368e-08
-3.58315e-07
2.83681e-08
-3.64711e-07
2.56969e-08
-3.70416e-07
2.2933e-08
-3.75412e-07
2.0086e-08
-3.7968e-07
1.71655e-08
-3.83205e-07
1.41817e-08
-3.85972e-07
1.11443e-08
-3.87972e-07
8.06373e-09
-3.89197e-07
4.9501e-09
-3.8964e-07
1.81387e-09
-3.893e-07
-1.33443e-09
-3.88175e-07
-4.48414e-09
-3.86269e-07
-7.62448e-09
-3.83587e-07
-1.07445e-08
-3.80136e-07
-1.38333e-08
-3.75927e-07
-1.68797e-08
-3.70975e-07
-1.98724e-08
-3.65294e-07
-2.28003e-08
-3.58904e-07
-2.56519e-08
-3.51827e-07
-2.8416e-08
-3.44088e-07
-3.10812e-08
-3.35713e-07
-3.36361e-08
-3.26733e-07
-3.60693e-08
-3.17182e-07
-3.83698e-08
-3.07093e-07
-4.05263e-08
-2.96507e-07
-4.2528e-08
-2.85463e-07
-4.43641e-08
-2.74005e-07
-4.60242e-08
-2.62179e-07
-4.7498e-08
-2.50032e-07
-4.87758e-08
-2.37615e-07
-4.98483e-08
-2.24981e-07
-5.07064e-08
-2.12184e-07
-5.13419e-08
-1.99279e-07
-5.17472e-08
-1.86325e-07
-5.19151e-08
-1.7338e-07
-5.18396e-08
-1.60505e-07
-5.15155e-08
-1.4776e-07
-5.09385e-08
-1.35206e-07
-5.01055e-08
-1.22906e-07
-4.90149e-08
-1.1092e-07
-4.76663e-08
-9.93092e-08
-4.60612e-08
-8.81331e-08
-4.42028e-08
-7.74493e-08
-4.20968e-08
-6.73134e-08
-3.97513e-08
-5.77778e-08
-3.71775e-08
-4.88909e-08
-3.439e-08
-4.06966e-08
-3.1408e-08
-3.32326e-08
-2.82554e-08
-2.65298e-08
-2.49625e-08
-2.06106e-08
-2.15672e-08
-1.54875e-08
-1.81164e-08
-1.11614e-08
-1.46685e-08
-7.61996e-09
-1.12956e-08
-4.83571e-09
-8.08683e-09
-2.764e-09
-5.15225e-09
-1.34115e-09
-2.62741e-09
-4.8245e-10
-6.77881e-10
-8.00808e-11
4.94752e-10
6.27989e-10
-2.10698e-10
-3.30566e-10
-9.56021e-10
5.15546e-10
-2.33487e-09
2.49074e-09
-4.42868e-09
5.3056e-09
-7.30113e-09
8.73433e-09
-1.09986e-08
1.259e-08
-1.5551e-08
1.67185e-08
-2.0973e-08
2.09945e-08
-2.72659e-08
2.5316e-08
-3.44186e-08
2.96005e-08
-4.24092e-08
3.37817e-08
-5.12069e-08
3.78064e-08
-6.0773e-08
4.16326e-08
-7.10624e-08
4.5227e-08
-8.20246e-08
4.85641e-08
-9.36049e-08
5.16243e-08
-1.05745e-07
5.4393e-08
-1.18384e-07
5.68601e-08
-1.3146e-07
5.90188e-08
-1.44909e-07
6.08654e-08
-1.58667e-07
6.23985e-08
-1.72667e-07
6.36189e-08
-1.86847e-07
6.4529e-08
-2.01142e-07
6.51329e-08
-2.15488e-07
6.54356e-08
-2.29823e-07
6.54434e-08
-2.44087e-07
6.51635e-08
-2.5822e-07
6.46036e-08
-2.72163e-07
6.37723e-08
-2.85861e-07
6.26787e-08
-2.99259e-07
6.13321e-08
-3.12306e-07
5.97425e-08
-3.24951e-07
5.79202e-08
-3.37147e-07
5.58756e-08
-3.48847e-07
5.36196e-08
-3.60008e-07
5.11631e-08
-3.70591e-07
4.85174e-08
-3.80555e-07
4.56939e-08
-3.89865e-07
4.2704e-08
-3.98488e-07
3.95596e-08
-4.06392e-07
3.62726e-08
-4.1355e-07
3.2855e-08
-4.19936e-07
2.93189e-08
-4.25527e-07
2.56768e-08
-4.30302e-07
2.19411e-08
-4.34245e-07
1.81245e-08
-4.37341e-07
1.42398e-08
-4.39577e-07
1.03001e-08
-4.40945e-07
6.31834e-09
-4.41439e-07
2.30795e-09
-4.41056e-07
-1.71763e-09
-4.39796e-07
-5.74477e-09
-4.3766e-07
-9.7597e-09
-4.34656e-07
-1.37485e-08
-4.30793e-07
-1.76971e-08
-4.26081e-07
-2.15913e-08
-4.20536e-07
-2.54169e-08
-4.14177e-07
-2.91595e-08
-4.07025e-07
-3.28046e-08
-3.99103e-07
-3.63378e-08
-3.9044e-07
-3.97446e-08
-3.81065e-07
-4.30106e-08
-3.71013e-07
-4.61214e-08
-3.6032e-07
-4.90628e-08
-3.49026e-07
-5.18208e-08
-3.37172e-07
-5.43813e-08
-3.24805e-07
-5.6731e-08
-3.11973e-07
-5.88565e-08
-2.98726e-07
-6.0745e-08
-2.85118e-07
-6.23841e-08
-2.71204e-07
-6.37622e-08
-2.57042e-07
-6.48679e-08
-2.42693e-07
-6.5691e-08
-2.28219e-07
-6.62217e-08
-2.13682e-07
-6.64516e-08
-1.99149e-07
-6.6373e-08
-1.84685e-07
-6.59796e-08
-1.70357e-07
-6.52663e-08
-1.56233e-07
-6.42295e-08
-1.4238e-07
-6.28675e-08
-1.28867e-07
-6.11803e-08
-1.15758e-07
-5.91701e-08
-1.03119e-07
-5.68416e-08
-9.10133e-08
-5.42024e-08
-7.95014e-08
-5.12632e-08
-6.86404e-08
-4.80385e-08
-5.84832e-08
-4.45473e-08
-4.90774e-08
-4.08137e-08
-4.04647e-08
-3.68681e-08
-3.26794e-08
-3.27479e-08
-2.57471e-08
-2.84995e-08
-1.96837e-08
-2.41799e-08
-1.44937e-08
-1.98585e-08
-1.01689e-08
-1.56204e-08
-6.68699e-09
-1.15687e-08
-4.01027e-09
-7.82896e-09
-2.08428e-09
-4.5534e-09
-8.36992e-10
-1.92517e-09
-1.78301e-10
-1.6394e-10
4.49692e-10
-3.13849e-10
-1.67211e-11
-1.33287e-09
1.53457e-09
-3.1288e-09
4.28667e-09
-5.76255e-09
7.93935e-09
-9.28203e-09
1.22538e-08
-1.37214e-08
1.70293e-08
-1.91011e-08
2.20982e-08
-2.54283e-08
2.73218e-08
-3.26981e-08
3.25858e-08
-4.08942e-08
3.77966e-08
-4.99903e-08
4.28778e-08
-5.99513e-08
4.77674e-08
-7.07345e-08
5.24158e-08
-8.22906e-08
5.67832e-08
-9.45652e-08
6.08387e-08
-1.07499e-07
6.45581e-08
-1.2103e-07
6.79236e-08
-1.35092e-07
7.09221e-08
-1.49618e-07
7.35448e-08
-1.64539e-07
7.57867e-08
-1.79786e-07
7.76454e-08
-1.95288e-07
7.91215e-08
-2.10977e-07
8.02175e-08
-2.26782e-07
8.09378e-08
-2.42635e-07
8.12882e-08
-2.58467e-07
8.12763e-08
-2.74214e-07
8.09102e-08
-2.8981e-07
8.01995e-08
-3.05192e-07
7.91544e-08
-3.20299e-07
7.77857e-08
-3.35072e-07
7.61051e-08
-3.49454e-07
7.41245e-08
-3.6339e-07
7.18565e-08
-3.76829e-07
6.9314e-08
-3.89719e-07
6.65101e-08
-4.02015e-07
6.34585e-08
-4.1367e-07
6.01728e-08
-4.24643e-07
5.66673e-08
-4.34896e-07
5.29562e-08
-4.4439e-07
4.90539e-08
-4.53092e-07
4.49751e-08
-4.60972e-07
4.07349e-08
-4.68002e-07
3.63482e-08
-4.74155e-07
3.18304e-08
-4.79411e-07
2.71969e-08
-4.8375e-07
2.24634e-08
-4.87156e-07
1.76459e-08
-4.89616e-07
1.27604e-08
-4.91121e-07
7.8231e-09
-4.91664e-07
2.85061e-09
-4.91241e-07
-2.14044e-09
-4.89852e-07
-7.13317e-09
-4.87501e-07
-1.21106e-08
-4.84195e-07
-1.70553e-08
-4.79942e-07
-2.19502e-08
-4.74755e-07
-2.67775e-08
-4.68653e-07
-3.15196e-08
-4.61653e-07
-3.61589e-08
-4.5378e-07
-4.06774e-08
-4.45061e-07
-4.50574e-08
-4.35524e-07
-4.92809e-08
-4.25205e-07
-5.33303e-08
-4.14138e-07
-5.71878e-08
-4.02365e-07
-6.08359e-08
-3.89929e-07
-6.42573e-08
-3.76875e-07
-6.74349e-08
-3.63254e-07
-7.03521e-08
-3.49118e-07
-7.29927e-08
-3.34522e-07
-7.53409e-08
-3.19524e-07
-7.73817e-08
-3.04186e-07
-7.91007e-08
-2.88569e-07
-8.04842e-08
-2.72741e-07
-8.15198e-08
-2.56767e-07
-8.21956e-08
-2.40717e-07
-8.25015e-08
-2.24662e-07
-8.24283e-08
-2.08673e-07
-8.19684e-08
-1.92823e-07
-8.11161e-08
-1.77185e-07
-7.98673e-08
-1.61832e-07
-7.82201e-08
-1.46838e-07
-7.6175e-08
-1.32273e-07
-7.37353e-08
-1.18207e-07
-7.0907e-08
-1.0471e-07
-6.77e-08
-9.1845e-08
-6.41277e-08
-7.96752e-08
-6.02083e-08
-6.82573e-08
-5.59652e-08
-5.76432e-08
-5.14279e-08
-4.78783e-08
-4.66329e-08
-3.9001e-08
-4.16252e-08
-3.10408e-08
-3.64597e-08
-2.40178e-08
-3.12029e-08
-1.79413e-08
-2.59351e-08
-1.28086e-08
-2.0753e-08
-8.60446e-09
-1.57729e-08
-5.29959e-09
-1.11338e-08
-2.85077e-09
-7.00223e-09
-1.20049e-09
-3.57545e-09
-2.7776e-10
-1.08667e-09
1.71932e-10
-4.16032e-10
3.99306e-10
-1.71022e-09
2.82875e-09
-3.9286e-09
6.50506e-09
-7.11144e-09
1.11222e-08
-1.129e-08
1.64324e-08
-1.64851e-08
2.22244e-08
-2.27064e-08
2.83194e-08
-2.99523e-08
3.45676e-08
-3.82104e-08
4.08439e-08
-4.74585e-08
4.70446e-08
-5.76647e-08
5.3084e-08
-6.87892e-08
5.88919e-08
-8.07847e-08
6.44113e-08
-9.35976e-08
6.95962e-08
-1.07169e-07
7.44101e-08
-1.21436e-07
7.88248e-08
-1.36331e-07
8.28185e-08
-1.51784e-07
8.63755e-08
-1.67724e-07
8.94848e-08
-1.84077e-07
9.21398e-08
-2.00769e-07
9.43375e-08
-2.17726e-07
9.60777e-08
-2.34871e-07
9.73631e-08
-2.52132e-07
9.81985e-08
-2.69434e-07
9.85906e-08
-2.86706e-07
9.85478e-08
-3.03875e-07
9.80798e-08
-3.20873e-07
9.71977e-08
-3.37632e-07
9.59134e-08
-3.54087e-07
9.42399e-08
-3.70172e-07
9.21909e-08
-3.85829e-07
8.97806e-08
-4.00996e-07
8.70241e-08
-4.15619e-07
8.39366e-08
-4.29643e-07
8.05341e-08
-4.43017e-07
7.68329e-08
-4.55694e-07
7.28494e-08
-4.67627e-07
6.86006e-08
-4.78775e-07
6.41038e-08
-4.89097e-07
5.93763e-08
-4.98558e-07
5.44359e-08
-5.07124e-07
4.93007e-08
-5.14764e-07
4.39888e-08
-5.21453e-07
3.85186e-08
-5.27165e-07
3.2909e-08
-5.3188e-07
2.71789e-08
-5.35582e-07
2.13474e-08
-5.38256e-07
1.54341e-08
-5.39891e-07
9.45849e-09
-5.40481e-07
3.44059e-09
-5.40022e-07
-2.59948e-09
-5.38514e-07
-8.64135e-09
-5.3596e-07
-1.46644e-08
-5.32367e-07
-2.06479e-08
-5.27747e-07
-2.65709e-08
-5.22112e-07
-3.24121e-08
-5.15481e-07
-3.81504e-08
-5.07876e-07
-4.37642e-08
-4.99321e-07
-4.92323e-08
-4.89845e-07
-5.4533e-08
-4.79481e-07
-5.96449e-08
-4.68265e-07
-6.45467e-08
-4.56236e-07
-6.9217e-08
-4.43437e-07
-7.36348e-08
-4.29915e-07
-7.77793e-08
-4.15719e-07
-8.16302e-08
-4.00904e-07
-8.51673e-08
-3.85526e-07
-8.83714e-08
-3.69643e-07
-9.12235e-08
-3.53319e-07
-9.37058e-08
-3.36619e-07
-9.58009e-08
-3.1961e-07
-9.74929e-08
-3.02363e-07
-9.87666e-08
-2.8495e-07
-9.96084e-08
-2.67446e-07
-1.00006e-07
-2.49925e-07
-9.99489e-08
-2.32465e-07
-9.94283e-08
-2.15144e-07
-9.84374e-08
-1.9804e-07
-9.69717e-08
-1.8123e-07
-9.50295e-08
-1.64793e-07
-9.26118e-08
-1.48806e-07
-8.97227e-08
-1.33343e-07
-8.637e-08
-1.18477e-07
-8.25658e-08
-1.04278e-07
-7.83265e-08
-9.08127e-08
-7.3674e-08
-7.81417e-08
-6.86362e-08
-6.63215e-08
-6.32481e-08
-5.54019e-08
-5.75524e-08
-4.54256e-08
-5.16015e-08
-3.64268e-08
-4.54585e-08
-2.84307e-08
-3.9199e-08
-2.14523e-08
-3.29134e-08
-1.54958e-08
-2.67095e-08
-1.05539e-08
-2.07148e-08
-6.60731e-09
-1.50804e-08
-3.62522e-09
-9.98432e-09
-1.56553e-09
-5.63514e-09
-3.7655e-10
-2.27565e-09
-2.04621e-10
-5.16226e-10
9.15537e-10
-2.08359e-09
4.3961e-09
-4.7244e-09
9.14586e-09
-8.45887e-09
1.48566e-08
-1.33015e-08
2.1275e-08
-1.9259e-08
2.81819e-08
-2.63294e-08
3.53899e-08
-3.45015e-08
4.27397e-08
-4.37546e-08
5.00971e-08
-5.40594e-08
5.73494e-08
-6.5378e-08
6.44026e-08
-7.7665e-08
7.11789e-08
-9.08681e-08
7.76144e-08
-1.04929e-07
8.36572e-08
-1.19785e-07
8.92657e-08
-1.35367e-07
9.44071e-08
-1.51605e-07
9.90562e-08
-1.68424e-07
1.03194e-07
-1.85748e-07
1.06809e-07
-2.03499e-07
1.09891e-07
-2.21599e-07
1.12437e-07
-2.39968e-07
1.14447e-07
-2.58527e-07
1.15922e-07
-2.77197e-07
1.16869e-07
-2.95901e-07
1.17294e-07
-3.14561e-07
1.17208e-07
-3.33102e-07
1.16621e-07
-3.5145e-07
1.15545e-07
-3.69532e-07
1.13996e-07
-3.8728e-07
1.11988e-07
-4.04625e-07
1.09536e-07
-4.21502e-07
1.06658e-07
-4.37849e-07
1.03371e-07
-4.53605e-07
9.96927e-08
-4.68713e-07
9.56423e-08
-4.83119e-07
9.12387e-08
-4.96771e-07
8.65015e-08
-5.09621e-07
8.14506e-08
-5.21623e-07
7.61062e-08
-5.32736e-07
7.04892e-08
-5.42921e-07
6.46203e-08
-5.52141e-07
5.85209e-08
-5.60365e-07
5.22127e-08
-5.67563e-07
4.57173e-08
-5.73711e-07
3.9057e-08
-5.78787e-07
3.22543e-08
-5.82771e-07
2.53318e-08
-5.85649e-07
1.83125e-08
-5.87411e-07
1.12199e-08
-5.88048e-07
4.07738e-09
-5.87556e-07
-3.09115e-09
-5.85936e-07
-1.02616e-08
-5.83191e-07
-1.74095e-08
-5.79328e-07
-2.45104e-08
-5.7436e-07
-3.15395e-08
-5.683e-07
-3.84717e-08
-5.61168e-07
-4.52819e-08
-5.52988e-07
-5.19447e-08
-5.43785e-07
-5.8435e-08
-5.33591e-07
-6.47273e-08
-5.2244e-07
-7.07962e-08
-5.1037e-07
-7.66167e-08
-4.97423e-07
-8.21634e-08
-4.83646e-07
-8.74118e-08
-4.69088e-07
-9.23373e-08
-4.53803e-07
-9.69159e-08
-4.37846e-07
-1.01124e-07
-4.21278e-07
-1.04939e-07
-4.04163e-07
-1.08339e-07
-3.86567e-07
-1.11302e-07
-3.68559e-07
-1.13809e-07
-3.50212e-07
-1.1584e-07
-3.316e-07
-1.17379e-07
-3.12799e-07
-1.18409e-07
-2.9389e-07
-1.18916e-07
-2.74951e-07
-1.18888e-07
-2.56065e-07
-1.18314e-07
-2.37315e-07
-1.17188e-07
-2.18782e-07
-1.15504e-07
-2.00551e-07
-1.13261e-07
-1.82704e-07
-1.10459e-07
-1.65322e-07
-1.07105e-07
-1.48485e-07
-1.03207e-07
-1.3227e-07
-9.87809e-08
-1.16751e-07
-9.3845e-08
-1.02e-07
-8.84254e-08
-8.80813e-08
-8.25545e-08
-7.5057e-08
-7.62724e-08
-6.29811e-08
-6.96283e-08
-5.19011e-08
-6.26815e-08
-4.18566e-08
-5.5503e-08
-3.28787e-08
-4.81769e-08
-2.49889e-08
-4.08032e-08
-1.81991e-08
-3.34993e-08
-1.25112e-08
-2.64028e-08
-7.91659e-09
-1.96749e-08
-4.39749e-09
-1.35034e-08
-1.92745e-09
-8.10518e-09
-4.73578e-10
-3.72952e-09
-6.782e-10
-6.13893e-10
1.52944e-09
-2.45033e-09
6.23253e-09
-5.50998e-09
1.22055e-08
-9.79399e-09
1.91407e-08
-1.53003e-08
2.67813e-08
-2.20215e-08
3.49031e-08
-2.99435e-08
4.33118e-08
-3.90445e-08
5.18407e-08
-4.92952e-08
6.03477e-08
-6.06583e-08
6.87125e-08
-7.30893e-08
7.68336e-08
-8.65367e-08
8.46263e-08
-1.00943e-07
9.20205e-08
-1.16244e-07
9.89586e-08
-1.32373e-07
1.05394e-07
-1.49256e-07
1.11291e-07
-1.66819e-07
1.16619e-07
-1.84982e-07
1.21358e-07
-2.03665e-07
1.25492e-07
-2.22787e-07
1.29012e-07
-2.42263e-07
1.31914e-07
-2.62011e-07
1.34195e-07
-2.81947e-07
1.35858e-07
-3.01988e-07
1.3691e-07
-3.22051e-07
1.37358e-07
-3.42057e-07
1.37213e-07
-3.61925e-07
1.36488e-07
-3.81577e-07
1.35198e-07
-4.00938e-07
1.33357e-07
-4.19933e-07
1.30983e-07
-4.38491e-07
1.28094e-07
-4.56544e-07
1.2471e-07
-4.74024e-07
1.20851e-07
-4.90869e-07
1.16538e-07
-5.07019e-07
1.11791e-07
-5.22414e-07
1.06634e-07
-5.37002e-07
1.01089e-07
-5.50731e-07
9.51794e-08
-5.63553e-07
8.89282e-08
-5.75424e-07
8.23596e-08
-5.86301e-07
7.54981e-08
-5.96149e-07
6.83684e-08
-6.04932e-07
6.09957e-08
-6.1262e-07
5.34053e-08
-6.19186e-07
4.56231e-08
-6.24607e-07
3.76752e-08
-6.28863e-07
2.95881e-08
-6.31939e-07
2.13886e-08
-6.33823e-07
1.31038e-08
-6.34507e-07
4.76113e-09
-6.33987e-07
-3.61161e-09
-6.32262e-07
-1.19864e-08
-6.29336e-07
-2.03348e-08
-6.25219e-07
-2.86283e-08
-6.1992e-07
-3.6838e-08
-6.13457e-07
-4.49348e-08
-6.05849e-07
-5.28895e-08
-5.97122e-07
-6.06727e-08
-5.87302e-07