/*--------------------------------*- C++ -*----------------------------------*\
| =========                 |                                                 |
| \\      /  F ield         | OpenFOAM: The Open Source CFD Toolbox           |
|  \\    /   O peration     | Version:  2212                                  |
|   \\  /    A nd           | Website:  www.openfoam.com                      |
|    \\/     M anipulation  |                                                 |
\*---------------------------------------------------------------------------*/
FoamFile
{
    version     2.0;
    format      ascii;
    arch        "LSB;label=32;scalar=64";
    class       volVectorField;
    location    "0.075";
    object      U;
}
// * * * * * * * * * * * * * * * * * * * * * * * * * * * * * * * * * * * * * //

dimensions      [0 1 -1 0 0 0 0];

internalField   nonuniform List<vector> 
10000
(
(2.96411e-06 -2.96131e-06 0)
(1.46956e-05 -7.59504e-06 0)
(3.33609e-05 -8.75692e-06 0)
(5.08836e-05 -7.54138e-06 0)
(6.23348e-05 -5.06956e-06 0)
(6.53286e-05 -1.98763e-06 0)
(5.86291e-05 1.34743e-06 0)
(4.16734e-05 4.73223e-06 0)
(1.4344e-05 8.05109e-06 0)
(-2.31885e-05 1.12376e-05 0)
(-7.05681e-05 1.42536e-05 0)
(-0.000127317 1.70775e-05 0)
(-0.000192876 1.96957e-05 0)
(-0.000266629 2.21009e-05 0)
(-0.00034793 2.42897e-05 0)
(-0.00043611 2.62621e-05 0)
(-0.000530489 2.80192e-05 0)
(-0.000630384 2.95649e-05 0)
(-0.000735115 3.09036e-05 0)
(-0.000844008 3.20392e-05 0)
(-0.000956401 3.29773e-05 0)
(-0.00107164 3.37221e-05 0)
(-0.0011891 3.42796e-05 0)
(-0.00130814 3.46561e-05 0)
(-0.00142818 3.48581e-05 0)
(-0.00154862 3.48915e-05 0)
(-0.00166889 3.47626e-05 0)
(-0.00178847 3.44773e-05 0)
(-0.0019068 3.40419e-05 0)
(-0.00202341 3.34633e-05 0)
(-0.00213778 3.27479e-05 0)
(-0.00224948 3.19018e-05 0)
(-0.00235804 3.09308e-05 0)
(-0.00246305 2.98411e-05 0)
(-0.00256411 2.86392e-05 0)
(-0.00266083 2.73313e-05 0)
(-0.00275287 2.59239e-05 0)
(-0.00283988 2.44229e-05 0)
(-0.00292154 2.28337e-05 0)
(-0.00299756 2.11629e-05 0)
(-0.00306768 1.9417e-05 0)
(-0.00313163 1.76022e-05 0)
(-0.00318919 1.5725e-05 0)
(-0.00324016 1.37914e-05 0)
(-0.00328434 1.18078e-05 0)
(-0.00332158 9.78043e-06 0)
(-0.00335173 7.716e-06 0)
(-0.00337469 5.62119e-06 0)
(-0.00339035 3.50242e-06 0)
(-0.00339864 1.36645e-06 0)
(-0.00339953 -7.79605e-07 0)
(-0.00339299 -2.92889e-06 0)
(-0.00337903 -5.07411e-06 0)
(-0.00335767 -7.20759e-06 0)
(-0.00332897 -9.32252e-06 0)
(-0.00329301 -1.14119e-05 0)
(-0.0032499 -1.34677e-05 0)
(-0.00319976 -1.54821e-05 0)
(-0.00314276 -1.74476e-05 0)
(-0.00307909 -1.93556e-05 0)
(-0.00300896 -2.11977e-05 0)
(-0.00293262 -2.29663e-05 0)
(-0.00285032 -2.46539e-05 0)
(-0.00276238 -2.62523e-05 0)
(-0.00266912 -2.77533e-05 0)
(-0.00257088 -2.9149e-05 0)
(-0.00246805 -3.04312e-05 0)
(-0.00236103 -3.15914e-05 0)
(-0.00225026 -3.26221e-05 0)
(-0.0021362 -3.3516e-05 0)
(-0.00201933 -3.42654e-05 0)
(-0.00190016 -3.48628e-05 0)
(-0.00177922 -3.53012e-05 0)
(-0.00165707 -3.55737e-05 0)
(-0.00153429 -3.56731e-05 0)
(-0.00141146 -3.55934e-05 0)
(-0.00128922 -3.53291e-05 0)
(-0.00116819 -3.48751e-05 0)
(-0.00104902 -3.42259e-05 0)
(-0.000932371 -3.33768e-05 0)
(-0.000818917 -3.2324e-05 0)
(-0.000709339 -3.10646e-05 0)
(-0.000604322 -2.95959e-05 0)
(-0.000504553 -2.79161e-05 0)
(-0.000410716 -2.60246e-05 0)
(-0.000323486 -2.3922e-05 0)
(-0.000243528 -2.16103e-05 0)
(-0.000171479 -1.90934e-05 0)
(-0.000107945 -1.63783e-05 0)
(-5.34859e-05 -1.34767e-05 0)
(-8.59457e-06 -1.04065e-05 0)
(2.63316e-05 -7.19501e-06 0)
(5.10312e-05 -3.88543e-06 0)
(6.54406e-05 -5.4926e-07 0)
(6.97945e-05 2.69223e-06 0)
(6.47841e-05 5.63123e-06 0)
(5.17786e-05 7.90846e-06 0)
(3.32822e-05 8.88645e-06 0)
(1.42839e-05 7.48586e-06 0)
(2.75175e-06 2.75218e-06 0)
(7.59913e-06 -1.46942e-05 0)
(3.07816e-05 -3.07593e-05 0)
(6.18296e-05 -3.28084e-05 0)
(8.66038e-05 -2.49833e-05 0)
(9.57513e-05 -1.10808e-05 0)
(8.38654e-05 6.33147e-06 0)
(4.76268e-05 2.5581e-05 0)
(-1.4794e-05 4.55731e-05 0)
(-0.000104111 6.55916e-05 0)
(-0.000220247 8.51622e-05 0)
(-0.000362567 0.000103968 0)
(-0.000530042 0.000121797 0)
(-0.000721362 0.000138504 0)
(-0.000935018 0.000153994 0)
(-0.00116936 0.000168206 0)
(-0.00142266 0.000181102 0)
(-0.00169311 0.000192666 0)
(-0.00197889 0.000202891 0)
(-0.00227815 0.000211788 0)
(-0.00258905 0.000219368 0)
(-0.00290976 0.000225653 0)
(-0.00323848 0.000230667 0)
(-0.00357343 0.000234439 0)
(-0.00391288 0.000237002 0)
(-0.00425514 0.00023839 0)
(-0.00459855 0.000238639 0)
(-0.00494151 0.000237787 0)
(-0.00528249 0.000235873 0)
(-0.00561997 0.000232935 0)
(-0.00595253 0.000229016 0)
(-0.00627878 0.000224156 0)
(-0.0065974 0.000218395 0)
(-0.00690711 0.000211776 0)
(-0.00720671 0.000204339 0)
(-0.00749504 0.000196127 0)
(-0.00777103 0.000187182 0)
(-0.00803364 0.000177545 0)
(-0.0082819 0.000167261 0)
(-0.00851491 0.000156371 0)
(-0.00873183 0.000144918 0)
(-0.00893185 0.000132944 0)
(-0.00911428 0.000120494 0)
(-0.00927846 0.000107611 0)
(-0.00942378 9.43393e-05 0)
(-0.00954972 8.07233e-05 0)
(-0.00965582 6.68084e-05 0)
(-0.00974168 5.26396e-05 0)
(-0.00980697 3.82632e-05 0)
(-0.00985142 2.37264e-05 0)
(-0.00987485 9.07607e-06 0)
(-0.00987712 -5.63917e-06 0)
(-0.00985818 -2.03701e-05 0)
(-0.00981805 -3.50676e-05 0)
(-0.00975682 -4.96811e-05 0)
(-0.00967464 -6.41594e-05 0)
(-0.00957176 -7.84516e-05 0)
(-0.00944848 -9.25053e-05 0)
(-0.0093052 -0.000106267 0)
(-0.00914238 -0.000119683 0)
(-0.00896055 -0.000132699 0)
(-0.00876035 -0.00014526 0)
(-0.00854247 -0.000157312 0)
(-0.00830768 -0.000168801 0)
(-0.00805684 -0.000179672 0)
(-0.00779087 -0.000189871 0)
(-0.0075108 -0.000199343 0)
(-0.0072177 -0.000208035 0)
(-0.00691273 -0.000215893 0)
(-0.00659714 -0.000222867 0)
(-0.00627222 -0.000228906 0)
(-0.00593936 -0.000233959 0)
(-0.00559999 -0.000237981 0)
(-0.00525563 -0.000240925 0)
(-0.00490786 -0.000242746 0)
(-0.00455829 -0.000243405 0)
(-0.00420862 -0.000242864 0)
(-0.00386057 -0.000241087 0)
(-0.00351592 -0.000238043 0)
(-0.00317649 -0.000233705 0)
(-0.00284411 -0.000228051 0)
(-0.00252065 -0.000221061 0)
(-0.002208 -0.000212726 0)
(-0.00190802 -0.00020304 0)
(-0.00162261 -0.000192007 0)
(-0.0013536 -0.000179641 0)
(-0.00110282 -0.000165966 0)
(-0.000871998 -0.000151023 0)
(-0.000662801 -0.000134872 0)
(-0.000476761 -0.000117597 0)
(-0.000315241 -9.93208e-05 0)
(-0.000179378 -8.02108e-05 0)
(-6.99926e-05 -6.05056e-05 0)
(1.25165e-05 -4.0546e-05 0)
(6.83334e-05 -2.08276e-05 0)
(9.84522e-05 -2.0845e-06 0)
(0.00010499 1.45818e-05 0)
(9.154e-05 2.75118e-05 0)
(6.37279e-05 3.41998e-05 0)
(3.10197e-05 3.10169e-05 0)
(7.47761e-06 1.42729e-05 0)
(8.78665e-06 -3.33803e-05 0)
(3.2972e-05 -6.18497e-05 0)
(6.05905e-05 -6.02926e-05 0)
(7.47486e-05 -3.74369e-05 0)
(6.41581e-05 -3.79966e-07 0)
(2.18089e-05 4.55913e-05 0)
(-5.693e-05 9.66788e-05 0)
(-0.000174819 0.000150199 0)
(-0.000333116 0.000204267 0)
(-0.000531943 0.000257551 0)
(-0.000770577 0.000309113 0)
(-0.00104766 0.000358287 0)
(-0.00136138 0.000404606 0)
(-0.00170955 0.00044774 0)
(-0.00208977 0.000487467 0)
(-0.00249945 0.000523638 0)
(-0.00293586 0.000556167 0)
(-0.00339622 0.000585009 0)
(-0.00387769 0.000610154 0)
(-0.00437743 0.000631622 0)
(-0.00489257 0.000649452 0)
(-0.00542032 0.0006637 0)
(-0.00595787 0.000674433 0)
(-0.00650249 0.000681733 0)
(-0.00705151 0.000685687 0)
(-0.00760231 0.000686392 0)
(-0.00815236 0.000683948 0)
(-0.00869917 0.000678461 0)
(-0.00924038 0.00067004 0)
(-0.00977368 0.000658797 0)
(-0.0102969 0.000644846 0)
(-0.0108078 0.000628302 0)
(-0.0113045 0.000609284 0)
(-0.0117849 0.000587908 0)
(-0.0122473 0.000564295 0)
(-0.0126899 0.000538565 0)
(-0.013111 0.00051084 0)
(-0.0135091 0.000481242 0)
(-0.0138828 0.000449894 0)
(-0.0142306 0.000416919 0)
(-0.0145513 0.000382443 0)
(-0.0148437 0.000346589 0)
(-0.0151069 0.000309487 0)
(-0.0153398 0.000271264 0)
(-0.0155416 0.000232048 0)
(-0.0157115 0.000191972 0)
(-0.015849 0.000151168 0)
(-0.0159534 0.000109769 0)
(-0.0160244 6.79111e-05 0)
(-0.0160617 2.57334e-05 0)
(-0.016065 -1.66254e-05 0)
(-0.0160344 -5.90232e-05 0)
(-0.0159697 -0.000101316 0)
(-0.0158712 -0.000143358 0)
(-0.0157391 -0.000185003 0)
(-0.0155738 -0.000226101 0)
(-0.0153759 -0.000266501 0)
(-0.0151459 -0.00030605 0)
(-0.0148846 -0.000344594 0)
(-0.0145929 -0.000381977 0)
(-0.0142718 -0.000418043 0)
(-0.0139224 -0.000452638 0)
(-0.0135459 -0.000485603 0)
(-0.0131438 -0.000516785 0)
(-0.0127175 -0.000546026 0)
(-0.0122686 -0.000573174 0)
(-0.0117989 -0.000598075 0)
(-0.0113103 -0.000620582 0)
(-0.0108046 -0.000640547 0)
(-0.0102841 -0.000657827 0)
(-0.00975086 -0.000672285 0)
(-0.00920723 -0.000683787 0)
(-0.00865562 -0.000692207 0)
(-0.0080985 -0.000697425 0)
(-0.00753849 -0.000699327 0)
(-0.00697823 -0.000697813 0)
(-0.00642048 -0.000692788 0)
(-0.00586803 -0.000684171 0)
(-0.00532374 -0.000671895 0)
(-0.0047905 -0.000655903 0)
(-0.00427124 -0.000636159 0)
(-0.00376889 -0.000612644 0)
(-0.00328637 -0.000585363 0)
(-0.00282659 -0.000554347 0)
(-0.00239237 -0.000519656 0)
(-0.0019865 -0.000481393 0)
(-0.00161159 -0.000439704 0)
(-0.00127012 -0.000394801 0)
(-0.000964347 -0.00034697 0)
(-0.000696211 -0.000296606 0)
(-0.000467278 -0.000244239 0)
(-0.0002786 -0.000190597 0)
(-0.000130558 -0.000136674 0)
(-2.26581e-05 -8.38441e-05 0)
(4.67486e-05 -3.4024e-05 0)
(8.08148e-05 1.01049e-05 0)
(8.4534e-05 4.48014e-05 0)
(6.5204e-05 6.49357e-05 0)
(3.43219e-05 6.37516e-05 0)
(8.89599e-06 3.32732e-05 0)
(7.64135e-06 -5.10512e-05 0)
(2.54632e-05 -8.69139e-05 0)
(3.84346e-05 -7.45984e-05 0)
(2.93458e-05 -2.80952e-05 0)
(-1.36393e-05 4.19985e-05 0)
(-9.82597e-05 0.000127516 0)
(-0.0002298 0.000222308 0)
(-0.000411534 0.000321833 0)
(-0.000645054 0.000422752 0)
(-0.000930627 0.000522619 0)
(-0.00126748 0.000619642 0)
(-0.00165403 0.000712509 0)
(-0.00208808 0.000800267 0)
(-0.00256696 0.000882228 0)
(-0.00308765 0.000957904 0)
(-0.00364686 0.00102696 0)
(-0.00424112 0.00108918 0)
(-0.00486683 0.00114445 0)
(-0.00552031 0.0011927 0)
(-0.00619784 0.00123394 0)
(-0.00689568 0.00126822 0)
(-0.00761012 0.00129562 0)
(-0.00833748 0.00131627 0)
(-0.00907412 0.00133029 0)
(-0.00981648 0.00133785 0)
(-0.0105611 0.00133912 0)
(-0.0113045 0.00133428 0)
(-0.0120435 0.00132354 0)
(-0.0127748 0.00130709 0)
(-0.0134954 0.00128515 0)
(-0.0142023 0.00125793 0)
(-0.0148926 0.00122566 0)
(-0.0155636 0.00118856 0)
(-0.0162126 0.00114687 0)
(-0.0168373 0.0011008 0)
(-0.0174351 0.0010506 0)
(-0.0180039 0.000996499 0)
(-0.0185417 0.000938738 0)
(-0.0190463 0.000877557 0)
(-0.019516 0.000813197 0)
(-0.0199491 0.000745902 0)
(-0.020344 0.000675919 0)
(-0.0206993 0.000603495 0)
(-0.0210137 0.000528883 0)
(-0.021286 0.000452336 0)
(-0.0215153 0.00037411 0)
(-0.0217007 0.000294467 0)
(-0.0218415 0.000213669 0)
(-0.0219371 0.000131982 0)
(-0.0219871 4.9677e-05 0)
(-0.0219913 -3.29713e-05 0)
(-0.0219495 -0.000115686 0)
(-0.0218618 -0.000198185 0)
(-0.0217284 -0.000280185 0)
(-0.0215497 -0.000361396 0)
(-0.0213262 -0.000441528 0)
(-0.0210586 -0.000520284 0)
(-0.0207478 -0.000597368 0)
(-0.0203947 -0.000672478 0)
(-0.0200006 -0.000745313 0)
(-0.0195668 -0.000815571 0)
(-0.0190948 -0.000882947 0)
(-0.0185864 -0.000947139 0)
(-0.0180433 -0.00100784 0)
(-0.0174677 -0.00106476 0)
(-0.0168617 -0.0011176 0)
(-0.0162276 -0.00116605 0)
(-0.0155679 -0.00120985 0)
(-0.0148853 -0.00124869 0)
(-0.0141827 -0.00128232 0)
(-0.0134629 -0.00131046 0)
(-0.012729 -0.00133286 0)
(-0.0119843 -0.00134928 0)
(-0.0112321 -0.0013595 0)
(-0.0104759 -0.00136331 0)
(-0.00971915 -0.00136051 0)
(-0.0089656 -0.00135093 0)
(-0.00821895 -0.00133443 0)
(-0.00748297 -0.00131089 0)
(-0.00676151 -0.00128022 0)
(-0.00605841 -0.00124236 0)
(-0.00537755 -0.0011973 0)
(-0.00472274 -0.00114506 0)
(-0.00409777 -0.00108575 0)
(-0.00350633 -0.0010195 0)
(-0.00295197 -0.000946557 0)
(-0.00243807 -0.000867237 0)
(-0.00196776 -0.000781992 0)
(-0.00154385 -0.000691428 0)
(-0.00116874 -0.000596349 0)
(-0.000844312 -0.000497822 0)
(-0.000571758 -0.000397265 0)
(-0.000351436 -0.000296561 0)
(-0.000182629 -0.00019823 0)
(-6.327e-05 -0.000105646 0)
(1.03856e-05 -2.33355e-05 0)
(4.4061e-05 4.26598e-05 0)
(4.5858e-05 8.44259e-05 0)
(2.79628e-05 9.18499e-05 0)
(7.98065e-06 5.18812e-05 0)
(5.27497e-06 -6.28643e-05 0)
(1.20136e-05 -9.67711e-05 0)
(2.35291e-06 -6.46485e-05 0)
(-3.92297e-05 1.46337e-05 0)
(-0.000124065 0.000127094 0)
(-0.000260004 0.00026178 0)
(-0.000452482 0.000410216 0)
(-0.00070491 0.000565944 0)
(-0.00101899 0.000724071 0)
(-0.00139499 0.000880898 0)
(-0.00183206 0.00103364 0)
(-0.00232843 0.0011802 0)
(-0.00288157 0.00131903 0)
(-0.00348841 0.00144897 0)
(-0.00414543 0.00156917 0)
(-0.00484876 0.00167905 0)
(-0.00559431 0.00177819 0)
(-0.00637778 0.00186636 0)
(-0.00719477 0.00194342 0)
(-0.0080408 0.00200933 0)
(-0.00891137 0.00206413 0)
(-0.00980196 0.00210794 0)
(-0.0107081 0.00214091 0)
(-0.0116254 0.00216324 0)
(-0.0125494 0.00217517 0)
(-0.0134759 0.00217696 0)
(-0.0144007 0.00216889 0)
(-0.0153198 0.00215127 0)
(-0.0162293 0.00212442 0)
(-0.0171252 0.00208867 0)
(-0.018004 0.00204438 0)
(-0.0188622 0.00199188 0)
(-0.0196962 0.00193155 0)
(-0.0205029 0.00186375 0)
(-0.0212792 0.00178885 0)
(-0.0220222 0.00170723 0)
(-0.0227291 0.00161928 0)
(-0.0233972 0.00152537 0)
(-0.0240242 0.00142589 0)
(-0.0246078 0.00132125 0)
(-0.0251458 0.00121184 0)
(-0.0256364 0.00109805 0)
(-0.0260777 0.000980301 0)
(-0.0264681 0.000858993 0)
(-0.0268062 0.000734544 0)
(-0.0270908 0.000607371 0)
(-0.0273209 0.0004779 0)
(-0.0274955 0.00034656 0)
(-0.0276139 0.000213785 0)
(-0.0276757 8.00167e-05 0)
(-0.0276806 -5.42981e-05 0)
(-0.0276283 -0.000188707 0)
(-0.027519 -0.000322752 0)
(-0.027353 -0.00045597 0)
(-0.0271306 -0.000587891 0)
(-0.0268526 -0.000718041 0)
(-0.0265199 -0.000845941 0)
(-0.0261335 -0.000971107 0)
(-0.0256946 -0.00109305 0)
(-0.0252048 -0.00121129 0)
(-0.0246658 -0.00132533 0)
(-0.0240794 -0.00143468 0)
(-0.0234477 -0.00153885 0)
(-0.0227731 -0.00163735 0)
(-0.0220581 -0.0017297 0)
(-0.0213053 -0.00181542 0)
(-0.0205176 -0.00189404 0)
(-0.0196983 -0.00196509 0)
(-0.0188504 -0.00202813 0)
(-0.0179776 -0.00208272 0)
(-0.0170834 -0.00212843 0)
(-0.0161716 -0.00216487 0)
(-0.0152463 -0.00219165 0)
(-0.0143115 -0.00220843 0)
(-0.0133715 -0.00221486 0)
(-0.0124306 -0.00221065 0)
(-0.0114933 -0.00219555 0)
(-0.0105642 -0.00216933 0)
(-0.00964781 -0.00213181 0)
(-0.00874888 -0.00208288 0)
(-0.00787208 -0.00202247 0)
(-0.00702207 -0.00195059 0)
(-0.00620348 -0.00186731 0)
(-0.00542085 -0.00177281 0)
(-0.00467861 -0.00166738 0)
(-0.00398098 -0.00155143 0)
(-0.00333196 -0.00142553 0)
(-0.00273524 -0.00129047 0)
(-0.00219409 -0.00114725 0)
(-0.00171128 -0.000997218 0)
(-0.00128894 -0.000842092 0)
(-0.00092843 -0.000684123 0)
(-0.000630129 -0.000526231 0)
(-0.000393239 -0.000372213 0)
(-0.000215524 -0.000227012 0)
(-9.30298e-05 -9.70535e-05 0)
(-1.98057e-05 9.33446e-06 0)
(1.24494e-05 8.15216e-05 0)
(1.55816e-05 0.000106103 0)
(5.81522e-06 6.52309e-05 0)
(2.32104e-06 -6.64996e-05 0)
(-4.87742e-06 -8.61118e-05 0)
(-4.25523e-05 -2.35095e-05 0)
(-0.000123176 9.84529e-05 0)
(-0.000256775 0.000262767 0)
(-0.000450829 0.000455915 0)
(-0.000710525 0.000667221 0)
(-0.0010391 0.000888359 0)
(-0.00143811 0.00111287 0)
(-0.00190773 0.00133574 0)
(-0.00244692 0.00155313 0)
(-0.00305367 0.00176207 0)
(-0.00372518 0.00196031 0)
(-0.00445801 0.00214615 0)
(-0.00524819 0.00231832 0)
(-0.00609137 0.0024759 0)
(-0.00698291 0.00261826 0)
(-0.00791792 0.00274497 0)
(-0.00889136 0.00285577 0)
(-0.00989811 0.00295059 0)
(-0.010933 0.00302943 0)
(-0.0119907 0.00309241 0)
(-0.0130662 0.00313972 0)
(-0.0141542 0.00317163 0)
(-0.0152498 0.00318844 0)
(-0.0163479 0.00319053 0)
(-0.0174437 0.00317829 0)
(-0.0185324 0.00315213 0)
(-0.0196093 0.00311253 0)
(-0.0206702 0.00305995 0)
(-0.0217105 0.00299489 0)
(-0.0227262 0.00291785 0)
(-0.0237133 0.00282935 0)
(-0.0246679 0.00272993 0)
(-0.0255865 0.00262013 0)
(-0.0264656 0.00250049 0)
(-0.0273019 0.00237157 0)
(-0.0280923 0.00223394 0)
(-0.0288339 0.00208816 0)
(-0.0295242 0.00193482 0)
(-0.0301605 0.00177448 0)
(-0.0307405 0.00160775 0)
(-0.0312623 0.00143521 0)
(-0.0317239 0.00125746 0)
(-0.0321236 0.00107512 0)
(-0.0324599 0.000888805 0)
(-0.0327317 0.000699128 0)
(-0.0329379 0.000506725 0)
(-0.0330777 0.000312235 0)
(-0.0331504 0.000116304 0)
(-0.0331558 -8.0412e-05 0)
(-0.0330937 -0.000277249 0)
(-0.0329641 -0.000473536 0)
(-0.0327674 -0.000668592 0)
(-0.0325041 -0.000861731 0)
(-0.0321751 -0.00105226 0)
(-0.0317814 -0.00123947 0)
(-0.0313241 -0.00142267 0)
(-0.030805 -0.00160114 0)
(-0.0302256 -0.00177416 0)
(-0.029588 -0.00194103 0)
(-0.0288945 -0.00210102 0)
(-0.0281474 -0.00225343 0)
(-0.0273496 -0.00239754 0)
(-0.0265039 -0.00253265 0)
(-0.0256137 -0.00265807 0)
(-0.0246822 -0.00277311 0)
(-0.0237131 -0.00287711 0)
(-0.0227103 -0.00296941 0)
(-0.0216778 -0.00304938 0)
(-0.02062 -0.00311643 0)
(-0.0195412 -0.00316996 0)
(-0.0184462 -0.00320945 0)
(-0.0173397 -0.00323437 0)
(-0.0162267 -0.00324428 0)
(-0.0151122 -0.00323875 0)
(-0.0140016 -0.00321742 0)
(-0.0129 -0.00317999 0)
(-0.0118129 -0.00312624 0)
(-0.0107456 -0.003056 0)
(-0.00970361 -0.00296923 0)
(-0.00869227 -0.00286596 0)
(-0.00771693 -0.00274634 0)
(-0.00678278 -0.00261068 0)
(-0.0058949 -0.00245943 0)
(-0.00505809 -0.00229326 0)
(-0.00427689 -0.00211303 0)
(-0.00355547 -0.00191992 0)
(-0.00289751 -0.00171544 0)
(-0.0023061 -0.00150154 0)
(-0.00178366 -0.00128071 0)
(-0.00133171 -0.0010561 0)
(-0.000950765 -0.000831768 0)
(-0.000640091 -0.000612835 0)
(-0.000397523 -0.000405831 0)
(-0.000219214 -0.000219046 0)
(-9.93833e-05 -6.29835e-05 0)
(-3.00021e-05 4.9198e-05 0)
(-3.52824e-07 0.00010111 0)
(3.03162e-06 7.09336e-05 0)
(-8.79058e-07 -6.07389e-05 0)
(-2.36249e-05 -5.16018e-05 0)
(-9.27206e-05 5.35385e-05 0)
(-0.000216795 0.000228838 0)
(-0.000404026 0.000454758 0)
(-0.000661141 0.000715526 0)
(-0.000992757 0.000998471 0)
(-0.00140167 0.00129352 0)
(-0.0018891 0.00159268 0)
(-0.00245495 0.00188967 0)
(-0.0030979 0.00217954 0)
(-0.00381567 0.00245841 0)
(-0.00460514 0.0027233 0)
(-0.0054625 0.00297189 0)
(-0.00638341 0.00320245 0)
(-0.00736307 0.00341367 0)
(-0.00839632 0.00360463 0)
(-0.00947778 0.00377469 0)
(-0.0106018 0.00392348 0)
(-0.0117628 0.00405079 0)
(-0.0129548 0.0041566 0)
(-0.0141721 0.00424103 0)
(-0.0154089 0.00430429 0)
(-0.0166593 0.00434671 0)
(-0.0179177 0.00436868 0)
(-0.0191784 0.00437067 0)
(-0.020436 0.00435318 0)
(-0.021685 0.00431678 0)
(-0.0229203 0.00426207 0)
(-0.0241368 0.00418968 0)
(-0.0253295 0.00410027 0)
(-0.0264938 0.00399453 0)
(-0.0276251 0.00387315 0)
(-0.0287191 0.00373685 0)
(-0.0297716 0.00358637 0)
(-0.0307787 0.00342244 0)
(-0.0317367 0.00324584 0)
(-0.0326421 0.00305732 0)
(-0.0334915 0.00285767 0)
(-0.034282 0.00264766 0)
(-0.0350106 0.0024281 0)
(-0.0356748 0.0021998 0)
(-0.0362722 0.00196355 0)
(-0.0368005 0.0017202 0)
(-0.037258 0.00147057 0)
(-0.037643 0.0012155 0)
(-0.0379539 0.000955853 0)
(-0.0381898 0.000692492 0)
(-0.0383495 0.000426292 0)
(-0.0384325 0.000158139 0)
(-0.0384384 -0.000111069 0)
(-0.038367 -0.000380423 0)
(-0.0382183 -0.000649004 0)
(-0.0379928 -0.00091588 0)
(-0.0376912 -0.00118011 0)
(-0.0373143 -0.00144075 0)
(-0.0368632 -0.00169684 0)
(-0.0363396 -0.00194742 0)
(-0.035745 -0.00219152 0)
(-0.0350815 -0.00242815 0)
(-0.0343514 -0.00265636 0)
(-0.0335572 -0.00287517 0)
(-0.0327017 -0.0030836 0)
(-0.0317881 -0.00328069 0)
(-0.0308197 -0.0034655 0)
(-0.0298002 -0.00363706 0)
(-0.0287334 -0.00379447 0)
(-0.0276235 -0.00393682 0)
(-0.0264748 -0.00406323 0)
(-0.025292 -0.00417285 0)
(-0.0240799 -0.00426486 0)
(-0.0228437 -0.0043385 0)
(-0.0215884 -0.00439303 0)
(-0.0203196 -0.00442779 0)
(-0.019043 -0.00444216 0)
(-0.0177641 -0.00443559 0)
(-0.016489 -0.00440763 0)
(-0.0152236 -0.00435788 0)
(-0.0139738 -0.00428606 0)
(-0.0127459 -0.00419201 0)
(-0.0115458 -0.00407567 0)
(-0.0103796 -0.00393714 0)
(-0.0092533 -0.00377667 0)
(-0.00817263 -0.00359473 0)
(-0.00714322 -0.00339197 0)
(-0.00617043 -0.00316934 0)
(-0.00525928 -0.00292807 0)
(-0.00441436 -0.00266979 0)
(-0.00363975 -0.00239656 0)
(-0.00293887 -0.00211102 0)
(-0.00231442 -0.00181645 0)
(-0.00176817 -0.00151699 0)
(-0.00130087 -0.00121784 0)
(-0.000912002 -0.000925443 0)
(-0.00059969 -0.000647881 0)
(-0.000360455 -0.000395203 0)
(-0.000189003 -0.000179907 0)
(-7.79466e-05 -1.73923e-05 0)
(-1.82513e-05 7.34252e-05 0)
(-2.32348e-08 6.77064e-05 0)
(-4.13993e-06 -4.49872e-05 0)
(-4.32375e-05 8.73173e-06 0)
(-0.00014574 0.000169544 0)
(-0.000316056 0.000409513 0)
(-0.000560171 0.000707104 0)
(-0.000883791 0.00104466 0)
(-0.00129071 0.00140775 0)
(-0.00178306 0.00178471 0)
(-0.00236156 0.00216616 0)
(-0.00302567 0.00254456 0)
(-0.00377372 0.00291387 0)
(-0.00460307 0.00326934 0)
(-0.00551025 0.00360717 0)
(-0.00649108 0.00392445 0)
(-0.00754082 0.00421891 0)
(-0.00865424 0.00448884 0)
(-0.00982576 0.004733 0)
(-0.0110495 0.0049505 0)
(-0.0123193 0.00514081 0)
(-0.0136291 0.0053036 0)
(-0.0149723 0.00543879 0)
(-0.0163427 0.00554648 0)
(-0.0177339 0.00562691 0)
(-0.0191395 0.00568045 0)
(-0.0205532 0.00570758 0)
(-0.0219688 0.00570885 0)
(-0.0233803 0.00568492 0)
(-0.0247817 0.00563648 0)
(-0.0261673 0.0055643 0)
(-0.0275313 0.00546916 0)
(-0.0288684 0.00535192 0)
(-0.0301734 0.00521345 0)
(-0.0314411 0.00505465 0)
(-0.0326669 0.00487644 0)
(-0.033846 0.00467978 0)
(-0.0349741 0.00446562 0)
(-0.036047 0.00423495 0)
(-0.0370609 0.00398877 0)
(-0.038012 0.00372808 0)
(-0.038897 0.00345391 0)
(-0.0397127 0.00316729 0)
(-0.0404562 0.00286928 0)
(-0.0411248 0.00256094 0)
(-0.0417161 0.00224334 0)
(-0.0422281 0.00191756 0)
(-0.0426588 0.00158473 0)
(-0.0430067 0.00124593 0)
(-0.0432705 0.000902314 0)
(-0.0434491 0.000555014 0)
(-0.0435418 0.000205189 0)
(-0.0435481 -0.000145989 0)
(-0.043468 -0.000497335 0)
(-0.0433014 -0.00084765 0)
(-0.0430489 -0.00119572 0)
(-0.0427111 -0.00154033 0)
(-0.0422891 -0.00188023 0)
(-0.0417842 -0.00221418 0)
(-0.0411979 -0.00254093 0)
(-0.0405324 -0.00285922 0)
(-0.0397897 -0.00316778 0)
(-0.0389724 -0.00346535 0)
(-0.0380834 -0.00375066 0)
(-0.0371257 -0.00402247 0)
(-0.036103 -0.00427952 0)
(-0.0350189 -0.00452057 0)
(-0.0338774 -0.00474442 0)
(-0.0326828 -0.00494985 0)
(-0.0314398 -0.00513572 0)
(-0.0301533 -0.00530089 0)
(-0.0288282 -0.00544426 0)
(-0.0274702 -0.0055648 0)
(-0.0260846 -0.00566151 0)
(-0.0246774 -0.00573347 0)
(-0.0232545 -0.00577983 0)
(-0.0218222 -0.00579981 0)
(-0.0203868 -0.00579273 0)
(-0.0189548 -0.00575801 0)
(-0.0175327 -0.00569519 0)
(-0.0161273 -0.00560393 0)
(-0.0147451 -0.00548404 0)
(-0.0133929 -0.00533551 0)
(-0.0120772 -0.00515849 0)
(-0.0108046 -0.00495338 0)
(-0.00958141 -0.00472079 0)
(-0.00841377 -0.00446166 0)
(-0.00730751 -0.00417722 0)
(-0.00626809 -0.00386912 0)
(-0.00530053 -0.00353948 0)
(-0.00440929 -0.00319096 0)
(-0.00359814 -0.00282689 0)
(-0.00287012 -0.00245142 0)
(-0.00222731 -0.00206967 0)
(-0.0016708 -0.00168794 0)
(-0.00120046 -0.00131401 0)
(-0.000814847 -0.000957379 0)
(-0.000511084 -0.000629723 0)
(-0.000284608 -0.000345305 0)
(-0.00012895 -0.000121429 0)
(-3.71045e-05 2.09686e-05 0)
(-3.15733e-06 5.49004e-05 0)
(-7.36352e-06 -1.90441e-05 0)
(-6.31047e-05 9.58857e-05 0)
(-0.00020001 0.000326266 0)
(-0.000418157 0.000642804 0)
(-0.000721166 0.00102247 0)
(-0.00111354 0.00144608 0)
(-0.00159805 0.00189774 0)
(-0.00217602 0.00236437 0)
(-0.00284748 0.00283531 0)
(-0.00361136 0.00330185 0)
(-0.00446552 0.00375696 0)
(-0.00540688 0.00419497 0)
(-0.00643157 0.00461134 0)
(-0.00753502 0.0050025 0)
(-0.00871207 0.00536565 0)
(-0.0099571 0.00569865 0)
(-0.0112641 0.00599992 0)
(-0.0126267 0.00626831 0)
(-0.0140383 0.00650309 0)
(-0.0154923 0.0067038 0)
(-0.0169818 0.0068703 0)
(-0.0184999 0.00700264 0)
(-0.0200397 0.00710108 0)
(-0.0215943 0.00716604 0)
(-0.0231569 0.00719806 0)
(-0.0247208 0.00719783 0)
(-0.0262795 0.00716611 0)
(-0.0278263 0.00710375 0)
(-0.0293551 0.00701168 0)
(-0.0308597 0.00689087 0)
(-0.0323342 0.00674237 0)
(-0.0337729 0.00656726 0)
(-0.0351703 0.00636665 0)
(-0.0365211 0.00614169 0)
(-0.0378203 0.00589357 0)
(-0.0390631 0.00562349 0)
(-0.040245 0.00533267 0)
(-0.0413617 0.00502237 0)
(-0.0424092 0.00469384 0)
(-0.0433838 0.00434839 0)
(-0.0442819 0.0039873 0)
(-0.0451004 0.00361189 0)
(-0.0458365 0.00322351 0)
(-0.0464874 0.00282351 0)
(-0.0470509 0.00241325 0)
(-0.0475249 0.00199411 0)
(-0.0479078 0.00156751 0)
(-0.048198 0.00113487 0)
(-0.0483945 0.000697616 0)
(-0.0484965 0.000257211 0)
(-0.0485034 -0.000184872 0)
(-0.0484151 -0.000627142 0)
(-0.0482317 -0.00106809 0)
(-0.0479537 -0.0015062 0)
(-0.0475818 -0.00193992 0)
(-0.0471173 -0.00236771 0)
(-0.0465615 -0.00278801 0)
(-0.0459162 -0.00319923 0)
(-0.0451836 -0.00359981 0)
(-0.0443661 -0.00398815 0)
(-0.0434665 -0.00436268 0)
(-0.0424878 -0.00472181 0)
(-0.0414336 -0.00506397 0)
(-0.0403075 -0.0053876 0)
(-0.0391138 -0.00569116 0)
(-0.0378568 -0.00597314 0)
(-0.0365411 -0.00623203 0)
(-0.0351719 -0.0064664 0)
(-0.0337544 -0.00667483 0)
(-0.0322943 -0.00685598 0)
(-0.0307973 -0.00700855 0)
(-0.0292696 -0.00713132 0)
(-0.0277175 -0.00722314 0)
(-0.0261475 -0.00728299 0)
(-0.0245665 -0.00730989 0)
(-0.0229812 -0.00730304 0)
(-0.0213987 -0.00726173 0)
(-0.0198262 -0.00718542 0)
(-0.0182708 -0.00707373 0)
(-0.0167397 -0.00692645 0)
(-0.0152402 -0.00674361 0)
(-0.0137794 -0.00652545 0)
(-0.0123644 -0.0062725 0)
(-0.0110019 -0.00598559 0)
(-0.00969867 -0.00566591 0)
(-0.00846089 -0.00531504 0)
(-0.0072945 -0.00493507 0)
(-0.00620492 -0.00452862 0)
(-0.00519701 -0.00409898 0)
(-0.00427494 -0.00365021 0)
(-0.00344212 -0.00318729 0)
(-0.00270106 -0.00271632 0)
(-0.00205324 -0.00224469 0)
(-0.00149907 -0.00178139 0)
(-0.0010377 -0.00133726 0)
(-0.00066701 -0.00092542 0)
(-0.00038336 -0.000561642 0)
(-0.000181382 -0.000264794 0)
(-5.62837e-05 -5.73521e-05 0)
(-6.26753e-06 3.22709e-05 0)
(-1.05007e-05 1.70604e-05 0)
(-8.28577e-05 0.000210209 0)
(-0.000254489 0.000524544 0)
(-0.000521191 0.000929988 0)
(-0.000884164 0.00140245 0)
(-0.00134659 0.00192157 0)
(-0.00191013 0.00247022 0)
(-0.00257511 0.00303414 0)
(-0.0033408 0.00360151 0)
(-0.00420546 0.0041626 0)
(-0.0051664 0.0047094 0)
(-0.00622004 0.0052354 0)
(-0.00736204 0.00573533 0)
(-0.0085874 0.00620498 0)
(-0.00989055 0.00664102 0)
(-0.0112654 0.00704087 0)
(-0.0127056 0.0074026 0)
(-0.0142043 0.00772479 0)
(-0.0157544 0.00800647 0)
(-0.0173489 0.00824709 0)
(-0.0189805 0.00844638 0)
(-0.0206417 0.00860437 0)
(-0.0223252 0.00872133 0)
(-0.0240236 0.00879771 0)
(-0.0257297 0.00883414 0)
(-0.0274362 0.00883141 0)
(-0.0291361 0.0087904 0)
(-0.0308225 0.00871214 0)
(-0.0324885 0.00859772 0)
(-0.0341276 0.00844831 0)
(-0.0357334 0.00826515 0)
(-0.0372999 0.00804956 0)
(-0.038821 0.00780287 0)
(-0.040291 0.00752647 0)
(-0.0417047 0.00722181 0)
(-0.0430568 0.00689033 0)
(-0.0443424 0.00653354 0)
(-0.0455569 0.00615295 0)
(-0.046696 0.00575011 0)
(-0.0477557 0.00532659 0)
(-0.0487322 0.00488397 0)
(-0.0496221 0.00442387 0)
(-0.0504222 0.00394792 0)
(-0.0511298 0.00345778 0)
(-0.0517423 0.00295511 0)
(-0.0522575 0.00244161 0)
(-0.0526736 0.00191901 0)
(-0.0529891 0.00138904 0)
(-0.0532027 0.000853456 0)
(-0.0533135 0.000314042 0)
(-0.053321 -0.000227399 0)
(-0.0532251 -0.000769044 0)
(-0.0530259 -0.00130905 0)
(-0.0527239 -0.00184556 0)
(-0.0523199 -0.00237669 0)
(-0.0518152 -0.00290055 0)
(-0.0512113 -0.00341522 0)
(-0.0505102 -0.0039188 0)
(-0.0497141 -0.00440935 0)
(-0.0488257 -0.00488495 0)
(-0.047848 -0.00534366 0)
(-0.0467843 -0.00578356 0)
(-0.0456383 -0.00620274 0)
(-0.0444142 -0.00659931 0)
(-0.0431163 -0.00697138 0)
(-0.0417493 -0.00731712 0)
(-0.0403184 -0.00763472 0)
(-0.0388289 -0.00792242 0)
(-0.0372866 -0.00817853 0)
(-0.0356975 -0.00840141 0)
(-0.0340678 -0.0085895 0)
(-0.0324041 -0.00874133 0)
(-0.0307132 -0.00885554 0)
(-0.0290022 -0.00893086 0)
(-0.0272782 -0.00896618 0)
(-0.0255487 -0.00896052 0)
(-0.0238211 -0.00891306 0)
(-0.0221032 -0.00882317 0)
(-0.0204026 -0.00869041 0)
(-0.0187271 -0.0085146 0)
(-0.0170844 -0.00829579 0)
(-0.0154821 -0.00803433 0)
(-0.0139277 -0.0077309 0)
(-0.0124286 -0.00738654 0)
(-0.0109917 -0.00700272 0)
(-0.00962396 -0.00658141 0)
(-0.00833158 -0.00612511 0)
(-0.00712044 -0.00563699 0)
(-0.00599583 -0.00512095 0)
(-0.00496235 -0.00458179 0)
(-0.00402384 -0.00402531 0)
(-0.00318328 -0.00345855 0)
(-0.00244271 -0.00288992 0)
(-0.00180312 -0.00232954 0)
(-0.00126441 -0.00178946 0)
(-0.000825337 -0.00128403 0)
(-0.000483308 -0.000830325 0)
(-0.00023417 -0.000448438 0)
(-7.54052e-05 -0.000161966 0)
(-9.30109e-06 -1.84846e-07 0)
(-1.35302e-05 6.31646e-05 0)
(-0.000102283 0.000351635 0)
(-0.000308517 0.000764589 0)
(-0.00062389 0.00127159 0)
(-0.00104721 0.00184783 0)
(-0.00158028 0.00247208 0)
(-0.00222357 0.00312624 0)
(-0.00297634 0.00379503 0)
(-0.00383699 0.00446567 0)
(-0.00480304 0.00512746 0)
(-0.00587114 0.00577155 0)
(-0.00703715 0.00639062 0)
(-0.00829622 0.00697872 0)
(-0.00964288 0.00753103 0)
(-0.0110711 0.00804369 0)
(-0.0125744 0.0085137 0)
(-0.0141458 0.00893876 0)
(-0.0157783 0.00931718 0)
(-0.0174642 0.00964779 0)
(-0.0191962 0.00992986 0)
(-0.0209663 0.0101631 0)
(-0.0227668 0.0103474 0)
(-0.0245899 0.010483 0)
(-0.0264278 0.0105706 0)
(-0.0282727 0.0106107 0)
(-0.030117 0.0106043 0)
(-0.0319532 0.0105524 0)
(-0.0337739 0.0104561 0)
(-0.035572 0.0103168 0)
(-0.0373403 0.0101358 0)
(-0.0390723 0.00991466 0)
(-0.0407612 0.00965479 0)
(-0.0424009 0.00935784 0)
(-0.0439852 0.00902545 0)
(-0.0455084 0.00865931 0)
(-0.0469649 0.00826117 0)
(-0.0483497 0.0078328 0)
(-0.0496577 0.00737601 0)
(-0.0508843 0.00689264 0)
(-0.0520253 0.00638457 0)
(-0.0530766 0.00585369 0)
(-0.0540346 0.00530193 0)
(-0.0548959 0.00473123 0)
(-0.0556576 0.00414358 0)
(-0.0563169 0.00354098 0)
(-0.0568715 0.00292546 0)
(-0.0573194 0.00229907 0)
(-0.057659 0.00166389 0)
(-0.057889 0.00102202 0)
(-0.0580085 0.000375597 0)
(-0.0580168 -0.000273227 0)
(-0.0579139 -0.000922273 0)
(-0.0576998 -0.00156934 0)
(-0.0573751 -0.0022122 0)
(-0.0569407 -0.00284861 0)
(-0.0563979 -0.00347631 0)
(-0.0557485 -0.00409302 0)
(-0.0549943 -0.00469645 0)
(-0.0541379 -0.00528431 0)
(-0.0531821 -0.0058543 0)
(-0.0521301 -0.00640411 0)
(-0.0509855 -0.00693145 0)