/*--------------------------------*- C++ -*----------------------------------*\
| =========                 |                                                 |
| \\      /  F ield         | OpenFOAM: The Open Source CFD Toolbox           |
|  \\    /   O peration     | Version:  2212                                  |
|   \\  /    A nd           | Website:  www.openfoam.com                      |
|    \\/     M anipulation  |                                                 |
\*---------------------------------------------------------------------------*/
FoamFile
{
    version     2.0;
    format      ascii;
    arch        "LSB;label=32;scalar=64";
    class       volVectorField;
    location    "0.075";
    object      U_0;
}
// * * * * * * * * * * * * * * * * * * * * * * * * * * * * * * * * * * * * * //

dimensions      [0 1 -1 0 0 0 0];

internalField   nonuniform List<vector> 
10000
(
(2.97033e-06 -2.95577e-06 0)
(1.46963e-05 -7.58683e-06 0)
(3.33439e-05 -8.74918e-06 0)
(5.08499e-05 -7.53675e-06 0)
(6.22929e-05 -5.06704e-06 0)
(6.52873e-05 -1.98819e-06 0)
(5.8597e-05 1.3428e-06 0)
(4.16567e-05 4.72458e-06 0)
(1.43482e-05 8.04253e-06 0)
(-2.31571e-05 1.12286e-05 0)
(-7.05027e-05 1.42437e-05 0)
(-0.00012721 1.70651e-05 0)
(-0.000192719 1.96804e-05 0)
(-0.000266416 2.20831e-05 0)
(-0.000347654 2.42705e-05 0)
(-0.000435764 2.62419e-05 0)
(-0.000530068 2.79991e-05 0)
(-0.000629884 2.95445e-05 0)
(-0.000734532 3.08822e-05 0)
(-0.000843339 3.20169e-05 0)
(-0.000955643 3.29528e-05 0)
(-0.00107079 3.36964e-05 0)
(-0.00118815 3.42535e-05 0)
(-0.0013071 3.46294e-05 0)
(-0.00142703 3.48306e-05 0)
(-0.00154737 3.48634e-05 0)
(-0.00166755 3.47337e-05 0)
(-0.00178702 3.44482e-05 0)
(-0.00190525 3.40132e-05 0)
(-0.00202175 3.34351e-05 0)
(-0.00213603 3.27204e-05 0)
(-0.00224763 3.18748e-05 0)
(-0.00235609 3.09043e-05 0)
(-0.00246101 2.98154e-05 0)
(-0.00256198 2.86143e-05 0)
(-0.00265862 2.7307e-05 0)
(-0.00275057 2.59003e-05 0)
(-0.0028375 2.44001e-05 0)
(-0.00291909 2.28125e-05 0)
(-0.00299505 2.1144e-05 0)
(-0.0030651 1.94003e-05 0)
(-0.003129 1.75878e-05 0)
(-0.00318651 1.57127e-05 0)
(-0.00323743 1.37806e-05 0)
(-0.00328158 1.17982e-05 0)
(-0.00331878 9.77236e-06 0)
(-0.00334891 7.70923e-06 0)
(-0.00337185 5.61563e-06 0)
(-0.0033875 3.49866e-06 0)
(-0.00339579 1.36483e-06 0)
(-0.00339668 -7.79226e-07 0)
(-0.00339015 -2.92659e-06 0)
(-0.0033762 -5.07026e-06 0)
(-0.00335486 -7.20281e-06 0)
(-0.00332619 -9.31652e-06 0)
(-0.00329026 -1.14038e-05 0)
(-0.00324718 -1.3457e-05 0)
(-0.00319709 -1.54685e-05 0)
(-0.00314015 -1.7431e-05 0)
(-0.00307654 -1.93366e-05 0)
(-0.00300648 -2.11773e-05 0)
(-0.00293021 -2.29449e-05 0)
(-0.002848 -2.46313e-05 0)
(-0.00276014 -2.62281e-05 0)
(-0.00266696 -2.77271e-05 0)
(-0.00256882 -2.91207e-05 0)
(-0.00246609 -3.04012e-05 0)
(-0.00235917 -3.15606e-05 0)
(-0.00224851 -3.25908e-05 0)
(-0.00213455 -3.34841e-05 0)
(-0.00201779 -3.42327e-05 0)
(-0.00189873 -3.48292e-05 0)
(-0.0017779 -3.52668e-05 0)
(-0.00165586 -3.5539e-05 0)
(-0.00153319 -3.56392e-05 0)
(-0.00141047 -3.55608e-05 0)
(-0.00128834 -3.5298e-05 0)
(-0.00116741 -3.48452e-05 0)
(-0.00104834 -3.41971e-05 0)
(-0.000931789 -3.33492e-05 0)
(-0.000818428 -3.22978e-05 0)
(-0.000708937 -3.104e-05 0)
(-0.000604002 -2.95734e-05 0)
(-0.00050431 -2.78958e-05 0)
(-0.000410543 -2.6006e-05 0)
(-0.000323378 -2.3905e-05 0)
(-0.000243476 -2.15951e-05 0)
(-0.000171477 -1.90806e-05 0)
(-0.000107985 -1.63685e-05 0)
(-5.35591e-05 -1.34698e-05 0)
(-8.69085e-06 -1.04027e-05 0)
(2.62219e-05 -7.19478e-06 0)
(5.09167e-05 -3.8892e-06 0)
(6.53298e-05 -5.57036e-07 0)
(6.96958e-05 2.68119e-06 0)
(6.47054e-05 5.61819e-06 0)
(5.17245e-05 7.89491e-06 0)
(3.32525e-05 8.87397e-06 0)
(1.4274e-05 7.47716e-06 0)
(2.75056e-06 2.75053e-06 0)
(7.5991e-06 -1.4683e-05 0)
(3.07671e-05 -3.07313e-05 0)
(6.1783e-05 -3.27773e-05 0)
(8.65256e-05 -2.49614e-05 0)
(9.56574e-05 -1.10738e-05 0)
(8.37785e-05 6.32391e-06 0)
(4.75703e-05 2.5558e-05 0)
(-1.47994e-05 4.55349e-05 0)
(-0.000104046 6.55395e-05 0)
(-0.000220092 8.50975e-05 0)
(-0.000362303 0.000103891 0)
(-0.000529647 0.000121705 0)
(-0.000720816 0.000138398 0)
(-0.000934303 0.000153874 0)
(-0.00116846 0.000168072 0)
(-0.00142155 0.000180957 0)
(-0.00169179 0.000192511 0)
(-0.00197733 0.00020273 0)
(-0.00227634 0.000211618 0)
(-0.00258699 0.000219192 0)
(-0.00290743 0.00022547 0)
(-0.00323587 0.000230478 0)
(-0.00357054 0.000234246 0)
(-0.0039097 0.000236805 0)
(-0.00425167 0.000238189 0)
(-0.00459478 0.000238436 0)
(-0.00493745 0.000237583 0)
(-0.00527812 0.000235669 0)
(-0.00561531 0.000232733 0)
(-0.00594758 0.000228817 0)
(-0.00627354 0.00022396 0)
(-0.00659188 0.000218204 0)
(-0.00690131 0.000211589 0)
(-0.00720065 0.000204158 0)
(-0.00748873 0.000195952 0)
(-0.00776447 0.000187015 0)
(-0.00802684 0.000177387 0)
(-0.00827488 0.000167112 0)
(-0.00850769 0.000156232 0)
(-0.00872441 0.000144789 0)
(-0.00892426 0.000132828 0)
(-0.00910653 0.00012039 0)
(-0.00927056 0.00010752 0)
(-0.00941575 9.426e-05 0)
(-0.00954159 8.06561e-05 0)
(-0.0096476 6.67531e-05 0)
(-0.00973339 5.25965e-05 0)
(-0.00979863 3.82331e-05 0)
(-0.00984305 2.37095e-05 0)
(-0.00986646 9.07285e-06 0)
(-0.00986874 -5.62874e-06 0)
(-0.00984983 -2.03464e-05 0)
(-0.00980975 -3.50314e-05 0)
(-0.00974858 -4.9633e-05 0)
(-0.00966648 -6.4099e-05 0)
(-0.00956371 -7.83778e-05 0)
(-0.00944055 -9.24175e-05 0)
(-0.00929741 -0.000106165 0)
(-0.00913475 -0.000119566 0)
(-0.00895311 -0.000132569 0)
(-0.0087531 -0.000145119 0)
(-0.00853543 -0.000157161 0)
(-0.00830086 -0.00016864 0)
(-0.00805026 -0.000179501 0)
(-0.00778455 -0.000189691 0)
(-0.00750474 -0.000199154 0)
(-0.00721191 -0.000207838 0)
(-0.00690723 -0.000215691 0)
(-0.00659193 -0.00022266 0)
(-0.00626731 -0.000228694 0)
(-0.00593474 -0.000233745 0)
(-0.00559568 -0.000237764 0)
(-0.00525164 -0.000240706 0)
(-0.00490417 -0.000242528 0)
(-0.00455491 -0.000243189 0)
(-0.00420554 -0.000242651 0)
(-0.00385779 -0.00024088 0)
(-0.00351344 -0.000237842 0)
(-0.00317429 -0.000233511 0)
(-0.00284218 -0.000227864 0)
(-0.00251899 -0.000220883 0)
(-0.00220658 -0.000212558 0)
(-0.00190685 -0.000202883 0)
(-0.00162166 -0.000191862 0)
(-0.00135286 -0.000179508 0)
(-0.00110226 -0.000165846 0)
(-0.000871604 -0.000150917 0)
(-0.000662554 -0.000134781 0)
(-0.00047664 -0.000117523 0)
(-0.000315224 -9.92634e-05 0)
(-0.00017944 -8.0171e-05 0)
(-7.01126e-05 -6.04841e-05 0)
(1.23602e-05 -4.05427e-05 0)
(6.81622e-05 -2.08412e-05 0)
(9.8287e-05 -2.11237e-06 0)
(0.000104849 1.4543e-05 0)
(9.14348e-05 2.74665e-05 0)
(6.36632e-05 3.41553e-05 0)
(3.09923e-05 3.09845e-05 0)
(7.47213e-06 1.42634e-05 0)
(8.78074e-06 -3.3357e-05 0)
(3.29431e-05 -6.17921e-05 0)
(6.0526e-05 -6.02278e-05 0)
(7.4656e-05 -3.73939e-05 0)
(6.40584e-05 -3.75477e-07 0)
(2.17327e-05 4.55549e-05 0)
(-5.69485e-05 9.66005e-05 0)
(-0.000174746 0.00015008 0)
(-0.000332918 0.000204107 0)
(-0.000531589 0.000257352 0)
(-0.000770035 0.000308874 0)
(-0.0010469 0.00035801 0)
(-0.00136036 0.000404289 0)
(-0.00170826 0.000447386 0)
(-0.00208817 0.000487077 0)
(-0.00249751 0.000523215 0)
(-0.00293356 0.000555714 0)
(-0.00339354 0.000584529 0)
(-0.00387461 0.000609652 0)
(-0.00437392 0.000631099 0)
(-0.00488863 0.000648911 0)
(-0.00541592 0.000663142 0)
(-0.00595301 0.000673863 0)
(-0.00649716 0.000681152 0)
(-0.0070457 0.000685099 0)
(-0.00759602 0.000685799 0)
(-0.00814558 0.000683354 0)
(-0.00869191 0.000677869 0)
(-0.00923264 0.000669454 0)
(-0.00976547 0.000658218 0)
(-0.0102882 0.000644277 0)
(-0.0107987 0.000627747 0)
(-0.0112949 0.000608743 0)
(-0.0117749 0.000587385 0)
(-0.0122369 0.000563792 0)
(-0.0126791 0.000538084 0)
(-0.0130998 0.000510384 0)
(-0.0134976 0.000480813 0)
(-0.0138709 0.000449494 0)
(-0.0142184 0.00041655 0)
(-0.0145388 0.000382106 0)
(-0.014831 0.000346287 0)
(-0.0150939 0.00030922 0)
(-0.0153266 0.000271032 0)
(-0.0155282 0.000231852 0)
(-0.015698 0.000191813 0)
(-0.0158354 0.000151046 0)
(-0.0159397 0.000109685 0)
(-0.0160107 6.78666e-05 0)
(-0.016048 2.57281e-05 0)
(-0.0160513 -1.65916e-05 0)
(-0.0160207 -5.89503e-05 0)
(-0.0159561 -0.000101204 0)
(-0.0158577 -0.000143209 0)
(-0.0157258 -0.000184816 0)
(-0.0155607 -0.000225876 0)
(-0.0153629 -0.000266238 0)
(-0.0151332 -0.000305749 0)
(-0.0148722 -0.000344256 0)
(-0.0145807 -0.000381604 0)
(-0.0142599 -0.000417638 0)
(-0.0139109 -0.000452202 0)
(-0.0135348 -0.000485139 0)
(-0.013133 -0.000516293 0)
(-0.0127071 -0.00054551 0)
(-0.0122586 -0.000572635 0)
(-0.0117894 -0.000597517 0)
(-0.0113012 -0.000620006 0)
(-0.010796 -0.000639957 0)
(-0.0102759 -0.000657225 0)
(-0.00974319 -0.000671674 0)
(-0.00920005 -0.00068317 0)
(-0.00864892 -0.000691588 0)
(-0.0080923 -0.000696806 0)
(-0.00753277 -0.000698714 0)
(-0.006973 -0.000697208 0)
(-0.00641573 -0.000692195 0)
(-0.00586374 -0.000683594 0)
(-0.00531991 -0.000671335 0)
(-0.00478711 -0.000655364 0)
(-0.00426828 -0.000635644 0)
(-0.00376633 -0.000612156 0)
(-0.0032842 -0.000584905 0)
(-0.00282477 -0.00055392 0)
(-0.0023909 -0.000519265 0)
(-0.00198532 -0.000481039 0)
(-0.00161069 -0.000439391 0)
(-0.00126947 -0.000394529 0)
(-0.00096391 -0.000346743 0)
(-0.000695953 -0.000296423 0)
(-0.000467164 -0.000244103 0)
(-0.000278597 -0.000190508 0)
(-0.000130635 -0.00013663 0)
(-2.27844e-05 -8.38424e-05 0)
(4.66035e-05 -3.40594e-05 0)
(8.06768e-05 1.004e-05 0)
(8.44225e-05 4.47175e-05 0)
(6.51307e-05 6.48485e-05 0)
(3.42888e-05 6.36843e-05 0)
(8.8889e-06 3.32477e-05 0)
(7.63218e-06 -5.10104e-05 0)
(2.54275e-05 -8.68251e-05 0)
(3.83651e-05 -7.45018e-05 0)
(2.92582e-05 -2.80389e-05 0)
(-1.37136e-05 4.1985e-05 0)
(-9.82823e-05 0.000127423 0)
(-0.000229729 0.000222135 0)
(-0.000411324 0.000321581 0)
(-0.000644661 0.000422422 0)
(-0.000930006 0.000522211 0)
(-0.00126659 0.000619156 0)
(-0.00165282 0.000711948 0)
(-0.00208652 0.000799631 0)
(-0.00256501 0.00088152 0)
(-0.00308527 0.000957128 0)
(-0.00364402 0.00102612 0)
(-0.00423778 0.00108829 0)
(-0.00486296 0.0011435 0)
(-0.00551589 0.0011917 0)
(-0.00619284 0.0012329 0)
(-0.00689008 0.00126714 0)
(-0.0076039 0.00129452 0)
(-0.00833062 0.00131514 0)
(-0.00906661 0.00132914 0)
(-0.00980832 0.00133669 0)
(-0.0105523 0.00133795 0)
(-0.011295 0.00133312 0)
(-0.0120334 0.00132237 0)
(-0.0127641 0.00130594 0)
(-0.013484 0.00128401 0)
(-0.0141902 0.00125682 0)
(-0.0148799 0.00122457 0)
(-0.0155503 0.0011875 0)
(-0.0161988 0.00114584 0)
(-0.0168228 0.00109982 0)
(-0.0174202 0.00104966 0)
(-0.0179885 0.000995608 0)
(-0.0185257 0.0009379 0)
(-0.0190299 0.000876776 0)
(-0.0194992 0.000812476 0)
(-0.0199319 0.000745244 0)
(-0.0203265 0.000675326 0)
(-0.0206814 0.00060297 0)
(-0.0209955 0.000528428 0)
(-0.0212677 0.000451952 0)
(-0.0214968 0.000373799 0)
(-0.021682 0.000294231 0)
(-0.0218227 0.000213508 0)
(-0.0219182 0.000131898 0)
(-0.0219682 4.96706e-05 0)
(-0.0219724 -3.29004e-05 0)
(-0.0219307 -0.000115539 0)
(-0.0218431 -0.000197962 0)
(-0.0217099 -0.000279886 0)
(-0.0215314 -0.000361022 0)
(-0.0213081 -0.000441079 0)
(-0.0210407 -0.000519762 0)
(-0.0207302 -0.000596774 0)
(-0.0203775 -0.000671815 0)
(-0.0199837 -0.000744585 0)
(-0.0195504 -0.00081478 0)
(-0.0190789 -0.000882097 0)
(-0.0185709 -0.000946233 0)
(-0.0180284 -0.00100689 0)
(-0.0174533 -0.00106376 0)
(-0.0168479 -0.00111655 0)
(-0.0162143 -0.00116497 0)
(-0.0155553 -0.00120873 0)
(-0.0148734 -0.00124754 0)
(-0.0141713 -0.00128115 0)
(-0.0134522 -0.00130927 0)
(-0.012719 -0.00133166 0)
(-0.0119749 -0.00134808 0)
(-0.0112234 -0.0013583 0)
(-0.0104678 -0.00136212 0)
(-0.00971175 -0.00135933 0)
(-0.00895885 -0.00134977 0)
(-0.00821283 -0.0013333 0)
(-0.00747747 -0.00130979 0)
(-0.00675661 -0.00127916 0)
(-0.00605409 -0.00124135 0)
(-0.00537378 -0.00119634 0)
(-0.00471949 -0.00114416 0)
(-0.00409502 -0.00108491 0)
(-0.00350403 -0.00101873 0)
(-0.0029501 -0.000945853 0)
(-0.00243658 -0.000866608 0)
(-0.00196662 -0.000781442 0)
(-0.00154301 -0.000690961 0)
(-0.00116816 -0.000595967 0)
(-0.000843946 -0.000497526 0)
(-0.000571564 -0.000397053 0)
(-0.000351373 -0.000296432 0)
(-0.000182658 -0.000198178 0)
(-6.33511e-05 -0.000105663 0)
(1.02857e-05 -2.34085e-05 0)
(4.39684e-05 4.25484e-05 0)
(4.57915e-05 8.43014e-05 0)
(2.79307e-05 9.17477e-05 0)
(7.97336e-06 5.18374e-05 0)
(5.26523e-06 -6.28028e-05 0)
(1.19798e-05 -9.66537e-05 0)
(2.29385e-06 -6.45333e-05 0)
(-3.92899e-05 1.46846e-05 0)
(-0.000124086 0.000127036 0)
(-0.000259938 0.000261597 0)
(-0.000452277 0.000409903 0)
(-0.000704513 0.000565503 0)
(-0.00101834 0.000723503 0)
(-0.00139405 0.000880204 0)
(-0.00183076 0.00103282 0)
(-0.00232672 0.00117926 0)
(-0.00287941 0.00131797 0)
(-0.00348575 0.00144779 0)
(-0.00414221 0.00156788 0)
(-0.00484496 0.00167766 0)
(-0.00558987 0.00177671 0)
(-0.00637268 0.0018648 0)
(-0.00718896 0.00194178 0)
(-0.00803426 0.00200762 0)
(-0.00890407 0.00206237 0)
(-0.00979388 0.00210613 0)
(-0.0106992 0.00213906 0)
(-0.0116157 0.00216136 0)
(-0.0125389 0.00217327 0)
(-0.0134646 0.00217505 0)
(-0.0143886 0.00216698 0)
(-0.0153069 0.00214937 0)
(-0.0162155 0.00212254 0)
(-0.0171107 0.00208682 0)
(-0.0179887 0.00204256 0)
(-0.018846 0.00199011 0)
(-0.0196793 0.00192983 0)
(-0.0204853 0.00186208 0)
(-0.0212609 0.00178725 0)
(-0.0220032 0.0017057 0)
(-0.0227095 0.00161782 0)
(-0.023377 0.001524 0)
(-0.0240035 0.00142462 0)
(-0.0245865 0.00132007 0)
(-0.025124 0.00121076 0)
(-0.0256141 0.00109709 0)
(-0.026055 0.000979445 0)
(-0.0264451 0.000858251 0)
(-0.026783 0.000733919 0)
(-0.0270673 0.000606866 0)
(-0.0272972 0.000477517 0)
(-0.0274717 0.000346301 0)
(-0.02759 0.000213652 0)
(-0.0276518 8.00099e-05 0)
(-0.0276567 -5.41786e-05 0)
(-0.0276045 -0.000188462 0)
(-0.0274953 -0.000322382 0)
(-0.0273295 -0.000455476 0)
(-0.0271074 -0.000587274 0)
(-0.0268297 -0.000717304 0)
(-0.0264973 -0.000845085 0)
(-0.0261112 -0.000970137 0)
(-0.0256728 -0.00109197 0)
(-0.0251835 -0.0012101 0)
(-0.024645 -0.00132404 0)
(-0.0240592 -0.00143329 0)
(-0.0234281 -0.00153737 0)
(-0.0227542 -0.00163579 0)
(-0.0220398 -0.00172807 0)
(-0.0212877 -0.00181372 0)
(-0.0205008 -0.00189227 0)
(-0.0196822 -0.00196327 0)
(-0.0188351 -0.00202627 0)
(-0.0179631 -0.00208082 0)
(-0.0170697 -0.00212651 0)
(-0.0161588 -0.00216293 0)
(-0.0152343 -0.00218971 0)
(-0.0143003 -0.00220648 0)
(-0.0133611 -0.00221292 0)
(-0.012421 -0.00220874 0)
(-0.0114845 -0.00219367 0)
(-0.0105562 -0.00216749 0)
(-0.0096406 -0.00213003 0)
(-0.00874243 -0.00208116 0)
(-0.00786635 -0.00202082 0)
(-0.00701703 -0.00194902 0)
(-0.0061991 -0.00186583 0)
(-0.0054171 -0.00177143 0)
(-0.00467543 -0.0016661 0)
(-0.00397834 -0.00155026 0)
(-0.00332982 -0.00142449 0)
(-0.00273354 -0.00128955 0)
(-0.00219278 -0.00114646 0)
(-0.00171031 -0.00099656 0)
(-0.00128826 -0.000841567 0)
(-0.00092799 -0.000683731 0)
(-0.000629878 -0.000525967 0)
(-0.000393128 -0.000372069 0)
(-0.000215507 -0.000226975 0)
(-9.30651e-05 -9.71074e-05 0)
(-1.98607e-05 9.21491e-06 0)
(1.24009e-05 8.13719e-05 0)
(1.5555e-05 0.000105971 0)
(5.8084e-06 6.51696e-05 0)
(2.31146e-06 -6.64185e-05 0)
(-4.90219e-06 -8.59724e-05 0)
(-4.25837e-05 -2.33934e-05 0)
(-0.000123183 9.84704e-05 0)
(-0.00025671 0.000262631 0)
(-0.000450635 0.000455599 0)
(-0.000710141 0.000666717 0)
(-0.00103846 0.000887667 0)
(-0.00143716 0.00111199 0)
(-0.0019064 0.00133468 0)
(-0.00244515 0.00155188 0)
(-0.0030514 0.00176064 0)
(-0.00372235 0.00195871 0)
(-0.00445456 0.00214439 0)
(-0.00524408 0.0023164 0)
(-0.00608655 0.00247384 0)
(-0.00697732 0.00261606 0)
(-0.00791153 0.00274264 0)
(-0.00888413 0.00285334 0)
(-0.00989 0.00294806 0)
(-0.0109239 0.00302682 0)
(-0.0119808 0.00308973 0)
(-0.0130553 0.00313699 0)
(-0.0141424 0.00316885 0)
(-0.015237 0.00318564 0)
(-0.0163341 0.00318772 0)
(-0.0174289 0.00317547 0)
(-0.0185166 0.00314934 0)
(-0.0195926 0.00310976 0)
(-0.0206525 0.00305722 0)
(-0.0216919 0.00299221 0)
(-0.0227067 0.00291523 0)
(-0.0236929 0.00282681 0)
(-0.0246467 0.00272748 0)
(-0.0255644 0.00261777 0)
(-0.0264427 0.00249824 0)
(-0.0272782 0.00236944 0)
(-0.0280679 0.00223194 0)
(-0.0288089 0.00208629 0)
(-0.0294985 0.00193309 0)
(-0.0301342 0.00177291 0)
(-0.0307138 0.00160633 0)
(-0.0312351 0.00143395 0)
(-0.0316962 0.00125638 0)
(-0.0320956 0.00107421 0)
(-0.0324317 0.000888066 0)
(-0.0327033 0.000698569 0)
(-0.0329093 0.000506348 0)
(-0.033049 0.000312042 0)
(-0.0331217 0.000116297 0)
(-0.0331271 -8.02331e-05 0)
(-0.033065 -0.000276885 0)
(-0.0329356 -0.000472988 0)
(-0.0327391 -0.000667862 0)
(-0.0324762 -0.000860822 0)
(-0.0321475 -0.00105117 0)
(-0.0317542 -0.00123821 0)
(-0.0312974 -0.00142124 0)
(-0.0307788 -0.00159955 0)
(-0.0301999 -0.00177242 0)
(-0.029563 -0.00193914 0)
(-0.0288701 -0.00209899 0)
(-0.0281238 -0.00225127 0)
(-0.0273267 -0.00239526 0)
(-0.0264819 -0.00253026 0)
(-0.0255924 -0.00265558 0)
(-0.0246618 -0.00277053 0)
(-0.0236936 -0.00287445 0)
(-0.0226917 -0.00296669 0)
(-0.0216602 -0.00304661 0)
(-0.0206034 -0.00311361 0)
(-0.0195256 -0.00316712 0)
(-0.0184315 -0.0032066 0)
(-0.017326 -0.00323153 0)
(-0.016214 -0.00324145 0)
(-0.0151005 -0.00323595 0)
(-0.0139908 -0.00321466 0)
(-0.0128901 -0.0031773 0)
(-0.0118039 -0.00312362 0)
(-0.0107376 -0.00305347 0)
(-0.00969643 -0.0029668 0)
(-0.00868592 -0.00286364 0)
(-0.00771137 -0.00274415 0)
(-0.00677797 -0.00260863 0)
(-0.00589078 -0.00245754 0)
(-0.00505463 -0.00229152 0)
(-0.00427403 -0.00211147 0)
(-0.00355315 -0.00191853 0)
(-0.00289567 -0.00171424 0)
(-0.0023047 -0.00150053 0)
(-0.00178262 -0.00127988 0)
(-0.00133098 -0.00105547 0)
(-0.000950284 -0.000831313 0)
(-0.000639805 -0.00061255 0)
(-0.000397379 -0.0004057 0)
(-0.000219164 -0.000219047 0)
(-9.93858e-05 -6.30849e-05 0)
(-3.0024e-05 4.90422e-05 0)
(-3.70751e-07 0.00010096 0)
(3.02588e-06 7.08585e-05 0)
(-8.87441e-07 -6.06442e-05 0)
(-2.36356e-05 -5.14562e-05 0)
(-9.27124e-05 5.36318e-05 0)
(-0.000216726 0.000228787 0)
(-0.000403843 0.000454499 0)
(-0.000660781 0.000715027 0)
(-0.000992151 0.000997718 0)
(-0.00140074 0.00129251 0)
(-0.00188779 0.00159142 0)
(-0.00245318 0.00188816 0)
(-0.0030956 0.00217778 0)
(-0.00381277 0.00245641 0)
(-0.00460158 0.00272106 0)
(-0.00545823 0.00296943 0)
(-0.00637835 0.00319978 0)
(-0.00735717 0.0034108 0)
(-0.00838954 0.00360158 0)
(-0.00947006 0.00377148 0)
(-0.0105931 0.00392012 0)
(-0.0117531 0.0040473 0)
(-0.0129441 0.004153 0)
(-0.0141603 0.00423734 0)
(-0.0153959 0.00430053 0)
(-0.0166453 0.0043429 0)
(-0.0179025 0.00436483 0)
(-0.0191621 0.0043668 0)
(-0.0204186 0.00434931 0)
(-0.0216665 0.00431293 0)
(-0.0229007 0.00425826 0)
(-0.024116 0.00418593 0)
(-0.0253077 0.0040966 0)
(-0.0264709 0.00399094 0)
(-0.0276012 0.00386966 0)
(-0.0286942 0.00373348 0)
(-0.0297458 0.00358314 0)
(-0.030752 0.00341936 0)
(-0.0317091 0.00324292 0)
(-0.0326137 0.00305458 0)
(-0.0334624 0.00285511 0)
(-0.0342521 0.0026453 0)
(-0.0349801 0.00242594 0)
(-0.0356437 0.00219785 0)
(-0.0362405 0.00196183 0)
(-0.0367684 0.00171871 0)
(-0.0372255 0.00146931 0)
(-0.0376101 0.00121449 0)
(-0.0379208 0.000955089 0)
(-0.0381565 0.000691979 0)
(-0.0383161 0.000426031 0)
(-0.0383991 0.000158133 0)
(-0.038405 -0.000110821 0)
(-0.0383337 -0.00037992 0)
(-0.0381852 -0.000648248 0)
(-0.03796 -0.000914875 0)
(-0.0376587 -0.00117886 0)
(-0.0372821 -0.00143926 0)
(-0.0368316 -0.00169512 0)
(-0.0363084 -0.00194547 0)
(-0.0357144 -0.00218934 0)
(-0.0350516 -0.00242577 0)
(-0.0343222 -0.00265377 0)
(-0.0335288 -0.00287239 0)
(-0.0326742 -0.00308064 0)
(-0.0317615 -0.00327757 0)
(-0.030794 -0.00346222 0)
(-0.0297754 -0.00363365 0)
(-0.0287096 -0.00379094 0)
(-0.0276007 -0.00393319 0)
(-0.0264531 -0.0040595 0)
(-0.0252714 -0.00416905 0)
(-0.0240604 -0.00426101 0)
(-0.0228252 -0.00433461 0)
(-0.0215711 -0.00438913 0)
(-0.0203035 -0.00442389 0)
(-0.0190279 -0.00443828 0)
(-0.0177502 -0.00443176 0)
(-0.0164762 -0.00440385 0)
(-0.0152118 -0.00435418 0)
(-0.0139631 -0.00428247 0)
(-0.0127362 -0.00418853 0)
(-0.0115372 -0.00407233 0)
(-0.0103719 -0.00393395 0)
(-0.00924652 -0.00377366 0)
(-0.00816672 -0.0035919 0)
(-0.00713813 -0.00338934 0)
(-0.0061661 -0.00316693 0)
(-0.00525566 -0.00292589 0)
(-0.00441138 -0.00266784 0)
(-0.00363734 -0.00239486 0)
(-0.00293698 -0.00210957 0)
(-0.00231298 -0.00181525 0)
(-0.00176711 -0.00151604 0)
(-0.00130012 -0.00121713 0)
(-0.000911514 -0.000924963 0)
(-0.000599398 -0.00064761 0)
(-0.000360302 -0.000395112 0)
(-0.000188941 -0.000179957 0)
(-7.79356e-05 -1.7529e-05 0)
(-1.82581e-05 7.32735e-05 0)
(-2.73134e-08 6.76236e-05 0)
(-4.14455e-06 -4.48895e-05 0)
(-4.32291e-05 8.85906e-06 0)
(-0.000145682 0.000169581 0)
(-0.000315897 0.000409354 0)
(-0.000559849 0.000706674 0)
(-0.000883237 0.00104392 0)
(-0.00128985 0.00140668 0)
(-0.00178181 0.00178332 0)
(-0.00235985 0.00216444 0)
(-0.00302342 0.00254251 0)
(-0.00377085 0.00291151 0)
(-0.00459951 0.00326666 0)
(-0.00550593 0.00360419 0)
(-0.00648593 0.00392119 0)
(-0.00753477 0.00421537 0)
(-0.00864724 0.00448505 0)
(-0.00981775 0.00472897 0)
(-0.0110404 0.00494627 0)
(-0.0123092 0.00513638 0)
(-0.0136177 0.00529901 0)
(-0.0149598 0.00543406 0)
(-0.016329 0.00554164 0)
(-0.017719 0.00562198 0)
(-0.0191233 0.00567545 0)
(-0.0205357 0.00570253 0)
(-0.0219501 0.00570379 0)
(-0.0233603 0.00567986 0)
(-0.0247605 0.00563145 0)
(-0.0261448 0.00555932 0)
(-0.0275076 0.00546426 0)
(-0.0288435 0.00534711 0)
(-0.0301473 0.00520876 0)
(-0.0314139 0.0050501 0)
(-0.0326385 0.00487205 0)
(-0.0338165 0.00467556 0)
(-0.0349436 0.0044616 0)
(-0.0360156 0.00423114 0)
(-0.0370285 0.00398518 0)
(-0.0379788 0.00372473 0)
(-0.038863 0.00345082 0)
(-0.039678 0.00316447 0)
(-0.0404208 0.00286674 0)
(-0.0410888 0.00255869 0)
(-0.0416797 0.00224139 0)
(-0.0421912 0.00191593 0)
(-0.0426215 0.00158341 0)
(-0.0429691 0.00124494 0)
(-0.0432327 0.000901647 0)
(-0.0434112 0.000554678 0)
(-0.0435039 0.000205185 0)
(-0.0435103 -0.00014566 0)
(-0.0434302 -0.000496675 0)
(-0.0432639 -0.00084666 0)
(-0.0430116 -0.00119441 0)
(-0.0426742 -0.00153869 0)
(-0.0422526 -0.00187828 0)
(-0.0417482 -0.00221192 0)
(-0.0411626 -0.00253837 0)
(-0.0404977 -0.00285637 0)
(-0.0397557 -0.00316466 0)
(-0.0389393 -0.00346197 0)
(-0.0380511 -0.00374704 0)
(-0.0370944 -0.00401861 0)
(-0.0360726 -0.00427544 0)
(-0.0349895 -0.0045163 0)
(-0.0338491 -0.00473996 0)
(-0.0326557 -0.00494524 0)
(-0.0314138 -0.00513097 0)
(-0.0301285 -0.00529602 0)
(-0.0288047 -0.0054393 0)
(-0.0274478 -0.00555977 0)
(-0.0260635 -0.00565644 0)
(-0.0246575 -0.00572838 0)
(-0.0232359 -0.00577474 0)
(-0.0218049 -0.00579475 0)
(-0.0203707 -0.00578772 0)
(-0.0189399 -0.00575308 0)
(-0.0175191 -0.00569036 0)
(-0.0161148 -0.00559922 0)
(-0.0147338 -0.00547948 0)
(-0.0133827 -0.00533112 0)
(-0.0120681 -0.0051543 0)
(-0.0107966 -0.00494941 0)
(-0.00957438 -0.00471706 0)
(-0.00840767 -0.00445818 0)
(-0.00730228 -0.00417402 0)
(-0.00626367 -0.00386621 0)
(-0.00529685 -0.00353688 0)
(-0.00440628 -0.00318867 0)
(-0.00359574 -0.00282492 0)
(-0.00286824 -0.00244977 0)
(-0.0022259 -0.00206833 0)
(-0.00166977 -0.00168692 0)
(-0.00119975 -0.00131327 0)
(-0.00081439 -0.000956914 0)
(-0.000510817 -0.000629494 0)
(-0.000284474 -0.000345265 0)
(-0.000128902 -0.000121518 0)
(-3.7098e-05 2.08338e-05 0)
(-3.1594e-06 5.48165e-05 0)
(-7.36264e-06 -1.89561e-05 0)
(-6.30736e-05 9.5968e-05 0)
(-0.000199896 0.000326208 0)
(-0.000417899 0.00064249 0)
(-0.000720692 0.00102182 0)
(-0.00111277 0.00144504 0)
(-0.00159692 0.00189629 0)
(-0.00217442 0.00236251 0)
(-0.00284534 0.00283304 0)
(-0.0036086 0.00329918 0)
(-0.00446205 0.00375389 0)
(-0.00540262 0.00419151 0)
(-0.00642645 0.00460751 0)
(-0.00752896 0.00499831 0)
(-0.00870501 0.00536113 0)
(-0.00994897 0.00569382 0)
(-0.0112548 0.0059948 0)
(-0.0126162 0.00626293 0)
(-0.0140267 0.00649747 0)
(-0.0154794 0.00669799 0)
(-0.0169676 0.00686431 0)
(-0.0184843 0.00699651 0)
(-0.0200227 0.00709484 0)
(-0.021576 0.00715971 0)
(-0.0231372 0.00719169 0)
(-0.0246997 0.00719144 0)
(-0.0262569 0.00715972 0)
(-0.0278024 0.0070974 0)
(-0.0293298 0.00700539 0)
(-0.0308331 0.00688468 0)
(-0.0323063 0.00673631 0)
(-0.0337437 0.00656134 0)
(-0.0351398 0.00636091 0)
(-0.0364894 0.00613615 0)
(-0.0377874 0.00588825 0)
(-0.0390291 0.00561841 0)
(-0.0402099 0.00532786 0)
(-0.0413256 0.00501785 0)
(-0.0423722 0.00468963 0)
(-0.0433458 0.0043445 0)
(-0.0442432 0.00398375 0)
(-0.045061 0.0036087 0)
(-0.0457964 0.00322069 0)
(-0.0464467 0.00282106 0)
(-0.0470098 0.00241119 0)
(-0.0474834 0.00199246 0)
(-0.0478659 0.00156627 0)
(-0.048156 0.00113403 0)
(-0.0483523 0.000697197 0)
(-0.0484542 0.000257211 0)
(-0.0484612 -0.000184453 0)
(-0.048373 -0.000626306 0)
(-0.0481898 -0.00106684 0)
(-0.0479121 -0.00150454 0)
(-0.0475407 -0.00193786 0)
(-0.0470767 -0.00236525 0)
(-0.0465215 -0.00278516 0)
(-0.0458769 -0.00319601 0)
(-0.045145 -0.00359623 0)
(-0.0443283 -0.00398422 0)
(-0.0434295 -0.00435842 0)
(-0.0424518 -0.00471724 0)
(-0.0413986 -0.00505911 0)
(-0.0402736 -0.00538247 0)
(-0.039081 -0.00568578 0)
(-0.0378252 -0.00596753 0)
(-0.0365107 -0.00622623 0)
(-0.0351428 -0.00646042 0)
(-0.0337266 -0.00666871 0)
(-0.0322678 -0.00684974 0)
(-0.0307722 -0.00700222 0)
(-0.0292458 -0.00712493 0)
(-0.0276951 -0.00721673 0)
(-0.0261266 -0.00727657 0)
(-0.0245469 -0.00730351 0)
(-0.022963 -0.00729672 0)
(-0.0213819 -0.0072555 0)
(-0.0198107 -0.00717932 0)
(-0.0182566 -0.00706778 0)
(-0.0167268 -0.00692068 0)
(-0.0152286 -0.00673805 0)
(-0.013769 -0.00652014 0)
(-0.0123551 -0.00626746 0)
(-0.0109938 -0.00598084 0)
(-0.00969154 -0.00566148 0)
(-0.00845474 -0.00531095 0)
(-0.00728926 -0.00493134 0)
(-0.00620052 -0.00452526 0)
(-0.00519338 -0.00409601 0)
(-0.004272 -0.00364763 0)
(-0.0034398 -0.0031851 0)
(-0.00269927 -0.00271452 0)
(-0.00205191 -0.00224328 0)
(-0.00149812 -0.00178034 0)
(-0.00103706 -0.00133655 0)
(-0.000666619 -0.000925003 0)
(-0.000383149 -0.000561472 0)
(-0.000181293 -0.000264804 0)
(-5.62627e-05 -5.74507e-05 0)
(-6.26761e-06 3.21924e-05 0)
(-1.04943e-05 1.71274e-05 0)
(-8.2803e-05 0.000210219 0)
(-0.000254318 0.000524352 0)
(-0.000520829 0.00092947 0)
(-0.000883531 0.00140152 0)
(-0.0013456 0.00192017 0)
(-0.0019087 0.00246832 0)
(-0.00257315 0.00303174 0)
(-0.00333822 0.00359862 0)
(-0.00420217 0.00415922 0)
(-0.00516231 0.00470554 0)
(-0.00621507 0.00523107 0)
(-0.00735611 0.00573055 0)
(-0.00858043 0.00619977 0)
(-0.00988246 0.00663541 0)
(-0.0112562 0.00703489 0)
(-0.0126951 0.00739627 0)
(-0.0141924 0.00771814 0)
(-0.0157413 0.00799955 0)
(-0.0173344 0.00823992 0)
(-0.0189645 0.00843901 0)
(-0.0206242 0.00859683 0)
(-0.0223062 0.00871365 0)
(-0.0240032 0.00878993 0)
(-0.0257077 0.00882631 0)
(-0.0274128 0.00882355 0)
(-0.0291111 0.00878256 0)
(-0.030796 0.00870435 0)
(-0.0324605 0.00859001 0)
(-0.0340981 0.00844072 0)
(-0.0357025 0.00825772 0)
(-0.0372675 0.0080423 0)
(-0.0387873 0.00779583 0)
(-0.040256 0.00751968 0)
(-0.0416684 0.00721529 0)
(-0.0430193 0.00688412 0)
(-0.0443037 0.00652765 0)
(-0.0455172 0.00614742 0)
(-0.0466553 0.00574496 0)
(-0.047714 0.00532183 0)
(-0.0486896 0.00487963 0)
(-0.0495787 0.00441996 0)
(-0.0503782 0.00394447 0)
(-0.0510851 0.00345479 0)
(-0.0516971 0.0029526 0)
(-0.0522119 0.00243959 0)
(-0.0526277 0.00191749 0)
(-0.0529429 0.00138802 0)
(-0.0531563 0.000852948 0)
(-0.0532671 0.000314047 0)
(-0.0532747 -0.000226881 0)
(-0.053179 -0.000768015 0)
(-0.05298 -0.00130752 0)
(-0.0526783 -0.00184352 0)
(-0.0522748 -0.00237416 0)
(-0.0517706 -0.00289753 0)
(-0.0511673 -0.00341173 0)
(-0.0504669 -0.00391485 0)
(-0.0496716 -0.00440496 0)
(-0.0487841 -0.00488014 0)
(-0.0478073 -0.00533844 0)
(-0.0467447 -0.00577797 0)
(-0.0455998 -0.00619679 0)
(-0.0443768 -0.00659302 0)
(-0.0430802 -0.00696479 0)
(-0.0417145 -0.00731026 0)
(-0.0402849 -0.00762761 0)
(-0.0387968 -0.0079151 0)
(-0.0372559 -0.00817103 0)
(-0.0356682 -0.00839377 0)
(-0.03404 -0.00858174 0)
(-0.0323778 -0.0087335 0)
(-0.0306884 -0.00884767 0)
(-0.0289789 -0.00892299 0)
(-0.0272564 -0.00895835 0)
(-0.0255284 -0.00895276 0)
(-0.0238023 -0.00890541 0)
(-0.0220859 -0.00881566 0)
(-0.0203868 -0.0086831 0)
(-0.0187127 -0.00850751 0)
(-0.0170713 -0.00828896 0)
(-0.0154703 -0.00802778 0)
(-0.0139172 -0.00772467 0)
(-0.0124193 -0.00738066 0)
(-0.0109836 -0.00699723 0)
(-0.00961689 -0.00657632 0)
(-0.00832552 -0.00612045 0)
(-0.00711532 -0.00563278 0)
(-0.00599157 -0.0051172 0)
(-0.00495886 -0.00457851 0)
(-0.00402105 -0.00402251 0)
(-0.0031811 -0.00345621 0)
(-0.00244107 -0.00288805 0)
(-0.00180193 -0.00232811 0)
(-0.00126359 -0.00178844 0)
(-0.000824819 -0.00128338 0)
(-0.000483017 -0.000829985 0)
(-0.000234039 -0.000448337 0)
(-7.53694e-05 -0.000162008 0)
(-9.29935e-06 -2.51015e-07 0)
(-1.35198e-05 6.31994e-05 0)
(-0.000102207 0.000351543 0)
(-0.000308289 0.000764221 0)
(-0.000623425 0.00127081 0)
(-0.00104642 0.00184656 0)
(-0.00157907 0.00247025 0)
(-0.00222185 0.00312382 0)
(-0.00297402 0.00379202 0)
(-0.00383397 0.00446207 0)
(-0.00479922 0.00512328 0)
(-0.00586643 0.00576679 0)
(-0.00703146 0.00638532 0)
(-0.00828948 0.00697289 0)
(-0.00963499 0.00752469 0)
(-0.011062 0.00803688 0)
(-0.012564 0.00850644 0)
(-0.0141341 0.0089311 0)
(-0.0157651 0.00930915 0)
(-0.0174496 0.00963943 0)
(-0.01918 0.00992123 0)
(-0.0209486 0.0101542 0)
(-0.0227475 0.0103383 0)
(-0.024569 0.0104738 0)
(-0.0264053 0.0105612 0)
(-0.0282486 0.0106013 0)
(-0.0300912 0.0105948 0)
(-0.0319258 0.0105429 0)
(-0.0337449 0.0104468 0)
(-0.0355413 0.0103076 0)
(-0.0373081 0.0101267 0)
(-0.0390385 0.00990574 0)
(-0.040726 0.0096461 0)
(-0.0423641 0.00934941 0)
(-0.043947 0.00901731 0)
(-0.0454689 0.0086515 0)
(-0.0469241 0.00825372 0)
(-0.0483076 0.00782575 0)
(-0.0496145 0.00736938 0)
(-0.05084 0.00688647 0)
(-0.05198 0.00637887 0)
(-0.0530304 0.00584849 0)
(-0.0539875 0.00529725 0)
(-0.0548481 0.0047271 0)
(-0.0556091 0.00414001 0)
(-0.0562678 0.00353798 0)
(-0.056822 0.00292305 0)
(-0.0572695 0.00229725 0)
(-0.0576089 0.00166268 0)
(-0.0578387 0.00102142 0)
(-0.0579582 0.000375609 0)
(-0.0579666 -0.000272601 0)
(-0.0578638 -0.000921035 0)
(-0.05765 -0.00156749 0)
(-0.0573256 -0.00220975 0)
(-0.0568917 -0.00284557 0)
(-0.0563495 -0.00347269 0)
(-0.0557007 -0.00408884 0)
(-0.0549473 -0.00469173 0)
(-0.0540918 -0.00527906 0)
(-0.0531369 -0.00584853 0)
(-0.052086 -0.00639786 0)
(-0.0509424 -0.00692475 0)
(-0.0497103 -0.00742693 0)
(-0.0483939 -0.00790214 0)