/*--------------------------------*- C++ -*----------------------------------*\
| =========                 |                                                 |
| \\      /  F ield         | OpenFOAM: The Open Source CFD Toolbox           |
|  \\    /   O peration     | Version:  2212                                  |
|   \\  /    A nd           | Website:  www.openfoam.com                      |
|    \\/     M anipulation  |                                                 |
\*---------------------------------------------------------------------------*/
FoamFile
{
    version     2.0;
    format      ascii;
    arch        "LSB;label=32;scalar=64";
    class       surfaceScalarField;
    location    "0.0855";
    object      phi;
}
// * * * * * * * * * * * * * * * * * * * * * * * * * * * * * * * * * * * * * //

dimensions      [0 3 -1 0 0 0 0];

oriented        oriented;

internalField   nonuniform List<scalar> 
19800
(
7.0324e-11
-7.03359e-11
2.41617e-10
-1.71286e-10
4.30255e-10
-1.88636e-10
5.78315e-10
-1.48049e-10
6.526e-10
-7.42792e-11
6.34789e-10
1.78138e-11
5.15711e-10
1.19078e-10
2.91986e-10
2.23728e-10
-3.61029e-11
3.28081e-10
-4.65876e-10
4.29773e-10
-9.93116e-10
5.27247e-10
-1.61257e-09
6.19458e-10
-2.3183e-09
7.05728e-10
-3.10392e-09
7.85616e-10
-3.96275e-09
8.58834e-10
-4.88797e-09
9.25222e-10
-5.87268e-09
9.84706e-10
-6.90996e-09
1.03728e-09
-7.99296e-09
1.083e-09
-9.1149e-09
1.12194e-09
-1.02691e-08
1.15421e-09
-1.14491e-08
1.17995e-09
-1.26484e-08
1.19931e-09
-1.38608e-08
1.21248e-09
-1.50804e-08
1.21961e-09
-1.63013e-08
1.22091e-09
-1.75179e-08
1.21657e-09
-1.87247e-08
1.20678e-09
-1.99165e-08
1.19176e-09
-2.10882e-08
1.1717e-09
-2.2235e-08
1.14681e-09
-2.33523e-08
1.11732e-09
-2.44357e-08
1.08344e-09
-2.54811e-08
1.04537e-09
-2.64844e-08
1.00333e-09
-2.7442e-08
9.57546e-10
-2.83502e-08
9.08223e-10
-2.92058e-08
8.55583e-10
-3.00056e-08
7.9984e-10
-3.07468e-08
7.41212e-10
-3.14268e-08
6.79929e-10
-3.2043e-08
6.16206e-10
-3.25932e-08
5.50266e-10
-3.30756e-08
4.82341e-10
-3.34882e-08
4.1265e-10
-3.38297e-08
3.41423e-10
-3.40986e-08
2.68899e-10
-3.42939e-08
1.95312e-10
-3.44148e-08
1.20901e-10
-3.44607e-08
4.59115e-11
-3.44313e-08
-2.94138e-11
-3.43264e-08
-1.0482e-10
-3.41464e-08
-1.80048e-10
-3.38915e-08
-2.54845e-10
-3.35626e-08
-3.2895e-10
-3.31605e-08
-4.0209e-10
-3.26865e-08
-4.74004e-10
-3.21421e-08
-5.44429e-10
-3.1529e-08
-6.13077e-10
-3.08493e-08
-6.79664e-10
-3.01054e-08
-7.43925e-10
-2.92998e-08
-8.05583e-10
-2.84355e-08
-8.64344e-10
-2.75156e-08
-9.19931e-10
-2.65435e-08
-9.7208e-10
-2.5523e-08
-1.02051e-09
-2.4458e-08
-1.06495e-09
-2.33529e-08
-1.10511e-09
-2.22122e-08
-1.14074e-09
-2.10406e-08
-1.17158e-09
-1.98432e-08
-1.19736e-09
-1.86254e-08
-1.21784e-09
-1.73926e-08
-1.2328e-09
-1.61506e-08
-1.24201e-09
-1.49053e-08
-1.24525e-09
-1.3663e-08
-1.24233e-09
-1.24299e-08
-1.23308e-09
-1.12126e-08
-1.21733e-09
-1.00177e-08
-1.19493e-09
-8.8519e-09
-1.16577e-09
-7.72214e-09
-1.12976e-09
-6.63531e-09
-1.08684e-09
-5.59835e-09
-1.03696e-09
-4.6182e-09
-9.80145e-10
-3.70174e-09
-9.16447e-10
-2.85575e-09
-8.45991e-10
-2.08679e-09
-7.68967e-10
-1.40115e-09
-6.85653e-10
-8.04691e-10
-5.96457e-10
-3.0273e-10
-5.01963e-10
1.00255e-10
-4.02994e-10
4.00963e-10
-3.00715e-10
5.97774e-10
-1.96807e-10
6.91552e-10
-9.37681e-11
6.86924e-10
4.62914e-12
5.94378e-10
9.25398e-11
4.33478e-10
1.60896e-10
2.38357e-10
1.95127e-10
6.69623e-11
1.71402e-10
6.69573e-11
1.71279e-10
-2.41615e-10
4.70811e-10
-4.70822e-10
7.58114e-10
-4.75956e-10
9.31444e-10
-3.21392e-10
9.20125e-10
-6.2965e-11
6.78858e-10
2.59075e-10
1.81232e-10
6.16695e-10
-5.85606e-10
9.9057e-10
-1.62491e-09
1.36739e-09
-2.93311e-09
1.73796e-09
-4.50179e-09
2.09591e-09
-6.3191e-09
2.43677e-09
-8.37078e-09
2.75741e-09
-1.06409e-08
3.05569e-09
-1.31122e-08
3.33016e-09
-1.57669e-08
3.57989e-09
-1.85865e-08
3.80433e-09
-2.15524e-08
4.00323e-09
-2.4646e-08
4.17659e-09
-2.78486e-08
4.32455e-09
-3.11419e-08
4.44743e-09
-3.45075e-08
4.54562e-09
-3.79278e-08
4.61963e-09
-4.13854e-08
4.67002e-09
-4.48632e-08
4.69742e-09
-4.83448e-08
4.7025e-09
-5.18142e-08
4.68595e-09
-5.52559e-08
4.6485e-09
-5.8655e-08
4.59091e-09
-6.19973e-08
4.51393e-09
-6.52688e-08
4.41837e-09
-6.84565e-08
4.30501e-09
-7.15478e-08
4.17468e-09
-7.45306e-08
4.02819e-09
-7.73936e-08
3.86635e-09
-8.01261e-08
3.69e-09
-8.27178e-08
3.49997e-09
-8.51593e-08
3.29709e-09
-8.74417e-08
3.0822e-09
-8.95566e-08
2.85615e-09
-9.14965e-08
2.6198e-09
-9.32543e-08
2.37402e-09
-9.48237e-08
2.11967e-09
-9.6199e-08
1.85762e-09
-9.73751e-08
1.58878e-09
-9.83477e-08
1.31403e-09
-9.91131e-08
1.03428e-09
-9.96683e-08
7.50451e-10
-1.00011e-07
4.63473e-10
-1.00139e-07
1.74296e-10
-1.00053e-07
-1.16111e-10
-9.97505e-08
-4.06781e-10
-9.92339e-08
-6.9673e-10
-9.85038e-08
-9.84949e-10
-9.75623e-08
-1.27043e-09
-9.64122e-08
-1.55214e-09
-9.50572e-08
-1.82904e-09
-9.35015e-08
-2.1001e-09
-9.17503e-08
-2.36425e-09
-8.98096e-08
-2.62043e-09
-8.76859e-08
-2.86756e-09
-8.53869e-08
-3.10457e-09
-8.29209e-08
-3.33039e-09
-8.02969e-08
-3.54395e-09
-7.75248e-08
-3.74417e-09
-7.46153e-08
-3.93001e-09
-7.15798e-08
-4.10045e-09
-6.84305e-08
-4.25443e-09
-6.51803e-08
-4.39095e-09
-6.18428e-08
-4.50902e-09
-5.84325e-08
-4.6077e-09
-5.49643e-08
-4.68607e-09
-5.14538e-08
-4.74326e-09
-4.79174e-08
-4.77844e-09
-4.43718e-08
-4.79085e-09
-4.08343e-08
-4.77978e-09
-3.73229e-08
-4.74456e-09
-3.38555e-08
-4.68465e-09
-3.04509e-08
-4.59955e-09
-2.71278e-08
-4.4889e-09
-2.39051e-08
-4.35242e-09
-2.0802e-08
-4.18996e-09
-1.78374e-08
-4.00154e-09
-1.50302e-08
-3.78733e-09
-1.23989e-08
-3.54773e-09
-9.96156e-09
-3.28338e-09
-7.73528e-09
-2.99525e-09
-5.7362e-09
-2.68472e-09
-3.97895e-09
-2.3537e-09
-2.47612e-09
-2.0048e-09
-1.23754e-09
-1.64158e-09
-2.69323e-10
-1.26894e-09
4.27556e-10
-8.93685e-10
8.59123e-10
-5.25336e-10
1.04113e-09
-1.77393e-10
1.00283e-09
1.30826e-10
7.9201e-10
3.71721e-10
4.80943e-10
5.062e-10
1.71292e-10
4.81049e-10
2.38245e-10
1.89322e-10
-4.3094e-10
4.78106e-10
-7.59591e-10
6.93605e-10
-6.91449e-10
7.13293e-10
-3.41086e-10
4.48388e-10
2.01929e-10
-1.61683e-10
8.69139e-10
-1.15483e-09
1.60984e-09
-2.55146e-09
2.38719e-09
-4.35863e-09
3.17456e-09
-6.57337e-09
3.95272e-09
-9.18521e-09
4.70776e-09
-1.21781e-08
5.42963e-09
-1.55318e-08
6.1111e-09
-1.92231e-08
6.747e-09
-2.32266e-08
7.3337e-09
-2.75155e-08
7.86877e-09
-3.20618e-08
8.35063e-09
-3.6837e-08
8.77844e-09
-4.18123e-08
9.15186e-09
-4.69588e-08
9.47101e-09
-5.22477e-08
9.7363e-09
-5.76505e-08
9.94847e-09
-6.31393e-08
1.01084e-08
-6.86866e-08
1.02173e-08
-7.42655e-08
1.02763e-08
-7.98498e-08
1.02868e-08
-8.54141e-08
1.02503e-08
-9.09338e-08
1.01682e-08
-9.63852e-08
1.00422e-08
-1.01745e-07
9.87395e-09
-1.06992e-07
9.66504e-09
-1.12104e-07
9.41723e-09
-1.17062e-07
9.13226e-09
-1.21845e-07
8.81189e-09
-1.26437e-07
8.45791e-09
-1.30819e-07
8.07211e-09
-1.34975e-07
7.65633e-09
-1.38891e-07
7.21236e-09
-1.42551e-07
6.74208e-09
-1.45942e-07
6.24734e-09
-1.49052e-07
5.73002e-09
-1.5187e-07
5.19201e-09
-1.54385e-07
4.63522e-09
-1.56589e-07
4.06159e-09
-1.58474e-07
3.47307e-09
-1.60031e-07
2.87165e-09
-1.61256e-07
2.2593e-09
-1.62144e-07
1.63807e-09
-1.62691e-07
1.01001e-09
-1.62893e-07
3.77191e-10
-1.62751e-07
-2.58263e-10
-1.62264e-07
-8.94204e-10
-1.61432e-07
-1.52847e-09
-1.60258e-07
-2.15888e-09
-1.58745e-07
-2.78319e-09
-1.56898e-07
-3.39916e-09
-1.54723e-07
-4.00452e-09
-1.52226e-07
-4.59698e-09
-1.49416e-07
-5.17422e-09
-1.46303e-07
-5.73393e-09
-1.42896e-07
-6.27376e-09
-1.3921e-07
-6.79138e-09
-1.35255e-07
-7.28444e-09
-1.31049e-07
-7.75063e-09
-1.26605e-07
-8.18763e-09
-1.21942e-07
-8.59316e-09
-1.17078e-07
-8.96495e-09
-1.12031e-07
-9.30079e-09
-1.06824e-07
-9.59852e-09
-1.01477e-07
-9.85601e-09
-9.60133e-08
-1.00712e-08
-9.04571e-08
-1.02422e-08
-8.48333e-08
-1.03671e-08
-7.91675e-08
-1.04442e-08
-7.34866e-08
-1.04718e-08
-6.78178e-08
-1.04485e-08
-6.21894e-08
-1.0373e-08
-5.663e-08
-1.02441e-08
-5.11687e-08
-1.00608e-08
-4.58352e-08
-9.82245e-09
-4.0659e-08
-9.52862e-09
-3.56698e-08
-9.17915e-09
-3.08971e-08
-8.77423e-09
-2.637e-08
-8.31448e-09
-2.21167e-08
-7.801e-09
-1.81646e-08
-7.23549e-09
-1.45395e-08
-6.62039e-09
-1.12651e-08
-5.95906e-09
-8.36279e-09
-5.25605e-09
-5.85012e-09
-4.51746e-09
-3.74025e-09
-3.75144e-09
-2.04031e-09
-2.96888e-09
-7.49583e-10
-2.18442e-09
1.42932e-10
-1.41785e-09
6.61641e-10
-6.96096e-10
8.48289e-10
-5.58166e-11
7.66763e-10
4.53249e-10
5.08138e-10
7.64816e-10
1.95586e-10
7.93591e-10
4.33833e-10
1.50418e-10
-5.8136e-10
3.28546e-10
-9.37718e-10
3.52072e-10
-7.14975e-10
9.03923e-11
-7.9395e-11
-5.52438e-10
8.44773e-10
-1.64386e-09
1.96055e-09
-3.22768e-09
3.19367e-09
-5.32868e-09
4.48818e-09
-7.95639e-09
5.80226e-09
-1.11083e-08
7.10465e-09
-1.47727e-08
8.37208e-09
-1.89303e-08
9.58725e-09
-2.35566e-08
1.07374e-08
-2.86227e-08
1.18131e-08
-3.40966e-08
1.28077e-08
-3.99442e-08
1.37164e-08
-4.61296e-08
1.4536e-08
-5.26158e-08
1.52647e-08
-5.93653e-08
1.59014e-08
-6.63403e-08
1.6446e-08
-7.3503e-08
1.6899e-08
-8.08158e-08
1.72613e-08
-8.82417e-08
1.75343e-08
-9.5744e-08
1.77197e-08
-1.03287e-07
1.78194e-08
-1.10836e-07
1.78357e-08
-1.18357e-07
1.7771e-08
-1.25816e-07
1.76277e-08
-1.33183e-07
1.74086e-08
-1.40425e-07
1.71164e-08
-1.47514e-07
1.6754e-08
-1.54421e-07
1.63242e-08
-1.61119e-07
1.583e-08
-1.67581e-07
1.52745e-08
-1.73784e-07
1.46607e-08
-1.79704e-07
1.39917e-08
-1.85318e-07
1.32707e-08
-1.90607e-07
1.25008e-08
-1.9555e-07
1.16852e-08
-2.0013e-07
1.08273e-08
-2.0433e-07
9.93007e-09
-2.08135e-07
8.99699e-09
-2.11531e-07
8.03136e-09
-2.14506e-07
7.03653e-09
-2.17049e-07
6.0159e-09
-2.1915e-07
4.97291e-09
-2.20802e-07
3.91106e-09
-2.21997e-07
2.83387e-09
-2.22732e-07
1.7449e-09
-2.23003e-07
6.47803e-10
-2.22807e-07
-4.53772e-10
-2.22145e-07
-1.5561e-09
-2.21019e-07
-2.6554e-09
-2.1943e-07
-3.74786e-09
-2.17383e-07
-4.82964e-09
-2.14885e-07
-5.89683e-09
-2.11944e-07
-6.94549e-09
-2.0857e-07
-7.97164e-09
-2.04773e-07
-8.97131e-09
-2.00566e-07
-9.94046e-09
-1.95965e-07
-1.08751e-08
-1.90985e-07
-1.17711e-08
-1.85645e-07
-1.26245e-08
-1.79965e-07
-1.34313e-08
-1.73965e-07
-1.41874e-08
-1.67669e-07
-1.48891e-08
-1.61101e-07
-1.55324e-08
-1.54289e-07
-1.61134e-08
-1.47259e-07
-1.66286e-08
-1.4004e-07
-1.70742e-08
-1.32665e-07
-1.74469e-08
-1.25164e-07
-1.77433e-08
-1.1757e-07
-1.79603e-08
-1.0992e-07
-1.8095e-08
-1.02247e-07
-1.81446e-08
-9.45888e-08
-1.81067e-08
-8.69827e-08
-1.79791e-08
-7.94668e-08
-1.776e-08
-7.20795e-08
-1.7448e-08
-6.486e-08
-1.7042e-08
-5.78473e-08
-1.65413e-08
-5.10804e-08
-1.59461e-08
-4.45978e-08
-1.52569e-08
-3.84372e-08
-1.4475e-08
-3.26355e-08
-1.36028e-08
-2.72275e-08
-1.26434e-08
-2.22463e-08
-1.16017e-08
-1.77217e-08
-1.04837e-08
-1.368e-08
-9.29769e-09
-1.01429e-08
-8.05462e-09
-7.12564e-09
-6.76869e-09
-4.63602e-09
-5.45849e-09
-2.67201e-09
-4.14844e-09
-1.21928e-09
-2.87058e-09
-2.48262e-10
-1.66711e-09
2.89524e-10
-5.93599e-10
4.65643e-10
2.77129e-10
3.79277e-10
8.51175e-10
1.63075e-10
1.00979e-09
5.96913e-10
7.9134e-11
-6.60498e-10
7.73205e-11
-9.35898e-10
-1.78441e-10
-4.59225e-10
-8.16049e-10
5.58197e-10
-1.93085e-09
1.95957e-09
-3.59104e-09
3.62074e-09
-5.84185e-09
5.44449e-09
-8.70933e-09
7.35568e-09
-1.22037e-08
9.29659e-09
-1.6322e-08
1.1223e-08
-2.10511e-08
1.31012e-08
-2.63692e-08
1.49054e-08
-3.22481e-08
1.66163e-08
-3.86544e-08
1.82194e-08
-4.55506e-08
1.97039e-08
-5.28964e-08
2.10621e-08
-6.06492e-08
2.22888e-08
-6.8765e-08
2.33804e-08
-7.71986e-08
2.4335e-08
-8.59046e-08
2.5152e-08
-9.48371e-08
2.58315e-08
-1.03951e-07
2.63748e-08
-1.132e-07
2.67836e-08
-1.2254e-07
2.70601e-08
-1.31928e-07
2.72073e-08
-1.41321e-07
2.72282e-08
-1.50676e-07
2.71262e-08
-1.59953e-07
2.69051e-08
-1.69113e-07
2.65688e-08
-1.78118e-07
2.61213e-08
-1.86931e-07
2.5567e-08
-1.95517e-07
2.49101e-08
-2.03842e-07
2.41552e-08
-2.11875e-07
2.33068e-08
-2.19584e-07
2.23696e-08
-2.2694e-07
2.13482e-08
-2.33917e-07
2.02474e-08
-2.40488e-07
1.90721e-08
-2.4663e-07
1.7827e-08
-2.5232e-07
1.65172e-08
-2.57537e-07
1.51476e-08
-2.62264e-07
1.37232e-08
-2.66481e-07
1.22492e-08
-2.70175e-07
1.07306e-08
-2.73332e-07
9.17274e-09
-2.7594e-07
7.58082e-09
-2.77989e-07
5.96019e-09
-2.79472e-07
4.31625e-09
-2.80381e-07
2.65448e-09
-2.80714e-07
9.80398e-10
-2.80467e-07
-7.00355e-10
-2.79641e-07
-2.3821e-09
-2.78238e-07
-4.05909e-09
-2.7626e-07
-5.72549e-09
-2.73714e-07
-7.3754e-09
-2.70608e-07
-9.00289e-09
-2.66952e-07
-1.0602e-08
-2.62757e-07
-1.21666e-08
-2.58037e-07
-1.36906e-08
-2.5281e-07
-1.51679e-08
-2.47093e-07
-1.65925e-08
-2.40905e-07
-1.79581e-08
-2.34271e-07
-1.92587e-08
-2.27214e-07
-2.04882e-08
-2.19761e-07
-2.16405e-08
-2.1194e-07
-2.27098e-08
-2.03783e-07
-2.36902e-08
-1.9532e-07
-2.45759e-08
-1.86587e-07
-2.53613e-08
-1.77621e-07
-2.60412e-08
-1.68457e-07
-2.66102e-08
-1.59137e-07
-2.70635e-08
-1.49701e-07
-2.73963e-08
-1.40192e-07
-2.76044e-08
-1.30652e-07
-2.76838e-08
-1.21128e-07
-2.76308e-08
-1.11665e-07
-2.74424e-08
-1.02309e-07
-2.7116e-08
-9.31073e-08
-2.66496e-08
-8.41076e-08
-2.60417e-08
-7.53571e-08
-2.52919e-08
-6.69028e-08
-2.44003e-08
-5.87913e-08
-2.33684e-08
-5.10679e-08
-2.21984e-08
-4.37764e-08
-2.08943e-08
-3.69583e-08
-1.94615e-08
-3.06525e-08
-1.79075e-08
-2.48941e-08
-1.62421e-08
-1.97136e-08
-1.44782e-08
-1.51356e-08
-1.26326e-08
-1.11778e-08
-1.07266e-08
-7.8485e-09
-8.78774e-09
-5.14555e-09
-6.85139e-09
-3.0533e-09
-4.96282e-09
-1.54019e-09
-3.18022e-09
-5.5558e-10
-1.57822e-09
-2.62282e-11
-2.52221e-10
1.47646e-10
6.77301e-10
9.76523e-11
1.05978e-09
6.94568e-10
-1.0026e-11
-6.50474e-10
-2.36639e-10
-7.09274e-10
-8.32283e-10
1.36425e-10
-1.91397e-09
1.63989e-09
-3.57045e-09
3.61603e-09
-5.86598e-09
5.91627e-09
-8.8435e-09
8.422e-09
-1.25276e-08
1.10398e-08
-1.69271e-08
1.36961e-08
-2.20378e-08
1.63337e-08
-2.78444e-08
1.89077e-08
-3.43225e-08
2.13835e-08
-4.14406e-08
2.37343e-08
-4.91611e-08
2.59399e-08
-5.74419e-08
2.79847e-08
-6.62375e-08
2.98577e-08
-7.54994e-08
3.15507e-08
-8.51775e-08
3.30584e-08
-9.522e-08
3.43776e-08
-1.05575e-07
3.55066e-08
-1.16189e-07
3.64456e-08
-1.27009e-07
3.71955e-08
-1.37984e-07
3.77585e-08
-1.49062e-07
3.81376e-08
-1.60191e-07
3.83361e-08
-1.71321e-07
3.83584e-08
-1.82404e-07
3.82091e-08
-1.93392e-07
3.7893e-08
-2.04239e-07
3.74156e-08
-2.149e-07
3.67825e-08
-2.25332e-07
3.59994e-08
-2.35495e-07
3.50725e-08
-2.45347e-07
3.40078e-08
-2.54852e-07
3.28118e-08
-2.63974e-07
3.1491e-08
-2.72677e-07
3.00518e-08
-2.80931e-07
2.8501e-08
-2.88704e-07
2.68453e-08
-2.95968e-07
2.50915e-08
-3.02698e-07
2.32467e-08
-3.08868e-07
2.13177e-08
-3.14457e-07
1.93117e-08
-3.19443e-07
1.72359e-08
-3.2381e-07
1.50975e-08
-3.27541e-07
1.29038e-08
-3.30623e-07
1.06624e-08
-3.33043e-07
8.38061e-09
-3.34793e-07
6.06618e-09
-3.35866e-07
3.7268e-09
-3.36255e-07
1.37028e-09
-3.3596e-07
-9.95474e-10
-3.3498e-07
-3.36244e-09
-3.33317e-07
-5.72251e-09
-3.30974e-07
-8.06749e-09
-3.27961e-07
-1.03891e-08
-3.24285e-07
-1.26789e-08
-3.19958e-07
-1.49286e-08
-3.14995e-07
-1.71296e-08
-3.09412e-07
-1.92734e-08
-3.03229e-07
-2.13514e-08
-2.96466e-07
-2.33551e-08
-2.89148e-07
-2.52757e-08
-2.81302e-07
-2.71049e-08
-2.72956e-07
-2.88341e-08
-2.64142e-07
-3.04549e-08
-2.54893e-07
-3.1959e-08
-2.45245e-07
-3.33383e-08
-2.35236e-07
-3.45848e-08
-2.24906e-07
-3.56908e-08
-2.14299e-07
-3.66487e-08
-2.03457e-07
-3.74514e-08
-1.92429e-07
-3.80922e-08
-1.8126e-07
-3.85645e-08
-1.70002e-07
-3.88625e-08
-1.58705e-07
-3.89808e-08
-1.47422e-07
-3.89145e-08
-1.36205e-07
-3.86594e-08
-1.25109e-07
-3.82123e-08
-1.14188e-07
-3.75704e-08
-1.03497e-07
-3.67323e-08
-9.30914e-08
-3.56975e-08
-8.3025e-08
-3.44667e-08
-7.33513e-08
-3.30421e-08
-6.41221e-08
-3.14276e-08
-5.53875e-08
-2.96289e-08
-4.71947e-08
-2.76543e-08
-3.95878e-08
-2.55144e-08
-3.26062e-08
-2.32237e-08
-2.62842e-08
-2.08002e-08
-2.06495e-08
-1.82672e-08
-1.57219e-08
-1.56542e-08
-1.15114e-08
-1.29982e-08
-8.01667e-09
-1.03461e-08
-5.22282e-09
-7.75667e-09
-3.09908e-09
-5.30396e-09
-1.59632e-09
-3.08098e-09
-6.44247e-10
-1.20429e-09
-1.48402e-10
1.8146e-10
1.36902e-11
8.97687e-10
7.08256e-10
-1.08392e-10
-5.4209e-10
-5.86991e-10
-2.30672e-10
-1.56234e-09
1.11177e-09
-3.13518e-09
3.21274e-09
-5.38325e-09
5.86411e-09
-8.36323e-09
8.89624e-09
-1.21128e-08
1.21715e-08
-1.66525e-08
1.55795e-08
-2.19884e-08
1.9032e-08
-2.81132e-08
2.24585e-08
-3.50089e-08
2.58035e-08
-4.26483e-08
2.90228e-08
-5.09961e-08
3.20822e-08
-6.00113e-08
3.4955e-08
-6.96473e-08
3.76207e-08
-7.98538e-08
4.00642e-08
-9.05773e-08
4.22743e-08
-1.01762e-07
4.42433e-08
-1.13351e-07
4.59663e-08
-1.25285e-07
4.74409e-08
-1.37506e-07
4.86664e-08
-1.49954e-07
4.96438e-08
-1.62571e-07
5.03754e-08
-1.75298e-07
5.08648e-08
-1.88078e-07
5.11162e-08
-2.00855e-07
5.11348e-08
-2.13572e-07
5.09266e-08
-2.26177e-07
5.04978e-08
-2.38617e-07
4.98554e-08
-2.50841e-07
4.90066e-08
-2.628e-07
4.7959e-08
-2.74448e-07
4.67204e-08
-2.8574e-07
4.52991e-08
-2.96631e-07
4.37033e-08
-3.07082e-07
4.19416e-08
-3.17053e-07
4.00227e-08
-3.26507e-07
3.79553e-08
-3.3541e-07
3.57485e-08
-3.4373e-07
3.34113e-08
-3.51436e-07
3.09529e-08
-3.58501e-07
2.83827e-08
-3.649e-07
2.57101e-08
-3.70608e-07
2.29446e-08
-3.75607e-07
2.0096e-08
-3.79877e-07
1.71739e-08
-3.83403e-07
1.41883e-08
-3.86172e-07
1.11493e-08
-3.88172e-07
8.06699e-09
-3.89397e-07
4.95163e-09
-3.89841e-07
1.81365e-09
-3.895e-07
-1.3364e-09
-3.88374e-07
-4.48784e-09
-3.86467e-07
-7.6299e-09
-3.83783e-07
-1.07517e-08
-3.8033e-07
-1.38421e-08
-3.76119e-07
-1.68901e-08
-3.71163e-07
-1.98844e-08
-3.65478e-07
-2.28139e-08
-3.59085e-07
-2.5667e-08
-3.52004e-07
-2.84325e-08
-3.4426e-07
-3.1099e-08
-3.3588e-07
-3.36552e-08
-3.26896e-07
-3.60897e-08
-3.17339e-07
-3.83912e-08
-3.07245e-07
-4.05488e-08
-2.96652e-07
-4.25514e-08
-2.85602e-07
-4.43883e-08
-2.74138e-07
-4.60491e-08
-2.62305e-07
-4.75235e-08
-2.50152e-07
-4.88018e-08
-2.37729e-07
-4.98746e-08
-2.25088e-07
-5.0733e-08
-2.12284e-07
-5.13686e-08
-1.99373e-07
-5.17738e-08
-1.86412e-07
-5.19416e-08
-1.73461e-07
-5.18659e-08
-1.60579e-07
-5.15414e-08
-1.47827e-07
-5.09638e-08
-1.35267e-07
-5.01302e-08
-1.22961e-07
-4.90388e-08
-1.10969e-07
-4.76893e-08
-9.93528e-08
-4.60831e-08
-8.81713e-08
-4.42236e-08
-7.74825e-08
-4.21164e-08
-6.73418e-08
-3.97695e-08
-5.78018e-08
-3.71943e-08
-4.89109e-08
-3.44053e-08
-4.07129e-08
-3.14217e-08
-3.32457e-08
-2.82674e-08
-2.654e-08
-2.49729e-08
-2.06183e-08
-2.15759e-08
-1.54931e-08
-1.81235e-08
-1.11652e-08
-1.46739e-08
-7.62248e-09
-1.12994e-08
-4.83722e-09
-8.08922e-09
-2.76481e-09
-5.15339e-09
-1.34152e-09
-2.62759e-09
-4.82582e-10
-6.77478e-10
-8.01041e-11
4.95209e-10
6.28149e-10
-2.10736e-10
-3.31354e-10
-9.56334e-10
5.14928e-10
-2.33576e-09
2.4912e-09
-4.43049e-09
5.30748e-09
-7.30426e-09
8.73789e-09
-1.10034e-08
1.25954e-08
-1.5558e-08
1.67261e-08
-2.09827e-08
2.10042e-08
-2.72786e-08
2.53279e-08
-3.44348e-08
2.96147e-08
-4.24293e-08
3.37981e-08
-5.12315e-08
3.78249e-08
-6.08024e-08
4.16532e-08
-7.1097e-08
4.52496e-08
-8.20648e-08
4.85885e-08
-9.3651e-08
5.16504e-08
-1.05797e-07
5.44207e-08
-1.18443e-07
5.68892e-08
-1.31526e-07
5.90491e-08
-1.44982e-07
6.08968e-08
-1.58747e-07
6.24308e-08
-1.72755e-07
6.3652e-08
-1.86942e-07
6.45627e-08
-2.01244e-07
6.51669e-08
-2.15598e-07
6.54699e-08
-2.29941e-07
6.54778e-08
-2.44212e-07
6.51978e-08
-2.58352e-07
6.46377e-08
-2.72303e-07
6.3806e-08
-2.86008e-07
6.27118e-08
-2.99414e-07
6.13646e-08
-3.12467e-07
5.97742e-08
-3.25119e-07
5.79509e-08
-3.37321e-07
5.59052e-08
-3.49027e-07
5.3648e-08
-3.60195e-07
5.11902e-08
-3.70783e-07
4.8543e-08
-3.80752e-07
4.57178e-08
-3.90067e-07
4.27263e-08
-3.98694e-07
3.95802e-08
-4.06603e-07
3.62913e-08
-4.13765e-07
3.28718e-08
-4.20154e-07
2.93337e-08
-4.25747e-07
2.56896e-08
-4.30525e-07
2.19518e-08
-4.3447e-07
1.8133e-08
-4.37567e-07
1.42462e-08
-4.39804e-07
1.03042e-08
-4.41173e-07
6.32027e-09
-4.41667e-07
2.30765e-09
-4.41283e-07
-1.72016e-09
-4.40021e-07
-5.74953e-09
-4.37884e-07
-9.76666e-09
-4.34879e-07
-1.37576e-08
-4.31012e-07
-1.77084e-08
-4.26298e-07
-2.16047e-08
-4.2075e-07
-2.54323e-08
-4.14387e-07
-2.91769e-08
-4.0723e-07
-3.28239e-08
-3.99304e-07
-3.63589e-08
-3.90635e-07
-3.97674e-08
-3.81255e-07
-4.30351e-08
-3.71198e-07
-4.61474e-08
-3.60498e-07
-4.90903e-08
-3.49198e-07
-5.18495e-08
-3.37338e-07
-5.44113e-08
-3.24964e-07
-5.6762e-08
-3.12125e-07
-5.88884e-08
-2.98871e-07
-6.07776e-08
-2.85255e-07
-6.24174e-08
-2.71334e-07
-6.37959e-08
-2.57165e-07
-6.4902e-08
-2.42808e-07
-6.57252e-08
-2.28326e-07
-6.62559e-08
-2.13782e-07
-6.64856e-08
-1.99241e-07
-6.64067e-08
-1.8477e-07
-6.60128e-08
-1.70435e-07
-6.52988e-08
-1.56304e-07
-6.42612e-08
-1.42445e-07
-6.28982e-08
-1.28924e-07
-6.12098e-08
-1.15809e-07
-5.91984e-08
-1.03164e-07
-5.68685e-08
-9.10527e-08
-5.42277e-08
-7.95355e-08
-5.12868e-08
-6.86695e-08
-4.80603e-08
-5.85076e-08
-4.45672e-08
-4.90976e-08
-4.08317e-08
-4.04811e-08
-3.68839e-08
-3.26924e-08
-3.27616e-08
-2.57571e-08
-2.85112e-08
-1.96912e-08
-2.41894e-08
-1.4499e-08
-1.9866e-08
-1.01725e-08
-1.56259e-08
-6.68934e-09
-1.15724e-08
-4.01164e-09
-7.83109e-09
-2.08498e-09
-4.55425e-09
-8.37285e-10
-1.92518e-09
-1.78373e-10
-1.63702e-10
4.4978e-10
-3.13945e-10
-1.74071e-11
-1.33338e-09
1.53437e-09
-3.13012e-09
4.28793e-09
-5.76508e-09
7.94244e-09
-9.28621e-09
1.2259e-08
-1.37277e-08
1.70369e-08
-1.91099e-08
2.21083e-08
-2.54403e-08
2.73346e-08
-3.27136e-08
3.26013e-08
-4.09137e-08
3.78148e-08
-5.00144e-08
4.28987e-08
-5.99804e-08
4.7791e-08
-7.0769e-08
5.24418e-08
-8.23311e-08
5.68117e-08
-9.46119e-08
6.08693e-08
-1.07552e-07
6.45909e-08
-1.2109e-07
6.79582e-08
-1.35159e-07
7.09584e-08
-1.49693e-07
7.35827e-08
-1.64622e-07
7.58258e-08
-1.79877e-07
7.76857e-08
-1.95387e-07
7.91627e-08
-2.11084e-07
8.02594e-08
-2.26897e-07
8.09802e-08
-2.42758e-07
8.13309e-08
-2.586e-07
8.1319e-08
-2.74355e-07
8.09529e-08
-2.89959e-07
8.02419e-08
-3.05349e-07
7.91962e-08
-3.20464e-07
7.78269e-08
-3.35245e-07
7.61454e-08
-3.49634e-07
7.41638e-08
-3.63578e-07
7.18946e-08
-3.77024e-07
6.93507e-08
-3.89921e-07
6.65453e-08
-4.02223e-07
6.34919e-08
-4.13884e-07
6.02045e-08
-4.24863e-07
5.66971e-08
-4.35121e-07
5.29838e-08
-4.4462e-07
4.90794e-08
-4.53327e-07
4.49983e-08
-4.61211e-07
4.07557e-08
-4.68244e-07
3.63665e-08
-4.744e-07
3.18462e-08
-4.79659e-07
2.72101e-08
-4.84e-07
2.2474e-08
-4.87407e-07
1.76537e-08
-4.89868e-07
1.27655e-08
-4.91374e-07
7.82546e-09
-4.91916e-07
2.85021e-09
-4.91493e-07
-2.1436e-09
-4.90103e-07
-7.1391e-09
-4.87751e-07
-1.21192e-08
-4.84442e-07
-1.70667e-08
-4.80186e-07
-2.19642e-08
-4.74996e-07
-2.67941e-08
-4.6889e-07
-3.15388e-08
-4.61886e-07
-3.61805e-08
-4.54009e-07
-4.07014e-08
-4.45284e-07
-4.50836e-08
-4.35742e-07
-4.93093e-08
-4.25417e-07
-5.33607e-08
-4.14344e-07
-5.72201e-08
-4.02564e-07
-6.08699e-08
-3.90121e-07
-6.42929e-08
-3.7706e-07
-6.7472e-08
-3.63432e-07
-7.03906e-08
-3.49288e-07
-7.30323e-08
-3.34684e-07
-7.53815e-08
-3.19678e-07
-7.7423e-08
-3.04332e-07
-7.91426e-08
-2.88707e-07
-8.05265e-08
-2.7287e-07
-8.15622e-08
-2.56888e-07
-8.22381e-08
-2.4083e-07
-8.25438e-08
-2.24766e-07
-8.24701e-08
-2.08769e-07
-8.20097e-08
-1.92911e-07
-8.11566e-08
-1.77266e-07
-7.99067e-08
-1.61906e-07
-7.82583e-08
-1.46904e-07
-7.62119e-08
-1.32332e-07
-7.37706e-08
-1.18259e-07
-7.09406e-08
-1.04755e-07
-6.77317e-08
-9.18848e-08
-6.41573e-08
-7.97094e-08
-6.02358e-08
-6.82863e-08
-5.59903e-08
-5.76673e-08
-5.14506e-08
-4.78981e-08
-4.66531e-08
-3.90169e-08
-4.16429e-08
-3.10533e-08
-3.64748e-08
-2.40273e-08
-3.12154e-08
-1.79483e-08
-2.59451e-08
-1.28135e-08
-2.07606e-08
-8.6077e-09
-1.57783e-08
-5.30157e-09
-1.11372e-08
-2.85183e-09
-7.00399e-09
-1.20096e-09
-3.57605e-09
-2.77884e-10
-1.08678e-09
1.71902e-10
-4.16194e-10
3.9879e-10
-1.71094e-09
2.82913e-09
-3.93035e-09
6.50734e-09
-7.1147e-09
1.11268e-08
-1.12953e-08
1.64396e-08
-1.64929e-08
2.22345e-08
-2.27172e-08
2.83326e-08
-2.99666e-08
3.4584e-08
-3.82288e-08
4.08635e-08
-4.74814e-08
4.70674e-08
-5.76928e-08
5.311e-08
-6.88229e-08
5.8921e-08
-8.08244e-08
6.44434e-08
-9.36438e-08
6.96311e-08
-1.07222e-07
7.44477e-08
-1.21496e-07
7.88648e-08
-1.36399e-07
8.28608e-08
-1.5186e-07
8.64198e-08
-1.67808e-07
8.95309e-08
-1.8417e-07
9.21875e-08
-2.00871e-07
9.43865e-08
-2.17836e-07
9.61278e-08
-2.3499e-07
9.7414e-08
-2.5226e-07
9.82499e-08
-2.69572e-07
9.86423e-08
-2.86852e-07
9.85996e-08
-3.04031e-07
9.81315e-08
-3.21038e-07
9.7249e-08
-3.37806e-07
9.59641e-08
-3.54269e-07
9.42898e-08
-3.70363e-07
9.22397e-08
-3.86027e-07
8.98282e-08
-4.01203e-07
8.70701e-08
-4.15833e-07
8.3981e-08
-4.29865e-07
8.05767e-08
-4.43246e-07
7.68734e-08
-4.55929e-07
7.28877e-08
-4.67869e-07
6.86366e-08
-4.79022e-07
6.41372e-08
-4.8935e-07
5.94071e-08
-4.98816e-07
5.4464e-08
-5.07386e-07
4.93258e-08
-5.1503e-07
4.40109e-08
-5.21722e-07
3.85377e-08
-5.27437e-07
3.2925e-08
-5.32154e-07
2.71916e-08
-5.35857e-07
2.13569e-08
-5.38532e-07
1.54402e-08
-5.40168e-07
9.46133e-09
-5.40758e-07
3.44008e-09
-5.40298e-07
-2.60334e-09
-5.38789e-07
-8.64854e-09
-5.36233e-07
-1.46749e-08
-5.32638e-07
-2.06617e-08
-5.28014e-07
-2.65878e-08
-5.22376e-07
-3.24322e-08
-5.15741e-07
-3.81735e-08
-5.08132e-07
-4.37904e-08
-4.99572e-07
-4.92613e-08
-4.9009e-07
-5.45647e-08
-4.7972e-07
-5.96793e-08
-4.68498e-07
-6.45835e-08
-4.56462e-07
-6.92561e-08
-4.43656e-07
-7.3676e-08
-4.30126e-07
-7.78225e-08
-4.15923e-07
-8.16751e-08
-4.011e-07
-8.52138e-08
-3.85713e-07
-8.84193e-08
-3.69822e-07
-9.12726e-08
-3.53489e-07
-9.37558e-08
-3.3678e-07
-9.58516e-08
-3.19762e-07
-9.75441e-08
-3.02506e-07
-9.88181e-08
-2.85085e-07
-9.96599e-08
-2.67571e-07
-1.00057e-07
-2.50042e-07
-9.99997e-08
-2.32573e-07
-9.94783e-08
-2.15243e-07
-9.84865e-08
-1.9813e-07
-9.70197e-08
-1.81312e-07
-9.50761e-08
-1.64868e-07
-9.26567e-08
-1.48873e-07
-8.97657e-08
-1.33402e-07
-8.6411e-08
-1.18529e-07
-8.26045e-08
-1.04324e-07
-7.83627e-08
-9.0852e-08
-7.37077e-08
-7.81752e-08
-6.86672e-08
-6.63496e-08
-6.32761e-08
-5.54252e-08
-5.75775e-08
-4.54445e-08
-5.16236e-08
-3.64418e-08
-4.54775e-08
-2.84422e-08
-3.92149e-08
-2.14609e-08
-3.29264e-08
-1.55019e-08
-2.67196e-08
-1.0558e-08
-2.07222e-08
-6.60989e-09
-1.50853e-08
-3.62665e-09
-9.98723e-09
-1.56617e-09
-5.63653e-09
-3.76723e-10
-2.27622e-09
-2.04818e-10
-5.16452e-10
9.15239e-10
-2.08452e-09
4.39721e-09
-4.72659e-09
9.14942e-09
-8.46284e-09
1.48631e-08
-1.33078e-08
2.12845e-08
-1.92682e-08
2.81949e-08
-2.63421e-08
3.54065e-08
-3.45181e-08
4.276e-08
-4.37758e-08
5.01212e-08
-5.40857e-08
5.73773e-08
-6.541e-08
6.44343e-08
-7.77031e-08
7.12142e-08
-9.0913e-08
7.76532e-08
-1.04981e-07
8.36993e-08
-1.19844e-07
8.93108e-08
-1.35434e-07
9.44551e-08
-1.5168e-07
9.91068e-08
-1.68508e-07
1.03247e-07
-1.85841e-07
1.06864e-07
-2.03602e-07
1.09948e-07
-2.21711e-07
1.12496e-07
-2.40089e-07
1.14506e-07
-2.58658e-07
1.15983e-07
-2.77338e-07
1.1693e-07
-2.96052e-07
1.17356e-07
-3.14721e-07
1.17269e-07
-3.33272e-07
1.16682e-07
-3.51629e-07
1.15606e-07
-3.69721e-07
1.14056e-07
-3.87478e-07
1.12047e-07
-4.04832e-07
1.09594e-07
-4.21719e-07
1.06714e-07
-4.38074e-07
1.03425e-07
-4.53838e-07
9.97453e-08
-4.68954e-07
9.56927e-08
-4.83367e-07
9.12867e-08
-4.97027e-07
8.65469e-08
-5.09883e-07
8.14932e-08
-5.21892e-07
7.61459e-08
-5.3301e-07
7.05257e-08
-5.432e-07
6.46535e-08
-5.52425e-07
5.85507e-08
-5.60653e-07
5.22389e-08
-5.67855e-07
4.57399e-08
-5.74006e-07
3.90759e-08
-5.79083e-07
3.22693e-08
-5.83069e-07
2.53429e-08
-5.85949e-07
1.83198e-08
-5.87711e-07
1.12232e-08
-5.88347e-07
4.07672e-09
-5.87855e-07
-3.09576e-09
-5.86233e-07
-1.02701e-08
-5.83486e-07
-1.7422e-08
-5.79621e-07
-2.45268e-08
-5.74649e-07
-3.15596e-08
-5.68586e-07
-3.84955e-08
-5.6145e-07
-4.53093e-08
-5.53265e-07
-5.19757e-08
-5.44057e-07
-5.84694e-08
-5.33857e-07
-6.47649e-08
-5.22699e-07
-7.08369e-08
-5.10622e-07
-7.66602e-08
-4.97669e-07
-8.22098e-08
-4.83884e-07
-8.74607e-08
-4.69318e-07
-9.23885e-08
-4.54024e-07
-9.69691e-08
-4.38059e-07
-1.01179e-07
-4.21482e-07
-1.04996e-07
-4.04358e-07
-1.08397e-07
-3.86752e-07
-1.11361e-07
-3.68735e-07
-1.13869e-07
-3.50378e-07
-1.15901e-07
-3.31756e-07
-1.1744e-07
-3.12946e-07
-1.1847e-07
-2.94027e-07
-1.18977e-07
-2.75079e-07
-1.18948e-07
-2.56184e-07
-1.18374e-07
-2.37424e-07
-1.17246e-07
-2.18882e-07
-1.15561e-07
-2.00642e-07
-1.13316e-07
-1.82787e-07
-1.10513e-07
-1.65396e-07
-1.07156e-07
-1.48551e-07
-1.03256e-07
-1.32328e-07
-9.88272e-08
-1.16802e-07
-9.38886e-08
-1.02044e-07
-8.84659e-08
-8.81194e-08
-8.25918e-08
-7.50892e-08
-7.63064e-08
-6.30079e-08
-6.96588e-08
-5.1923e-08
-6.27085e-08
-4.18741e-08
-5.55264e-08
-3.28923e-08
-4.81968e-08
-2.49991e-08
-4.08195e-08
-1.82065e-08
-3.35122e-08
-1.25162e-08
-2.64125e-08
-7.91978e-09
-1.96818e-08
-4.39928e-09
-1.35077e-08
-1.92826e-09
-8.10755e-09
-4.73793e-10
-3.73069e-09
-6.78614e-10
-6.14173e-10
1.52941e-09
-2.45147e-09
6.23451e-09
-5.5126e-09
1.22105e-08
-9.79868e-09
1.91491e-08
-1.53077e-08
2.67935e-08
-2.20322e-08
3.49194e-08
-2.9958e-08
4.33323e-08
-3.90635e-08
5.18656e-08
-4.93192e-08
6.0377e-08
-6.0688e-08
6.87461e-08
-7.31252e-08
7.68715e-08
-8.65793e-08
8.46683e-08
-1.00993e-07
9.20665e-08
-1.16302e-07
9.90084e-08
-1.32438e-07
1.05448e-07
-1.4933e-07
1.11347e-07
-1.66902e-07
1.16678e-07
-1.85074e-07
1.2142e-07
-2.03767e-07
1.25557e-07
-2.22898e-07
1.29079e-07
-2.42385e-07
1.31982e-07
-2.62143e-07
1.34264e-07
-2.82089e-07
1.35929e-07
-3.0214e-07
1.36981e-07
-3.22214e-07
1.3743e-07
-3.4223e-07
1.37285e-07
-3.62109e-07
1.3656e-07
-3.81771e-07
1.35269e-07
-4.01142e-07
1.33427e-07
-4.20147e-07
1.31052e-07
-4.38715e-07
1.28162e-07
-4.56777e-07
1.24776e-07
-4.74266e-07
1.20915e-07
-4.9112e-07
1.16599e-07
-5.07278e-07
1.1185e-07
-5.22681e-07
1.0669e-07
-5.37277e-07
1.01142e-07
-5.51013e-07
9.52291e-08
-5.63841e-07
8.89744e-08
-5.75718e-07
8.24021e-08
-5.86601e-07
7.55368e-08
-5.96453e-07
6.84031e-08
-6.05241e-07
6.10262e-08
-6.12932e-07
5.34316e-08
-6.19502e-07
4.56451e-08
-6.24925e-07
3.76927e-08
-6.29183e-07
2.96011e-08
-6.3226e-07
2.1397e-08
-6.34145e-07
1.31076e-08
-6.34828e-07
4.76034e-09
-6.34307e-07
-3.61702e-09
-6.32581e-07
-1.19964e-08
-6.29654e-07
-2.03494e-08
-6.25533e-07
-2.86474e-08
-6.20231e-07
-3.68615e-08
-6.13764e-07
-4.49626e-08
-6.06152e-07
-5.29215e-08
-5.97419e-07
-6.07088e-08
-5.87593e-07
-6.8295e-08