/*--------------------------------*- C++ -*----------------------------------*\
| =========                 |                                                 |
| \\      /  F ield         | OpenFOAM: The Open Source CFD Toolbox           |
|  \\    /   O peration     | Version:  2212                                  |
|   \\  /    A nd           | Website:  www.openfoam.com                      |
|    \\/     M anipulation  |                                                 |
\*---------------------------------------------------------------------------*/
FoamFile
{
    version     2.0;
    format      ascii;
    arch        "LSB;label=32;scalar=64";
    class       volVectorField;
    location    "0.0795";
    object      U_0;
}
// * * * * * * * * * * * * * * * * * * * * * * * * * * * * * * * * * * * * * //

dimensions      [0 1 -1 0 0 0 0];

internalField   nonuniform List<vector> 
10000
(
(2.98147e-06 -2.97157e-06 0)
(1.47889e-05 -7.64071e-06 0)
(3.35817e-05 -8.81854e-06 0)
(5.12453e-05 -7.60257e-06 0)
(6.28117e-05 -5.11882e-06 0)
(6.58744e-05 -2.01876e-06 0)
(5.91851e-05 1.33682e-06 0)
(4.2174e-05 4.74318e-06 0)
(1.47217e-05 8.08387e-06 0)
(-2.30014e-05 1.12924e-05 0)
(-7.06373e-05 1.43297e-05 0)
(-0.000127705 1.71725e-05 0)
(-0.00019364 1.98077e-05 0)
(-0.000267825 2.22283e-05 0)
(-0.000349609 2.44315e-05 0)
(-0.000438317 2.64171e-05 0)
(-0.000533268 2.81877e-05 0)
(-0.000633772 2.97453e-05 0)
(-0.000739147 3.10935e-05 0)
(-0.000848715 3.22363e-05 0)
(-0.000961806 3.3179e-05 0)
(-0.00107777 3.39283e-05 0)
(-0.00119596 3.44902e-05 0)
(-0.00131576 3.48705e-05 0)
(-0.00143655 3.50751e-05 0)
(-0.00155776 3.51098e-05 0)
(-0.0016788 3.49808e-05 0)
(-0.00179914 3.46945e-05 0)
(-0.00191824 3.42575e-05 0)
(-0.00203559 3.36763e-05 0)
(-0.00215071 3.29574e-05 0)
(-0.00226313 3.21066e-05 0)
(-0.0023724 3.11298e-05 0)
(-0.00247809 3.00331e-05 0)
(-0.00257981 2.88231e-05 0)
(-0.00267716 2.75065e-05 0)
(-0.00276979 2.60892e-05 0)
(-0.00285736 2.45774e-05 0)
(-0.00293956 2.29775e-05 0)
(-0.00301607 2.12959e-05 0)
(-0.00308663 1.95392e-05 0)
(-0.00315099 1.77127e-05 0)
(-0.00320892 1.58227e-05 0)
(-0.0032602 1.38761e-05 0)
(-0.00330466 1.1879e-05 0)
(-0.00334212 9.83783e-06 0)
(-0.00337246 7.75941e-06 0)
(-0.00339553 5.6496e-06 0)
(-0.00341127 3.51532e-06 0)
(-0.00341959 1.36455e-06 0)
(-0.00342045 -7.96288e-07 0)
(-0.00341383 -2.96053e-06 0)
(-0.00339974 -5.11999e-06 0)
(-0.0033782 -7.26757e-06 0)
(-0.00334927 -9.39689e-06 0)
(-0.00331303 -1.14999e-05 0)
(-0.00326959 -1.35685e-05 0)
(-0.00321909 -1.55955e-05 0)
(-0.00316167 -1.75728e-05 0)
(-0.00309755 -1.94918e-05 0)
(-0.00302692 -2.13448e-05 0)
(-0.00295004 -2.31246e-05 0)
(-0.00286718 -2.48225e-05 0)
(-0.00277863 -2.64299e-05 0)
(-0.00268473 -2.79392e-05 0)
(-0.00258583 -2.93421e-05 0)
(-0.00248231 -3.06302e-05 0)
(-0.00237458 -3.17959e-05 0)
(-0.00226308 -3.28322e-05 0)
(-0.00214827 -3.37308e-05 0)
(-0.00203065 -3.44829e-05 0)
(-0.00191071 -3.50814e-05 0)
(-0.001789 -3.55201e-05 0)
(-0.00166608 -3.57919e-05 0)
(-0.00154253 -3.58894e-05 0)
(-0.00141895 -3.58069e-05 0)
(-0.00129595 -3.55395e-05 0)
(-0.00117419 -3.50813e-05 0)
(-0.0010543 -3.44262e-05 0)
(-0.000936963 -3.35694e-05 0)
(-0.000822845 -3.25079e-05 0)
(-0.000712634 -3.1239e-05 0)
(-0.00060702 -2.97596e-05 0)
(-0.000506694 -2.80673e-05 0)
(-0.000412343 -2.61616e-05 0)
(-0.000324647 -2.4044e-05 0)
(-0.000244272 -2.17171e-05 0)
(-0.000171859 -1.91843e-05 0)
(-0.000108016 -1.64524e-05 0)
(-5.33048e-05 -1.35328e-05 0)
(-8.22056e-06 -1.04439e-05 0)
(2.68384e-05 -7.21354e-06 0)
(5.16109e-05 -3.88545e-06 0)
(6.60353e-05 -5.31499e-07 0)
(7.03497e-05 2.72648e-06 0)
(6.52522e-05 5.67935e-06 0)
(5.21232e-05 7.96563e-06 0)
(3.34853e-05 8.9437e-06 0)
(1.43607e-05 7.52802e-06 0)
(2.76312e-06 2.76317e-06 0)
(7.64552e-06 -1.47709e-05 0)
(3.09866e-05 -3.09624e-05 0)
(6.22753e-05 -3.30584e-05 0)
(8.72848e-05 -2.52124e-05 0)
(9.65931e-05 -1.12398e-05 0)
(8.47509e-05 6.27476e-06 0)
(4.84112e-05 2.56434e-05 0)
(-1.42742e-05 4.57631e-05 0)
(-0.000104029 6.59111e-05 0)
(-0.000220776 8.56107e-05 0)
(-0.00036388 0.000104542 0)
(-0.000532304 0.000122489 0)
(-0.000724733 0.000139308 0)
(-0.000939647 0.000154903 0)
(-0.00117539 0.00016921 0)
(-0.00143022 0.000182195 0)
(-0.00170232 0.000193838 0)
(-0.00198985 0.000204138 0)
(-0.00229096 0.000213098 0)
(-0.0026038 0.000220733 0)
(-0.00292652 0.000227063 0)
(-0.00325731 0.000232114 0)
(-0.00359439 0.000235916 0)
(-0.003936 0.000238501 0)
(-0.00428044 0.000239905 0)
(-0.00462605 0.000240162 0)
(-0.00497122 0.00023931 0)
(-0.0053144 0.000237389 0)
(-0.00565407 0.000234438 0)
(-0.00598879 0.000230498 0)
(-0.00631716 0.00022561 0)
(-0.00663785 0.000219815 0)
(-0.00694959 0.000213154 0)
(-0.00725114 0.00020567 0)
(-0.00754137 0.000197404 0)
(-0.00781916 0.000188399 0)
(-0.00808348 0.000178699 0)
(-0.00833336 0.000168345 0)
(-0.00856789 0.000157381 0)
(-0.0087862 0.00014585 0)
(-0.00898753 0.000133796 0)
(-0.00917113 0.000121262 0)
(-0.00933635 0.000108291 0)
(-0.00948258 9.49286e-05 0)
(-0.00960931 8.12195e-05 0)
(-0.00971606 6.72083e-05 0)
(-0.00980242 5.29409e-05 0)
(-0.00986807 3.84645e-05 0)
(-0.00991275 2.38258e-05 0)
(-0.00993624 9.07296e-06 0)
(-0.00993844 -5.74416e-06 0)
(-0.00991928 -2.05764e-05 0)
(-0.00987878 -3.53743e-05 0)
(-0.00981703 -5.00867e-05 0)
(-0.00973421 -6.46621e-05 0)
(-0.00963053 -7.9049e-05 0)
(-0.00950633 -9.31944e-05 0)
(-0.009362 -0.000107045 0)
(-0.00919799 -0.000120546 0)
(-0.00901486 -0.000133644 0)
(-0.00881323 -0.000146283 0)
(-0.00859382 -0.00015841 0)
(-0.00835739 -0.000169969 0)
(-0.00810481 -0.000180904 0)
(-0.00783702 -0.000191161 0)
(-0.00755505 -0.000200686 0)
(-0.00725997 -0.000209425 0)
(-0.00695296 -0.000217324 0)
(-0.00663527 -0.000224332 0)
(-0.00630821 -0.000230399 0)
(-0.00597317 -0.000235473 0)
(-0.0056316 -0.000239507 0)
(-0.00528503 -0.000242455 0)
(-0.00493504 -0.000244273 0)
(-0.00458327 -0.000244921 0)
(-0.00423141 -0.000244362 0)
(-0.0038812 -0.000242559 0)
(-0.00353444 -0.000239483 0)
(-0.00319295 -0.000235103 0)
(-0.00285858 -0.000229398 0)
(-0.00253321 -0.00022235 0)
(-0.00221873 -0.000213948 0)
(-0.00191703 -0.000204188 0)
(-0.00163 -0.000193073 0)
(-0.0013595 -0.000180618 0)
(-0.00110735 -0.000166847 0)
(-0.0008753 -0.000151803 0)
(-0.00066502 -0.000135545 0)
(-0.000478047 -0.00011816 0)
(-0.000315751 -9.97689e-05 0)
(-0.00017927 -8.05424e-05 0)
(-6.94276e-05 -6.07207e-05 0)
(1.33801e-05 -4.06466e-05 0)
(6.93438e-05 -2.08194e-05 0)
(9.94705e-05 -1.97814e-06 0)
(0.000105896 1.47683e-05 0)
(9.2242e-05 2.77501e-05 0)
(6.41728e-05 3.44472e-05 0)
(3.12169e-05 3.12134e-05 0)
(7.52019e-06 1.43492e-05 0)
(8.84487e-06 -3.35859e-05 0)
(3.32096e-05 -6.22893e-05 0)
(6.10765e-05 -6.07964e-05 0)
(7.5442e-05 -3.78596e-05 0)
(6.49347e-05 -6.11051e-07 0)
(2.24885e-05 4.56289e-05 0)
(-5.65645e-05 9.70308e-05 0)
(-0.00017501 0.000150891 0)
(-0.00033412 0.000205306 0)
(-0.000534022 0.000258938 0)
(-0.000773991 0.000310839 0)
(-0.00105267 0.00036034 0)
(-0.00136821 0.000406969 0)
(-0.00171846 0.000450396 0)
(-0.00210096 0.000490394 0)
(-0.00251312 0.000526815 0)
(-0.00295221 0.00055957 0)
(-0.00341541 0.000588616 0)
(-0.00389988 0.000613943 0)
(-0.00440274 0.000635569 0)
(-0.00492113 0.000653532 0)
(-0.00545222 0.000667889 0)
(-0.00599319 0.000678709 0)
(-0.0065413 0.000686073 0)
(-0.00709384 0.00069007 0)
(-0.00764819 0.000690797 0)
(-0.00820179 0.000688353 0)
(-0.00875215 0.000682846 0)
(-0.00929688 0.000674383 0)
(-0.00983365 0.000663078 0)
(-0.0103603 0.000649045 0)
(-0.0108745 0.0006324 0)
(-0.0113744 0.000613262 0)
(-0.011858 0.000591749 0)
(-0.0123235 0.000567982 0)
(-0.012769 0.000542082 0)
(-0.0131928 0.000514172 0)
(-0.0135935 0.000484375 0)
(-0.0139696 0.000452814 0)
(-0.0143197 0.000419615 0)
(-0.0146425 0.000384904 0)
(-0.0149368 0.000348806 0)
(-0.0152016 0.00031145 0)
(-0.015436 0.000272964 0)
(-0.0156391 0.000233477 0)
(-0.01581 0.000193124 0)
(-0.0159483 0.000152037 0)
(-0.0160533 0.000110349 0)
(-0.0161247 6.82013e-05 0)
(-0.0161621 2.5731e-05 0)
(-0.0161653 -1.6921e-05 0)
(-0.0161343 -5.96104e-05 0)
(-0.016069 -0.000102192 0)
(-0.0159697 -0.00014452 0)
(-0.0158366 -0.000186445 0)
(-0.0156701 -0.000227817 0)
(-0.0154706 -0.000268483 0)
(-0.015239 -0.00030829 0)
(-0.0149758 -0.000347083 0)
(-0.014682 -0.000384705 0)
(-0.0143586 -0.000420999 0)
(-0.0140067 -0.000455809 0)
(-0.0136276 -0.000488976 0)
(-0.0132227 -0.000520343 0)
(-0.0127934 -0.000549755 0)
(-0.0123415 -0.000577056 0)
(-0.0118686 -0.000602094 0)
(-0.0113766 -0.000624718 0)
(-0.0108676 -0.000644782 0)
(-0.0103437 -0.000662142 0)
(-0.00980692 -0.000676659 0)
(-0.00925975 -0.000688198 0)
(-0.00870457 -0.000696632 0)
(-0.00814389 -0.000701842 0)
(-0.00758032 -0.000703716 0)
(-0.00701654 -0.00070215 0)
(-0.00645532 -0.000697051 0)
(-0.00589946 -0.000688338 0)
(-0.00535185 -0.000675941 0)
(-0.0048154 -0.000659806 0)
(-0.00429304 -0.000639896 0)
(-0.00378774 -0.000616192 0)
(-0.00330242 -0.000588702 0)
(-0.00284001 -0.000557455 0)
(-0.00240336 -0.000522515 0)
(-0.00199525 -0.000483984 0)
(-0.00161832 -0.000442012 0)
(-0.00127505 -0.000396811 0)
(-0.000967709 -0.000348672 0)
(-0.000698247 -0.000297991 0)
(-0.000468233 -0.000245304 0)
(-0.00027872 -0.000191342 0)
(-0.000130084 -0.000137108 0)
(-2.18189e-05 -8.39856e-05 0)
(4.77426e-05 -3.39023e-05 0)
(8.17813e-05 1.04422e-05 0)
(8.53285e-05 4.52836e-05 0)
(6.57331e-05 6.54637e-05 0)
(3.457e-05 6.41948e-05 0)
(8.9536e-06 3.34751e-05 0)
(7.69563e-06 -5.13879e-05 0)
(2.56706e-05 -8.75763e-05 0)
(3.88229e-05 -7.53055e-05 0)
(2.98266e-05 -2.86122e-05 0)
(-1.32428e-05 4.18516e-05 0)
(-9.8187e-05 0.000127868 0)
(-0.000230334 0.000223241 0)
(-0.000412984 0.000323394 0)
(-0.000647751 0.000424961 0)
(-0.000934905 0.000525479 0)
(-0.00127367 0.000623139 0)
(-0.00166247 0.000716623 0)
(-0.00209908 0.000804969 0)
(-0.00258082 0.000887485 0)
(-0.00310466 0.00096368 0)
(-0.00366729 0.00103322 0)
(-0.00426521 0.00109588 0)
(-0.0048948 0.00115153 0)
(-0.00555237 0.00120013 0)
(-0.00623416 0.00124167 0)
(-0.00693642 0.00127621 0)
(-0.0076554 0.00130383 0)
(-0.0083874 0.00132464 0)
(-0.00912877 0.00133879 0)
(-0.00987591 0.00134643 0)
(-0.0106253 0.00134774 0)
(-0.0113736 0.0013429 0)
(-0.0121174 0.00133211 0)
(-0.0128535 0.00131558 0)
(-0.0135788 0.00129352 0)
(-0.0142903 0.00126614 0)
(-0.0149851 0.00123367 0)
(-0.0156605 0.00119634 0)
(-0.0163138 0.00115437 0)
(-0.0169425 0.00110801 0)
(-0.0175443 0.00105747 0)
(-0.0181169 0.00100301 0)
(-0.0186581 0.000944863 0)
(-0.019166 0.000883267 0)
(-0.0196388 0.000818469 0)
(-0.0200747 0.000750714 0)
(-0.0204722 0.00068025 0)
(-0.0208297 0.000607329 0)
(-0.0211461 0.000532202 0)
(-0.0214202 0.000455126 0)
(-0.0216508 0.000376358 0)
(-0.0218373 0.000296162 0)
(-0.0219789 0.000214802 0)
(-0.022075 0.000132549 0)
(-0.0221251 4.96745e-05 0)
(-0.0221292 -3.35441e-05 0)
(-0.0220869 -0.000116828 0)
(-0.0219984 -0.000199892 0)
(-0.0218639 -0.000282448 0)
(-0.0216838 -0.000364208 0)
(-0.0214586 -0.000444875 0)
(-0.021189 -0.000524153 0)
(-0.0208758 -0.000601742 0)
(-0.0205202 -0.000677341 0)
(-0.0201232 -0.000750644 0)
(-0.0196863 -0.000821348 0)
(-0.019211 -0.000889145 0)
(-0.018699 -0.000953731 0)
(-0.0181522 -0.0010148 0)
(-0.0175726 -0.00107205 0)
(-0.0169624 -0.00112519 0)
(-0.016324 -0.00117391 0)
(-0.0156599 -0.00121794 0)
(-0.0149728 -0.00125697 0)
(-0.0142654 -0.00129075 0)
(-0.0135409 -0.00131901 0)
(-0.0128022 -0.00134148 0)
(-0.0120527 -0.00135794 0)
(-0.0112957 -0.00136815 0)
(-0.0105346 -0.00137189 0)
(-0.00977314 -0.001369 0)
(-0.00901488 -0.00135928 0)
(-0.00826361 -0.00134259 0)
(-0.00752312 -0.00131882 0)
(-0.00679729 -0.00128787 0)
(-0.00608999 -0.00124969 0)
(-0.00540509 -0.00120427 0)
(-0.00474646 -0.00115163 0)
(-0.00411789 -0.00109188 0)
(-0.0035231 -0.00102516 0)
(-0.00296565 -0.0009517 0)
(-0.00244894 -0.00087184 0)
(-0.00197612 -0.000786029 0)
(-0.00155 -0.000694879 0)
(-0.001173 -0.000599201 0)
(-0.000846982 -0.000500069 0)
(-0.000573164 -0.000398911 0)
(-0.00035189 -0.000297624 0)
(-0.000182427 -0.000198744 0)
(-6.26839e-05 -0.000105667 0)
(1.11151e-05 -2.29497e-05 0)
(4.47373e-05 4.33315e-05 0)
(4.63425e-05 8.52185e-05 0)
(2.8202e-05 9.25499e-05 0)
(8.03848e-06 5.22234e-05 0)
(5.31622e-06 -6.33029e-05 0)
(1.21513e-05 -9.75801e-05 0)
(2.55032e-06 -6.54321e-05 0)
(-3.912e-05 1.4204e-05 0)
(-0.000124277 0.00012727 0)
(-0.000260835 0.000262745 0)
(-0.000454273 0.000412091 0)
(-0.000708036 0.0005688 0)
(-0.00102384 0.000727941 0)
(-0.00140197 0.000885788 0)
(-0.00184157 0.00103953 0)
(-0.00234085 0.00118707 0)
(-0.00289728 0.00132683 0)
(-0.00350778 0.00145764 0)
(-0.0041688 0.00157867 0)
(-0.00487646 0.00168931 0)
(-0.00562662 0.00178916 0)
(-0.00641498 0.00187795 0)
(-0.0072371 0.00195557 0)
(-0.00808847 0.00202196 0)
(-0.00896456 0.00207718 0)
(-0.00986083 0.00212133 0)
(-0.0107728 0.00215458 0)
(-0.0116959 0.00217711 0)
(-0.0126259 0.00218916 0)
(-0.0135584 0.00219101 0)
(-0.0144893 0.00218293 0)
(-0.0154144 0.00216524 0)
(-0.0163298 0.00213825 0)
(-0.0172316 0.0021023 0)
(-0.0181161 0.00205774 0)
(-0.0189799 0.00200492 0)
(-0.0198194 0.00194421 0)
(-0.0206314 0.00187597 0)
(-0.0214128 0.00180058 0)
(-0.0221607 0.00171842 0)
(-0.0228722 0.00162987 0)
(-0.0235448 0.00153533 0)
(-0.0241759 0.00143518 0)
(-0.0247632 0.00132983 0)
(-0.0253048 0.00121966 0)
(-0.0257985 0.0011051 0)
(-0.0262426 0.000986533 0)
(-0.0266354 0.000864387 0)
(-0.0269757 0.000739076 0)
(-0.0272621 0.000611021 0)
(-0.0274935 0.000480651 0)
(-0.027669 0.000348399 0)
(-0.0277881 0.000214704 0)
(-0.0278501 8.001e-05 0)
(-0.0278547 -5.52314e-05 0)
(-0.0278018 -0.000190564 0)
(-0.0276915 -0.000325526 0)
(-0.0275241 -0.00045965 0)
(-0.0273 -0.000592462 0)
(-0.0270199 -0.000723485 0)
(-0.0266846 -0.000852234 0)
(-0.0262953 -0.000978225 0)
(-0.0258533 -0.00110097 0)
(-0.02536 -0.00121997 0)
(-0.0248171 -0.00133473 0)
(-0.0242265 -0.00144476 0)
(-0.0235904 -0.00154957 0)
(-0.0229111 -0.00164867 0)
(-0.0221912 -0.00174156 0)
(-0.0214332 -0.00182777 0)
(-0.0206402 -0.00190682 0)
(-0.0198153 -0.00197825 0)
(-0.0189618 -0.00204161 0)
(-0.0180831 -0.00209645 0)
(-0.0171831 -0.00214235 0)
(-0.0162653 -0.00217891 0)
(-0.015334 -0.00220575 0)
(-0.0143932 -0.0022225 0)
(-0.0134472 -0.00222885 0)
(-0.0125003 -0.00222449 0)
(-0.0115572 -0.00220915 0)
(-0.0106223 -0.00218263 0)
(-0.00970028 -0.00214475 0)
(-0.00879589 -0.00209538 0)
(-0.00791381 -0.00203446 0)
(-0.00705875 -0.001962 0)
(-0.00623536 -0.00187808 0)
(-0.0054482 -0.00178288 0)
(-0.00470172 -0.00167669 0)
(-0.00400017 -0.00155992 0)
(-0.00334757 -0.00143317 0)
(-0.00274761 -0.00129721 0)
(-0.00220359 -0.00115307 0)
(-0.00171829 -0.00100209 0)
(-0.00129384 -0.000846003 0)
(-0.000931595 -0.000687087 0)
(-0.000631932 -0.000528277 0)
(-0.000394034 -0.000373395 0)
(-0.000215642 -0.000227415 0)
(-9.27657e-05 -9.68043e-05 0)
(-1.9408e-05 1.00595e-05 0)
(1.2793e-05 8.24878e-05 0)
(1.57702e-05 0.000107008 0)
(5.86437e-06 6.5696e-05 0)
(2.34517e-06 -6.69951e-05 0)
(-4.83441e-06 -8.69535e-05 0)
(-4.26085e-05 -2.41943e-05 0)
(-0.000123547 9.8346e-05 0)
(-0.000257757 0.000263563 0)
(-0.000452777 0.000457848 0)
(-0.000713839 0.000670451 0)
(-0.00104421 0.000892981 0)
(-0.00144547 0.00111893 0)
(-0.00191779 0.00134325 0)
(-0.00246013 0.00156207 0)
(-0.00307049 0.00177239 0)
(-0.00374603 0.00197196 0)
(-0.0044833 0.00215906 0)
(-0.00527833 0.00233242 0)
(-0.00612672 0.0024911 0)
(-0.0070238 0.00263445 0)
(-0.00796466 0.00276206 0)
(-0.00894423 0.00287368 0)
(-0.00995734 0.00296919 0)
(-0.0109988 0.00304863 0)
(-0.0120633 0.0031121 0)
(-0.0131457 0.0031598 0)
(-0.0142407 0.00319199 0)
(-0.0153434 0.00320899 0)
(-0.0164486 0.00321116 0)
(-0.0175515 0.0031989 0)
(-0.0186473 0.00317264 0)
(-0.0197313 0.00313283 0)
(-0.0207991 0.00307994 0)
(-0.0218462 0.00301449 0)
(-0.0228686 0.00293697 0)
(-0.0238622 0.00284791 0)
(-0.0248231 0.00274785 0)
(-0.0257477 0.00263732 0)
(-0.0266326 0.00251689 0)
(-0.0274743 0.00238711 0)
(-0.0282699 0.00224855 0)
(-0.0290164 0.00210178 0)
(-0.0297112 0.00194738 0)
(-0.0303516 0.00178595 0)
(-0.0309354 0.00161807 0)
(-0.0314605 0.00144433 0)
(-0.031925 0.00126536 0)
(-0.0323272 0.00108176 0)
(-0.0326656 0.000894143 0)
(-0.032939 0.00070315 0)
(-0.0331463 0.000509411 0)
(-0.0332867 0.000313572 0)
(-0.0333597 0.000116286 0)
(-0.0333648 -8.17865e-05 0)
(-0.033302 -0.000279977 0)
(-0.0331712 -0.000477606 0)
(-0.0329729 -0.000673989 0)
(-0.0327076 -0.000868434 0)
(-0.032376 -0.00106024 0)
(-0.0319793 -0.0012487 0)
(-0.0315187 -0.0014331 0)
(-0.0309957 -0.00161273 0)
(-0.0304122 -0.00178687 0)
(-0.02977 -0.0019548 0)
(-0.0290716 -0.0021158 0)
(-0.0283193 -0.00226915 0)
(-0.0275159 -0.00241413 0)
(-0.0266644 -0.00255004 0)
(-0.025768 -0.00267617 0)
(-0.0248302 -0.00279185 0)
(-0.0238546 -0.0028964 0)
(-0.0228451 -0.00298917 0)
(-0.0218057 -0.00306952 0)
(-0.0207409 -0.00313684 0)
(-0.0196551 -0.00319056 0)
(-0.018553 -0.00323012 0)
(-0.0174393 -0.00325503 0)
(-0.0163192 -0.00326481 0)
(-0.0151977 -0.00325906 0)
(-0.0140801 -0.0032374 0)
(-0.0129717 -0.00319954 0)
(-0.0118778 -0.00314526 0)
(-0.0108041 -0.00307439 0)
(-0.00975579 -0.00298688 0)
(-0.00873842 -0.00288278 0)
(-0.00775733 -0.00276225 0)
(-0.00681775 -0.00262558 0)
(-0.00592476 -0.00247325 0)
(-0.00508322 -0.00230591 0)
(-0.00429767 -0.00212445 0)
(-0.0035723 -0.00193006 0)
(-0.0029108 -0.00172425 0)
(-0.0023163 -0.001509 0)
(-0.00179118 -0.0012868 0)
(-0.001337 -0.00106085 0)
(-0.000954236 -0.000835202 0)
(-0.000642157 -0.000615034 0)
(-0.000398567 -0.000406911 0)
(-0.000219584 -0.000219177 0)
(-9.93809e-05 -6.23966e-05 0)
(-2.98671e-05 5.01977e-05 0)
(-2.4212e-07 0.000102132 0)
(3.06706e-06 7.14866e-05 0)
(-8.7363e-07 -6.12379e-05 0)
(-2.36919e-05 -5.23379e-05 0)
(-9.30729e-05 5.31655e-05 0)
(-0.000217724 0.000229332 0)
(-0.000405892 0.000456511 0)
(-0.00066436 0.000718825 0)
(-0.000997785 0.00100351 0)
(-0.00140899 0.00130041 0)
(-0.00189922 0.0016015 0)
(-0.00246836 0.00190042 0)
(-0.00311511 0.00219219 0)
(-0.00383718 0.00247292 0)
(-0.00463143 0.00273958 0)
(-0.00549403 0.00298986 0)
(-0.0064206 0.003222 0)
(-0.00740633 0.00343468 0)
(-0.00844603 0.00362698 0)
(-0.00953427 0.00379826 0)
(-0.0106654 0.00394812 0)
(-0.0118337 0.00407638 0)
(-0.0130334 0.00418299 0)
(-0.0142584 0.00426808 0)
(-0.0155031 0.00433186 0)
(-0.0167616 0.00437466 0)
(-0.0180281 0.00439688 0)
(-0.0192971 0.00439897 0)
(-0.0205628 0.00438145 0)
(-0.02182 0.00434489 0)
(-0.0230634 0.00428988 0)
(-0.0242878 0.00421708 0)
(-0.0254883 0.00412713 0)
(-0.0266603 0.00402072 0)
(-0.027799 0.00389857 0)
(-0.0289002 0.00376138 0)
(-0.0299596 0.00360991 0)
(-0.0309733 0.0034449 0)
(-0.0319376 0.00326711 0)
(-0.0328489 0.00307732 0)
(-0.0337039 0.0028763 0)
(-0.0344995 0.00266486 0)
(-0.0352328 0.00244379 0)
(-0.0359013 0.00221391 0)
(-0.0365025 0.00197603 0)
(-0.0370342 0.00173099 0)
(-0.0374945 0.00147963 0)
(-0.0378818 0.00122279 0)
(-0.0381946 0.000961343 0)
(-0.0384317 0.000696154 0)
(-0.0385922 0.000428109 0)
(-0.0386755 0.000158101 0)
(-0.038681 -0.000112963 0)
(-0.0386088 -0.000384168 0)
(-0.0384588 -0.000654585 0)
(-0.0382314 -0.000923277 0)
(-0.0379274 -0.0011893 0)
(-0.0375476 -0.00145169 0)
(-0.0370931 -0.00170948 0)
(-0.0365656 -0.00196171 0)
(-0.0359667 -0.0022074 0)
(-0.0352984 -0.00244556 0)
(-0.0345631 -0.00267523 0)
(-0.0337632 -0.0028954 0)
(-0.0329018 -0.00310512 0)
(-0.0319818 -0.00330341 0)
(-0.0310068 -0.0034893 0)
(-0.0299803 -0.00366185 0)
(-0.0289062 -0.00382014 0)
(-0.0277888 -0.00396325 0)
(-0.0266324 -0.00409029 0)
(-0.0254418 -0.00420042 0)
(-0.0242217 -0.00429282 0)
(-0.0229773 -0.00436671 0)
(-0.0217139 -0.00442136 0)
(-0.020437 -0.0044561 0)
(-0.0191522 -0.00447031 0)
(-0.0178652 -0.00446345 0)
(-0.0165821 -0.00443505 0)
(-0.0153088 -0.00438472 0)
(-0.0140514 -0.00431219 0)
(-0.0128159 -0.00421729 0)
(-0.0116086 -0.00409997 0)
(-0.0104355 -0.00396033 0)
(-0.00930248 -0.00379863 0)
(-0.00821549 -0.00361533 0)
(-0.00718015 -0.00341112 0)
(-0.00620182 -0.00318692 0)
(-0.00528557 -0.00294401 0)
(-0.00443598 -0.00268402 0)
(-0.00365716 -0.00240902 0)
(-0.00295256 -0.00212166 0)
(-0.00232485 -0.00182527 0)
(-0.00177584 -0.00152401 0)
(-0.00130624 -0.0012231 0)
(-0.000915537 -0.000929052 0)
(-0.00060182 -0.00064998 0)
(-0.00036158 -0.000396002 0)
(-0.000189476 -0.000179691 0)
(-7.80654e-05 -1.65356e-05 0)
(-1.82356e-05 7.44478e-05 0)
(-4.25969e-09 6.83015e-05 0)
(-4.15346e-06 -4.54312e-05 0)
(-4.34227e-05 8.25602e-06 0)
(-0.000146416 0.00016972 0)
(-0.000317594 0.000410918 0)
(-0.000562999 0.000710188 0)
(-0.000888388 0.00104975 0)
(-0.00129759 0.00141508 0)
(-0.00179275 0.00179442 0)
(-0.00237461 0.00217832 0)
(-0.00304264 0.00255917 0)
(-0.00379515 0.00293091 0)
(-0.0046295 0.00328873 0)
(-0.00554219 0.00362884 0)
(-0.00652904 0.00394827 0)
(-0.00758525 0.00424475 0)
(-0.00870559 0.00451655 0)
(-0.00988443 0.00476242 0)
(-0.0111159 0.00498148 0)
(-0.0123937 0.00517316 0)
(-0.0137118 0.00533715 0)
(-0.0150636 0.00547337 0)
(-0.0164427 0.0055819 0)
(-0.0178428 0.005663 0)
(-0.0192575 0.00571702 0)
(-0.0206803 0.00574444 0)
(-0.0221051 0.00574584 0)
(-0.0235258 0.00572186 0)
(-0.0249364 0.0056732 0)
(-0.0263309 0.00560062 0)
(-0.0277039 0.00550494 0)
(-0.0290498 0.00538698 0)
(-0.0303633 0.00524765 0)
(-0.0316393 0.00508783 0)
(-0.0328731 0.00490846 0)
(-0.0340599 0.0047105 0)
(-0.0351954 0.00449492 0)
(-0.0362754 0.0042627 0)
(-0.0372959 0.00401485 0)
(-0.0382532 0.00375238 0)
(-0.0391439 0.00347633 0)
(-0.0399649 0.00318774 0)
(-0.0407132 0.00288768 0)
(-0.041386 0.0025772 0)
(-0.0419811 0.0022574 0)
(-0.0424962 0.00192937 0)
(-0.0429295 0.00159422 0)
(-0.0432794 0.00125307 0)
(-0.0435446 0.00090707 0)
(-0.0437241 0.000557364 0)
(-0.0438171 0.000205121 0)
(-0.0438231 -0.000148478 0)
(-0.043742 -0.000502236 0)
(-0.0435739 -0.000854946 0)
(-0.0433193 -0.00120538 0)
(-0.0429788 -0.00155232 0)
(-0.0425536 -0.0018945 0)
(-0.0420448 -0.00223067 0)
(-0.0414543 -0.00255958 0)
(-0.0407838 -0.00287994 0)
(-0.0400358 -0.00319049 0)
(-0.0392127 -0.00348996 0)
(-0.0383174 -0.00377706 0)
(-0.0373531 -0.00405055 0)
(-0.0363232 -0.00430915 0)
(-0.0352316 -0.00455163 0)
(-0.0340823 -0.00477676 0)
(-0.0328796 -0.00498334 0)
(-0.0316283 -0.0051702 0)
(-0.0303331 -0.0053362 0)
(-0.0289993 -0.00548025 0)
(-0.0276323 -0.00560129 0)
(-0.0262377 -0.00569834 0)
(-0.0248213 -0.00577047 0)
(-0.0233893 -0.00581681 0)
(-0.0219479 -0.0058366 0)
(-0.0205034 -0.00582914 0)
(-0.0190624 -0.00579387 0)
(-0.0176315 -0.00573031 0)
(-0.0162174 -0.00563814 0)
(-0.0148268 -0.00551717 0)
(-0.0134664 -0.00536738 0)
(-0.0121428 -0.00518894 0)
(-0.0108627 -0.00498225 0)
(-0.00963236 -0.00474794 0)
(-0.00845796 -0.00448694 0)
(-0.00734538 -0.00420052 0)
(-0.0063001 -0.00389032 0)
(-0.00532717 -0.00355849 0)
(-0.00443105 -0.0032077 0)
(-0.00361554 -0.00284133 0)
(-0.00288367 -0.00246353 0)
(-0.00223755 -0.00207948 0)
(-0.00167824 -0.00169551 0)
(-0.0012056 -0.00131945 0)
(-0.000818172 -0.00096087 0)
(-0.000513043 -0.000631511 0)
(-0.00028561 -0.000345725 0)
(-0.000129351 -0.000120918 0)
(-3.71935e-05 2.18578e-05 0)
(-3.15603e-06 5.5485e-05 0)
(-7.39615e-06 -1.93708e-05 0)
(-6.34126e-05 9.58362e-05 0)
(-0.000201025 0.000327245 0)
(-0.000420336 0.000645449 0)
(-0.000725007 0.00102728 0)
(-0.00111958 0.00145343 0)
(-0.00160686 0.00190787 0)
(-0.00218818 0.00237744 0)
(-0.00286359 0.0028514 0)
(-0.00363201 0.00332097 0)
(-0.00449129 0.00377907 0)
(-0.00543835 0.00421999 0)
(-0.00646929 0.00463915 0)
(-0.00757952 0.00503295 0)
(-0.00876385 0.00539859 0)
(-0.0100166 0.0057339 0)
(-0.0113318 0.00603728 0)
(-0.0127029 0.00630759 0)
(-0.0141235 0.00654406 0)
(-0.0155867 0.00674626 0)
(-0.0170857 0.00691401 0)
(-0.0186135 0.00704739 0)
(-0.0201631 0.00714664 0)
(-0.0217277 0.00721218 0)
(-0.0233004 0.00724457 0)
(-0.0248745 0.00724448 0)
(-0.0264432 0.00721268 0)
(-0.0280001 0.00715003 0)
(-0.0295388 0.00705745 0)
(-0.0310533 0.00693594 0)
(-0.0325374 0.00678653 0)
(-0.0339855 0.00661032 0)
(-0.035392 0.00640842 0)
(-0.0367517 0.006182 0)
(-0.0380594 0.00593224 0)
(-0.0393103 0.00566036 0)
(-0.0404999 0.00536758 0)
(-0.0416239 0.00505518 0)
(-0.0426782 0.00472441 0)
(-0.043659 0.00437659 0)
(-0.0445629 0.00401302 0)
(-0.0453867 0.00363503 0)
(-0.0461274 0.00324396 0)
(-0.0467824 0.00284118 0)
(-0.0473493 0.00242807 0)
(-0.0478262 0.00200603 0)
(-0.0482113 0.00157647 0)
(-0.0485031 0.00114083 0)
(-0.0487005 0.000700547 0)
(-0.0488027 0.0002571 0)
(-0.0488093 -0.000188027 0)
(-0.0487199 -0.000633332 0)
(-0.0485348 -0.00107729 0)
(-0.0482545 -0.00151838 0)
(-0.0478797 -0.00195503 0)
(-0.0474116 -0.00238569 0)
(-0.0468517 -0.00280877 0)
(-0.0462017 -0.00322271 0)
(-0.0454637 -0.0036259 0)
(-0.0446403 -0.00401674 0)
(-0.0437343 -0.00439365 0)
(-0.0427487 -0.00475503 0)
(-0.0416871 -0.0050993 0)
(-0.0405533 -0.00542489 0)
(-0.0393513 -0.00573024 0)
(-0.0380857 -0.00601384 0)
(-0.0367612 -0.00627417 0)
(-0.0353828 -0.00650979 0)
(-0.0339558 -0.00671929 0)
(-0.032486 -0.00690129 0)
(-0.0309792 -0.0070545 0)
(-0.0294416 -0.0071777 0)
(-0.0278794 -0.00726975 0)
(-0.0262994 -0.00732958 0)
(-0.0247083 -0.00735626 0)
(-0.023113 -0.00734896 0)
(-0.0215206 -0.00730697 0)
(-0.0199383 -0.00722976 0)
(-0.0183733 -0.00711695 0)
(-0.0168329 -0.00696833 0)
(-0.0153244 -0.00678394 0)
(-0.0138549 -0.00656404 0)
(-0.0124315 -0.00630914 0)
(-0.011061 -0.00602011 0)
(-0.00975023 -0.00569813 0)
(-0.00850536 -0.00534481 0)
(-0.00733237 -0.00496225 0)
(-0.00623672 -0.0045531 0)
(-0.00522326 -0.00412067 0)
(-0.00429619 -0.00366905 0)
(-0.00345893 -0.00320327 0)
(-0.00271398 -0.00272945 0)
(-0.00206285 -0.00225505 0)
(-0.0015059 -0.00178911 0)
(-0.00104229 -0.00134254 0)
(-0.000669852 -0.000928541 0)
(-0.000384922 -0.000562984 0)
(-0.000182081 -0.000264849 0)
(-5.64823e-05 -5.67416e-05 0)
(-6.28425e-06 3.27892e-05 0)
(-1.05525e-05 1.69148e-05 0)
(-8.32908e-05 0.000210758 0)
(-0.000255851 0.00052659 0)
(-0.000524025 0.000934216 0)
(-0.00088904 0.0014094 0)
(-0.00135411 0.00193163 0)
(-0.00192091 0.00248367 0)
(-0.00258979 0.00305114 0)
(-0.00336002 0.00362215 0)
(-0.00422985 0.00418688 0)
(-0.00519658 0.00473727 0)
(-0.00625661 0.00526675 0)
(-0.0074056 0.00577003 0)
(-0.00863849 0.00624285 0)
(-0.0099497 0.00668187 0)
(-0.0113331 0.0070845 0)
(-0.0127823 0.00744876 0)
(-0.0142903 0.00777323 0)
(-0.0158503 0.00805695 0)
(-0.0174549 0.00829934 0)
(-0.0190968 0.00850014 0)
(-0.0207686 0.00865936 0)
(-0.0224628 0.00877728 0)
(-0.0241722 0.00885435 0)
(-0.0258892 0.0088912 0)
(-0.0276067 0.00888862 0)
(-0.0293176 0.0088475 0)
(-0.0310149 0.00876886 0)
(-0.0326917 0.00865381 0)
(-0.0343415 0.00850352 0)
(-0.0359578 0.00831924 0)
(-0.0375344 0.00810229 0)
(-0.0390654 0.00785401 0)
(-0.0405451 0.00757582 0)
(-0.0419679 0.00726914 0)
(-0.0433288 0.00693546 0)
(-0.0446227 0.00657626 0)
(-0.0458451 0.0061931 0)
(-0.0469916 0.00578751 0)
(-0.0480581 0.00536109 0)
(-0.0490408 0.00491543 0)
(-0.0499364 0.00445215 0)
(-0.0507415 0.00397291 0)
(-0.0514535 0.00347937 0)
(-0.0520697 0.00297322 0)
(-0.0525881 0.00245617 0)
(-0.0530066 0.00192994 0)
(-0.0533237 0.0013963 0)
(-0.0535383 0.00085701 0)
(-0.0536494 0.000313876 0)
(-0.0536565 -0.000231289 0)
(-0.0535595 -0.000776646 0)
(-0.0533584 -0.00132034 0)
(-0.0530539 -0.00186048 0)
(-0.0526467 -0.00239519 0)
(-0.0521381 -0.00292256 0)
(-0.0515297 -0.00344065 0)
(-0.0508235 -0.00394754 0)
(-0.0500216 -0.00444129 0)
(-0.0491268 -0.00491994 0)
(-0.0481421 -0.00538157 0)
(-0.047071 -0.00582422 0)
(-0.0459171 -0.00624599 0)
(-0.0446845 -0.00664494 0)
(-0.0433777 -0.00701921 0)
(-0.0420014 -0.00736694 0)
(-0.0405609 -0.0076863 0)
(-0.0390614 -0.00797555 0)
(-0.0375089 -0.00823296 0)
(-0.0359093 -0.00845689 0)
(-0.0342689 -0.00864578 0)
(-0.0325944 -0.00879815 0)
(-0.0308926 -0.00891263 0)
(-0.0291707 -0.00898797 0)
(-0.0274358 -0.00902303 0)
(-0.0256953 -0.00901684 0)
(-0.023957 -0.00896857 0)
(-0.0222285 -0.00887761 0)
(-0.0205175 -0.00874352 0)
(-0.0188318 -0.00856611 0)
(-0.0171792 -0.00834545 0)
(-0.0155673 -0.00808189 0)
(-0.0140037 -0.00777613 0)
(-0.0124958 -0.00742922 0)
(-0.0110507 -0.00704264 0)
(-0.00967507 -0.00661839 0)
(-0.00837537 -0.00615899 0)
(-0.00715746 -0.00566762 0)
(-0.00602664 -0.00514824 0)
(-0.00498752 -0.00460566 0)
(-0.00404396 -0.00404574 0)
(-0.00319896 -0.00347556 0)
(-0.00245455 -0.00290358 0)
(-0.0018117 -0.00234 0)
(-0.0012703 -0.00179694 0)
(-0.000829089 -0.00128885 0)
(-0.000485446 -0.000832887 0)
(-0.000235173 -0.00044929 0)
(-7.5715e-05 -0.000161785 0)
(-9.33567e-06 2.09993e-07 0)
(-1.36011e-05 6.32647e-05 0)
(-0.00010284 0.000352954 0)
(-0.000310226 0.000767969 0)
(-0.000627383 0.00127774 0)
(-0.00105312 0.00185733 0)
(-0.00158929 0.00248534 0)
(-0.00223634 0.00314353 0)
(-0.00299356 0.00381654 0)
(-0.00385934 0.00449146 0)
(-0.00483118 0.00515754 0)
(-0.00590573 0.00580584 0)
(-0.00707883 0.00642901 0)
(-0.0083456 0.00702104 0)
(-0.00970053 0.00757707 0)
(-0.0111376 0.00809324 0)
(-0.0126502 0.00856649 0)
(-0.0142314 0.00899452 0)
(-0.015874 0.00937562 0)
(-0.0175706 0.00970862 0)
(-0.0193135 0.00999277 0)
(-0.0210948 0.0102277 0)
(-0.0229067 0.0104135 0)
(-0.0247414 0.0105502 0)
(-0.026591 0.0106386 0)
(-0.0284478 0.0106792 0)
(-0.0303039 0.0106729 0)
(-0.0321519 0.0106208 0)
(-0.0339844 0.0105241 0)
(-0.035794 0.010384 0)
(-0.0375738 0.010202 0)
(-0.039317 0.00997946 0)
(-0.0410169 0.00971796 0)
(-0.0426671 0.00941909 0)
(-0.0442617 0.00908453 0)
(-0.0457948 0.00871598 0)
(-0.0472608 0.00831518 0)
(-0.0486544 0.00788393 0)
(-0.0499709 0.00742405 0)
(-0.0512054 0.00693739 0)
(-0.0523536 0.00642584 0)
(-0.0534116 0.00589131 0)
(-0.0543757 0.00533575 0)
(-0.0552424 0.00476111 0)
(-0.0560087 0.0041694 0)
(-0.056672 0.00356262 0)
(-0.0572299 0.00294284 0)
(-0.0576804 0.00231211 0)
(-0.0580218 0.00167253 0)
(-0.0582528 0.00102624 0)
(-0.0583726 0.000375359 0)
(-0.0583805 -0.000277919 0)
(-0.0582763 -0.000931404 0)
(-0.0580603 -0.00158287 0)
(-0.0577329 -0.00223009 0)
(-0.0572951 -0.00287078 0)
(-0.0567482 -0.00350267 0)
(-0.0560938 -0.00412347 0)
(-0.0553341 -0.00473087 0)
(-0.0544716 -0.00532254 0)
(-0.0535089 -0.00589619 0)
(-0.0524495 -0.00644949 0)
(-0.0512969 -0.00698012 0)
(-0.050055 -0.00748582 0)
(-0.0487283 -0.00796429 0)