/*--------------------------------*- C++ -*----------------------------------*\
| =========                 |                                                 |
| \\      /  F ield         | OpenFOAM: The Open Source CFD Toolbox           |
|  \\    /   O peration     | Version:  2212                                  |
|   \\  /    A nd           | Website:  www.openfoam.com                      |
|    \\/     M anipulation  |                                                 |
\*---------------------------------------------------------------------------*/
FoamFile
{
    version     2.0;
    format      ascii;
    arch        "LSB;label=32;scalar=64";
    class       surfaceScalarField;
    location    "0.018";
    object      phi_0;
}
// * * * * * * * * * * * * * * * * * * * * * * * * * * * * * * * * * * * * * //

dimensions      [0 3 -1 0 0 0 0];

oriented        oriented;

internalField   nonuniform List<scalar> 
19800
(
6.16391e-11
-6.17246e-11
1.75315e-10
-1.1368e-10
2.72259e-10
-9.6944e-11
3.13427e-10
-4.11659e-11
2.80566e-10
3.28545e-11
1.66575e-10
1.13984e-10
-2.98148e-11
1.9639e-10
-3.06455e-10
2.76637e-10
-6.59369e-10
3.52914e-10
-1.08349e-09
4.24126e-10
-1.57322e-09
4.89737e-10
-2.12266e-09
5.4944e-10
-2.72579e-09
6.03131e-10
-3.3766e-09
6.50807e-10
-4.06915e-09
6.92554e-10
-4.7977e-09
7.28549e-10
-5.55672e-09
7.59025e-10
-6.34092e-09
7.84204e-10
-7.1452e-09
8.04297e-10
-7.96477e-09
8.19573e-10
-8.79502e-09
8.30256e-10
-9.63162e-09
8.36596e-10
-1.04705e-08
8.38833e-10
-1.13076e-08
8.37179e-10
-1.21395e-08
8.31843e-10
-1.29626e-08
8.2309e-10
-1.37737e-08
8.11163e-10
-1.457e-08
7.96275e-10
-1.53486e-08
7.78624e-10
-1.6107e-08
7.58368e-10
-1.68427e-08
7.35661e-10
-1.75533e-08
7.10672e-10
-1.82369e-08
6.83598e-10
-1.88915e-08
6.54607e-10
-1.95154e-08
6.23843e-10
-2.01068e-08
5.9146e-10
-2.06644e-08
5.57582e-10
-2.11868e-08
5.22343e-10
-2.16726e-08
4.85862e-10
-2.21209e-08
4.48252e-10
-2.25305e-08
4.09625e-10
-2.29006e-08
3.70069e-10
-2.32303e-08
3.29679e-10
-2.35188e-08
2.88553e-10
-2.37656e-08
2.4678e-10
-2.397e-08
2.0445e-10
-2.41317e-08
1.61651e-10
-2.42502e-08
1.18462e-10
-2.43251e-08
7.49406e-11
-2.43563e-08
3.11641e-11
-2.43435e-08
-1.27757e-11
-2.42867e-08
-5.67944e-11
-2.41859e-08
-1.00793e-10
-2.40412e-08
-1.44676e-10
-2.38529e-08
-1.88374e-10
-2.36211e-08
-2.31789e-10
-2.33463e-08
-2.74809e-10
-2.30289e-08
-3.1734e-10
-2.26696e-08
-3.59281e-10
-2.22691e-08
-4.00495e-10
-2.18283e-08
-4.40848e-10
-2.13481e-08
-4.80221e-10
-2.08296e-08
-5.18481e-10
-2.02741e-08
-5.55485e-10
-1.9683e-08
-5.91107e-10
-1.90578e-08
-6.25209e-10
-1.84002e-08
-6.57623e-10
-1.7712e-08
-6.88181e-10
-1.69953e-08
-7.16735e-10
-1.62521e-08
-7.43133e-10
-1.54849e-08
-7.67184e-10
-1.46962e-08
-7.88682e-10
-1.38888e-08
-8.07425e-10
-1.30656e-08
-8.23185e-10
-1.22299e-08
-8.35706e-10
-1.13852e-08
-8.44759e-10
-1.0535e-08
-8.50155e-10
-9.68332e-09
-8.51696e-10
-8.83418e-09
-8.49145e-10
-7.99191e-09
-8.42267e-10
-7.16106e-09
-8.30851e-10
-6.34638e-09
-8.14674e-10
-5.5529e-09
-7.93487e-10
-4.78584e-09
-7.67052e-10
-4.05067e-09
-7.35171e-10
-3.353e-09
-6.97677e-10
-2.69859e-09
-6.54416e-10
-2.09331e-09
-6.05276e-10
-1.54312e-09
-5.50198e-10
-1.05392e-09
-4.89193e-10
-6.31563e-10
-4.22364e-10
-2.81569e-10
-3.49995e-10
-8.8611e-12
-2.72711e-10
1.82821e-10
-1.91686e-10
2.91767e-10
-1.08947e-10
3.1978e-10
-2.80123e-11
2.74791e-10
4.49902e-11
1.75648e-10
9.91455e-11
6.13342e-11
1.14312e-10
6.13309e-11
1.12876e-10
-1.74606e-10
2.66323e-10
-2.67109e-10
3.49739e-10
-1.80367e-10
2.93932e-10
1.46506e-11
5.8719e-11
2.68074e-10
-3.76219e-10
5.48926e-10
-1.01806e-09
8.38225e-10
-1.8655e-09
1.12408e-09
-2.91162e-09
1.39903e-09
-4.14587e-09
1.65838e-09
-5.55541e-09
1.89927e-09
-7.12597e-09
2.12e-09
-8.84253e-09
2.31968e-09
-1.06897e-08
2.49799e-09
-1.26521e-08
2.65494e-09
-1.47145e-08
2.79092e-09
-1.68619e-08
2.9065e-09
-1.90801e-08
3.00237e-09
-2.13551e-08
3.07927e-09
-2.36735e-08
3.13801e-09
-2.60226e-08
3.17939e-09
-2.83903e-08
3.20426e-09
-3.07649e-08
3.21349e-09
-3.31356e-08
3.20791e-09
-3.54922e-08
3.18837e-09
-3.78248e-08
3.15575e-09
-4.01245e-08
3.11085e-09
-4.23827e-08
3.05447e-09
-4.45914e-08
2.98736e-09
-4.67433e-08
2.9102e-09
-4.88313e-08
2.82365e-09
-5.0849e-08
2.72836e-09
-5.27903e-08
2.62499e-09
-5.46499e-08
2.51414e-09
-5.64224e-08
2.3964e-09
-5.81033e-08
2.27232e-09
-5.96882e-08
2.14243e-09
-6.1173e-08
2.00722e-09
-6.25543e-08
1.86715e-09
-6.38287e-08
1.72265e-09
-6.49932e-08
1.57414e-09
-6.60452e-08
1.42202e-09
-6.69822e-08
1.26666e-09
-6.78021e-08
1.10845e-09
-6.8503e-08
9.47727e-10
-6.90834e-08
7.84845e-10
-6.95419e-08
6.20116e-10
-6.98773e-08
4.53855e-10
-7.00887e-08
2.86382e-10
-7.01756e-08
1.18004e-10
-7.01374e-08
-5.09504e-11
-6.99741e-08
-2.20141e-10
-6.96856e-08
-3.89233e-10
-6.92724e-08
-5.57887e-10
-6.8735e-08
-7.25749e-10
-6.80744e-08
-8.92453e-10
-6.72916e-08
-1.0576e-09
-6.63882e-08
-1.22078e-09
-6.53659e-08
-1.38158e-09
-6.42268e-08
-1.53956e-09
-6.29734e-08
-1.69424e-09
-6.16085e-08
-1.84514e-09
-6.01352e-08
-1.99175e-09
-5.85572e-08
-2.13353e-09
-5.68783e-08
-2.26996e-09
-5.51031e-08
-2.40045e-09
-5.32363e-08
-2.52441e-09
-5.12832e-08
-2.64122e-09
-4.92497e-08
-2.75025e-09
-4.7142e-08
-2.85083e-09
-4.49669e-08
-2.94228e-09
-4.27318e-08
-3.02385e-09
-4.04444e-08
-3.09476e-09
-3.81134e-08
-3.15421e-09
-3.57477e-08
-3.20136e-09
-3.33571e-08
-3.23539e-09
-3.09518e-08
-3.25546e-09
-2.85427e-08
-3.26078e-09
-2.61414e-08
-3.25052e-09
-2.37597e-08
-3.22387e-09
-2.14106e-08
-3.18001e-09
-1.91071e-08
-3.11812e-09
-1.68632e-08
-3.03743e-09
-1.4693e-08
-2.9372e-09
-1.26114e-08
-2.81678e-09
-1.06335e-08
-2.67562e-09
-8.7746e-09
-2.51332e-09
-7.05019e-09
-2.32969e-09
-5.47561e-09
-2.12479e-09
-4.06576e-09
-1.89904e-09
-2.83473e-09
-1.6534e-09
-1.79508e-09
-1.38965e-09
-9.56955e-10
-1.11084e-09
-3.26686e-10
-8.2195e-10
9.52679e-11
-5.309e-10
3.17444e-10
-2.50195e-10
3.6202e-10
4.10061e-13
2.71116e-10
1.90044e-10
1.1406e-10
2.71352e-10
1.75402e-10
9.66601e-11
-2.71266e-10
1.83333e-10
-3.53793e-10
1.34424e-10
-1.31458e-10
-1.31293e-10
2.80363e-10
-6.63929e-10
8.00708e-10
-1.49118e-09
1.37617e-09
-2.62445e-09
1.9715e-09
-4.06376e-09
2.56339e-09
-5.80097e-09
3.13624e-09
-7.82229e-09
3.67971e-09
-1.011e-08
4.18703e-09
-1.2644e-08
4.65398e-09
-1.54024e-08
5.07808e-09
-1.83626e-08
5.45815e-09
-2.15015e-08
5.79388e-09
-2.47962e-08
6.08566e-09
-2.82241e-08
6.33435e-09
-3.17629e-08
6.54114e-09
-3.5391e-08
6.70745e-09
-3.90879e-08
6.83483e-09
-4.28334e-08
6.92495e-09
-4.66086e-08
6.97948e-09
-5.03954e-08
7.00022e-09
-5.41764e-08
6.9889e-09
-5.79353e-08
6.94732e-09
-6.16568e-08
6.87726e-09
-6.53264e-08
6.78043e-09
-6.89304e-08
6.6585e-09
-7.24561e-08
6.51307e-09
-7.58916e-08
6.34565e-09
-7.92256e-08
6.15771e-09
-8.24479e-08
5.95068e-09
-8.55489e-08
5.72593e-09
-8.85195e-08
5.48478e-09
-9.13516e-08
5.2285e-09
-9.40376e-08
4.95825e-09
-9.65703e-08
4.6752e-09
-9.89435e-08
4.3804e-09
-1.01151e-07
4.07487e-09
-1.03188e-07
3.75959e-09
-1.0505e-07
3.43547e-09
-1.06731e-07
3.10336e-09
-1.08228e-07
2.76415e-09
-1.09539e-07
2.41863e-09
-1.10658e-07
2.06758e-09
-1.11585e-07
1.71176e-09
-1.12317e-07
1.3519e-09
-1.12852e-07
9.88701e-10
-1.13188e-07
6.22874e-10
-1.13326e-07
2.55136e-10
-1.13263e-07
-1.13794e-10
-1.13e-07
-4.83184e-10
-1.12537e-07
-8.5229e-10
-1.11874e-07
-1.22036e-09
-1.11013e-07
-1.58661e-09
-1.09956e-07
-1.95023e-09
-1.08703e-07
-2.31038e-09
-1.07257e-07
-2.66616e-09
-1.05622e-07
-3.01665e-09
-1.03801e-07
-3.36091e-09
-1.01797e-07
-3.69791e-09
-9.96158e-08
-4.02659e-09
-9.72617e-08
-4.34584e-09
-9.47407e-08
-4.65454e-09
-9.20592e-08
-4.95149e-09
-8.92242e-08
-5.23541e-09
-8.62436e-08
-5.505e-09
-8.3126e-08
-5.75892e-09
-7.98804e-08
-5.99576e-09
-7.65172e-08
-6.21408e-09
-7.30471e-08
-6.41233e-09
-6.9482e-08
-6.58895e-09
-6.58345e-08
-6.7423e-09
-6.2118e-08
-6.87067e-09
-5.83471e-08
-6.97233e-09
-5.45369e-08
-7.04552e-09
-5.07039e-08
-7.08852e-09
-4.68651e-08
-7.09957e-09
-4.30387e-08
-7.07694e-09
-3.92436e-08
-7.01889e-09
-3.54999e-08
-6.92377e-09
-3.1828e-08
-6.78995e-09
-2.82496e-08
-6.61588e-09
-2.47866e-08
-6.40015e-09
-2.14619e-08
-6.14155e-09
-1.82983e-08
-5.83917e-09
-1.53192e-08
-5.49242e-09
-1.25477e-08
-5.1012e-09
-1.00064e-08
-4.66606e-09
-7.71704e-09
-4.18845e-09
-5.69937e-09
-3.67108e-09
-3.97059e-09
-3.11843e-09
-2.54377e-09
-2.53765e-09
-1.42606e-09
-1.93966e-09
-6.16074e-10
-1.34089e-09
-1.00399e-10
-7.65869e-10
1.51056e-10
-2.51033e-10
1.90584e-10
1.5051e-10
9.90093e-11
3.62932e-10
2.74411e-10
4.34658e-11
-3.14726e-10
-2.99859e-12
-3.07321e-10
-2.60697e-10
1.26235e-10
-8.11581e-10
8.31249e-10
-1.70803e-09
1.69716e-09
-2.97998e-09
2.64812e-09
-4.64046e-09
3.63197e-09
-6.68974e-09
4.61267e-09
-9.11864e-09
5.56514e-09
-1.1911e-08
6.47204e-09
-1.50455e-08
7.32162e-09
-1.84977e-08
8.10615e-09
-2.22405e-08
8.82087e-09
-2.62455e-08
9.46318e-09
-3.04837e-08
1.0032e-08
-3.49257e-08
1.05276e-08
-3.95422e-08
1.09509e-08
-4.43047e-08
1.13036e-08
-4.9185e-08
1.15878e-08
-5.4156e-08
1.18058e-08
-5.91915e-08
1.19604e-08
-6.42662e-08
1.20542e-08
-6.93562e-08
1.20902e-08
-7.44386e-08
1.20713e-08
-7.94917e-08
1.20004e-08
-8.44948e-08
1.18804e-08
-8.94286e-08
1.17142e-08
-9.42748e-08
1.15047e-08
-9.90162e-08
1.12545e-08
-1.03637e-07
1.09662e-08
-1.08122e-07
1.06425e-08
-1.12457e-07
1.02856e-08
-1.16629e-07
9.89805e-09
-1.20626e-07
9.482e-09
-1.24437e-07
9.03965e-09
-1.28052e-07
8.57302e-09
-1.31461e-07
8.08407e-09
-1.34655e-07
7.57468e-09
-1.37627e-07
7.04657e-09
-1.40369e-07
6.50145e-09
-1.42874e-07
5.94092e-09
-1.45137e-07
5.36651e-09
-1.47153e-07
4.77968e-09
-1.48916e-07
4.18187e-09
-1.50423e-07
3.57442e-09
-1.5167e-07
2.95867e-09
-1.52654e-07
2.33589e-09
-1.53372e-07
1.70736e-09
-1.53824e-07
1.07432e-09
-1.54007e-07
4.3802e-10
-1.5392e-07
-2.00289e-10
-1.53564e-07
-8.39312e-10
-1.52939e-07
-1.47775e-09
-1.52045e-07
-2.11431e-09
-1.50884e-07
-2.74761e-09
-1.49458e-07
-3.37622e-09
-1.47769e-07
-3.9987e-09
-1.45822e-07
-4.61353e-09
-1.4362e-07
-5.2191e-09
-1.41167e-07
-5.81373e-09
-1.38469e-07
-6.39571e-09
-1.35532e-07
-6.96321e-09
-1.32364e-07
-7.51432e-09
-1.28971e-07
-8.04706e-09
-1.25363e-07
-8.55935e-09
-1.2155e-07
-9.04904e-09
-1.17541e-07
-9.51388e-09
-1.13348e-07
-9.95152e-09
-1.08985e-07
-1.03595e-08
-1.04463e-07
-1.07354e-08
-9.97991e-08
-1.10765e-08
-9.50079e-08
-1.13802e-08
-9.01066e-08
-1.16436e-08
-8.51133e-08
-1.18639e-08
-8.00474e-08
-1.20383e-08
-7.49292e-08
-1.21637e-08
-6.97805e-08
-1.22372e-08
-6.46241e-08
-1.2256e-08
-5.94839e-08
-1.22171e-08
-5.43852e-08
-1.21176e-08
-4.93541e-08
-1.19549e-08
-4.44178e-08
-1.17263e-08
-3.96044e-08
-1.14293e-08
-3.49426e-08
-1.10619e-08
-3.04618e-08
-1.06224e-08
-2.61916e-08
-1.01093e-08
-2.21618e-08
-9.52226e-09
-1.84015e-08
-8.86145e-09
-1.49392e-08
-8.1284e-09
-1.18014e-08
-7.32619e-09
-9.01246e-09
-6.46005e-09
-6.59264e-09
-5.53825e-09
-4.55708e-09
-4.57321e-09
-2.91356e-09
-3.58318e-09
-1.65997e-09
-2.59449e-09
-7.80997e-10
-1.64483e-09
-2.44241e-10
-7.87792e-10
4.37959e-12
-9.81139e-11
4.59943e-11
3.21321e-10
3.20397e-10
-2.77483e-11
-2.86982e-10
-2.48558e-10
-8.6502e-11
-7.6621e-10
6.43885e-10
-1.65433e-09
1.71937e-09
-2.9616e-09
3.00443e-09
-4.71629e-09
4.40281e-09
-6.93043e-09
5.84611e-09
-9.60325e-09
7.2855e-09
-1.2724e-08
8.68592e-09
-1.62744e-08
1.00224e-08
-2.02304e-08
1.12776e-08
-2.45638e-08
1.24395e-08
-2.92434e-08
1.35005e-08
-3.42363e-08
1.44561e-08
-3.95085e-08
1.53042e-08
-4.50253e-08
1.60444e-08
-5.07521e-08
1.66777e-08
-5.66547e-08
1.72062e-08
-6.26995e-08
1.76326e-08
-6.88537e-08
1.79601e-08
-7.50857e-08
1.81924e-08
-8.1365e-08
1.83335e-08
-8.76623e-08
1.83875e-08
-9.39496e-08
1.83587e-08
-1.002e-07
1.82513e-08
-1.0639e-07
1.80696e-08
-1.12493e-07
1.78178e-08
-1.18489e-07
1.75002e-08
-1.24355e-07
1.71207e-08
-1.30072e-07
1.66834e-08
-1.35622e-07
1.61919e-08
-1.40986e-07
1.56501e-08
-1.46149e-07
1.50615e-08
-1.51097e-07
1.44293e-08
-1.55814e-07
1.37569e-08
-1.60289e-07
1.30475e-08
-1.64508e-07
1.23039e-08
-1.68463e-07
1.1529e-08
-1.72141e-07
1.07254e-08
-1.75536e-07
9.89582e-09
-1.78638e-07
9.0426e-09
-1.81439e-07
8.16812e-09
-1.83934e-07
7.27463e-09
-1.86117e-07
6.3643e-09
-1.87981e-07
5.43922e-09
-1.89524e-07
4.50144e-09
-1.90741e-07
3.55295e-09
-1.9163e-07
2.59568e-09
-1.92187e-07
1.63157e-09
-1.92411e-07
6.62564e-10
-1.92302e-07
-3.0941e-10
-1.91859e-07
-1.28241e-09
-1.91082e-07
-2.25444e-09
-1.89973e-07
-3.22345e-09
-1.88534e-07
-4.18735e-09
-1.86766e-07
-5.14401e-09
-1.84673e-07
-6.09116e-09
-1.8226e-07
-7.02648e-09
-1.79532e-07
-7.94754e-09
-1.76494e-07
-8.85182e-09
-1.73153e-07
-9.73669e-09
-1.69517e-07
-1.05993e-08
-1.65594e-07
-1.14369e-08
-1.61395e-07
-1.22464e-08
-1.5693e-07
-1.30246e-08
-1.5221e-07
-1.37683e-08
-1.4725e-07
-1.4474e-08
-1.42064e-07
-1.51382e-08
-1.36666e-07
-1.57573e-08
-1.31074e-07
-1.63273e-08
-1.25306e-07
-1.68445e-08
-1.19381e-07
-1.73046e-08
-1.13321e-07
-1.77037e-08
-1.07148e-07
-1.80373e-08
-1.00885e-07
-1.83013e-08
-9.45573e-08
-1.84912e-08
-8.81918e-08
-1.86027e-08
-8.18162e-08
-1.86316e-08
-7.54598e-08
-1.85735e-08
-6.9153e-08
-1.84243e-08
-6.29277e-08
-1.81802e-08
-5.68167e-08
-1.78373e-08
-5.08536e-08
-1.73924e-08
-4.5073e-08
-1.68425e-08
-3.95098e-08
-1.61855e-08
-3.41993e-08
-1.54198e-08
-2.91764e-08
-1.45452e-08
-2.44753e-08
-1.35626e-08
-2.01288e-08
-1.24749e-08
-1.61677e-08
-1.12873e-08
-1.26195e-08
-1.00082e-08
-9.50727e-09
-8.65051e-09
-6.84794e-09
-7.23254e-09
-4.65056e-09
-5.78056e-09
-2.91385e-09
-4.3312e-09
-1.62347e-09
-2.93521e-09
-7.48977e-10
-1.6623e-09
-2.40478e-10
-6.0661e-10
-2.50225e-11
1.05864e-10
2.95374e-10
-1.06676e-10
-1.80313e-10
-5.24009e-10
3.30838e-10
-1.33202e-09
1.45189e-09
-2.5903e-09
2.97765e-09
-4.33919e-09
4.75333e-09
-6.602e-09
6.66561e-09
-9.38748e-09
8.63159e-09
-1.26924e-08
1.05904e-08
-1.65037e-08
1.24972e-08
-2.08006e-08
1.43194e-08
-2.55565e-08
1.60335e-08
-3.074e-08
1.7623e-08
-3.63167e-08
1.90772e-08
-4.22496e-08
2.03891e-08
-4.85006e-08
2.15552e-08
-5.50306e-08
2.25745e-08
-6.18005e-08
2.34477e-08
-6.87714e-08
2.41771e-08
-7.59048e-08
2.4766e-08
-8.31632e-08
2.52185e-08
-9.05103e-08
2.55395e-08
-9.79109e-08
2.5734e-08
-1.05331e-07
2.58076e-08
-1.12738e-07
2.57659e-08
-1.20102e-07
2.56147e-08
-1.27392e-07
2.53599e-08
-1.34581e-07
2.50071e-08
-1.41643e-07
2.45621e-08
-1.48553e-07
2.40305e-08
-1.55287e-07
2.34177e-08
-1.61824e-07
2.2729e-08
-1.68144e-07
2.19696e-08
-1.74227e-07
2.11442e-08
-1.80055e-07
2.02577e-08
-1.85613e-07
1.93146e-08
-1.90884e-07
1.83192e-08
-1.95856e-07
1.72757e-08
-2.00515e-07
1.61881e-08
-2.0485e-07
1.506e-08
-2.08849e-07
1.38952e-08
-2.12504e-07
1.26971e-08
-2.15805e-07
1.1469e-08
-2.18744e-07
1.0214e-08
-2.21315e-07
8.93523e-09
-2.23512e-07
7.63571e-09
-2.25328e-07
6.31827e-09
-2.26761e-07
4.98573e-09
-2.27806e-07
3.64088e-09
-2.28461e-07
2.28647e-09
-2.28724e-07
9.25195e-10
-2.28593e-07
-4.40174e-10
-2.28069e-07
-1.80684e-09
-2.27151e-07
-3.17201e-09
-2.25842e-07
-4.53284e-09
-2.24143e-07
-5.88635e-09
-2.22057e-07
-7.22946e-09
-2.19589e-07
-8.55904e-09
-2.16744e-07
-9.87184e-09
-2.13527e-07
-1.11644e-08
-2.09946e-07
-1.24333e-08
-2.06008e-07
-1.36746e-08
-2.01723e-07
-1.48846e-08
-1.971e-07
-1.60591e-08
-1.92153e-07
-1.71941e-08
-1.86892e-07
-1.8285e-08
-1.81333e-07
-1.93272e-08
-1.75491e-07
-2.03161e-08
-1.69383e-07
-2.12466e-08
-1.63027e-07
-2.21136e-08
-1.56442e-07
-2.29118e-08
-1.49651e-07
-2.36357e-08
-1.42676e-07
-2.42798e-08
-1.35541e-07
-2.48382e-08
-1.28273e-07
-2.53052e-08
-1.209e-07
-2.56748e-08
-1.1345e-07
-2.59411e-08
-1.05954e-07
-2.60982e-08
-9.84457e-08
-2.61401e-08
-9.0958e-08
-2.60613e-08
-8.35263e-08
-2.5856e-08
-7.61873e-08
-2.55192e-08
-6.89787e-08
-2.5046e-08
-6.19391e-08
-2.4432e-08
-5.51079e-08
-2.36737e-08
-4.85248e-08
-2.27685e-08
-4.22298e-08
-2.17149e-08
-3.6262e-08
-2.0513e-08
-3.06599e-08
-1.91647e-08
-2.54601e-08
-1.76746e-08
-2.06968e-08
-1.60506e-08
-1.64003e-08
-1.43048e-08
-1.25962e-08
-1.24546e-08
-9.30381e-09
-1.05249e-08
-6.53428e-09
-8.55009e-09
-4.28879e-09
-6.5767e-09
-2.55641e-09
-4.66759e-09
-1.31201e-09
-2.90671e-09
-5.14174e-10
-1.40443e-09
-1.03478e-10
-3.04836e-10
1.91906e-10
-1.8732e-10
7.00744e-12
-8.10267e-10
9.5379e-10
-1.92345e-09
2.56507e-09
-3.56939e-09
4.62359e-09
-5.77715e-09
6.9611e-09
-8.56247e-09
9.45094e-09
-1.19289e-08
1.1998e-08
-1.58692e-08
1.45307e-08
-2.03672e-08
1.69953e-08
-2.53994e-08
1.93516e-08
-3.09361e-08
2.15702e-08
-3.69431e-08
2.36301e-08
-4.33828e-08
2.55169e-08
-5.0215e-08
2.72212e-08
-5.73979e-08
2.8738e-08
-6.48886e-08
3.00652e-08
-7.26442e-08
3.12032e-08
-8.06215e-08
3.21544e-08
-8.87782e-08
3.29226e-08
-9.70724e-08
3.35128e-08
-1.05464e-07
3.39308e-08
-1.13913e-07
3.41831e-08
-1.22382e-07
3.42765e-08
-1.30834e-07
3.42182e-08
-1.39235e-07
3.40157e-08
-1.47552e-07
3.36764e-08
-1.55752e-07
3.32077e-08
-1.63807e-07
3.2617e-08
-1.71688e-07
3.19116e-08
-1.79369e-07
3.10986e-08
-1.86825e-07
3.01849e-08
-1.94032e-07
2.91772e-08
-2.0097e-07
2.8082e-08
-2.07618e-07
2.69054e-08
-2.13957e-07
2.56536e-08
-2.1997e-07
2.43322e-08
-2.25641e-07
2.29467e-08
-2.30955e-07
2.15023e-08
-2.35899e-07
2.00041e-08
-2.40461e-07
1.84569e-08
-2.44629e-07
1.68653e-08
-2.48394e-07
1.52336e-08
-2.51746e-07
1.35662e-08
-2.54678e-07
1.1867e-08
-2.57182e-07
1.01402e-08
-2.59253e-07
8.38948e-09
-2.60886e-07
6.6187e-09
-2.62077e-07
4.83153e-09
-2.62822e-07
3.03167e-09
-2.6312e-07
1.22281e-09
-2.62969e-07
-5.9141e-10
-2.62368e-07
-2.40729e-09
-2.61319e-07
-4.22105e-09
-2.59823e-07
-6.02883e-09
-2.57883e-07
-7.8267e-09
-2.55502e-07
-9.61061e-09
-2.52684e-07
-1.13763e-08
-2.49437e-07
-1.31196e-08
-2.45765e-07
-1.48357e-08
-2.41679e-07
-1.652e-08
-2.37186e-07
-1.81676e-08
-2.32297e-07
-1.97734e-08
-2.27024e-07
-2.13319e-08
-2.2138e-07
-2.28376e-08
-2.15381e-07
-2.42846e-08
-2.09041e-07
-2.56669e-08
-2.02379e-07
-2.69781e-08
-1.95414e-07
-2.82118e-08
-1.88166e-07
-2.93612e-08
-1.80659e-07
-3.04192e-08
-1.72916e-07
-3.13787e-08
-1.64963e-07
-3.22324e-08
-1.56829e-07
-3.29727e-08
-1.48542e-07
-3.35921e-08
-1.40134e-07
-3.40828e-08
-1.31638e-07
-3.44372e-08
-1.23089e-07
-3.46476e-08
-1.14522e-07
-3.47064e-08
-1.05977e-07
-3.46065e-08
-9.74924e-08
-3.43407e-08
-8.91091e-08
-3.39024e-08
-8.08693e-08
-3.32858e-08
-7.28158e-08
-3.24855e-08
-6.49921e-08
-3.14974e-08
-5.74422e-08
-3.03184e-08
-5.02099e-08
-2.89473e-08
-4.33382e-08
-2.73846e-08
-3.68692e-08
-2.56338e-08
-3.08427e-08
-2.37011e-08
-2.52959e-08
-2.15974e-08
-2.02621e-08
-1.93385e-08
-1.57697e-08
-1.6947e-08
-1.18408e-08
-1.44539e-08
-8.48956e-09
-1.19013e-08
-5.72122e-09
-9.34503e-09
-3.53027e-09
-6.85855e-09
-1.89929e-09
-4.53768e-09
-7.98111e-10
-2.50561e-09
-1.83604e-10
-9.19339e-10
8.30706e-12
-2.66579e-10
2.73583e-10
-1.09578e-09
1.783e-09
-2.51794e-09
3.98724e-09
-4.55758e-09
6.66322e-09
-7.23075e-09
9.63427e-09
-1.05439e-08
1.27641e-08
-1.44937e-08
1.59478e-08
-1.90679e-08
1.91049e-08
-2.42462e-08
2.21736e-08
-3.00016e-08
2.5107e-08
-3.63014e-08
2.78699e-08
-4.31082e-08
3.04369e-08
-5.03815e-08
3.27901e-08
-5.80779e-08
3.49176e-08
-6.61523e-08
3.68125e-08
-7.45587e-08
3.84717e-08
-8.32506e-08
3.98951e-08
-9.21813e-08
4.10851e-08
-1.01305e-07
4.20461e-08
-1.10576e-07
4.27838e-08
-1.1995e-07
4.3305e-08
-1.29384e-07
4.36175e-08
-1.38838e-07
4.37297e-08
-1.4827e-07
4.36503e-08
-1.57642e-07
4.33884e-08
-1.66919e-07
4.29532e-08
-1.76066e-07
4.2354e-08
-1.85048e-07
4.15998e-08
-1.93837e-07
4.06999e-08
-2.02401e-07
3.96632e-08
-2.10715e-07
3.84982e-08
-2.18751e-07
3.72135e-08
-2.26486e-07
3.58173e-08
-2.33898e-07
3.43173e-08
-2.40966e-07
3.27212e-08
-2.4767e-07
3.10362e-08
-2.53992e-07
2.92693e-08
-2.59917e-07
2.74272e-08
-2.65429e-07
2.55162e-08
-2.70515e-07
2.35426e-08
-2.75162e-07
2.15121e-08
-2.79358e-07
1.94304e-08
-2.83095e-07
1.73029e-08
-2.86363e-07
1.51349e-08
-2.89154e-07
1.29315e-08
-2.91462e-07
1.06975e-08
-2.93282e-07
8.43792e-09
-2.94608e-07
6.15747e-09
-2.95437e-07
3.86086e-09
-2.95767e-07
1.55278e-09
-2.95596e-07
-7.6204e-10
-2.94925e-07
-3.07882e-09
-2.93753e-07
-5.39275e-09
-2.92083e-07
-7.6989e-09
-2.89917e-07
-9.99223e-09
-2.8726e-07
-1.22675e-08
-2.84117e-07
-1.45194e-08
-2.80495e-07
-1.67423e-08
-2.764e-07
-1.89305e-08
-2.71842e-07
-2.10779e-08
-2.66831e-07
-2.31781e-08
-2.6138e-07
-2.52248e-08
-2.55501e-07
-2.72111e-08
-2.49209e-07
-2.91298e-08
-2.4252e-07
-3.09735e-08
-2.35452e-07
-3.27345e-08
-2.28025e-07
-3.44049e-08
-2.20261e-07
-3.59763e-08
-2.12182e-07
-3.74403e-08
-2.03813e-07
-3.87879e-08
-1.95181e-07
-4.00102e-08
-1.86316e-07
-4.10978e-08
-1.77247e-07
-4.20415e-08
-1.68008e-07
-4.28316e-08
-1.58632e-07
-4.34585e-08
-1.49157e-07
-4.39127e-08
-1.39619e-07
-4.41847e-08
-1.30061e-07
-4.42652e-08
-1.20522e-07
-4.41452e-08
-1.11046e-07
-4.38161e-08
-1.01679e-07
-4.32701e-08
-9.24647e-08
-4.24999e-08
-8.34509e-08
-4.14994e-08
-7.46846e-08
-4.02637e-08
-6.62132e-08
-3.87898e-08
-5.8084e-08
-3.70764e-08
-5.03436e-08
-3.5125e-08
-4.30371e-08
-3.29402e-08
-3.62076e-08
-3.05307e-08
-2.98952e-08
-2.79099e-08
-2.41362e-08
-2.50975e-08
-1.8962e-08
-2.21211e-08
-1.43982e-08
-1.90177e-08
-1.04632e-08
-1.58363e-08
-7.16729e-09
-1.26409e-08
-4.51192e-09
-9.51391e-09
-2.48899e-09
-6.5606e-09
-1.08106e-09
-3.91355e-09
-2.62187e-10
-1.73821e-09
-2.53886e-10
-3.42737e-10
6.16321e-10
-1.37391e-09
2.81416e-09
-3.10167e-09
5.71502e-09
-5.53286e-09
9.09441e-09
-8.66996e-09
1.27714e-08
-1.2509e-08
1.66032e-08
-1.70389e-08
2.04777e-08
-2.22412e-08
2.43072e-08
-2.80908e-08
2.80231e-08
-3.45565e-08
3.15726e-08
-4.16021e-08
3.49155e-08
-4.91871e-08
3.80219e-08
-5.72677e-08
4.08708e-08
-6.57977e-08
4.34476e-08
-7.47289e-08
4.57437e-08
-8.40123e-08
4.7755e-08
-9.3598e-08
4.94808e-08
-1.03436e-07
5.09235e-08
-1.13478e-07
5.20879e-08
-1.23675e-07
5.29804e-08
-1.33979e-07
5.36089e-08
-1.44344e-07
5.39826e-08
-1.54725e-07
5.41112e-08
-1.6508e-07
5.40051e-08
-1.75367e-07
5.36753e-08
-1.85546e-07
5.31327e-08
-1.95581e-07
5.23884e-08
-2.05434e-07
5.14536e-08
-2.15074e-07
5.03393e-08
-2.24467e-07
4.90562e-08
-2.33584e-07
4.76151e-08
-2.42396e-07
4.60261e-08
-2.50878e-07
4.42993e-08
-2.59005e-07
4.24443e-08
-2.66754e-07
4.04704e-08
-2.74105e-07
3.83865e-08
-2.81037e-07
3.62013e-08
-2.87532e-07
3.39229e-08
-2.93575e-07
3.15593e-08
-2.99151e-07
2.91179e-08
-3.04245e-07
2.66061e-08
-3.08845e-07
2.40309e-08
-3.12942e-07
2.13989e-08
-3.16523e-07
1.87168e-08
-3.19583e-07
1.59906e-08
-3.22112e-07
1.32268e-08
-3.24105e-07
1.04312e-08
-3.25557e-07
7.60975e-09
-3.26465e-07
4.76837e-09
-3.26825e-07
1.91291e-09
-3.26636e-07
-9.50776e-10
-3.25898e-07
-3.81679e-09
-3.24612e-07
-6.67913e-09
-3.22779e-07
-9.53167e-09
-3.20403e-07
-1.23681e-08
-3.17489e-07
-1.51821e-08
-3.14041e-07
-1.79669e-08
-3.10068e-07
-2.07156e-08
-3.05577e-07
-2.34212e-08
-3.00579e-07
-2.6076e-08
-2.95085e-07
-2.86724e-08
-2.89107e-07
-3.12023e-08
-2.82661e-07
-3.36573e-08
-2.75762e-07
-3.60286e-08
-2.68429e-07
-3.8307e-08
-2.6068e-07
-4.04832e-08
-2.52538e-07
-4.25473e-08
-2.44025e-07
-4.44891e-08
-2.35167e-07
-4.62981e-08
-2.25991e-07
-4.79636e-08
-2.16527e-07
-4.94744e-08
-2.06805e-07
-5.08194e-08
-1.9686e-07
-5.1987e-08
-1.86726e-07
-5.29657e-08
-1.76441e-07
-5.37438e-08
-1.66044e-07
-5.43098e-08
-1.55576e-07
-5.46522e-08
-1.45081e-07
-5.47599e-08
-1.34604e-07
-5.46222e-08
-1.24192e-07
-5.42289e-08
-1.13891e-07
-5.35707e-08
-1.03751e-07
-5.26393e-08
-9.38232e-08
-5.14276e-08
-8.41567e-08
-4.99302e-08
-7.48027e-08
-4.81438e-08
-6.58117e-08
-4.60675e-08
-5.72332e-08
-4.37035e-08
-4.91154e-08
-4.1058e-08
-4.15046e-08
-3.81415e-08
-3.44438e-08
-3.49707e-08
-2.79726e-08
-3.15687e-08
-2.2126e-08
-2.79677e-08
-1.69335e-08
-2.42102e-08
-1.24185e-08
-2.03513e-08
-8.59757e-09
-1.64619e-08
-5.47988e-09
-1.26316e-08
-3.06759e-09
-8.9729e-09
-1.3565e-09
-5.62464e-09
-3.37622e-10
-2.75708e-09
-5.91513e-10
-4.15045e-10
1.03137e-09
-1.64105e-09
4.04017e-09
-3.66653e-09
7.7405e-09
-6.48171e-09
1.19096e-08
-1.00755e-08
1.63652e-08
-1.44334e-08
2.0961e-08
-1.95354e-08
2.55798e-08
-2.53565e-08
3.01283e-08
-3.1866e-08
3.45326e-08
-3.90281e-08
3.87347e-08
-4.68026e-08
4.269e-08
-5.51456e-08
4.6365e-08
-6.40101e-08
4.97353e-08
-7.33468e-08
5.27842e-08
-8.31044e-08
5.55014e-08
-9.32311e-08
5.78817e-08
-1.03674e-07
5.99238e-08
-1.14381e-07
6.16303e-08
-1.25299e-07
6.30061e-08
-1.36377e-07
6.40586e-08
-1.47565e-07
6.47967e-08
-1.58813e-07
6.52308e-08
-1.70074e-07
6.53723e-08
-1.81303e-07
6.52333e-08
-1.92454e-07
6.48264e-08
-2.03486e-07
6.41645e-08
-2.14358e-07
6.32608e-08
-2.25033e-07
6.21283e-08
-2.35474e-07
6.07802e-08
-2.45646e-07
5.92291e-08
-2.55519e-07
5.74878e-08
-2.65062e-07
5.55685e-08
-2.74245e-07
5.34831e-08
-2.83044e-07
5.12431e-08
-2.91434e-07
4.88598e-08
-2.99391e-07
4.63437e-08
-3.06895e-07
4.37053e-08
-3.13926e-07
4.09544e-08
-3.20468e-07
3.81005e-08
-3.26502e-07
3.51527e-08
-3.32016e-07
3.21197e-08
-3.36995e-07
2.90101e-08
-3.41428e-07
2.58319e-08
-3.45304e-07
2.2593e-08
-3.48615e-07
1.93011e-08
-3.51352e-07
1.59635e-08
-3.53508e-07
1.25876e-08
-3.55079e-07
9.18056e-09
-3.5606e-07
5.74949e-09
-3.56449e-07
2.30148e-09
-3.56243e-07
-1.15637e-09
-3.55443e-07
-4.61689e-09
-3.54049e-07
-8.07281e-09
-3.52064e-07
-1.15167e-08
-3.49491e-07
-1.49411e-08
-3.46335e-07
-1.83381e-08
-3.42602e-07
-2.16996e-08
-3.38301e-07
-2.50174e-08
-3.33439e-07
-2.82829e-08
-3.28028e-07
-3.14869e-08
-3.2208e-07
-3.46203e-08
-3.15609e-07
-3.76732e-08
-3.08631e-07
-4.06355e-08
-3.01163e-07
-4.34967e-08
-2.93224e-07
-4.62459e-08
-2.84836e-07
-4.88716e-08
-2.76021e-07
-5.13621e-08
-2.66805e-07
-5.37051e-08
-2.57215e-07
-5.58883e-08
-2.4728e-07
-5.78985e-08
-2.37032e-07
-5.97228e-08
-2.26503e-07
-6.13475e-08
-2.15731e-07
-6.27592e-08
-2.04753e-07
-6.3944e-08
-1.93608e-07
-6.48882e-08
-1.8234e-07
-6.55782e-08
-1.70992e-07
-6.60004e-08
-1.5961e-07
-6.61419e-08
-1.48242e-07
-6.59901e-08
-1.36937e-07
-6.55332e-08
-1.25748e-07
-6.47605e-08
-1.14725e-07
-6.36624e-08
-1.03921e-07
-6.2231e-08
-9.33913e-08
-6.04603e-08
-8.31882e-08
-5.83469e-08
-7.33655e-08
-5.58902e-08
-6.39758e-08
-5.30932e-08
-5.50704e-08
-4.99634e-08
-4.66983e-08
-4.65136e-08
-3.89061e-08
-4.27628e-08
-3.17369e-08
-3.8738e-08
-2.52294e-08
-3.44752e-08
-1.9418e-08
-3.00216e-08
-1.43315e-08
-2.54378e-08
-9.99322e-09
-2.08002e-08
-6.42086e-09
-1.6204e-08
-3.62712e-09
-1.17666e-08
-1.62088e-09
-7.63087e-09
-4.09137e-10
-3.96883e-09
-1.00064e-09
-4.83214e-10
1.51459e-09
-1.89553e-09
5.45248e-09
-4.20828e-09
1.00532e-08
-7.39644e-09
1.50978e-08
-1.14361e-08
2.04048e-08
-1.63017e-08
2.58266e-08
-2.19648e-08
3.12428e-08
-2.83928e-08
3.65563e-08
-3.55491e-08
4.16889e-08
-4.33929e-08
4.65786e-08
-5.18798e-08
5.11769e-08
-6.09619e-08
5.54471e-08
-7.05888e-08
5.93622e-08
-8.07081e-08
6.29035e-08
-9.12657e-08
6.6059e-08
-1.02207e-07
6.88226e-08
-1.13475e-07
7.11926e-08
-1.25017e-07
7.31716e-08
-1.36775e-07
7.47649e-08
-1.48698e-07
7.59807e-08
-1.6073e-07
7.6829e-08
-1.72821e-07
7.73216e-08
-1.8492e-07
7.74714e-08
-1.96979e-07
7.72922e-08
-2.08951e-07
7.67985e-08
-2.20792e-07
7.60052e-08
-2.32458e-07
7.49275e-08
-2.43911e-07
7.35806e-08
-2.5511e-07
7.19796e-08
-2.6602e-07
7.01395e-08
-2.76608e-07
6.80749e-08
-2.86839e-07
6.58002e-08
-2.96686e-07
6.33294e-08
-3.06118e-07
6.0676e-08
-3.15112e-07
5.7853e-08
-3.23641e-07
5.48731e-08
-3.31684e-07
5.17485e-08
-3.3922e-07
4.84907e-08
-3.46231e-07
4.5111e-08
-3.52698e-07
4.16201e-08
-3.58607e-07
3.80284e-08
-3.63943e-07
3.43459e-08
-3.68693e-07
3.05822e-08
-3.72847e-07
2.67466e-08
-3.76394e-07
2.28481e-08
-3.79326e-07
1.88956e-08
-3.81636e-07
1.48978e-08
-3.83319e-07
1.08632e-08
-3.84369e-07
6.80011e-09
-3.84785e-07
2.7171e-09
-3.84564e-07
-1.37745e-09
-3.83706e-07
-5.47503e-09
-3.82211e-07
-9.56703e-09
-3.80084e-07
-1.36447e-08
-3.77326e-07
-1.7699e-08
-3.73943e-07
-2.17207e-08
-3.69942e-07
-2.57003e-08
-3.65332e-07
-2.9628e-08
-3.60121e-07
-3.34935e-08
-3.54322e-07
-3.72861e-08
-3.47947e-07
-4.0995e-08
-3.41012e-07
-4.46085e-08
-3.33533e-07
-4.81147e-08
-3.25528e-07
-5.15012e-08
-3.17019e-07
-5.47552e-08
-3.08027e-07
-5.78631e-08
-2.98578e-07
-6.08112e-08
-2.88698e-07
-6.35851e-08
-2.78416e-07
-6.61702e-08
-2.67764e-07
-6.85512e-08
-2.56774e-07
-7.07128e-08
-2.45482e-07
-7.26393e-08
-2.33926e-07
-7.43148e-08
-2.22147e-07
-7.57231e-08
-2.10187e-07
-7.68485e-08
-1.9809e-07
-7.7675e-08
-1.85904e-07
-7.81871e-08
-1.73676e-07
-7.83697e-08
-1.61457e-07
-7.82084e-08
-1.49301e-07
-7.76899e-08
-1.37259e-07
-7.68018e-08
-1.25388e-07
-7.55334e-08
-1.13743e-07
-7.38759e-08
-1.02381e-07
-7.18228e-08
-9.13575e-08
-6.93703e-08
-8.07295e-08
-6.65182e-08
-7.05524e-08
-6.32703e-08
-6.08806e-08
-5.96353e-08
-5.17662e-08
-5.56279e-08
-4.32594e-08
-5.12697e-08
-3.54069e-08
-4.65905e-08
-2.82519e-08
-4.16301e-08
-2.18338e-08
-3.64397e-08
-1.61873e-08
-3.10843e-08
-1.1343e-08
-2.56445e-08
-7.32733e-09
-2.02197e-08
-4.16339e-09
-1.49306e-08
-1.87258e-09
-9.92168e-09
-4.76548e-10
-5.36487e-09
-1.47718e-09
-5.47322e-10
2.06192e-09
-2.13689e-09
7.04206e-09
-4.72519e-09
1.26415e-08
-8.27347e-09
1.8646e-08
-1.27456e-08
2.4877e-08
-1.81058e-08
3.11868e-08
-2.43166e-08
3.74536e-08
-3.13379e-08
4.35777e-08
-3.91269e-08
4.94779e-08
-4.76374e-08
5.5089e-08
-5.68202e-08
6.03597e-08
-6.66236e-08
6.52504e-08
-7.69934e-08
6.97321e-08
-8.7874e-08
7.3784e-08
-9.92082e-08
7.73932e-08
-1.10938e-07
8.05525e-08
-1.23006e-07
8.32601e-08
-1.35352e-07
8.55185e-08
-1.47921e-07
8.73337e-08
-1.60655e-07
8.87146e-08
-1.73498e-07
8.96724e-08
-1.86397e-07
9.02202e-08
-1.99298e-07
9.03727e-08
-2.12151e-07
9.01453e-08
-2.24908e-07
8.95546e-08
-2.3752e-07
8.86175e-08
-2.49944e-07
8.73512e-08
-2.62136e-07
8.57731e-08
-2.74057e-07
8.39006e-08
-2.85668e-07
8.17507e-08
-2.96934e-07
7.93403e-08
-3.0782e-07
7.66861e-08
-3.18294e-07
7.3804e-08
-3.28328e-07
7.07097e-08
-3.37893e-07
6.74183e-08
-3.46965e-07
6.39445e-08
-3.55518e-07
6.03021e-08
-3.63532e-07
5.65048e-08
-3.70987e-07
5.25656e-08
-3.77864e-07
4.84969e-08
-3.84146e-07
4.43108e-08
-3.89819e-07
4.0019e-08
-3.94869e-07
3.56325e-08
-3.99285e-07
3.11623e-08
-4.03056e-07
2.6619e-08
-4.06173e-07
2.20127e-08
-4.08629e-07
1.73537e-08
-4.10418e-07
1.26518e-08
-4.11535e-07
7.9169e-09
-4.11976e-07
3.15883e-09
-4.11741e-07
-1.61257e-09
-4.10829e-07
-6.3874e-09
-4.0924e-07
-1.11556e-08
-4.06978e-07
-1.5907e-08
-4.04046e-07
-2.0631e-08
-4.0045e-07
-2.53169e-08
-3.96196e-07