/*--------------------------------*- C++ -*----------------------------------*\
| =========                 |                                                 |
| \\      /  F ield         | OpenFOAM: The Open Source CFD Toolbox           |
|  \\    /   O peration     | Version:  2212                                  |
|   \\  /    A nd           | Website:  www.openfoam.com                      |
|    \\/     M anipulation  |                                                 |
\*---------------------------------------------------------------------------*/
FoamFile
{
    version     2.0;
    format      ascii;
    arch        "LSB;label=32;scalar=64";
    class       volVectorField;
    location    "0.018";
    object      U_0;
}
// * * * * * * * * * * * * * * * * * * * * * * * * * * * * * * * * * * * * * //

dimensions      [0 1 -1 0 0 0 0];

internalField   nonuniform List<vector> 
10000
(
(2.99409e-06 -2.97001e-06 0)
(1.19176e-05 -5.73506e-06 0)
(2.31567e-05 -5.52001e-06 0)
(3.06935e-05 -3.64753e-06 0)
(3.14176e-05 -1.07078e-06 0)
(2.41918e-05 1.73129e-06 0)
(8.68464e-06 4.52169e-06 0)
(-1.50156e-05 7.18095e-06 0)
(-4.65843e-05 9.65751e-06 0)
(-8.55469e-05 1.19311e-05 0)
(-0.000131366 1.40011e-05 0)
(-0.000183459 1.58625e-05 0)
(-0.000241225 1.7522e-05 0)
(-0.000304057 1.89806e-05 0)
(-0.00037136 2.02431e-05 0)
(-0.000442545 2.1326e-05 0)
(-0.000517052 2.22396e-05 0)
(-0.000594337 2.29881e-05 0)
(-0.000673878 2.35842e-05 0)
(-0.000755181 2.40366e-05 0)
(-0.000837782 2.43535e-05 0)
(-0.000921228 2.45391e-05 0)
(-0.0010051 2.45969e-05 0)
(-0.00108899 2.45301e-05 0)
(-0.00117252 2.43487e-05 0)
(-0.00125535 2.40711e-05 0)
(-0.00133713 2.37112e-05 0)
(-0.00141758 2.32748e-05 0)
(-0.00149639 2.27615e-05 0)
(-0.0015733 2.21692e-05 0)
(-0.00164806 2.14986e-05 0)
(-0.00172042 2.07581e-05 0)
(-0.00179019 1.99588e-05 0)
(-0.00185714 1.91065e-05 0)
(-0.00192111 1.82058e-05 0)
(-0.00198191 1.72579e-05 0)
(-0.0020394 1.62654e-05 0)
(-0.00209343 1.52345e-05 0)
(-0.00214387 1.41685e-05 0)
(-0.0021906 1.30722e-05 0)
(-0.00223352 1.19489e-05 0)
(-0.00227252 1.07985e-05 0)
(-0.00230753 9.62347e-06 0)
(-0.00233846 8.42611e-06 0)
(-0.00236524 7.20968e-06 0)
(-0.00238781 5.9786e-06 0)
(-0.00240613 4.73504e-06 0)
(-0.00242014 3.48078e-06 0)
(-0.00242982 2.21683e-06 0)
(-0.00243513 9.43626e-07 0)
(-0.00243605 -3.36351e-07 0)
(-0.00243257 -1.61944e-06 0)
(-0.00242469 -2.90188e-06 0)
(-0.00241242 -4.18084e-06 0)
(-0.00239576 -5.45556e-06 0)
(-0.00237474 -6.72408e-06 0)
(-0.0023494 -7.98212e-06 0)
(-0.00231978 -9.22668e-06 0)
(-0.00228593 -1.0455e-05 0)
(-0.00224792 -1.16621e-05 0)
(-0.00220584 -1.28437e-05 0)
(-0.00215976 -1.39977e-05 0)
(-0.0021098 -1.51209e-05 0)
(-0.00205606 -1.62076e-05 0)
(-0.0019987 -1.72532e-05 0)
(-0.00193784 -1.82544e-05 0)
(-0.00187366 -1.92061e-05 0)
(-0.00180632 -2.01033e-05 0)
(-0.00173602 -2.09429e-05 0)
(-0.00166297 -2.17225e-05 0)
(-0.0015874 -2.24358e-05 0)
(-0.00150954 -2.30757e-05 0)
(-0.00142966 -2.36357e-05 0)
(-0.00134806 -2.41089e-05 0)
(-0.00126504 -2.44861e-05 0)
(-0.00118093 -2.47587e-05 0)
(-0.00109609 -2.49218e-05 0)
(-0.0010109 -2.49706e-05 0)
(-0.000925758 -2.48985e-05 0)
(-0.000841082 -2.46981e-05 0)
(-0.000757315 -2.43631e-05 0)
(-0.000674922 -2.38865e-05 0)
(-0.000594392 -2.32593e-05 0)
(-0.00051624 -2.24717e-05 0)
(-0.000440999 -2.15153e-05 0)
(-0.000369224 -2.03829e-05 0)
(-0.000301484 -1.90678e-05 0)
(-0.000238362 -1.7564e-05 0)
(-0.000180451 -1.58671e-05 0)
(-0.00012835 -1.39727e-05 0)
(-8.26502e-05 -1.18765e-05 0)
(-4.39251e-05 -9.57658e-06 0)
(-1.27053e-05 -7.081e-06 0)
(1.05593e-05 -4.41753e-06 0)
(2.55699e-05 -1.64367e-06 0)
(3.22901e-05 1.12598e-06 0)
(3.11149e-05 3.66194e-06 0)
(2.32514e-05 5.49843e-06 0)
(1.18722e-05 5.71153e-06 0)
(2.94522e-06 2.9442e-06 0)
(5.64857e-06 -1.18464e-05 0)
(1.97646e-05 -1.97606e-05 0)
(3.32622e-05 -1.59975e-05 0)
(3.60495e-05 -5.42583e-06 0)
(2.22305e-05 8.60884e-06 0)
(-1.09608e-05 2.41165e-05 0)
(-6.47229e-05 3.99863e-05 0)
(-0.000139279 5.55337e-05 0)
(-0.000234162 7.03823e-05 0)
(-0.000348457 8.4296e-05 0)
(-0.00048097 9.71488e-05 0)
(-0.000630327 0.000108873 0)
(-0.000795048 0.000119435 0)
(-0.00097361 0.00012883 0)
(-0.00116446 0.000137071 0)
(-0.00136606 0.000144187 0)
(-0.00157691 0.000150217 0)
(-0.00179554 0.000155207 0)
(-0.00202053 0.000159197 0)
(-0.00225052 0.000162235 0)
(-0.0024842 0.000164367 0)
(-0.00272033 0.000165642 0)
(-0.00295773 0.000166102 0)
(-0.00319526 0.00016579 0)
(-0.00343186 0.000164749 0)
(-0.00366655 0.000163029 0)
(-0.00389838 0.000160677 0)
(-0.00412648 0.00015774 0)
(-0.00435002 0.000154256 0)
(-0.00456822 0.000150255 0)
(-0.00478038 0.000145768 0)
(-0.00498582 0.000140827 0)
(-0.00518391 0.000135472 0)
(-0.00537409 0.000129734 0)
(-0.00555582 0.000123643 0)
(-0.0057286 0.000117231 0)
(-0.00589199 0.000110521 0)
(-0.00604557 0.000103538 0)
(-0.00618897 9.63087e-05 0)
(-0.00632183 8.88527e-05 0)
(-0.00644385 8.11939e-05 0)
(-0.00655473 7.33511e-05 0)
(-0.00665423 6.53429e-05 0)
(-0.00674212 5.71889e-05 0)
(-0.00681821 4.89058e-05 0)
(-0.00688231 4.05113e-05 0)
(-0.00693429 3.20233e-05 0)
(-0.00697401 2.34569e-05 0)
(-0.00700137 1.48266e-05 0)
(-0.0070163 6.1481e-06 0)
(-0.00701874 -2.56214e-06 0)
(-0.00700866 -1.12868e-05 0)
(-0.00698607 -2.00079e-05 0)
(-0.00695097 -2.87071e-05 0)
(-0.00690342 -3.73671e-05 0)
(-0.0068435 -4.59701e-05 0)
(-0.0067713 -5.44954e-05 0)
(-0.00668694 -6.29215e-05 0)
(-0.00659061 -7.12274e-05 0)
(-0.00648248 -7.93902e-05 0)
(-0.0063628 -8.73844e-05 0)
(-0.00623181 -9.51834e-05 0)
(-0.00608981 -0.000102761 0)
(-0.00593716 -0.000110092 0)
(-0.00577421 -0.000117149 0)
(-0.00560138 -0.000123901 0)
(-0.00541916 -0.000130317 0)
(-0.00522803 -0.000136365 0)
(-0.00502855 -0.000142015 0)
(-0.00482133 -0.000147233 0)
(-0.00460702 -0.000151982 0)
(-0.00438631 -0.000156226 0)
(-0.00415999 -0.000159922 0)
(-0.00392885 -0.000163026 0)
(-0.00369379 -0.000165491 0)
(-0.00345573 -0.000167273 0)
(-0.00321567 -0.000168331 0)
(-0.00297468 -0.000168622 0)
(-0.00273387 -0.000168104 0)
(-0.00249442 -0.000166732 0)
(-0.00225756 -0.000164463 0)
(-0.0020246 -0.000161252 0)
(-0.00179688 -0.000157054 0)
(-0.00157583 -0.000151826 0)
(-0.00136287 -0.000145527 0)
(-0.00115952 -0.000138124 0)
(-0.000967308 -0.00012959 0)
(-0.000787769 -0.000119908 0)
(-0.000622453 -0.00010907 0)
(-0.000472882 -9.70852e-05 0)
(-0.000340522 -8.39847e-05 0)
(-0.000226722 -6.98403e-05 0)
(-0.000132643 -5.47912e-05 0)
(-5.91468e-05 -3.90839e-05 0)
(-6.6333e-06 -2.3134e-05 0)
(2.52181e-05 -7.63776e-06 0)
(3.77774e-05 6.2351e-06 0)
(3.40089e-05 1.65194e-05 0)
(1.99595e-05 1.99756e-05 0)
(5.69136e-06 1.18587e-05 0)
(5.32448e-06 -2.30026e-05 0)
(1.61659e-05 -3.33617e-05 0)
(2.0178e-05 -1.97199e-05 0)
(6.15147e-06 8.60239e-06 0)
(-3.28098e-05 4.50739e-05 0)
(-0.000100353 8.5551e-05 0)
(-0.000198244 0.00012736 0)
(-0.000326978 0.000168817 0)
(-0.000486073 0.000208809 0)
(-0.000674388 0.00024663 0)
(-0.000890305 0.000281834 0)
(-0.0011319 0.000314151 0)
(-0.00139707 0.000343432 0)
(-0.00168356 0.000369617 0)
(-0.00198908 0.0003927 0)
(-0.00231132 0.000412722 0)
(-0.002648 0.00042976 0)
(-0.00299687 0.000443905 0)
(-0.00335574 0.00045526 0)
(-0.0037225 0.000463942 0)
(-0.0040951 0.000470069 0)
(-0.0044716 0.000473763 0)
(-0.00485013 0.000475155 0)
(-0.00522894 0.000474365 0)
(-0.00560633 0.000471513 0)
(-0.00598072 0.000466723 0)
(-0.00635062 0.000460112 0)
(-0.00671462 0.000451797 0)
(-0.00707142 0.000441891 0)
(-0.00741976 0.000430499 0)
(-0.0077585 0.000417718 0)
(-0.00808657 0.000403644 0)
(-0.00840296 0.00038837 0)
(-0.00870675 0.000371988 0)
(-0.00899709 0.000354583 0)
(-0.00927317 0.000336237 0)
(-0.00953427 0.000317028 0)
(-0.00977973 0.000297028 0)
(-0.0100089 0.000276304 0)
(-0.0102213 0.000254923 0)
(-0.0104163 0.000232944 0)
(-0.0105935 0.00021043 0)
(-0.0107526 0.000187437 0)
(-0.010893 0.000164018 0)
(-0.0110146 0.000140228 0)
(-0.011117 0.000116116 0)
(-0.0112 9.17281e-05 0)
(-0.0112634 6.71149e-05 0)
(-0.0113069 4.23233e-05 0)
(-0.0113306 1.73999e-05 0)
(-0.0113344 -7.6067e-06 0)
(-0.0113181 -3.26465e-05 0)
(-0.0112818 -5.76696e-05 0)
(-0.0112255 -8.2626e-05 0)
(-0.0111493 -0.000107464 0)
(-0.0110533 -0.000132127 0)
(-0.0109377 -0.000156556 0)
(-0.0108027 -0.000180695 0)
(-0.0106486 -0.000204481 0)
(-0.0104757 -0.000227846 0)
(-0.0102844 -0.000250721 0)
(-0.010075 -0.000273036 0)
(-0.00984809 -0.000294714 0)
(-0.00960419 -0.000315676 0)
(-0.00934389 -0.000335843 0)
(-0.00906788 -0.000355133 0)
(-0.0087769 -0.000373455 0)
(-0.00847177 -0.000390716 0)
(-0.00815337 -0.000406822 0)
(-0.00782266 -0.000421675 0)
(-0.00748072 -0.000435173 0)
(-0.00712866 -0.000447206 0)
(-0.0067677 -0.000457661 0)
(-0.00639915 -0.000466419 0)
(-0.00602442 -0.00047336 0)
(-0.00564497 -0.000478362 0)
(-0.0052624 -0.000481307 0)
(-0.00487837 -0.000482074 0)
(-0.00449465 -0.000480542 0)
(-0.0041131 -0.000476594 0)
(-0.00373566 -0.000470109 0)
(-0.00336436 -0.000460971 0)
(-0.0030013 -0.000449066 0)
(-0.00264868 -0.000434291 0)
(-0.00230873 -0.000416554 0)
(-0.00198375 -0.000395782 0)
(-0.00167604 -0.000371926 0)
(-0.00138795 -0.000344963 0)
(-0.00112177 -0.000314915 0)
(-0.000879724 -0.000281861 0)
(-0.000663918 -0.000245959 0)
(-0.000476226 -0.000207494 0)
(-0.000318197 -0.000166936 0)
(-0.000190896 -0.000125037 0)
(-9.46837e-05 -8.29601e-05 0)
(-2.89096e-05 -4.25005e-05 0)
(8.43782e-06 -6.41296e-06 0)
(2.12432e-05 2.11438e-05 0)
(1.65391e-05 3.40299e-05 0)
(5.47238e-06 2.3201e-05 0)
(3.5036e-06 -3.06681e-05 0)
(6.04566e-06 -3.67967e-05 0)
(-6.89809e-06 -6.07489e-06 0)
(-4.56482e-05 4.78289e-05 0)
(-0.000117001 0.00011523 0)
(-0.000224914 0.000189629 0)
(-0.000371385 0.000266668 0)
(-0.000556988 0.000343388 0)
(-0.00078122 0.00041778 0)
(-0.00104275 0.000488484 0)
(-0.00133966 0.000554594 0)
(-0.00166964 0.000615529 0)
(-0.00203007 0.00067095 0)
(-0.00241817 0.000720677 0)
(-0.00283105 0.000764653 0)
(-0.00326578 0.000802913 0)
(-0.00371942 0.000835554 0)
(-0.00418908 0.000862719 0)
(-0.00467191 0.000884589 0)
(-0.00516514 0.00090135 0)
(-0.0056661 0.000913217 0)
(-0.00617221 0.00092041 0)
(-0.00668103 0.000923159 0)
(-0.00719021 0.000921698 0)
(-0.0076975 0.000916259 0)
(-0.00820081 0.000907065 0)
(-0.00869813 0.000894338 0)
(-0.00918757 0.000878294 0)
(-0.00966736 0.000859144 0)
(-0.0101358 0.000837093 0)
(-0.0105915 0.000812334 0)
(-0.0110328 0.000785057 0)
(-0.0114585 0.000755439 0)
(-0.0118672 0.000723651 0)
(-0.0122579 0.000689861 0)
(-0.0126294 0.000654224 0)
(-0.0129809 0.000616892 0)
(-0.0133112 0.000578007 0)
(-0.0136197 0.0005377 0)
(-0.0139056 0.000496101 0)
(-0.0141681 0.000453331 0)
(-0.0144066 0.000409503 0)
(-0.0146207 0.000364736 0)
(-0.0148098 0.000319133 0)
(-0.0149734 0.000272797 0)
(-0.0151111 0.000225832 0)
(-0.0152227 0.000178333 0)
(-0.0153079 0.000130391 0)
(-0.0153665 8.21047e-05 0)
(-0.0153982 3.35691e-05 0)
(-0.015403 -1.51214e-05 0)
(-0.0153809 -6.38706e-05 0)
(-0.0153318 -0.00011258 0)
(-0.0152558 -0.000161149 0)
(-0.015153 -0.000209474 0)
(-0.0150236 -0.00025745 0)
(-0.0148678 -0.000304963 0)
(-0.014686 -0.000351896 0)
(-0.0144784 -0.000398126 0)
(-0.0142455 -0.000443532 0)
(-0.0139878 -0.000487977 0)
(-0.0137059 -0.00053132 0)
(-0.0134005 -0.000573415 0)
(-0.0130722 -0.000614115 0)
(-0.012722 -0.00065326 0)
(-0.0123506 -0.000690684 0)
(-0.0119592 -0.000726215 0)
(-0.0115489 -0.000759676 0)
(-0.0111207 -0.00079088 0)
(-0.0106761 -0.000819635 0)
(-0.0102165 -0.00084574 0)
(-0.0097433 -0.000868987 0)
(-0.00925824 -0.000889161 0)
(-0.00876304 -0.00090604 0)
(-0.00825959 -0.0009194 0)
(-0.00774987 -0.000929014 0)
(-0.00723597 -0.000934653 0)
(-0.00672013 -0.000936088 0)
(-0.00620469 -0.000933097 0)
(-0.00569212 -0.000925454 0)
(-0.00518496 -0.000912941 0)
(-0.0046859 -0.000895347 0)
(-0.00419771 -0.000872477 0)
(-0.00372323 -0.000844155 0)
(-0.00326537 -0.000810235 0)
(-0.00282708 -0.000770604 0)
(-0.00241135 -0.000725199 0)
(-0.00202114 -0.000674023 0)
(-0.00165933 -0.000617169 0)
(-0.00132869 -0.000554846 0)
(-0.00103181 -0.000487431 0)
(-0.000770924 -0.000415541 0)
(-0.000547868 -0.000340132 0)
(-0.000363838 -0.000262639 0)
(-0.000219186 -0.000185178 0)
(-0.000113126 -0.00011085 0)
(-4.3403e-05 -4.41672e-05 0)
(-5.83617e-06 8.44229e-06 0)
(6.46451e-06 3.795e-05 0)
(3.68536e-06 3.10999e-05 0)
(1.03908e-06 -3.17722e-05 0)
(-7.51606e-06 -2.42099e-05 0)
(-4.22983e-05 3.16892e-05 0)
(-0.000111153 0.000118733 0)
(-0.000219982 0.000224465 0)
(-0.000372597 0.000340205 0)
(-0.000570911 0.000459892 0)
(-0.000815416 0.000579272 0)
(-0.00110546 0.000695341 0)
(-0.00143955 0.000805997 0)
(-0.00181552 0.000909786 0)
(-0.00223073 0.00100575 0)
(-0.00268217 0.00109326 0)
(-0.00316663 0.00117199 0)
(-0.00368074 0.00124178 0)
(-0.00422105 0.00130264 0)
(-0.00478408 0.00135466 0)
(-0.00536639 0.00139803 0)
(-0.00596459 0.001433 0)
(-0.00657534 0.00145986 0)
(-0.00719543 0.0014789 0)
(-0.00782174 0.00149048 0)
(-0.00845127 0.00149492 0)
(-0.00908118 0.00149259 0)
(-0.00970873 0.00148385 0)
(-0.0103313 0.00146906 0)
(-0.0109466 0.00144856 0)
(-0.0115521 0.0014227 0)
(-0.0121456 0.0013918 0)
(-0.0127253 0.0013562 0)
(-0.0132891 0.0013162 0)
(-0.0138352 0.00127211 0)
(-0.014362 0.00122422 0)
(-0.0148679 0.0011728 0)
(-0.0153514 0.00111811 0)
(-0.0158113 0.00106042 0)
(-0.0162463 0.000999963 0)
(-0.0166553 0.000936968 0)
(-0.0170372 0.000871653 0)
(-0.0173911 0.000804227 0)
(-0.0177161 0.000734891 0)
(-0.0180114 0.000663832 0)
(-0.0182764 0.000591229 0)
(-0.0185104 0.000517266 0)
(-0.0187129 0.000442108 0)
(-0.0188833 0.000365919 0)
(-0.0190214 0.000288861 0)
(-0.0191267 0.000211093 0)
(-0.0191991 0.000132768 0)
(-0.0192382 5.40392e-05 0)
(-0.019244 -2.49335e-05 0)
(-0.0192164 -0.00010399 0)
(-0.0191554 -0.000182972 0)
(-0.019061 -0.000261717 0)
(-0.0189335 -0.000340055 0)
(-0.0187731 -0.000417808 0)
(-0.01858 -0.000494796 0)
(-0.0183546 -0.000570832 0)
(-0.0180974 -0.000645716 0)
(-0.0178089 -0.000719243 0)
(-0.0174898 -0.000791198 0)
(-0.0171407 -0.000861355 0)
(-0.0167625 -0.000929481 0)
(-0.0163562 -0.00099533 0)
(-0.0159227 -0.00105865 0)
(-0.0154632 -0.00111916 0)
(-0.0149788 -0.00117659 0)
(-0.0144711 -0.00123066 0)
(-0.0139415 -0.00128106 0)
(-0.0133916 -0.00132748 0)
(-0.0128231 -0.0013696 0)
(-0.012238 -0.00140708 0)
(-0.0116382 -0.00143959 0)
(-0.011026 -0.00146678 0)
(-0.0104036 -0.00148828 0)
(-0.00977339 -0.00150375 0)
(-0.00913806 -0.00151282 0)
(-0.0085003 -0.00151513 0)
(-0.00786296 -0.00151034 0)
(-0.00722903 -0.00149809 0)
(-0.00660162 -0.00147806 0)
(-0.00598397 -0.00144992 0)
(-0.00537941 -0.0014134 0)
(-0.00479137 -0.00136824 0)
(-0.00422331 -0.00131424 0)
(-0.00367876 -0.00125127 0)
(-0.00316122 -0.00117926 0)
(-0.00267419 -0.00109828 0)
(-0.00222102 -0.00100854 0)
(-0.00180492 -0.000910434 0)
(-0.00142882 -0.000804637 0)
(-0.00109529 -0.000692186 0)
(-0.000806386 -0.000574615 0)
(-0.000563448 -0.000454139 0)
(-0.000366925 -0.000333906 0)
(-0.000216115 -0.000218355 0)
(-0.000108853 -0.000113691 0)
(-4.11421e-05 -2.8427e-05 0)
(-7.04758e-06 2.58563e-05 0)
(1.2352e-06 3.2464e-05 0)
(-1.63025e-06 -2.51683e-05 0)
(-2.26752e-05 7.33907e-06 0)
(-8.20468e-05 9.7439e-05 0)
(-0.000184346 0.000225443 0)
(-0.000333932 0.000376676 0)
(-0.000534122 0.000540573 0)
(-0.000786483 0.000709509 0)
(-0.00109121 0.000877976 0)
(-0.00144745 0.00104196 0)
(-0.00185346 0.00119859 0)
(-0.00230683 0.00134582 0)
(-0.00280462 0.00148223 0)
(-0.00334352 0.00160691 0)
(-0.00391993 0.0017193 0)
(-0.00453009 0.00181912 0)
(-0.00517011 0.00190631 0)
(-0.00583608 0.00198095 0)
(-0.00652408 0.00204327 0)
(-0.00723024 0.00209356 0)
(-0.00795075 0.00213221 0)
(-0.00868192 0.00215964 0)
(-0.00942016 0.00217629 0)
(-0.010162 0.00218265 0)
(-0.0109042 0.00217921 0)
(-0.0116435 0.00216646 0)
(-0.0123769 0.00214492 0)
(-0.0131015 0.00211507 0)
(-0.0138147 0.00207741 0)
(-0.0145139 0.00203241 0)
(-0.0151967 0.00198054 0)
(-0.0158608 0.00192226 0)
(-0.0165041 0.00185798 0)
(-0.0171246 0.00178814 0)
(-0.0177206 0.00171313 0)
(-0.0182903 0.00163334 0)
(-0.0188322 0.00154914 0)
(-0.0193447 0.00146087 0)
(-0.0198265 0.00136888 0)
(-0.0202765 0.00127348 0)
(-0.0206934 0.00117498 0)
(-0.0210764 0.00107367 0)
(-0.0214243 0.000969834 0)
(-0.0217365 0.000863733 0)
(-0.0220122 0.000755624 0)
(-0.0222507 0.000645761 0)
(-0.0224515 0.00053439 0)
(-0.0226141 0.000421744 0)
(-0.0227381 0.000308055 0)
(-0.0228231 0.000193556 0)
(-0.022869 7.84786e-05 0)
(-0.0228757 -3.69499e-05 0)
(-0.0228429 -0.000152496 0)
(-0.0227708 -0.000267921 0)
(-0.0226594 -0.000382983 0)
(-0.0225089 -0.000497432 0)
(-0.0223196 -0.000611013 0)
(-0.0220918 -0.000723459 0)
(-0.021826 -0.000834495 0)
(-0.0215227 -0.000943829 0)
(-0.0211826 -0.00105116 0)
(-0.0208064 -0.00115618 0)
(-0.020395 -0.00125856 0)
(-0.0199494 -0.00135795 0)
(-0.0194706 -0.00145399 0)
(-0.0189599 -0.00154632 0)
(-0.0184185 -0.00163454 0)
(-0.0178481 -0.00171826 0)
(-0.0172501 -0.00179704 0)
(-0.0166264 -0.00187045 0)
(-0.0159789 -0.00193804 0)
(-0.0153095 -0.00199935 0)
(-0.0146206 -0.0020539 0)
(-0.0139145 -0.0021012 0)
(-0.0131937 -0.00214074 0)
(-0.0124609 -0.00217203 0)
(-0.011719 -0.00219455 0)
(-0.0109709 -0.00220779 0)
(-0.0102199 -0.00221124 0)
(-0.00946924 -0.00220442 0)
(-0.00872238 -0.00218684 0)
(-0.00798292 -0.00215803 0)
(-0.00725458 -0.00211759 0)
(-0.0065412 -0.00206512 0)
(-0.00584667 -0.00200031 0)
(-0.00517497 -0.0019229 0)
(-0.00453008 -0.00183275 0)
(-0.00391597 -0.00172983 0)
(-0.00333655 -0.00161429 0)
(-0.00279558 -0.0014865 0)
(-0.00229661 -0.0013471 0)
(-0.00184291 -0.0011971 0)
(-0.00143732 -0.00103802 0)
(-0.00108211 -0.000872021 0)
(-0.000778856 -0.000702132 0)
(-0.000528215 -0.00053253 0)
(-0.00032977 -0.000368926 0)
(-0.000181733 -0.000219058 0)
(-8.06547e-05 -9.32371e-05 0)
(-2.20954e-05 -5.10992e-06 0)
(-1.42928e-06 2.61567e-05 0)
(-4.28534e-06 -1.04949e-05 0)
(-3.82762e-05 5.92391e-05 0)
(-0.000123516 0.000193283 0)
(-0.000260948 0.000370375 0)
(-0.000453105 0.000574228 0)
(-0.000702509 0.000792739 0)
(-0.00101015 0.00101696 0)
(-0.00137579 0.00124021 0)
(-0.00179821 0.00145756 0)
(-0.00227539 0.00166534 0)
(-0.00280463 0.0018609 0)
(-0.00338272 0.00204238 0)
(-0.00400603 0.00220851 0)
(-0.00467064 0.00235849 0)
(-0.00537245 0.00249189 0)
(-0.0061072 0.00260855 0)
(-0.00687059 0.00270855 0)
(-0.0076583 0.00279211 0)
(-0.00846605 0.00285959 0)
(-0.00928962 0.00291144 0)
(-0.0101249 0.0029482 0)
(-0.0109679 0.00297046 0)
(-0.0118147 0.00297882 0)
(-0.0126617 0.00297393 0)
(-0.0135052 0.00295644 0)
(-0.0143418 0.00292701 0)
(-0.0151685 0.0028863 0)
(-0.015982 0.00283497 0)
(-0.0167794 0.00277365 0)
(-0.0175582 0.00270296 0)
(-0.0183156 0.00262352 0)
(-0.0190493 0.0025359 0)
(-0.0197571 0.00244067 0)
(-0.0204369 0.00233839 0)
(-0.0210867 0.00222956 0)
(-0.0217047 0.00211469 0)
(-0.0222892 0.00199426 0)
(-0.0228389 0.00186872 0)
(-0.0233521 0.00173851 0)
(-0.0238277 0.00160405 0)
(-0.0242644 0.00146573 0)
(-0.0246613 0.00132394 0)
(-0.0250174 0.00117905 0)
(-0.0253317 0.00103141 0)
(-0.0256037 0.000881369 0)
(-0.0258326 0.000729255 0)
(-0.026018 0.000575398 0)
(-0.0261592 0.000420118 0)
(-0.0262561 0.000263734 0)
(-0.0263083 0.000106563 0)
(-0.0263156 -5.10773e-05 0)
(-0.026278 -0.000208866 0)
(-0.0261955 -0.000366477 0)
(-0.0260682 -0.000523577 0)
(-0.0258963 -0.000679824 0)
(-0.0256801 -0.000834866 0)
(-0.0254201 -0.000988337 0)
(-0.0251167 -0.00113986 0)
(-0.0247706 -0.00128904 0)
(-0.0243824 -0.00143547 0)
(-0.0239532 -0.00157872 0)
(-0.0234838 -0.00171833 0)
(-0.0229754 -0.00185385 0)
(-0.0224293 -0.00198479 0)
(-0.0218467 -0.00211064 0)
(-0.0212294 -0.00223087 0)
(-0.0205788 -0.00234492 0)
(-0.019897 -0.00245224 0)
(-0.0191858 -0.00255223 0)
(-0.0184474 -0.00264427 0)
(-0.0176843 -0.00272774 0)
(-0.0168988 -0.00280201 0)
(-0.0160938 -0.0028664 0)
(-0.015272 -0.00292025 0)
(-0.0144364 -0.00296289 0)
(-0.0135904 -0.00299363 0)
(-0.0127372 -0.0030118 0)
(-0.0118805 -0.00301674 0)
(-0.011024 -0.00300778 0)
(-0.0101715 -0.00298432 0)
(-0.00932704 -0.00294576 0)
(-0.00849482 -0.00289155 0)
(-0.00767908 -0.00282123 0)
(-0.00688413 -0.0027344 0)
(-0.00611437 -0.00263078 0)
(-0.00537417 -0.00251022 0)
(-0.00466791 -0.00237276 0)
(-0.00399985 -0.00221865 0)
(-0.00337411 -0.00204844 0)
(-0.00279456 -0.00186307 0)
(-0.00226476 -0.00166391 0)
(-0.00178782 -0.00145298 0)
(-0.00136629 -0.00123308 0)
(-0.00100203 -0.00100804 0)
(-0.000696052 -0.000783006 0)
(-0.000448385 -0.000564833 0)
(-0.000257844 -0.00036257 0)
(-0.000121788 -0.000187988 0)
(-3.75752e-05 -5.6265e-05 0)
(-4.08932e-06 1.18238e-05 0)
(-6.8343e-06 1.22318e-05 0)
(-5.36995e-05 0.00013188 0)
(-0.000165028 0.000320043 0)
(-0.000338129 0.000554613 0)
(-0.000573529 0.000818217 0)
(-0.000872778 0.00109763 0)
(-0.00123613 0.00138279 0)
(-0.00166274 0.00166604 0)
(-0.00215097 0.00194158 0)
(-0.00269841 0.00220503 0)
(-0.00330204 0.00245317 0)
(-0.00395835 0.00268365 0)
(-0.0046634 0.00289486 0)
(-0.00541299 0.00308575 0)
(-0.00620266 0.0032557 0)
(-0.00702786 0.00340447 0)
(-0.00788394 0.00353207 0)
(-0.00876622 0.00363875 0)
(-0.00967008 0.00372491 0)
(-0.0105909 0.00379109 0)
(-0.0115243 0.00383792 0)
(-0.0124657 0.00386612 0)
(-0.0134111 0.00387644 0)
(-0.0143564 0.00386968 0)
(-0.0152975 0.00384667 0)
(-0.0162309 0.00380823 0)
(-0.0171529 0.00375519 0)
(-0.0180602 0.00368839 0)
(-0.0189495 0.00360863 0)
(-0.0198178 0.00351672 0)
(-0.0206624 0.00341342 0)
(-0.0214805 0.00329951 0)
(-0.0222697 0.00317569 0)
(-0.0230276 0.00304267 0)
(-0.023752 0.00290114 0)
(-0.0244411 0.00275172 0)
(-0.0250928 0.00259505 0)
(-0.0257056 0.00243173 0)
(-0.0262778 0.0022623 0)
(-0.026808 0.00208732 0)
(-0.0272949 0.00190731 0)
(-0.0277374 0.00172277 0)
(-0.0281343 0.00153417 0)
(-0.0284847 0.00134198 0)
(-0.0287878 0.00114666 0)
(-0.029043 0.000948636 0)
(-0.0292494 0.000748338 0)
(-0.0294068 0.000546189 0)
(-0.0295146 0.000342605 0)
(-0.0295726 0.000138003 0)
(-0.0295806 -6.72011e-05 0)
(-0.0295385 -0.000272584 0)
(-0.0294463 -0.000477722 0)
(-0.0293042 -0.00068218 0)
(-0.0291123 -0.000885508 0)
(-0.0288711 -0.00108725 0)
(-0.0285809 -0.00128692 0)
(-0.0282425 -0.00148403 0)
(-0.0278564 -0.00167808 0)
(-0.0274235 -0.00186851 0)
(-0.0269448 -0.00205479 0)
(-0.0264214 -0.00223632 0)
(-0.0258545 -0.0024125 0)
(-0.0252456 -0.0025827 0)
(-0.0245961 -0.00274625 0)
(-0.0239078 -0.00290248 0)
(-0.0231826 -0.00305067 0)
(-0.0224224 -0.00319009 0)
(-0.0216297 -0.00331997 0)
(-0.0208066 -0.00343953 0)
(-0.0199559 -0.00354796 0)
(-0.0190803 -0.00364443 0)
(-0.0181828 -0.00372811 0)
(-0.0172666 -0.00379813 0)
(-0.0163349 -0.00385364 0)
(-0.0153915 -0.00389377 0)
(-0.0144398 -0.00391768 0)
(-0.013484 -0.00392452 0)
(-0.0125281 -0.00391347 0)
(-0.0115763 -0.00388377 0)
(-0.010633 -0.00383469 0)
(-0.00970278 -0.00376557 0)
(-0.00879021 -0.00367585 0)
(-0.00790002 -0.00356506 0)
(-0.00703696 -0.0034329 0)
(-0.00620576 -0.00327924 0)
(-0.00541114 -0.00310418 0)
(-0.00465769 -0.00290812 0)
(-0.00394985 -0.00269181 0)
(-0.00329179 -0.00245647 0)
(-0.00268737 -0.00220386 0)
(-0.00214 -0.00193651 0)
(-0.00165254 -0.00165783 0)
(-0.00122723 -0.00137238 0)
(-0.000865536 -0.00108619 0)
(-0.000568081 -0.000807105 0)
(-0.00033444 -0.000545234 0)
(-0.000162935 -0.000313447 0)
(-5.28567e-05 -0.000127969 0)
(-6.63517e-06 -1.04984e-05 0)
(-9.23548e-06 4.27596e-05 0)
(-6.85884e-05 0.000225027 0)
(-0.000205614 0.000477678 0)
(-0.000414104 0.00077827 0)
(-0.000692585 0.00110884 0)
(-0.00104154 0.00145536 0)
(-0.00146036 0.00180692 0)
(-0.00194753 0.00215506 0)
(-0.00250083 0.00249323 0)
(-0.00311744 0.00281643 0)
(-0.00379396 0.00312087 0)
(-0.00452655 0.00340377 0)
(-0.00531096 0.00366318 0)
(-0.00614267 0.00389779 0)
(-0.00701694 0.0041068 0)
(-0.00792891 0.00428986 0)
(-0.0088736 0.00444694 0)
(-0.00984604 0.00457826 0)
(-0.0108413 0.0046843 0)
(-0.0118544 0.00476565 0)
(-0.0128806 0.00482306 0)
(-0.0139152 0.00485737 0)
(-0.0149536 0.00486948 0)
(-0.0159914 0.00486036 0)
(-0.0170245 0.00483099 0)
(-0.0180488 0.00478239 0)
(-0.0190604 0.00471557 0)
(-0.0200557 0.00463155 0)
(-0.0210312 0.00453134 0)
(-0.0219836 0.0044159 0)
(-0.0229098 0.0042862 0)
(-0.0238069 0.00414319 0)
(-0.0246723 0.00398775 0)
(-0.0255033 0.00382077 0)
(-0.0262977 0.00364308 0)
(-0.0270532 0.00345549 0)
(-0.0277677 0.00325878 0)
(-0.0284395 0.00305369 0)
(-0.0290669 0.00284093 0)
(-0.0296482 0.00262118 0)
(-0.0301819 0.00239509 0)
(-0.030667 0.0021633 0)
(-0.0311021 0.0019264 0)
(-0.0314862 0.00168499 0)
(-0.0318184 0.00143963 0)
(-0.032098 0.00119087 0)
(-0.0323243 0.000939252 0)
(-0.0324967 0.000685308 0)
(-0.0326147 0.000429568 0)
(-0.0326782 0.000172557 0)
(-0.0326868 -8.52e-05 0)
(-0.0326404 -0.000343173 0)
(-0.0325392 -0.000600822 0)
(-0.0323831 -0.000857595 0)
(-0.0321726 -0.00111293 0)
(-0.031908 -0.00136625 0)
(-0.0315897 -0.00161695 0)
(-0.0312185 -0.00186442 0)
(-0.030795 -0.00210801 0)
(-0.0303203 -0.00234704 0)
(-0.0297954 -0.00258082 0)
(-0.0292215 -0.00280863 0)
(-0.0285999 -0.0030297 0)
(-0.0279322 -0.00324324 0)
(-0.0272202 -0.00344842 0)
(-0.0264655 -0.0036444 0)
(-0.0256704 -0.00383028 0)
(-0.024837 -0.00400515 0)
(-0.0239679 -0.00416805 0)
(-0.0230655 -0.00431802 0)
(-0.0221327 -0.00445404 0)
(-0.0211726 -0.0045751 0)
(-0.0201884 -0.00468016 0)
(-0.0191835 -0.00476816 0)
(-0.0181616 -0.00483804 0)
(-0.0171265 -0.00488874 0)
(-0.0160822 -0.00491924 0)
(-0.015033 -0.00492849 0)
(-0.0139833 -0.00491553 0)
(-0.0129376 -0.00487942 0)
(-0.0119007 -0.00481929 0)
(-0.0108775 -0.00473437 0)
(-0.00987284 -0.00462401 0)
(-0.00889184 -0.00448768 0)
(-0.00793956 -0.00432506 0)
(-0.00702105 -0.00413605 0)
(-0.00614135 -0.00392083 0)
(-0.00530536 -0.00367994 0)
(-0.00451782 -0.00341435 0)
(-0.0037832 -0.00312555 0)
(-0.00310566 -0.00281571 0)
(-0.00248896 -0.00248781 0)
(-0.00193634 -0.00214583 0)
(-0.00145047 -0.00179503 0)
(-0.00103334 -0.00144216 0)
(-0.000686307 -0.00109588 0)
(-0.000409782 -0.000767121 0)
(-0.000203132 -0.000469533 0)
(-6.76004e-05 -0.000219978 0)
(-9.02304e-06 -4.05508e-05 0)
(-1.14743e-05 8.07298e-05 0)
(-8.27798e-05 0.000338066 0)
(-0.000244716 0.000665561 0)
(-0.000487805 0.00104082 0)
(-0.000808634 0.00144562 0)
(-0.00120659 0.00186543 0)
(-0.00168015 0.00228876 0)
(-0.00222702 0.00270649 0)
(-0.00284438 0.00311149 0)
(-0.00352891 0.00349818 0)
(-0.0042768 0.00386229 0)
(-0.00508381 0.00420066 0)
(-0.00594539 0.004511 0)
(-0.0068567 0.00479175 0)
(-0.00781271 0.00504196 0)
(-0.00880823 0.00526114 0)
(-0.00983804 0.00544922 0)
(-0.0108968 0.00560644 0)
(-0.0119794 0.00573327 0)
(-0.0130805 0.00583041 0)
(-0.014195 0.00589871 0)
(-0.015318 0.00593913 0)
(-0.0164447 0.00595274 0)
(-0.0175702 0.00594065 0)
(-0.0186903 0.00590405 0)
(-0.0198004 0.00584412 0)
(-0.0208966 0.00576209 0)
(-0.0219749 0.00565914 0)
(-0.0230316 0.0055365 0)
(-0.0240631 0.00539533 0)
(-0.0250662 0.0052368 0)
(-0.0260376 0.00506202 0)
(-0.0269746 0.00487209 0)
(-0.0278744 0.00466807 0)
(-0.0287344 0.00445098 0)
(-0.0295523 0.0042218 0)
(-0.0303258 0.00398146 0)
(-0.0310531 0.00373088 0)
(-0.0317321 0.00347091 0)
(-0.0323613 0.00320239 0)
(-0.0329391 0.00292613 0)
(-0.033464 0.00264287 0)
(-0.0339349 0.00235338 0)
(-0.0343506 0.00205836 0)
(-0.0347102 0.0017585 0)
(-0.0350127 0.00145449 0)
(-0.0352575 0.00114698 0)
(-0.035444 0.000836643 0)
(-0.0355717 0.000524111 0)
(-0.0356402 0.000210029 0)
(-0.0356494 -0.000104953 0)
(-0.0355991 -0.000420183 0)
(-0.0354894 -0.000735001 0)
(-0.0353204 -0.00104873 0)
(-0.0350924 -0.00136069 0)
(-0.0348058 -0.00167016 0)
(-0.0344612 -0.00197642 0)
(-0.0340592 -0.00227869 0)
(-0.0336008 -0.00257621 0)
(-0.0330869 -0.00286814 0)
(-0.0325186 -0.00315364 0)
(-0.0318973 -0.00343181 0)
(-0.0312245 -0.00370174 0)
(-0.0305017 -0.00396246 0)
(-0.0297308 -0.00421297 0)
(-0.0289139 -0.00445222 0)
(-0.0280532 -0.00467915 0)
(-0.027151 -0.00489264 0)
(-0.02621 -0.00509154 0)
(-0.025233 -0.00527466 0)
(-0.024223 -0.00544081 0)
(-0.0231833 -0.00558874 0)
(-0.0221174 -0.00571721 0)
(-0.0210289 -0.00582495 0)
(-0.0199217 -0.00591069 0)
(-0.0188 -0.00597317 0)
(-0.017668 -0.00601116 0)
(-0.0165303 -0.00602345 0)
(-0.0153916 -0.00600887 0)
(-0.0142568 -0.00596633 0)
(-0.0131308 -0.00589482 0)
(-0.0120188 -0.00579346 0)
(-0.0109262 -0.00566149 0)
(-0.00985816 -0.00549835 0)
(-0.00882016 -0.00530369 0)
(-0.00781754 -0.00507744 0)
(-0.00685562 -0.00481987 0)
(-0.00593961 -0.00453166 0)
(-0.00507455 -0.00421398 0)
(-0.00426521 -0.00386862 0)
(-0.00351611 -0.0034981 0)
(-0.00283136 -0.00310582 0)
(-0.00221462 -0.0026963 0)
(-0.00166907 -0.00227535 0)
(-0.00119731 -0.00185036 0)
(-0.000801452 -0.00143062 0)
(-0.000482816 -0.00102766 0)
(-0.000241836 -0.000655621 0)
(-8.16378e-05 -0.000331687 0)
(-1.12428e-05 -7.79656e-05 0)
(-1.35483e-05 0.000125727 0)
(-9.62046e-05 0.000470186 0)
(-0.000282065 0.000882741 0)
(-0.000558651 0.00134128 0)
(-0.000920726 0.00182759 0)
(-0.0013666 0.00232691 0)
(-0.00189379 0.00282732 0)
(-0.00249922 0.00331927 0)
(-0.00317941 0.00379512 0)
(-0.00393049 0.00424884 0)
(-0.00474817 0.00467577 0)
(-0.00562785 0.00507238 0)
(-0.00656459 0.00543609 0)
(-0.00755323 0.00576512 0)
(-0.00858843 0.00605835 0)
(-0.00966474 0.0063152 0)
(-0.0107766 0.00653555 0)
(-0.0119185 0.00671962 0)
(-0.0130849 0.00686795 0)
(-0.0142703 0.0069813 0)
(-0.0154693 0.00706062 0)
(-0.0166767 0.00710702 0)
(-0.0178874 0.00712171 0)
(-0.0190965 0.00710599 0)
(-0.0202992 0.00706121 0)
(-0.0214909 0.00698876 0)
(-0.0226673 0.00689005 0)
(-0.0238243 0.00676651 0)
(-0.0249578 0.00661952 0)
(-0.0260642 0.00645048 0)
(-0.0271399 0.00626075 0)
(-0.0281816 0.00605167 0)
(-0.0291862 0.00582451 0)
(-0.0301508 0.00558054 0)
(-0.0310728 0.00532097 0)
(-0.0319495 0.00504694 0)
(-0.0327787 0.00475959 0)
(-0.0335581 0.00445999 0)
(-0.0342859 0.00414918 0)
(-0.0349602 0.00382813 0)
(-0.0355794 0.00349781 0)
(-0.036142 0.00315914 0)
(-0.0366466 0.002813 0)
(-0.037092 0.00246025 0)
(-0.0374773 0.00210171 0)
(-0.0378014 0.00173821 0)
(-0.0380637 0.00137053 0)
(-0.0382635 0.000999468 0)
(-0.0384002 0.000625787 0)
(-0.0384736 0.000250266 0)
(-0.0384833 -0.000126321 0)
(-0.0384294 -0.000503194 0)
(-0.0383117 -0.000879559 0)
(-0.0381305 -0.00125461 0)
(-0.0378861 -0.00162752 0)
(-0.0375789 -0.00199744 0)
(-0.0372096 -0.0023635 0)