/*--------------------------------*- C++ -*----------------------------------*\
| =========                 |                                                 |
| \\      /  F ield         | OpenFOAM: The Open Source CFD Toolbox           |
|  \\    /   O peration     | Version:  2212                                  |
|   \\  /    A nd           | Website:  www.openfoam.com                      |
|    \\/     M anipulation  |                                                 |
\*---------------------------------------------------------------------------*/
FoamFile
{
    version     2.0;
    format      ascii;
    arch        "LSB;label=32;scalar=64";
    class       surfaceScalarField;
    location    "0.0965";
    object      phi_0;
}
// * * * * * * * * * * * * * * * * * * * * * * * * * * * * * * * * * * * * * //

dimensions      [0 3 -1 0 0 0 0];

oriented        oriented;

internalField   nonuniform List<scalar> 
19800
(
7.08957e-11
-7.08029e-11
2.43709e-10
-1.72814e-10
4.34257e-10
-1.90559e-10
5.84009e-10
-1.49767e-10
6.59458e-10
-7.54432e-11
6.42092e-10
1.73771e-11
5.22622e-10
1.19465e-10
2.97624e-10
2.24996e-10
-3.26242e-11
3.30247e-10
-4.65441e-10
4.32816e-10
-9.96593e-10
5.31145e-10
-1.62078e-09
6.24188e-10
-2.33201e-09
7.11236e-10
-3.12385e-09
7.91841e-10
-3.98956e-09
8.65722e-10
-4.92227e-09
9.32713e-10
-5.91501e-09
9.92737e-10
-6.9608e-09
1.04579e-09
-8.05273e-09
1.09193e-09
-9.18396e-09
1.13122e-09
-1.03478e-08
1.1638e-09
-1.15376e-08
1.18979e-09
-1.27469e-08
1.20935e-09
-1.39696e-08
1.22265e-09
-1.51994e-08
1.22986e-09
-1.64306e-08
1.2312e-09
-1.76575e-08
1.22684e-09
-1.88745e-08
1.21699e-09
-2.00763e-08
1.20185e-09
-2.1258e-08
1.18163e-09
-2.24145e-08
1.15655e-09
-2.35413e-08
1.12682e-09
-2.4634e-08
1.09264e-09
-2.56882e-08
1.05424e-09
-2.67001e-08
1.01184e-09
-2.76657e-08
9.65654e-10
-2.85816e-08
9.15898e-10
-2.94444e-08
8.62789e-10
-3.0251e-08
8.06552e-10
-3.09984e-08
7.47409e-10
-3.16839e-08
6.85576e-10
-3.23052e-08
6.21285e-10
-3.286e-08
5.54753e-10
-3.33462e-08
4.86208e-10
-3.37621e-08
4.15887e-10
-3.41061e-08
3.44018e-10
-3.43769e-08
2.70835e-10
-3.45735e-08
1.96588e-10
-3.4695e-08
1.21509e-10
-3.47409e-08
4.58441e-11
-3.47107e-08
-3.01444e-11
-3.46045e-08
-1.06213e-10
-3.44224e-08
-1.82112e-10
-3.41648e-08
-2.57567e-10
-3.38325e-08
-3.32314e-10
-3.34264e-08
-4.06101e-10
-3.29478e-08
-4.78646e-10
-3.23981e-08
-5.49663e-10
-3.17792e-08
-6.18889e-10
-3.10932e-08
-6.86045e-10
-3.03423e-08
-7.50839e-10
-2.95293e-08
-8.12989e-10
-2.86571e-08
-8.72226e-10
-2.77289e-08
-9.28262e-10
-2.6748e-08
-9.80805e-10
-2.57185e-08
-1.02959e-09
-2.46441e-08
-1.07433e-09
-2.35293e-08
-1.11477e-09
-2.23787e-08
-1.15061e-09
-2.11971e-08
-1.18162e-09
-1.99896e-08
-1.20753e-09
-1.87615e-08
-1.2281e-09
-1.75184e-08
-1.24309e-09
-1.62661e-08
-1.25228e-09
-1.50107e-08
-1.25545e-09
-1.37582e-08
-1.25242e-09
-1.25152e-08
-1.24299e-09
-1.12882e-08
-1.22701e-09
-1.00839e-08
-1.20434e-09
-8.90907e-09
-1.17485e-09
-7.77063e-09
-1.13844e-09
-6.67556e-09
-1.09506e-09
-5.63088e-09
-1.04468e-09
-4.64357e-09
-9.87313e-10
-3.72054e-09
-9.23022e-10
-2.8686e-09
-8.51924e-10
-2.09439e-09
-7.74211e-10
-1.40422e-09
-6.90174e-10
-8.04015e-10
-6.00222e-10
-2.99079e-10
-5.04941e-10
1.06092e-10
-4.05164e-10
4.08178e-10
-3.02078e-10
6.05566e-10
-1.97385e-10
6.99165e-10
-9.36006e-11
6.93694e-10
5.47474e-12
5.99756e-10
9.39469e-11
4.37097e-10
1.62665e-10
2.40154e-10
1.96938e-10
6.73664e-11
1.72778e-10
6.73694e-11
1.72805e-10
-2.43609e-10
4.75292e-10
-4.75276e-10
7.65831e-10
-4.8109e-10
9.41725e-10
-3.25667e-10
9.31606e-10
-6.53421e-11
6.89736e-10
2.59254e-10
1.89393e-10
6.19804e-10
-5.82427e-10
9.96815e-10
-1.62904e-09
1.37686e-09
-2.94688e-09
1.75066e-09
-4.52748e-09
2.11176e-09
-6.35892e-09
2.45564e-09
-8.42683e-09
2.77914e-09
-1.07151e-08
3.0801e-09
-1.32064e-08
3.35705e-09
-1.58828e-08
3.60905e-09
-1.87256e-08
3.83555e-09
-2.17161e-08
4.03629e-09
-2.48355e-08
4.21127e-09
-2.80649e-08
4.36062e-09
-3.13857e-08
4.48467e-09
-3.47798e-08
4.58383e-09
-3.8229e-08
4.65859e-09
-4.17159e-08
4.70952e-09
-4.52233e-08
4.73725e-09
-4.87345e-08
4.74245e-09
-5.22335e-08
4.72583e-09
-5.57047e-08
4.68813e-09
-5.91329e-08
4.63009e-09
-6.25038e-08
4.55251e-09
-6.58034e-08
4.45616e-09
-6.90184e-08
4.34186e-09
-7.21362e-08
4.21041e-09
-7.51446e-08
4.06264e-09
-7.80322e-08
3.89939e-09
-8.0788e-08
3.72147e-09
-8.34018e-08
3.52975e-09
-8.58641e-08
3.32505e-09
-8.81658e-08
3.10823e-09
-9.02985e-08
2.88016e-09
-9.22546e-08
2.64168e-09
-9.4027e-08
2.39368e-09
-9.56093e-08
2.13703e-09
-9.69957e-08
1.87261e-09
-9.81811e-08
1.60131e-09
-9.91611e-08
1.32406e-09
-9.99321e-08
1.04177e-09
-1.00491e-07
7.55355e-10
-1.00835e-07
4.65789e-10
-1.00963e-07
1.74009e-10
-1.00874e-07
-1.19011e-10
-1.00568e-07
-4.12275e-10
-1.00046e-07
-7.04795e-10
-9.93077e-08
-9.9557e-10
-9.83564e-08
-1.28356e-09
-9.71948e-08
-1.56773e-09
-9.58264e-08
-1.84704e-09
-9.42556e-08
-2.12044e-09
-9.24877e-08
-2.38683e-09
-9.05286e-08
-2.64515e-09
-8.83851e-08
-2.89433e-09
-8.60648e-08
-3.13327e-09
-8.35762e-08
-3.36089e-09
-8.09283e-08
-3.57612e-09
-7.81312e-08
-3.77789e-09
-7.51957e-08
-3.96513e-09
-7.21332e-08
-4.13677e-09
-6.89562e-08
-4.29179e-09
-6.56777e-08
-4.42918e-09
-6.23113e-08
-4.54794e-09
-5.88717e-08
-4.64712e-09
-5.5374e-08
-4.72581e-09
-5.1834e-08
-4.78314e-09
-4.8268e-08
-4.81827e-09
-4.4693e-08
-4.8304e-09
-4.11266e-08
-4.81886e-09
-3.75866e-08
-4.78298e-09
-3.40914e-08
-4.7222e-09
-3.06597e-08
-4.63603e-09
-2.73104e-08
-4.52409e-09
-2.40627e-08
-4.38612e-09
-2.09358e-08
-4.22198e-09
-1.79488e-08
-4.03167e-09
-1.51208e-08
-3.81539e-09
-1.24702e-08
-3.57354e-09
-1.00154e-08
-3.30679e-09
-7.77348e-09
-3.0161e-09
-5.76078e-09
-2.70288e-09
-3.99195e-09
-2.36904e-09
-2.47965e-09
-2.01724e-09
-1.23375e-09
-1.65109e-09
-2.6033e-10
-1.27552e-09
4.39666e-10
-8.97395e-10
8.724e-10
-5.26329e-10
1.05383e-09
-1.75947e-10
1.01351e-09
1.34269e-10
7.99659e-10
3.76502e-10
4.8522e-10
5.1137e-10
1.72696e-10
4.8531e-10
2.40067e-10
1.91133e-10
-4.34753e-10
4.83085e-10
-7.67231e-10
7.01625e-10
-6.99618e-10
7.23063e-10
-3.47105e-10
4.57763e-10
1.99958e-10
-1.55457e-10
8.72465e-10
-1.15491e-09
1.61926e-09
-2.56125e-09
2.40315e-09
-4.38164e-09
3.19725e-09
-6.61314e-09
3.98216e-09
-9.24521e-09
4.74383e-09
-1.22617e-08
5.4721e-09
-1.56422e-08
6.15966e-09
-1.93634e-08
6.80128e-09
-2.33996e-08
7.3933e-09
-2.77238e-08
7.93326e-09
-3.23078e-08
8.41957e-09
-3.71229e-08
8.85135e-09
-4.21399e-08
9.22827e-09
-4.73297e-08
9.55045e-09
-5.26633e-08
9.8183e-09
-5.8112e-08
1.00325e-08
-6.36476e-08
1.01941e-08
-6.92422e-08
1.03042e-08
-7.48689e-08
1.03639e-08
-8.05011e-08
1.03747e-08
-8.61133e-08
1.0338e-08
-9.16805e-08
1.02554e-08
-9.71788e-08
1.01284e-08
-1.02585e-07
9.95876e-09
-1.07877e-07
9.74811e-09
-1.13033e-07
9.4982e-09
-1.18034e-07
9.21076e-09
-1.22859e-07
8.88759e-09
-1.2749e-07
8.53049e-09
-1.3191e-07
8.14126e-09
-1.36102e-07
7.72175e-09
-1.4005e-07
7.2738e-09
-1.43741e-07
6.79928e-09
-1.47161e-07
6.30006e-09
-1.50298e-07
5.77804e-09
-1.53139e-07
5.23513e-09
-1.55675e-07
4.67327e-09
-1.57897e-07
4.09442e-09
-1.59796e-07
3.50052e-09
-1.61366e-07
2.8936e-09
-1.626e-07
2.27567e-09
-1.63493e-07
1.64879e-09
-1.64042e-07
1.01502e-09
-1.64245e-07
3.76484e-10
-1.64099e-07
-2.6469e-10
-1.63605e-07
-9.06347e-10
-1.62764e-07
-1.54628e-09
-1.61577e-07
-2.18228e-09
-1.60048e-07
-2.81211e-09
-1.58183e-07
-3.43348e-09
-1.55986e-07
-4.04411e-09
-1.53464e-07
-4.64166e-09
-1.50627e-07
-5.22383e-09
-1.47484e-07
-5.78824e-09
-1.44046e-07
-6.33255e-09
-1.40325e-07
-6.85438e-09
-1.36334e-07
-7.3514e-09
-1.32089e-07
-7.82126e-09
-1.27606e-07
-8.26161e-09
-1.22901e-07
-8.67016e-09
-1.17993e-07
-9.04463e-09
-1.12902e-07
-9.38278e-09
-1.07648e-07
-9.68241e-09
-1.02255e-07
-9.94143e-09
-9.67443e-08
-1.01578e-08
-9.11407e-08
-1.03295e-08
-8.54691e-08
-1.04547e-08
-7.97557e-08
-1.05317e-08
-7.40274e-08
-1.05587e-08
-6.83118e-08
-1.05344e-08
-6.26373e-08
-1.04574e-08
-5.70329e-08
-1.03266e-08
-5.15279e-08
-1.0141e-08
-4.61521e-08
-9.89991e-09
-4.09354e-08
-9.60288e-09
-3.59076e-08
-9.24977e-09
-3.10984e-08
-8.84081e-09
-2.65372e-08
-8.37663e-09
-2.22524e-08
-7.85834e-09
-1.82715e-08
-7.28768e-09
-1.46205e-08
-6.66711e-09
-1.13233e-08
-6.00003e-09
-8.40134e-09
-5.29105e-09
-5.87224e-09
-4.54634e-09
-3.7492e-09
-3.77411e-09
-2.03935e-09
-2.98537e-09
-7.4186e-10
-2.19489e-09
1.54451e-10
-1.42264e-09
6.74287e-10
-6.95777e-10
8.59823e-10
-5.12635e-11
7.75543e-10
4.60778e-10
5.13346e-10
7.73566e-10
1.97426e-10
8.01229e-10
4.3749e-10
1.52031e-10
-5.86792e-10
3.32632e-10
-9.47838e-10
3.57881e-10
-7.24862e-10
9.59084e-11
-8.51356e-11
-5.50151e-10
8.46014e-10
-1.64841e-09
1.97072e-09
-3.24317e-09
3.21401e-09
-5.35947e-09
4.51945e-09
-8.00699e-09
5.84478e-09
-1.11833e-08
7.15847e-09
-1.48765e-08
8.43701e-09
-1.90673e-08
9.66294e-09
-2.3731e-08
1.08234e-08
-2.88385e-08
1.19088e-08
-3.43575e-08
1.29124e-08
-4.02536e-08
1.38293e-08
-4.64906e-08
1.46565e-08
-5.30313e-08
1.5392e-08
-5.98377e-08
1.60347e-08
-6.68718e-08
1.65845e-08
-7.40954e-08
1.70419e-08
-8.14707e-08
1.74078e-08
-8.89601e-08
1.76835e-08
-9.65268e-08
1.78709e-08
-1.04135e-07
1.79719e-08
-1.11749e-07
1.79887e-08
-1.19335e-07
1.79237e-08
-1.26859e-07
1.77794e-08
-1.34289e-07
1.75586e-08
-1.41594e-07
1.7264e-08
-1.48744e-07
1.68985e-08
-1.55711e-07
1.6465e-08
-1.62467e-07
1.59665e-08
-1.68986e-07
1.54061e-08
-1.75242e-07
1.47869e-08
-1.81213e-07
1.41119e-08
-1.86875e-07
1.33844e-08
-1.92209e-07
1.26076e-08
-1.97194e-07
1.17847e-08
-2.01813e-07
1.09189e-08
-2.06049e-07
1.00135e-08
-2.09885e-07
9.0719e-09
-2.1331e-07
8.09743e-09
-2.16309e-07
7.09348e-09
-2.18872e-07
6.06351e-09
-2.20989e-07
5.01097e-09
-2.22653e-07
3.93941e-09
-2.23856e-07
2.85238e-09
-2.24595e-07
1.75351e-09
-2.24865e-07
6.46445e-10
-2.24664e-07
-4.65085e-10
-2.23993e-07
-1.57732e-09
-2.22853e-07
-2.68647e-09
-2.21247e-07
-3.78868e-09
-2.19179e-07
-4.88002e-09
-2.16656e-07
-5.95658e-09
-2.13686e-07
-7.01437e-09
-2.10278e-07
-8.04938e-09
-2.06444e-07
-9.05757e-09
-2.02197e-07
-1.00349e-08
-1.97553e-07
-1.09772e-08
-1.92527e-07
-1.18806e-08
-1.87137e-07
-1.27409e-08
-1.81404e-07
-1.3554e-08
-1.7535e-07
-1.4316e-08
-1.68997e-07
-1.50229e-08
-1.62371e-07
-1.56708e-08
-1.55498e-07
-1.62559e-08
-1.48406e-07
-1.67744e-08
-1.41125e-07
-1.72227e-08
-1.33685e-07
-1.75974e-08
-1.2612e-07
-1.78951e-08
-1.18462e-07
-1.81126e-08
-1.10746e-07
-1.82471e-08
-1.03009e-07
-1.82957e-08
-9.52876e-08
-1.82561e-08
-8.76189e-08
-1.81261e-08
-8.00417e-08
-1.79038e-08
-7.25949e-08
-1.75878e-08
-6.53178e-08
-1.7177e-08
-5.82498e-08
-1.66709e-08
-5.14301e-08
-1.60695e-08
-4.48975e-08
-1.53734e-08
-3.86901e-08
-1.4584e-08
-3.28449e-08
-1.37036e-08
-2.73971e-08
-1.27355e-08
-2.23797e-08
-1.16844e-08
-1.78231e-08
-1.05567e-08
-1.37535e-08
-9.36068e-09
-1.01925e-08
-8.10728e-09
-7.15572e-09
-6.8109e-09
-4.65075e-09
-5.49033e-09
-2.67545e-09
-4.17019e-09
-1.21529e-09
-2.88281e-09
-2.40322e-10
-1.67074e-09
2.98427e-10
-5.90003e-10
4.732e-10
2.86006e-10
3.84079e-10
8.62683e-10
1.64852e-10
1.02045e-09
6.02341e-10
8.02438e-11
-6.67031e-10
7.95302e-11
-9.47145e-10
-1.76672e-10
-4.68649e-10
-8.17546e-10
5.55731e-10
-1.93935e-09
1.96782e-09
-3.61099e-09
3.64236e-09
-5.87817e-09
5.48119e-09
-8.76726e-09
7.40852e-09
-1.22886e-08
9.36608e-09
-1.64393e-08
1.13092e-08
-2.12061e-08
1.32038e-08
-2.65673e-08
1.50241e-08
-3.24942e-08
1.67502e-08
-3.89531e-08
1.83678e-08
-4.59065e-08
1.98658e-08
-5.33136e-08
2.12364e-08
-6.11315e-08
2.24744e-08
-6.93157e-08
2.35762e-08
-7.78209e-08
2.45398e-08
-8.66009e-08
2.53646e-08
-9.56097e-08
2.60507e-08
-1.04801e-07
2.65994e-08
-1.1413e-07
2.70123e-08
-1.23551e-07
2.72919e-08
-1.3302e-07
2.74408e-08
-1.42494e-07
2.74623e-08
-1.5193e-07
2.73599e-08
-1.61288e-07
2.71372e-08
-1.70527e-07
2.67983e-08
-1.7961e-07
2.63471e-08
-1.885e-07
2.57881e-08
-1.97161e-07
2.51256e-08
-2.05558e-07
2.43641e-08
-2.1366e-07
2.35082e-08
-2.21436e-07
2.25626e-08
-2.28856e-07
2.15321e-08
-2.35893e-07
2.04213e-08
-2.42521e-07
1.92353e-08
-2.48715e-07
1.79789e-08
-2.54453e-07
1.66572e-08
-2.59715e-07
1.5275e-08
-2.64481e-07
1.38376e-08
-2.68733e-07
1.235e-08
-2.72457e-07
1.08175e-08
-2.75639e-07
9.24537e-09
-2.78267e-07
7.63885e-09
-2.80331e-07
6.00337e-09
-2.81823e-07
4.34439e-09
-2.82737e-07
2.66745e-09
-2.83069e-07
9.78157e-10
-2.82816e-07
-7.17828e-10
-2.81978e-07
-2.41474e-09
-2.80558e-07
-4.10677e-09
-2.78559e-07
-5.78803e-09
-2.75986e-07
-7.45258e-09
-2.72848e-07
-9.09438e-09
-2.69155e-07
-1.07074e-08
-2.64919e-07
-1.22855e-08
-2.60154e-07
-1.38225e-08
-2.54877e-07
-1.53124e-08
-2.49105e-07
-1.67488e-08
-2.4286e-07
-1.81256e-08
-2.36164e-07
-1.94367e-08
-2.29043e-07
-2.06758e-08
-2.21522e-07
-2.18371e-08
-2.1363e-07
-2.29143e-08
-2.05399e-07
-2.39018e-08
-1.96861e-07
-2.47936e-08
-1.88052e-07
-2.55842e-08
-1.79006e-07
-2.62682e-08
-1.69763e-07
-2.68403e-08
-1.60363e-07
-2.72955e-08
-1.50846e-07
-2.76293e-08
-1.41256e-07
-2.78371e-08
-1.31637e-07
-2.79151e-08
-1.22033e-07
-2.78596e-08
-1.12492e-07
-2.76676e-08
-1.03059e-07
-2.73363e-08
-9.3783e-08
-2.68639e-08
-8.47111e-08
-2.62489e-08
-7.58911e-08
-2.54909e-08
-6.73705e-08
-2.45901e-08
-5.91961e-08
-2.35478e-08
-5.14135e-08
-2.23665e-08
-4.40669e-08
-2.10502e-08
-3.7198e-08
-1.96043e-08
-3.0846e-08
-1.80364e-08
-2.50462e-08
-1.63566e-08
-1.98292e-08
-1.45777e-08
-1.52198e-08
-1.27167e-08
-1.12355e-08
-1.07952e-08
-7.88485e-09
-8.84098e-09
-5.16539e-09
-6.88965e-09
-3.06126e-09
-4.98694e-09
-1.54049e-09
-3.19149e-09
-5.51938e-10
-1.57855e-09
-2.16494e-11
-2.44286e-10
1.51088e-10
6.89939e-10
9.90532e-11
1.07248e-09
7.01396e-10
-9.62121e-12
-6.57398e-10
-2.36949e-10
-7.19821e-10
-8.35832e-10
1.30237e-10
-1.92445e-09
1.64435e-09
-3.59243e-09
3.6358e-09
-5.90471e-09
5.95462e-09
-8.90467e-09
8.48116e-09
-1.26172e-08
1.11211e-08
-1.70514e-08
1.38002e-08
-2.22028e-08
1.64607e-08
-2.80563e-08
1.90573e-08
-3.45872e-08
2.1555e-08
-4.17638e-08
2.39268e-08
-4.95483e-08
2.61522e-08
-5.78981e-08
2.82156e-08
-6.67674e-08
3.01058e-08
-7.61074e-08
3.18144e-08
-8.58674e-08
3.33362e-08
-9.59953e-08
3.46677e-08
-1.06438e-07
3.58076e-08
-1.17143e-07
3.67556e-08
-1.28057e-07
3.7513e-08
-1.39126e-07
3.80818e-08
-1.50299e-07
3.84649e-08
-1.61525e-07
3.86659e-08
-1.72751e-07
3.86891e-08
-1.8393e-07
3.8539e-08
-1.95014e-07
3.82206e-08
-2.05955e-07
3.77395e-08
-2.16709e-07
3.71011e-08
-2.27232e-07
3.63113e-08
-2.37483e-07
3.53763e-08
-2.47421e-07
3.43024e-08
-2.57009e-07
3.30958e-08
-2.66209e-07
3.17631e-08
-2.74988e-07
3.0311e-08
-2.83313e-07
2.87461e-08
-2.91153e-07
2.70753e-08
-2.9848e-07
2.53056e-08
-3.05266e-07
2.34439e-08
-3.11489e-07
2.14972e-08
-3.17124e-07
1.94728e-08
-3.22152e-07
1.73779e-08
-3.26554e-07
1.52198e-08
-3.30315e-07
1.3006e-08
-3.3342e-07
1.07439e-08
-3.35857e-07
8.44123e-09
-3.37619e-07
6.1056e-09
-3.38696e-07
3.74484e-09
-3.39085e-07
1.36686e-09
-3.38782e-07
-1.02035e-09
-3.37788e-07
-3.40868e-09
-3.36105e-07
-5.78996e-09
-3.33737e-07
-8.15587e-09
-3.30692e-07
-1.04981e-08
-3.26978e-07
-1.28081e-08
-3.22608e-07
-1.50774e-08
-3.17596e-07
-1.72974e-08
-3.11959e-07
-1.94595e-08
-3.05716e-07
-2.15551e-08
-2.9889e-07
-2.35754e-08
-2.91504e-07
-2.55118e-08
-2.83584e-07
-2.73558e-08
-2.75162e-07
-2.90986e-08
-2.66267e-07
-3.07319e-08
-2.56934e-07
-3.22473e-08
-2.47199e-07
-3.36366e-08
-2.37101e-07
-3.48918e-08
-2.2668e-07
-3.6005e-08
-2.1598e-07
-3.69688e-08
-2.05044e-07
-3.77759e-08
-1.9392e-07
-3.84195e-08
-1.82656e-07
-3.88931e-08
-1.71302e-07
-3.91908e-08
-1.5991e-07
-3.93072e-08
-1.48533e-07
-3.92375e-08
-1.37223e-07
-3.89774e-08
-1.26036e-07
-3.85235e-08
-1.15026e-07
-3.78735e-08
-1.04249e-07
-3.70256e-08
-9.37608e-08
-3.59794e-08
-8.36151e-08
-3.47358e-08
-7.38659e-08
-3.32969e-08
-6.45656e-08
-3.16668e-08
-5.57646e-08
-2.98513e-08
-4.75103e-08
-2.78586e-08
-3.98471e-08
-2.56997e-08
-3.28147e-08
-2.3389e-08
-2.64476e-08
-2.09448e-08
-2.07735e-08
-1.83908e-08
-1.58122e-08
-1.57565e-08
-1.15738e-08
-1.30794e-08
-8.05682e-09
-1.04067e-08
-5.24599e-09
-7.79775e-09
-3.11022e-09
-5.32725e-09
-1.59985e-09
-3.08893e-09
-6.43881e-10
-1.20026e-09
-1.46961e-10
1.93015e-10
1.45241e-11
9.1099e-10
7.15921e-10
-1.08818e-10
-5.48577e-10
-5.90255e-10
-2.38399e-10
-1.57204e-09
1.11203e-09
-3.15598e-09
3.22828e-09
-5.42057e-09
5.90039e-09
-8.42309e-09
8.95715e-09
-1.22016e-08
1.22597e-08
-1.67771e-08
1.56965e-08
-2.21555e-08
1.91786e-08
-2.83297e-08
2.26349e-08
-3.52816e-08
2.60092e-08
-4.29836e-08
2.9257e-08
-5.14005e-08
3.23437e-08
-6.04907e-08
3.52423e-08
-7.02073e-08
3.79323e-08
-8.04997e-08
4.03981e-08
-9.13138e-08
4.26286e-08
-1.02594e-07
4.46159e-08
-1.14281e-07
4.63552e-08
-1.26317e-07
4.78438e-08
-1.38643e-07
4.90812e-08
-1.51198e-07
5.00683e-08
-1.63924e-07
5.08074e-08
-1.76761e-07
5.1302e-08
-1.89651e-07
5.15565e-08
-2.02539e-07
5.15762e-08
-2.15366e-07
5.13669e-08
-2.28081e-07
5.0935e-08
-2.40629e-07
5.02874e-08
-2.52959e-07
4.94315e-08
-2.65023e-07
4.83749e-08
-2.76772e-07
4.71256e-08
-2.88162e-07
4.56918e-08
-2.99148e-07
4.40818e-08
-3.09689e-07
4.23043e-08
-3.19746e-07
4.03681e-08
-3.29282e-07
3.82819e-08
-3.38261e-07
3.6055e-08
-3.46652e-07
3.36964e-08
-3.54424e-07
3.12155e-08
-3.61549e-07
2.86217e-08
-3.68e-07
2.59245e-08
-3.73756e-07
2.31336e-08
-3.78795e-07
2.02587e-08
-3.83099e-07
1.73098e-08
-3.86651e-07
1.42967e-08
-3.8944e-07
1.12298e-08
-3.91454e-07
8.1192e-09
-3.92684e-07
4.97535e-09
-3.93126e-07
1.80878e-09
-3.92776e-07
-1.36986e-09
-3.91635e-07
-4.54978e-09
-3.89705e-07
-7.72007e-09
-3.86991e-07
-1.08697e-08
-3.83502e-07
-1.39876e-08
-3.79248e-07
-1.70624e-08
-3.74242e-07
-2.00829e-08
-3.68502e-07
-2.30376e-08
-3.62046e-07
-2.59152e-08
-3.54897e-07
-2.8704e-08
-3.4708e-07
-3.13928e-08
-3.38622e-07
-3.39699e-08
-3.29554e-07
-3.6424e-08
-3.19909e-07
-3.87437e-08
-3.09723e-07
-4.09179e-08
-2.99034e-07
-4.29356e-08
-2.87885e-07
-4.47859e-08
-2.76319e-07
-4.64582e-08
-2.64381e-07
-4.79424e-08
-2.52122e-07
-4.92285e-08
-2.3959e-07
-5.03071e-08
-2.2684e-07
-5.11694e-08
-2.13927e-07
-5.18069e-08
-2.00906e-07
-5.22118e-08
-1.87836e-07
-5.23773e-08
-1.74776e-07
-5.22971e-08
-1.61787e-07
-5.1966e-08
-1.48931e-07
-5.13798e-08
-1.36269e-07
-5.05354e-08
-1.23864e-07
-4.94312e-08
-1.11776e-07
-4.80669e-08
-1.00068e-07
-4.6444e-08
-8.8799e-08
-4.45659e-08
-7.80275e-08
-4.24383e-08
-6.78094e-08
-4.00694e-08
-5.81974e-08
-3.74706e-08
-4.92403e-08
-3.46568e-08
-4.09821e-08
-3.16471e-08
-3.34609e-08
-2.8466e-08
-2.67077e-08
-2.5144e-08
-2.07448e-08
-2.17193e-08
-1.55848e-08
-1.82394e-08
-1.12285e-08
-1.4763e-08
-7.66321e-09
-1.1363e-08
-4.86104e-09
-8.12942e-09
-2.77683e-09
-5.17313e-09
-1.34621e-09
-2.63088e-09
-4.83561e-10
-6.69638e-10
-7.995e-11
5.07378e-10
6.35972e-10
-2.12051e-10
-3.36518e-10
-9.62784e-10
5.12325e-10
-2.35214e-09
2.50138e-09
-4.46245e-09
5.33859e-09
-7.3581e-09
8.79603e-09
-1.1086e-08
1.2685e-08
-1.56764e-08
1.68501e-08
-2.11443e-08
2.11645e-08
-2.7491e-08
2.55253e-08
-3.47053e-08
2.98492e-08
-4.27654e-08
3.40692e-08
-5.16401e-08
3.81317e-08
-6.12905e-08
4.19941e-08
-7.1671e-08
4.56229e-08
-8.27308e-08
4.8992e-08
-9.44145e-08
5.20819e-08
-1.06664e-07
5.48777e-08
-1.19417e-07
5.73692e-08
-1.32611e-07
5.95494e-08
-1.46182e-07
6.14147e-08
-1.60064e-07
6.29636e-08
-1.74193e-07
6.41968e-08
-1.88502e-07
6.51168e-08
-2.02928e-07
6.57276e-08
-2.17406e-07
6.60344e-08
-2.31873e-07
6.60434e-08
-2.46268e-07
6.57619e-08
-2.60531e-07
6.51976e-08
-2.74603e-07
6.43592e-08
-2.88427e-07
6.32559e-08
-3.01949e-07
6.1897e-08
-3.15116e-07
6.02928e-08
-3.27878e-07
5.84534e-08
-3.40185e-07
5.63895e-08
-3.51993e-07
5.4112e-08
-3.63257e-07
5.16319e-08
-3.73936e-07
4.89607e-08
-3.8399e-07
4.61098e-08
-3.93385e-07
4.30909e-08
-4.02085e-07
3.99159e-08
-4.1006e-07
3.65968e-08
-4.17281e-07
3.31458e-08
-4.23723e-07
2.95751e-08
-4.29362e-07
2.58974e-08
-4.34177e-07
2.21252e-08
-4.38152e-07
1.82713e-08
-4.4127e-07
1.43487e-08
-4.43522e-07
1.03706e-08
-4.44897e-07
6.35021e-09
-4.45389e-07
2.30102e-09
-4.44996e-07
-1.76334e-09
-4.43716e-07
-5.82911e-09
-4.41554e-07
-9.88233e-09
-4.38515e-07
-1.39089e-08
-4.34608e-07
-1.78947e-08
-4.29845e-07
-2.18253e-08
-4.24241e-07
-2.56863e-08
-4.17816e-07
-2.94632e-08
-4.10589e-07
-3.31414e-08
-4.02587e-07
-3.67063e-08
-3.93837e-07
-4.01432e-08
-3.84369e-07
-4.34376e-08
-3.74218e-07
-4.65751e-08
-3.6342e-07
-4.95412e-08
-3.52017e-07
-5.23217e-08
-3.40049e-07
-5.49027e-08
-3.27565e-07
-5.72705e-08
-3.14611e-07
-5.94117e-08
-3.0124e-07
-6.13135e-08
-2.87505e-07
-6.29634e-08
-2.73463e-07
-6.43494e-08
-2.59172e-07
-6.54605e-08
-2.44692e-07
-6.62862e-08
-2.30087e-07
-6.68168e-08
-2.15421e-07
-6.70437e-08
-2.00759e-07
-6.69593e-08
-1.86168e-07
-6.65572e-08
-1.71715e-07
-6.58324e-08
-1.57469e-07
-6.47813e-08
-1.43498e-07
-6.34023e-08
-1.29869e-07
-6.16954e-08
-1.1665e-07
-5.96629e-08
-1.03907e-07
-5.73097e-08
-9.17015e-08
-5.46434e-08
-8.0096e-08
-5.16749e-08
-6.91476e-08
-4.84189e-08
-5.89097e-08
-4.48947e-08
-4.94302e-08
-4.11266e-08
-4.0751e-08
-3.71452e-08
-3.29065e-08
-3.29886e-08
-2.59224e-08
-2.87034e-08
-1.98145e-08
-2.43472e-08
-1.45873e-08
-1.99902e-08
-1.02324e-08
-1.5718e-08
-6.72705e-09
-1.16348e-08
-4.03302e-09
-7.86715e-09
-2.09526e-09
-4.56865e-09
-8.40937e-10
-1.92397e-09
-1.78963e-10
-1.54596e-10
4.5701e-10
-3.16179e-10
-2.03326e-11
-1.34314e-09
1.5393e-09
-3.15344e-09
4.31167e-09
-5.80865e-09
7.9938e-09
-9.35724e-09
1.23446e-08
-1.38338e-08
1.71616e-08
-1.9259e-08
2.22753e-08
-2.56403e-08
2.75458e-08
-3.29727e-08
3.28577e-08
-4.12398e-08
3.81164e-08
-5.04153e-08
4.32447e-08
-6.04637e-08
4.81802e-08
-7.1342e-08
5.28724e-08
-8.30006e-08
5.72815e-08
-9.53844e-08
6.13758e-08
-1.08434e-07
6.51313e-08
-1.22086e-07
6.85296e-08
-1.36274e-07
7.15577e-08
-1.50932e-07
7.42066e-08
-1.65988e-07
7.64711e-08
-1.81373e-07
7.8349e-08
-1.97017e-07
7.98406e-08
-2.12849e-07
8.09484e-08
-2.28798e-07
8.1677e-08
-2.44796e-07
8.20322e-08
-2.60774e-07
8.20214e-08
-2.76665e-07
8.16531e-08
-2.92404e-07
8.09368e-08
-3.07928e-07
7.98827e-08
-3.23174e-07
7.85018e-08
-3.38083e-07
7.68059e-08
-3.52597e-07
7.4807e-08
-3.66661e-07
7.25177e-08
-3.80223e-07
6.9951e-08
-3.93231e-07
6.71204e-08
-4.05639e-07
6.40395e-08
-4.174e-07
6.07222e-08
-4.28473e-07
5.71827e-08
-4.38818e-07
5.34355e-08
-4.48397e-07
4.94952e-08
-4.57177e-07
4.53766e-08
-4.65126e-07
4.10949e-08
-4.72216e-07
3.66653e-08
-4.78422e-07
3.21033e-08
-4.83722e-07
2.74245e-08
-4.88095e-07
2.26448e-08
-4.91527e-07
1.77803e-08
-4.94003e-07
1.28472e-08
-4.95515e-07
7.86209e-09
-4.96056e-07
2.84152e-09
-4.95622e-07
-2.19759e-09
-4.94212e-07
-7.23817e-09
-4.91832e-07
-1.2263e-08
-4.88486e-07
-1.72546e-08
-4.84185e-07
-2.21955e-08
-4.78943e-07
-2.70678e-08
-4.72775e-07
-3.18539e-08
-4.65703e-07
-3.65356e-08
-4.57749e-07
-4.10951e-08
-4.48941e-07
-4.55143e-08
-4.39309e-07
-4.97752e-08
-4.28887e-07
-5.38598e-08
-4.17712e-07
-5.77502e-08
-4.05824e-07
-6.14289e-08
-3.93268e-07
-6.48783e-08
-3.80089e-07
-6.80813e-08
-3.66338e-07
-7.1021e-08
-3.52069e-07
-7.36812e-08
-3.37337e-07
-7.60459e-08
-3.222e-07
-7.81e-08
-3.0672e-07
-7.98291e-08
-2.90961e-07
-8.12195e-08
-2.74989e-07
-8.22584e-08
-2.58872e-07
-8.29342e-08
-2.42679e-07
-8.32366e-08
-2.26482e-07
-8.31565e-08
-2.10353e-07
-8.26862e-08
-1.94365e-07
-8.182e-08
-1.78592e-07
-8.05539e-08
-1.63109e-07
-7.88861e-08
-1.47987e-07
-7.68171e-08
-1.33299e-07
-7.43503e-08
-1.19117e-07
-7.1492e-08
-1.05509e-07
-6.8252e-08
-9.25393e-08
-6.46441e-08
-8.02715e-08
-6.06868e-08
-6.87627e-08
-5.64035e-08
-5.8065e-08
-5.18243e-08
-4.82244e-08
-4.69859e-08
-3.9279e-08
-4.19339e-08
-3.12587e-08
-3.67237e-08
-2.41836e-08
-3.14224e-08
-1.80628e-08
-2.6111e-08
-1.28935e-08
-2.08872e-08
-8.66004e-09
-1.58682e-08
-5.33281e-09
-1.11944e-08
-2.86799e-09
-7.03347e-09
-1.20742e-09
-3.58455e-09
-2.7925e-10
-1.08276e-09
1.77763e-10
-4.19344e-10
3.99001e-10
-1.72403e-09
2.844e-09
-3.96069e-09
6.54834e-09
-7.17006e-09
1.12031e-08
-1.13838e-08
1.65583e-08
-1.66229e-08
2.24007e-08
-2.28973e-08
2.85497e-08
-3.02055e-08
3.48539e-08
-3.85351e-08
4.11872e-08
-4.78635e-08
4.74448e-08
-5.81589e-08
5.35402e-08
-6.93811e-08
5.94023e-08
-8.14824e-08
6.49737e-08
-9.44088e-08
7.02079e-08
-1.08101e-07
7.5068e-08
-1.22495e-07
7.95252e-08
-1.37523e-07
8.35579e-08
-1.53115e-07
8.71499e-08
-1.69199e-07
9.02901e-08
-1.857e-07
9.29719e-08
-2.02543e-07
9.51921e-08
-2.19653e-07
9.69506e-08
-2.36954e-07
9.82499e-08
-2.54372e-07
9.90949e-08
-2.71832e-07
9.94923e-08
-2.89261e-07
9.94507e-08
-3.06588e-07
9.89797e-08
-3.23742e-07
9.80905e-08
-3.40654e-07
9.67951e-08
-3.57259e-07
9.51067e-08
-3.73492e-07
9.30389e-08
-3.89291e-07
9.06063e-08
-4.04597e-07
8.78239e-08
-4.19354e-07
8.47072e-08
-4.33505e-07
8.12722e-08
-4.47001e-07
7.75354e-08
-4.59793e-07
7.35135e-08
-4.71834e-07
6.92236e-08
-4.83081e-07
6.46831e-08
-4.93495e-07
5.99095e-08
-5.0304e-07
5.4921e-08
-5.1168e-07
4.97356e-08
-5.19387e-07
4.43717e-08
-5.26132e-07
3.88481e-08
-5.31891e-07
3.31837e-08
-5.36644e-07
2.73977e-08
-5.40373e-07
2.15094e-08
-5.43064e-07
1.55385e-08
-5.44707e-07
9.50504e-09
-5.45294e-07
3.42902e-09
-5.44823e-07
-2.66914e-09
-5.43292e-07
-8.76884e-09
-5.40706e-07
-1.48493e-08
-5.37071e-07
-2.08894e-08
-5.32399e-07
-2.68679e-08
-5.26703e-07
-3.27636e-08
-5.20002e-07
-3.85548e-08
-5.12318e-07
-4.42201e-08
-5.03675e-07
-4.97376e-08
-4.94104e-07
-5.50857e-08
-4.83636e-07
-6.02427e-08
-4.72309e-07
-6.5187e-08
-4.60162e-07
-6.98972e-08
-4.47239e-07
-7.4352e-08
-4.33587e-07
-7.85304e-08
-4.19256e-07
-8.24119e-08
-4.04301e-07
-8.59763e-08
-3.88778e-07
-8.92041e-08
-3.72747e-07
-9.20763e-08
-3.56273e-07
-9.45748e-08
-3.39419e-07
-9.66824e-08
-3.22256e-07
-9.83827e-08
-3.04854e-07
-9.96608e-08
-2.87285e-07
-1.00503e-07
-2.69625e-07
-1.00897e-07
-2.5195e-07
-1.00831e-07
-2.34338e-07
-1.00299e-07
-2.16866e-07
-9.92913e-08
-1.99615e-07
-9.78053e-08
-1.82662e-07
-9.58387e-08
-1.66087e-07
-9.33926e-08
-1.49966e-07
-9.04715e-08
-1.34374e-07
-8.70832e-08
-1.19387e-07
-8.32399e-08
-1.05072e-07
-7.89584e-08
-9.14983e-08
-7.42608e-08
-7.87263e-08
-6.91755e-08
-6.6813e-08
-6.37376e-08
-5.58084e-08
-5.79905e-08
-4.57553e-08
-5.1987e-08
-3.66881e-08
-4.57908e-08
-2.86321e-08
-3.94784e-08
-2.16022e-08
-3.31409e-08
-1.56025e-08
-2.6887e-08
-1.06253e-08
-2.08454e-08
-6.65123e-09
-1.51685e-08
-3.64882e-09
-1.00359e-08
-1.57548e-09
-5.65789e-09
-3.7887e-10
-2.27937e-09
-2.01103e-10
-5.20497e-10
9.19487e-10
-2.10091e-09
4.42442e-09
-4.7639e-09
9.21132e-09
-8.52994e-09
1.49692e-08
-1.34137e-08
2.14421e-08
-1.94221e-08
2.84091e-08
-2.65532e-08
3.56808e-08
-3.47958e-08
4.30965e-08
-4.41291e-08
5.05205e-08
-5.45235e-08
5.78392e-08
-6.5941e-08
6.49576e-08
-7.83358e-08
7.17971e-08
-9.16551e-08
7.82931e-08
-1.0584e-07
8.43931e-08
-1.20828e-07
9.00551e-08
-1.36548e-07
9.5246e-08
-1.52931e-07
9.99404e-08
-1.699e-07
1.04119e-07
-1.8738e-07
1.07769e-07
-2.0529e-07
1.10883e-07
-2.23553e-07
1.13455e-07
-2.42088e-07
1.15485e-07
-2.60815e-07
1.16977e-07
-2.79654e-07
1.17934e-07
-2.98528e-07
1.18366e-07
-3.17357e-07
1.1828e-07
-3.36066e-07
1.17689e-07
-3.54581e-07
1.16605e-07
-3.72828e-07
1.15042e-07
-3.90737e-07
1.13016e-07
-4.0824e-07
1.10542e-07
-4.25271e-07
1.07637e-07
-4.41766e-07
1.04319e-07
-4.57665e-07
1.00606e-07
-4.7291e-07
9.65171e-08
-4.87446e-07
9.20713e-08
-5.01221e-07
8.72884e-08
-5.14186e-07
8.21886e-08
-5.26295e-07
7.67924e-08
-5.37506e-07
7.11207e-08
-5.4778e-07
6.51946e-08
-5.5708e-07
5.90357e-08
-5.65374e-07
5.26659e-08
-5.72633e-07
4.61071e-08
-5.78831e-07
3.93818e-08
-5.83946e-07
3.25128e-08
-5.8796e-07
2.5523e-08
-5.90857e-07
1.84356e-08
-5.92626e-07
1.12744e-08
-5.9326e-07
4.06299e-09
-5.92755e-07
-3.17436e-09
-5.91111e-07
-1.04133e-08
-5.88331e-07
-1.76291e-08
-5.84423e-07
-2.47971e-08
-5.79399e-07
-3.1892e-08
-5.73274e-07
-3.88886e-08
-5.66067e-07
-4.57616e-08
-5.57802e-07
-5.24853e-08
-5.48506e-07
-5.90341e-08
-5.38209e-07
-6.53825e-08
-5.26947e-07
-7.15049e-08
-5.14758e-07
-7.73757e-08
-5.01685e-07
-8.29697e-08
-4.87775e-07
-8.82619e-08
-4.73078e-07
-9.32276e-08
-4.57648e-07
-9.78426e-08
-4.41541e-07
-1.02083e-07
-4.24819e-07
-1.05926e-07
-4.07545e-07
-1.0935e-07
-3.89787e-07
-1.12333e-07
-3.71615e-07
-1.14854e-07
-3.53102e-07
-1.16896e-07
-3.34323e-07
-1.1844e-07
-3.15355e-07
-1.19471e-07
-2.96279e-07
-1.19973e-07
-2.77174e-07
-1.19936e-07
-2.58124e-07
-1.19348e-07
-2.39212e-07
-1.18203e-07
-2.20522e-07
-1.16496e-07
-2.02136e-07
-1.14224e-07
-1.84139e-07
-1.1139e-07
-1.66612e-07
-1.07998e-07
-1.49636e-07
-1.04059e-07
-1.33288e-07
-9.95877e-08
-1.17644e-07
-9.46028e-08
-1.02774e-07
-8.91307e-08
-8.87448e-08
-8.32044e-08
-7.56179e-08
-7.68645e-08
-6.34479e-08
-7.01605e-08
-5.22825e-08
-6.31525e-08
-4.21614e-08
-5.59119e-08
-3.31158e-08
-4.8524e-08
-2.51673e-08
-4.10894e-08
-1.83277e-08
-3.37266e-08
-1.25986e-08
-2.65746e-08
-7.97123e-09
-1.97958e-08
-4.42745e-09
-1.35797e-08
-1.9404e-09
-8.14494e-09
-4.76707e-10
-3.74307e-09
-6.77808e-10
-6.1908e-10
1.53857e-09
-2.47107e-09
6.27642e-09
-5.55673e-09
1.2297e-08
-9.87727e-09
1.92897e-08
-1.54307e-08
2.69955e-08
-2.22095e-08
3.5188e-08
-3.01997e-08
4.36709e-08
-3.93793e-08
5.22761e-08
-4.97187e-08
6.086e-08
-6.11806e-08
6.93011e-08
-7.37199e-08
7.7497e-08
-8.72849e-08
8.5362e-08
-1.01817e-07
9.28254e-08
-1.17253e-07
9.98291e-08
-1.33524e-07
1.06326e-07
-1.50557e-07
1.12279e-07
-1.68275e-07
1.17659e-07
-1.866e-07
1.22444e-07
-2.05449e-07
1.26619e-07
-2.24741e-07
1.30175e-07
-2.44392e-07
1.33105e-07
-2.64317e-07
1.3541e-07
-2.84432e-07
1.37092e-07
-3.04653e-07
1.38156e-07
-3.24898e-07
1.3861e-07
-3.45084e-07
1.38466e-07
-3.65131e-07
1.37736e-07
-3.8496e-07
1.36435e-07
-4.04496e-07
1.34578e-07
-4.23663e-07
1.32183e-07
-4.42388e-07
1.29268e-07
-4.60604e-07
1.25852e-07
-4.78242e-07
1.21957e-07
-4.95239e-07
1.17603e-07
-5.11533e-07
1.12811e-07
-5.27067e-07
1.07605e-07
-5.41785e-07
1.02006e-07
-5.55636e-07
9.60394e-08
-5.68571e-07
8.97276e-08
-5.80545e-07
8.30952e-08
-5.91518e-07
7.61669e-08
-6.0145e-07
6.89678e-08
-6.10307e-07
6.15232e-08
-6.18059e-07
5.38589e-08
-6.24678e-07
4.60009e-08
-6.30141e-07
3.79758e-08
-6.34428e-07
2.98102e-08
-6.37524e-07
2.15313e-08
-6.39416e-07
1.31665e-08
-6.40096e-07
4.7436e-09
-6.39561e-07
-3.70932e-09
-6.37811e-07
-1.21639e-08
-6.34849e-07
-2.05914e-08
-6.30683e-07
-2.89629e-08
-6.25325e-07
-3.72494e-08
-6.18793e-07
-4.54212e-08
-6.11105e-07