/*--------------------------------*- C++ -*----------------------------------*\
| =========                 |                                                 |
| \\      /  F ield         | OpenFOAM: The Open Source CFD Toolbox           |
|  \\    /   O peration     | Version:  2212                                  |
|   \\  /    A nd           | Website:  www.openfoam.com                      |
|    \\/     M anipulation  |                                                 |
\*---------------------------------------------------------------------------*/
FoamFile
{
    version     2.0;
    format      ascii;
    arch        "LSB;label=32;scalar=64";
    class       volScalarField;
    location    "0.0635";
    object      p;
}
// * * * * * * * * * * * * * * * * * * * * * * * * * * * * * * * * * * * * * //

dimensions      [0 2 -2 0 0 0 0];

internalField   nonuniform List<scalar> 
10000
(
-8.16373e-08
8.49282e-05
-0.00013451
-0.000700534
-0.00156248
-0.00266472
-0.00395277
-0.00537529
-0.00688564
-0.0084426
-0.01001
-0.0115565
-0.0130547
-0.0144809
-0.0158147
-0.0170384
-0.0181369
-0.0190975
-0.0199092
-0.0205632
-0.0210522
-0.0213705
-0.0215136
-0.0214785
-0.0212634
-0.0208673
-0.0202905
-0.0195341
-0.0185999
-0.0174907
-0.0162097
-0.0147612
-0.0131497
-0.0113806
-0.00945968
-0.0073934
-0.00518854
-0.0028523
-0.000392248
0.00218362
0.00486692
0.00764894
0.0105206
0.0134727
0.0164957
0.0195797
0.0227149
0.0258908
0.0290974
0.0323239
0.0355599
0.0387946
0.0420172
0.0452171
0.0483833
0.0515051
0.0545717
0.0575724
0.0604969
0.0633348
0.066076
0.0687106
0.0712291
0.0736223
0.0758814
0.0779981
0.0799643
0.0817726
0.0834164
0.0848895
0.0861866
0.0873031
0.0882354
0.0889804
0.0895363
0.0899021
0.0900782
0.0900659
0.0898681
0.0894887
0.0889333
0.088209
0.0873244
0.0862901
0.0851186
0.0838244
0.0824244
0.0809379
0.0793871
0.0777974
0.0761975
0.0746199
0.0731013
0.071683
0.070411
0.0693356
0.0685083
0.0679787
0.0677883
0.0678893
-8.86345e-05
-8.14821e-06
-0.000222106
-0.000726926
-0.00147282
-0.00242067
-0.00353072
-0.00476225
-0.00607673
-0.00743874
-0.00881617
-0.0101805
-0.0115065
-0.0127718
-0.0139569
-0.0150449
-0.0160212
-0.0168731
-0.0175901
-0.0181631
-0.0185847
-0.0188491
-0.0189516
-0.018889
-0.0186589
-0.0182602
-0.0176926
-0.016957
-0.0160547
-0.0149881
-0.01376
-0.0123743
-0.010835
-0.0091471
-0.00731588
-0.0053473
-0.0032477
-0.00102385
0.00131716
0.00376779
0.0063201
0.00896592
0.0116967
0.0145037
0.0173778
0.0203097
0.0232898
0.0263086
0.0293563
0.0324227
0.0354979
0.0385717
0.0416338
0.0446741
0.0476823
0.0506481
0.0535614
0.056412
0.0591903
0.0618863
0.0644906
0.0669939
0.0693873
0.0716622
0.0738103
0.0758239
0.0776955
0.0794183
0.0809861
0.0823935
0.0836356
0.0847083
0.0856083
0.0863333
0.0868816
0.0872528
0.0874474
0.0874673
0.0873154
0.086996
0.0865146
0.0858784
0.0850961
0.0841781
0.0831364
0.0819853
0.0807408
0.0794215
0.0780483
0.0766449
0.0752375
0.0738556
0.0725316
0.0713007
0.0702013
0.069273
0.0685533
0.0680769
0.0678887
0.0679902
0.000120288
0.000192903
-2.12811e-05
-0.000494491
-0.00117416
-0.00202818
-0.00302428
-0.00412855
-0.00530823
-0.00653247
-0.00777288
-0.00900363
-0.0102014
-0.0113456
-0.0124177
-0.0134017
-0.0142836
-0.0150512
-0.015694
-0.0162034
-0.0165719
-0.0167936
-0.0168639
-0.0167792
-0.0165371
-0.0161363
-0.0155763
-0.0148574
-0.013981
-0.0129488
-0.0117637
-0.0104288
-0.00894823
-0.00732631
-0.00556808
-0.00367914
-0.0016654
0.000466792
0.00271067
0.00505906
0.00750444
0.010039
0.0126547
0.0153431
0.0180955
0.020903
0.0237566
0.026647
0.0295648
0.0325005
0.0354445
0.0383869
0.0413181
0.0442283
0.0471077
0.0499465
0.052735
0.0554636
0.058123
0.0607038
0.063197
0.0655939
0.0678859
0.070065
0.0721234
0.0740536
0.0758489
0.0775027
0.0790094
0.0803638
0.0815616
0.0825991
0.0834733
0.084182
0.0847241
0.0850994
0.0853086
0.0853537
0.0852379
0.0849653
0.0845417
0.0839741
0.0832711
0.0824426
0.0815005
0.0804583
0.0793314
0.0781374
0.0768957
0.0756285
0.0743597
0.0731158
0.0719256
0.0708199
0.0698312
0.0689928
0.068335
0.0678871
0.0676996
0.0678006
0.000666509
0.000681219
0.000436914
-3.56233e-05
-0.0006889
-0.0014941
-0.0024232
-0.0034468
-0.00453645
-0.00566507
-0.00680739
-0.00794014
-0.00904211
-0.0100942
-0.0110793
-0.0119824
-0.0127901
-0.0134908
-0.0140745
-0.0145328
-0.0148585
-0.0150457
-0.0150898
-0.0149873
-0.0147356
-0.0143333
-0.0137798
-0.0130753
-0.0122207
-0.0112178
-0.0100689
-0.00877726
-0.00734634
-0.00578036
-0.00408407
-0.00226274
-0.000321962
0.00173227
0.00389351
0.00615488
0.00850921
0.0109491
0.0134667
0.0160541
0.0187029
0.0214045
0.0241503
0.0269314
0.0297388
0.0325633
0.0353956
0.0382264
0.0410464
0.0438463
0.0466164
0.0493475
0.0520303
0.0546556
0.0572143
0.0596978
0.0620972
0.0644042
0.0666108
0.0687092
0.0706921
0.0725523
0.0742834
0.0758793
0.0773347
0.0786448
0.0798055
0.0808134
0.0816658
0.0823607
0.0828973
0.0832755
0.0834962
0.0835614
0.0834743
0.0832392
0.0828615
0.0823483
0.0817078
0.0809497
0.0800852
0.0791271
0.0780901
0.0769905
0.0758467
0.0746788
0.0735088
0.0723605
0.0712597
0.0702334
0.0693101
0.0685184
0.0678852
0.0674372
0.0672225
0.0672731
0.00150723
0.00141144
0.00110303
0.000604023
-5.02158e-05
-0.00083439
-0.00172387
-0.00269335
-0.00371817
-0.00477469
-0.00584056
-0.00689496
-0.00791875
-0.00889453
-0.00980658
-0.0106409
-0.0113851
-0.0120281
-0.0125606
-0.0129743
-0.0132625
-0.0134194
-0.0134406
-0.0133226
-0.0130628
-0.0126597
-0.0121126
-0.0114216
-0.0105874
-0.00961175
-0.00849671
-0.00724513
-0.00586036
-0.00434635
-0.00270763
-0.000949106
0.000923905
0.00290569
0.00499006
0.00717047
0.00944012
0.0117919
0.0142184
0.0167118
0.0192641
0.0218672
0.0245128
0.0271924
0.0298971
0.0326182
0.0353468
0.038074
0.0407908
0.0434882
0.046157
0.0487883
0.0513732
0.0539029
0.0563687
0.0587621
0.0610749
0.063299
0.0654268
0.0674509
0.0693642
0.07116
0.072832
0.0743746
0.0757828
0.0770522
0.0781787
0.0791593
0.0799914
0.0806734
0.0812044
0.0815846
0.0818149
0.0818974
0.0818352
0.0816325
0.0812947
0.0808285
0.0802417
0.0795436
0.078745
0.0778577
0.0768957
0.075874
0.0748095
0.0737206
0.0726274
0.0715511
0.0705145
0.0695415
0.0686568
0.0678851
0.0672503
0.0667764
0.066501
0.0664482
0.00259404
0.00234977
0.00194868
0.00139889
0.000719125
-6.8607e-05
-0.00094271
-0.00188168
-0.00286433
-0.00387012
-0.00487941
-0.00587383
-0.00683623
-0.00775085
-0.00860335
-0.00938091
-0.0100721
-0.0106666
-0.0111555
-0.0115313
-0.0117875
-0.0119186
-0.0119202
-0.0117891
-0.0115228
-0.0111197
-0.0105791
-0.00990087
-0.00908586
-0.00813543
-0.00705162
-0.00583703
-0.00449483
-0.00302877
-0.00144309
0.00025755
0.00206811
0.00398307
0.00599656
0.00810235
0.0102939
0.0125645
0.0149069
0.0173136
0.019777
0.0222894
0.0248426
0.0274285
0.0300386
0.0326646
0.0352977
0.0379296
0.0405515
0.0431547
0.0457304
0.0482702
0.0507653
0.0532073
0.0555879
0.0578989
0.0601324
0.0622807
0.0643366
0.0662928
0.0681426
0.0698795
0.0714977
0.0729918
0.0743571
0.0755892
0.0766845
0.07764
0.0784533
0.0791231
0.0796485
0.0800297
0.0802677
0.0803646
0.0803233
0.080148
0.0798438
0.0794171
0.0788754
0.0782274
0.0774831
0.0766538
0.0757523
0.0747925
0.0737899
0.0727612
0.0717244
0.0706985
0.0697035
0.0687604
0.0678905
0.067115
0.066455
0.0659319
0.0655674
0.0653727
0.00387757
0.00345986
0.00294445
0.00232344
0.00159696
0.000784023
-9.63263e-05
-0.00102612
-0.00198728
-0.00296208
-0.00393345
-0.00488521
-0.00580218
-0.00667021
-0.0074764
-0.00820901
-0.00885755
-0.00941266
-0.00986606
-0.0102107
-0.0104404
-0.0105501
-0.0105358
-0.0103942
-0.010123
-0.00972075
-0.00918664
-0.00852063
-0.0077234
-0.00679623
-0.00574101
-0.00456021
-0.00325686
-0.00183449
-0.000297126
0.0013508
0.00310447
0.00495857
0.00690748
0.00894531
0.0110658
0.0132624
0.0155282
0.0178559
0.0202384
0.0226681
0.0251373
0.027638
0.0301621
0.0327015
0.035248
0.0377933
0.040329
0.0428468
0.0453382
0.0477949
0.0502088
0.0525715
0.054875
0.0571115
0.0592735
0.0613536
0.0633445
0.0652396
0.0670322
0.0687162
0.070286
0.0717365
0.0730631
0.0742617
0.0753287
0.0762614
0.0770576
0.0777158
0.0782355
0.0786167
0.0788605
0.0789688
0.0789445
0.0787915
0.0785147
0.0781201
0.0776147
0.0770068
0.0763057
0.0755217
0.0746667
0.0737535
0.0727962
0.0718098
0.0708103
0.0698147
0.0688407
0.0679063
0.0670298
0.0662293
0.0655236
0.0649312
0.0644561
0.0640942
0.00531098
0.00470469
0.00405934
0.00335098
0.00256062
0.00170459
0.000799737
-0.000139024
-0.00109651
-0.00205756
-0.00300739
-0.0039319
-0.00481774
-0.00565236
-0.00642419
-0.00712268
-0.00773826
-0.00826242
-0.00868763
-0.00900731
-0.00921586
-0.00930855
-0.00928161
-0.00913205
-0.0088577
-0.00845715
-0.00792968
-0.00727528
-0.00649458
-0.00558881
-0.00455973
-0.00340971
-0.0021417
-0.000759014
0.000734539
0.00233468
0.00403673
0.00583563
0.00772603
0.00970228
0.0117583
0.0138878
0.0160842
0.0183404
0.0206497
0.0230045
0.0253976
0.0278212
0.0302675
0.0327287
0.0351968
0.0376639
0.0401218
0.0425626
0.044978
0.04736
0.0497007
0.051992
0.0542263
0.056396
0.0584938
0.0605127
0.0624456
0.0642859
0.0660273
0.0676641
0.0691907
0.0706022
0.0718941
0.0730626
0.0741043
0.0750164
0.0757968
0.0764443
0.0769581
0.0773384
0.0775861
0.0777031
0.077692
0.0775565
0.0773013
0.0769319
0.076455
0.075878
0.0752096
0.0744594
0.0736383
0.0727578
0.0718308
0.0708707
0.0698919
0.0689092
0.0679381
0.0669941
0.066093
0.0652499
0.0644814
0.0638037
0.0632025
0.0626577
0.00685265
0.00604949
0.0052637
0.00445581
0.00358797
0.00267431
0.00172989
0.000766917
-0.000202061
-0.00116421
-0.00210683
-0.00301766
-0.00388507
-0.00469806
-0.00544634
-0.00612048
-0.0067119
-0.00721294
-0.00761674
-0.00791734
-0.00810963
-0.00818931
-0.00815291
-0.00799777
-0.00772183
-0.00732381
-0.00680313
-0.00615985
-0.00539453
-0.00450835
-0.0035031
-0.00238107
-0.00114503
0.000201832
0.00165584
0.00321283
0.00486831
0.00661746
0.00845515
0.0103759
0.0123739
0.0144429
0.0165767
0.0187686
0.0210118
0.0232994
0.0256239
0.0279782
0.0303545
0.0327455
0.0351433
0.0375402
0.0399284
0.0423002
0.0446475
0.0469627
0.049238
0.0514656
0.0536382
0.0557484
0.0577891
0.0597535
0.0616348
0.0634265
0.0651226
0.0667174
0.0682057
0.0695826
0.0708439
0.0719857
0.0730047
0.0738983
0.0746645
0.0753018
0.0758098
0.0761883
0.0764382
0.0765613
0.07656
0.0764377
0.0761987
0.0758482
0.0753922
0.0748378
0.0741927
0.0734659
0.0726672
0.0718071
0.0708972
0.0699495
0.0689766
0.0679916
0.0670079
0.066039
0.0650981
0.0641977
0.0633529
0.0625777
0.0618397
0.0611035
0.00846664
0.00746296
0.00653017
0.00561384
0.00465799
0.00367503
0.00267869
0.00167871
0.000685323
-0.00029067
-0.00123848
-0.00214756
-0.00300784
-0.00380971
-0.00454413
-0.00520278
-0.00577805
-0.00626308
-0.00665174
-0.00693864
-0.00711921
-0.00718965
-0.00714678
-0.00698819
-0.00671212
-0.00631745
-0.0058037
-0.00517098
-0.00441991
-0.00355167
-0.00256803
-0.00147123
-0.000263926
0.0010508
0.00246934
0.00398769
0.00560151
0.00730615
0.0090967
0.0109678
0.0129138
0.0149288
0.0170067
0.0191412
0.0213255
0.0235529
0.0258164
0.0281088
0.0304229
0.0327513
0.0350865
0.037421
0.0397473
0.0420578
0.0443449
0.0466009
0.0488183
0.0509896
0.0531077
0.0551654
0.0571559
0.0590724
0.0609083
0.0626573
0.0643137
0.0658718
0.0673265
0.0686732
0.0699075
0.0710259
0.072025
0.0729021
0.0736554
0.0742835
0.0747856
0.0751616
0.0754123
0.0755391
0.0755445
0.0754314
0.0752037
0.0748663
0.0744246
0.073885
0.0732548
0.072542
0.0717554
0.0709047
0.0700001
0.0690524
0.0680725
0.067072
0.0660625
0.0650557
0.0640623
0.063093
0.0621612
0.0612795
0.0603978
0.0594664
0.0101215
0.00891712
0.00783364
0.00680261
0.00575083
0.00468939
0.003631
0.00258336
0.0015547
0.000554006
-0.000409693
-0.00132741
-0.00219048
-0.00299053
-0.00371975
-0.00437089
-0.00493723
-0.00541268
-0.00579184
-0.00607
-0.00624305
-0.00630763
-0.006261
-0.00610101
-0.00582613
-0.00543547
-0.00492872
-0.00430602
-0.00356807
-0.00271613
-0.00175195
-0.000677705
0.000504005
0.00179016
0.00317722
0.00466126
0.00623816
0.00790341
0.00965221
0.0114794
0.0133794
0.0153466
0.0173751
0.0194587
0.021591
0.0237653
0.0259749
0.0282128
0.0304719
0.0327452
0.0350254
0.0373051
0.039577
0.0418339
0.0440681
0.0462723
0.0484391
0.0505614
0.052632
0.0546441
0.0565909
0.0584659
0.0602625
0.0619747
0.0635967
0.0651231
0.066549
0.0678696
0.0690808
0.0701789
0.0711606
0.0720235
0.0727654
0.073385
0.0738814
0.0742544
0.0745045
0.0746331
0.0746422
0.0745347
0.074314
0.0739844
0.0735509
0.0730194
0.0723963
0.071689
0.0709055
0.0700544
0.0691448
0.0681861
0.0671881
0.0661608
0.0651143
0.0640585
0.0630025
0.0619546
0.0609277
0.0599329
0.0589036
0.0577763
0.0117906
0.0103872
0.00915143
0.00800153
0.00684795
0.00570087
0.00457235
0.0034683
0.00239525
0.00136057
0.000371786
-0.000563526
-0.00143797
-0.00224444
-0.00297615
-0.00362682
-0.00419065
-0.00466233
-0.00503713
-0.00531093
-0.00548024
-0.0055421
-0.0054941
-0.00533447
-0.00506198
-0.00467593
-0.00417612
-0.00356284
-0.00283689
-0.00199962
-0.00105276
1.56632e-06
0.00116076
0.00242179
0.00378121
0.00523521
0.00677981
0.00841061
0.0101229
0.0119116
0.0137714
0.0156969
0.0176823
0.0197216
0.0218085
0.0239365
0.0260991
0.0282896
0.030501
0.0327265
0.0349589
0.0371911
0.0394161
0.0416266
0.0438153
0.0459749
0.0480983
0.0501784
0.0522084
0.0541816
0.0560912
0.0579308
0.059694
0.0613749
0.0629679
0.0644677
0.0658692
0.0671679
0.0683596
0.0694406
0.0704077
0.0712584
0.0719905
0.0726026
0.0730936
0.0734632
0.0737117
0.0738403
0.0738508
0.0737456
0.0735279
0.0732015
0.0727708
0.0722411
0.0716184
0.0709092
0.0701207
0.0692605
0.0683366
0.0673575
0.0663317
0.065268
0.064175
0.0630612
0.061934
0.0608001
0.0596718
0.0585595
0.0573807
0.056059
0.0134511
0.0118515
0.0104632
0.00919177
0.00793215
0.00669395
0.00548882
0.00432123
0.0031962
0.00211974
0.00109807
0.000137451
-0.000755865
-0.00157585
-0.00231677
-0.00297326
-0.00354027
-0.0040133
-0.00438831
-0.00466177
-0.00483067
-0.00489251
-0.00484531
-0.00468762
-0.0044185
-0.00403745
-0.00354442
-0.00293989
-0.00222482
-0.00140055
-0.000468835
0.000568165
0.00170782
0.00294711
0.00428267
0.00571083
0.00722763
0.00882876
0.0105096
0.0122652
0.0140906
0.0159802
0.0179287
0.0199299
0.0219779
0.0240663
0.0261888
0.0283387
0.0305094
0.0326941
0.0348859
0.0370778
0.039263
0.0414342
0.0435844
0.0457065
0.0477934
0.0498383
0.0518343
0.053775
0.0556536
0.0574639
0.0591997
0.0608549
0.0624241
0.063902
0.0652837
0.0665645
0.0677403
0.0688074
0.0697627
0.0706034
0.0713273
0.0719329
0.072419
0.072785
0.0730312
0.0731584
0.0731682
0.0730626
0.0728445
0.072517
0.0720844
0.0715512
0.0709228
0.0702051
0.0694044
0.0685275
0.0675815
0.0665738
0.0655119
0.0644035
0.063256
0.0620767
0.0608714
0.0596457
0.0584114
0.0571787
0.0558498
0.0543362
0.015083
0.0132907
0.0117505
0.0103561
0.00898745
0.00765399
0.00636722
0.00513034
0.00394709
0.0028223
0.0017611
0.000768624
-0.000150021
-0.000989759
-0.00174573
-0.00241344
-0.00298866
-0.00346758
-0.00384681
-0.0041234
-0.00429482
-0.00435904
-0.00431451
-0.0041601
-0.0038951
-0.00351926
-0.00303276
-0.00243628
-0.00173082
-0.000917812
9.20089e-07
0.00102314
0.00214621
0.00336713
0.00468259
0.00608897
0.00758239
0.00915855
0.0108129
0.0125408
0.0143372
0.0161968
0.0181142
0.0200836
0.0220989
0.0241542
0.0262432
0.0283594
0.0304962
0.0326471
0.0348052
0.0369638
0.039116
0.041255
0.0433737
0.045465
0.0475222
0.0495385
0.0515072
0.0534217
0.0552757
0.0570626
0.0587765
0.0604114
0.061962
0.0634229
0.0647892
0.0660562
0.0672198
0.0682763
0.0692225
0.0700555
0.0707731
0.0713734
0.0718552
0.0722178
0.0724611
0.0725858
0.0725932
0.0724849
0.0722633
0.0719313
0.0714925
0.0709511
0.0703118
0.0695798
0.0687607
0.0678605
0.0668854
0.0658421
0.0647371
0.063577
0.0623684
0.0611172
0.0598284
0.0585062
0.0571626
0.0558075
0.054329
0.0526267
0.0166688
0.0146877
0.0129969
0.0114788
0.00999912
0.00856733
0.00719495
0.00588412
0.00463755
0.0034591
0.00235278
0.00132281
0.000373364
-0.000491409
-0.00126749
-0.00195115
-0.00253894
-0.0030277
-0.00341464
-0.00369736
-0.00387384
-0.00394251
-0.00390219
-0.00375208
-0.00349175
-0.0031212
-0.00264085
-0.00205152
-0.00135434
-0.000550824
0.000357115
0.00136714
0.00247657
0.00368246
0.00498154
0.0063702
0.00784453
0.00940033
0.0110332
0.0127385
0.0145113
0.0163466
0.0182388
0.0201823
0.0221713
0.0241999
0.0262618
0.0283508
0.0304604
0.0325842
0.0347154
0.0368475
0.0389738
0.0410874
0.0431813
0.0452487
0.0472828
0.0492771
0.0512248
0.0531194
0.0549546
0.0567241
0.0584217
0.0600418
0.0615789
0.0630276
0.064383
0.0656403
0.0667954
0.0678446
0.0687845
0.0696123
0.0703254
0.0709219
0.0714003
0.0717598
0.0720001
0.0721216
0.0721252
0.0720122
0.0717847
0.071445
0.0709966
0.0704429
0.0697881
0.0690368
0.0681938
0.0672645
0.0662545
0.0651695
0.0640154
0.0627978
0.0615224
0.0601943
0.0588175
0.0573953
0.0559399
0.0544614
0.0528342
0.0509466
0.0181934
0.0160272
0.0141875
0.0125456
0.0109536
0.00942115
0.00796007
0.00657167
0.00525766
0.00402103
0.00286498
0.0017928
0.000807906
-8.64082e-05
-0.000886916
-0.0015906
-0.0021947
-0.00269667
-0.00309431
-0.00338573
-0.00356942
-0.00364423
-0.00360937
-0.00346434
-0.00320898
-0.0028436
-0.00236886
-0.00178568
-0.00109531
-0.000299418
0.000599924
0.00160032
0.00269912
0.00389336
0.00517974
0.00655462
0.00801413
0.00955414
0.0111703
0.0128582
0.0146129
0.0164292
0.018302
0.0202256
0.0221944
0.0242024
0.0262437
0.028312
0.030401
0.0325043
0.0346154
0.0367277
0.0388347
0.0409295
0.0430053
0.0450554
0.0470731
0.0490518
0.0509848
0.0528658
0.0546883
0.0564461
0.0581331
0.0597438
0.0612724
0.0627137
0.0640625
0.0653143
0.0664647
0.06751
0.0684467
0.0692717
0.0699824
0.0705767
0.0710528
0.0714099
0.0716473
0.0717651
0.071764
0.0716449
0.0714093
0.0710596
0.0705984
0.070029
0.0693548
0.0685798
0.0677084
0.0667452
0.0656951
0.0645634
0.063355
0.0620749
0.060728
0.0593187
0.0578503
0.0563253
0.0547565
0.0531541
0.0513793
0.0493099
0.0196432
0.0172956
0.0153088
0.0135433
0.0118382
0.0102036
0.00865143
0.00718251
0.00579771
0.00449924
0.00328962
0.00217134
0.00114706
0.000219369
-0.000609217
-0.00133636
-0.00195993
-0.00247798
-0.0028888
-0.00319107
-0.00338375
-0.00346608
-0.00343757
-0.00329809
-0.00304784
-0.00268737
-0.00221747
-0.00163924
-0.000954125
-0.000163973
0.000729042
0.0017225
0.00281371
0.00399966
0.00527698
0.00664203
0.00809097
0.00961976
0.0112241
0.0128996
0.0146413
0.0164443
0.0183033
0.0202128
0.0221674
0.0241611
0.026188
0.0282419
0.0303167
0.0324061
0.0345036
0.0366029
0.0386972
0.0407799
0.0428442
0.0448835
0.0468912
0.0488606
0.0507853
0.0526586
0.0544743
0.0562263
0.0579084
0.059515
0.0610402
0.0624789
0.0638258
0.0650762
0.0662258
0.0672707
0.0682072
0.0690322
0.0697427
0.0703365
0.0708118
0.0711673
0.0714022
0.0715164
0.0715099
0.0713835
0.0711385
0.0707767
0.0703003
0.0697121
0.0690152
0.0682129
0.0673091
0.0663078
0.0652135
0.0640306
0.0627636
0.0614168
0.0599945
0.0585006
0.0569376
0.0553077
0.0536241
0.0518975
0.0499765
0.0477284
0.0210062
0.0184805
0.0163484
0.0144598
0.0126412
0.0109032
0.00925831
0.00770653
0.00624825
0.00488501
0.00361864
0.00245103
0.00138413
0.000419899
-0.000439847
-0.00119336
-0.00183902
-0.00237547
-0.00280158
-0.00311648
-0.00331952
-0.00341031
-0.00338878
-0.00325515
-0.0030099
-0.00265377
-0.00218775
-0.00161317
-0.000931681
-0.000145273
0.000743814
0.0017331
0.00281979
0.0040008
0.00527271
0.00663188
0.00807453
0.00959664
0.011194
0.012862
0.014596
0.016391
0.0182418
0.0201431
0.0220893
0.0240748
0.0260934
0.0281393
0.0302063
0.0322883
0.0343788
0.0364714
0.0385595
0.0406366
0.042696
0.044731
0.0467351
0.0487017
0.0506241
0.0524959
0.0543109
0.0560628
0.0577456
0.0593533
0.0608804
0.0623212
0.0636707
0.0649241
0.0660769
0.067125
0.0680646
0.0688923
0.0696051
0.0702005
0.0706766
0.0710318
0.071265
0.0713756
0.0713636
0.0712293
0.0709737
0.0705981
0.0701046
0.0694953
0.068773
0.0679404
0.0670009
0.065958
0.0648158
0.0635781
0.0622488
0.0608318
0.0593308
0.0577493
0.0560894
0.054353
0.0525536
0.0507028
0.0486367
0.0462126
0.0222716
0.0195708
0.0172949
0.0152838
0.0133517
0.0115095
0.00977048
0.0081341
0.00660017
0.00516974
0.00384409
0.00262451
0.0015123
0.00050885
-0.00038455
-0.00116673
-0.00183665
-0.00239346
-0.0028365
-0.00316534
-0.00337973
-0.00347969
-0.00346551
-0.00333772
-0.00309707
-0.0027445
-0.00228125
-0.0017089
-0.00102927
-0.000244461
0.0006432
0.00163113
0.0027164
0.00389585
0.00516602
0.00652332
0.00796396
0.00948392
0.0110789
0.0127445
0.0144759
0.0162683
0.0181165
0.0200153
0.0219591
0.0239422
0.0259588
0.0280028
0.0300684
0.0321494
0.0342393
0.0363317
0.0384201
0.0404981
0.042559
0.0445963
0.0466031
0.0485731
0.0504994
0.0523758
0.0541959
0.0559536
0.0576426
0.059257
0.0607909
0.062239
0.0635958
0.0648565
0.0660166
0.0670716
0.0680177
0.0688511
0.0695689
0.0701682
0.070647
0.0710033
0.0712357
0.0713435
0.0713261
0.0711836
0.0709167
0.0705263
0.0700142
0.069382
0.068632
0.0677666
0.0667887
0.0657014
0.0645082
0.0632126
0.061818
0.0603278
0.0587454
0.0570739
0.0553152
0.0534707
0.0515549
0.0495797
0.0473696
0.0447718
0.0234294
0.0205561
0.0181379
0.0160049
0.0139592
0.0120124
0.0101782
0.00845582
0.00684458
0.00534509
0.00395808
0.00268432
0.00152465
0.000479894
-0.000449199
-0.00126195
-0.00195785
-0.00253651
-0.00299772
-0.00334145
-0.00356786
-0.00367737
-0.00367061
-0.00354839
-0.00331167
-0.0029617
-0.00249996
-0.00192826
-0.00124855
-0.000463056
0.000425781
0.00141522
0.00250222
0.00368354
0.00495574
0.0063152
0.00775812
0.00928043
0.0108778
0.0125459
0.0142799
0.016075
0.0179262
0.0198282
0.0217753
0.023762
0.0257826
0.0278311
0.0299015
0.0319877
0.0340833
0.036182
0.0382772
0.0403626
0.0424315
0.0444773
0.0464933
0.0484728
0.0504093
0.0522964
0.0541277
0.0558969
0.0575978
0.0592242
0.0607703
0.0622306
0.0635995
0.0648722
0.0660437
0.0671096
0.0680656
0.0689081
0.0696337
0.0702395
0.0707231
0.0710823
0.0713153
0.0714211
0.0713988
0.0712483
0.0709698
0.0705641
0.0700323
0.0693758
0.0685964
0.0676963
0.0666777
0.0655436
0.064297
0.0629409
0.0614784
0.0599126
0.0582465
0.056483
0.0546237
0.05267
0.0506369
0.0485374
0.046184
0.0434143
0.0244706
0.0214268
0.0188676
0.0166132
0.0144541
0.0124022
0.0104721
0.00866271
0.00697282
0.0054027
0.00395269
0.00262307
0.00141421
0.000326462
-0.000639895
-0.0014847
-0.00220788
-0.0028095
-0.00328973
-0.00364895
-0.00388774
-0.00400689
-0.00400731
-0.00389008
-0.00365643
-0.00330791
-0.00284626
-0.00227343
-0.00159154
-0.00080293
8.97583e-05
0.00108363
0.00217557
0.0033623
0.00464035
0.00600606
0.00745554
0.00898468
0.0105892
0.0122647
0.0140065
0.0158098
0.0176694
0.01958
0.0215363
0.0235326
0.0255633
0.0276223
0.0297038
0.0318015
0.0339092
0.0360205
0.038129
0.0402283
0.0423116
0.0443723
0.0464037
0.0483991
0.0503521
0.052256
0.0541044
0.055891
0.0576094
0.0592534
0.0608171
0.0622947
0.0636807
0.0649699
0.0661573
0.0672381
0.0682079
0.0690629
0.0697995
0.0704146
0.0709054
0.0712695
0.0715048
0.0716098
0.0715836
0.0714256
0.0711357
0.0707144
0.0701623
0.0694806
0.0686707
0.0677342
0.0666734
0.0654906
0.0641884
0.0627697
0.0612372
0.0595937
0.0578419
0.0559847
0.0540234
0.0519592
0.0498082
0.0475841
0.0450879
0.0421475
0.0253865
0.0221739
0.0194747
0.0170994
0.0148268
0.0126697
0.0106432
0.00874588
0.00697632
0.0053344
0.00382009
0.00243328
0.0011739
4.18797e-05
-0.000962947
-0.00184088
-0.00259227
-0.00321754
-0.0037173
-0.00409232
-0.00434356
-0.00447212
-0.00447917
-0.00436609
-0.00413446
-0.00378606
-0.00332286
-0.00274693
-0.00206057
-0.00126634
-0.000367049
0.000634295
0.00173452
0.00293029
0.00421807
0.0055941
0.00705443
0.00859493
0.0102114
0.0118993
0.013654
0.0154707
0.0173442
0.0192692
0.0212404
0.0232523
0.025299
0.0273748
0.0294735
0.031589
0.0337151
0.0358455
0.0379737
0.0400932
0.0421973
0.0442793
0.0463325
0.0483502
0.0503258
0.0522527
0.0541244
0.0559344
0.0576761
0.0593433
0.06093
0.0624302
0.0638384
0.0651489
0.0663566
0.0674566
0.0684443
0.0693156
0.0700666
0.070694
0.0711947
0.071566
0.0718055
0.0719115
0.0718826
0.071718
0.0714173
0.0709805
0.070408
0.0697006
0.0688593
0.0678855
0.066781
0.065548
0.0641888
0.0627058
0.0611015
0.0593785
0.0575394
0.0555868
0.0535221
0.0513465
0.0490769
0.0467278
0.0440888
0.0409784
0.026169
0.0227888
0.0199503
0.0174546
0.0150686
0.012806
0.0106826
0.0086967
0.00684666
0.00513204
0.00355244
0.00210745
0.000796578
-0.000380655
-0.00142483
-0.00233662
-0.00311674
-0.00376604
-0.00428553
-0.00467636
-0.00493979
-0.00507719
-0.00509007
-0.00498013
-0.00474925
-0.00439943
-0.00393278
-0.0033516
-0.00265839
-0.00185593
-0.000947158
6.48388e-05
0.00117681
0.00238533
0.00368674
0.0050772
0.00655274
0.00810921
0.00974235
0.0114477
0.0132205
0.0150558
0.0169487
0.0188938
0.0208857
0.022919
0.0249879
0.0270864
0.0292085
0.0313482
0.033499
0.0356549
0.0378092
0.0399554
0.0420868
0.0441965
0.046278
0.0483243
0.0503289
0.0522851
0.0541861
0.0560254
0.0577963
0.0594925
0.0611078
0.0626362
0.0640716
0.0654085
0.0666413
0.067765
0.0687748
0.0696663
0.0704354
0.0710784
0.071592
0.0719731
0.0722192
0.072328
0.0722982
0.0721283
0.0718177
0.0713661
0.0707733
0.0700401
0.069167
0.0681552
0.0670063
0.065722
0.0643044
0.0627557
0.0610782
0.0592742
0.0573462
0.055297
0.0531277
0.0508396
0.0484504
0.0459757
0.0431938
0.0399133
0.0268102
0.0232632
0.020286
0.0176699
0.0151706
0.0128023
0.0105816
0.00850666
0.00657551
0.00478747
0.00314191
0.00163801
0.000274955
-0.000948129
-0.00203217
-0.00297817
-0.00378727
-0.00446069
-0.00499982
-0.00540613
-0.00568114
-0.00582657
-0.00584427
-0.00573625
-0.00550461
-0.00515154
-0.00467938
-0.00409065
-0.0033881
-0.00257465
-0.00165335
-0.000627378
0.000499894
0.00172491
0.00304391
0.00445302
0.00594821
0.0075253
0.00917997
0.0109077
0.0127037
0.0145631
0.0164808
0.0184516
0.0204701
0.0225307
0.0246277
0.0267551
0.0289068
0.0310769
0.0332589
0.0354466
0.0376335
0.0398129
0.041978
0.044122
0.0462381
0.0483196
0.0503596
0.0523513
0.0542879
0.0561626
0.0579688
0.0596999
0.0613496
0.0629116
0.0643797
0.0657481
0.0670111
0.0681632
0.0691996
0.0701155
0.0709065
0.0715688
0.0720986
0.0724925
0.0727478
0.0728619
0.072833
0.0726595
0.0723403
0.0718747
0.0712624
0.0705036
0.0695987
0.0685487
0.0673548
0.0660185
0.0645417
0.0629262
0.0611742
0.0592879
0.0572699
0.0551227
0.0528477
0.0504459
0.0479362
0.0453351
0.0424095
0.0389586
0.0273024
0.0235892
0.0204734
0.017737
0.0151242
0.01265
0.0103317
0.00816727
0.00615456
0.00429264
0.00258059
0.00101731
-0.000398372
-0.00166763
-0.00279171
-0.00377202
-0.00461007
-0.00530743
-0.00586579
-0.0062869
-0.00657264
-0.00672508
-0.00674637
-0.00663878
-0.0064046
-0.00604626
-0.00556636
-0.00496767
-0.00425311
-0.00342573
-0.00248869
-0.00144531
-0.00029911
0.000946237
0.0022869
0.00371894
0.00523829
0.00684069
0.00852174
0.0102769
0.0121013
0.0139901
0.0159382
0.0179404
0.0199913
0.0220851
0.0242162
0.0263786
0.0285662
0.030773
0.0329926
0.0352186
0.0374445
0.0396635
0.0418689
0.0440537
0.0462111
0.0483342
0.0504161
0.0524497
0.0544282
0.0563447
0.0581923
0.0599644
0.0616544
0.0632557
0.0647622
0.0661674
0.0674657
0.0686513
0.069719
0.0706638
0.0714811
0.0721665
0.0727161
0.0731262
0.0733936
0.0735157
0.0734901
0.073315
0.0729888
0.0725105
0.0718796
0.071096
0.0701597
0.0690716
0.0678325
0.0664438
0.064907
0.0632239
0.0613965
0.0594269
0.0573177
0.0550714
0.0526893
0.0501727
0.0475413
0.0448128
0.0417425
0.0381201
0.0276382
0.0237587
0.0205043
0.0176474
0.014921
0.0123405
0.00992431
0.00767014
0.00557553
0.0036394
0.00186053
0.000237581
-0.00123087
-0.00254634
-0.00371043
-0.00472491
-0.0055916
-0.00631238
-0.00688923
-0.00732424
-0.00761966
-0.00777785
-0.00780124
-0.0076923
-0.00745358
-0.00708779
-0.00659778
-0.00598652
-0.00525708
-0.00441264
-0.00345653
-0.00239221
-0.00122336
4.62709e-05
0.00141277
0.00287213
0.0044202
0.00605264
0.00776498
0.00955259
0.0114107
0.0133343
0.0153184
0.0173577
0.0194467
0.0215798
0.023751
0.0259545
0.0281843
0.0304341
0.0326977
0.0349685
0.0372399
0.0395052
0.0417574
0.0439896
0.0461949
0.0483663
0.0504966
0.0525787
0.0546056
0.0565702
0.0584656
0.0602848
0.0620212
0.0636679
0.0652184
0.0666662
0.0680052
0.0692296
0.0703336
0.0713122
0.0721601
0.0728729
0.0734463
0.0738762
0.0741592
0.0742923
0.0742727
0.0740983
0.0737672
0.0732779
0.0726298
0.0718224
0.0708555
0.0697297
0.0684456
0.0670043
0.0654071
0.0636558
0.0617522
0.0596984
0.057497
0.0551504
0.0526601
0.0500273
0.047273
0.0444156
0.0411992
0.0374037
0.0278101
0.0237639
0.0203706
0.0173929
0.0145524
0.0118655
0.00935108
0.00700683
0.00483006
0.00281948
0.000973671
-0.000708963
-0.00223013
-0.00359166
-0.00479551
-0.00584374
-0.00673846
-0.00748186
-0.00807623
-0.00852404
-0.00882784
-0.00899026
-0.00901396
-0.00890168
-0.00865625
-0.00828065
-0.00777796
-0.00715131
-0.00640392
-0.00553915
-0.00456051
-0.00347162
-0.00227625
-0.000978259
0.000418361
0.0019095
0.00349092
0.00515818
0.00690676
0.00873201
0.0106291
0.012593
0.0146187
0.0167008
0.0188338
0.021012
0.0232295
0.0254804
0.0277586
0.0300579
0.0323719
0.0346939
0.0370174
0.0393355
0.0416412
0.0439276
0.0461876
0.0484139
0.0505993
0.0527365
0.0548184
0.0568378
0.0587875
0.0606603
0.0624493
0.0641476
0.0657481
0.0672443
0.0686298
0.0698984
0.0710442
0.0720615
0.072945
0.0736898
0.0742912
0.0747449
0.0750472
0.0751947
0.0751842
0.0750132
0.0746795
0.0741815
0.0735179
0.0726881
0.0716917
0.0705289
0.0692002
0.0677065
0.0660489
0.064229
0.0622486
0.0601099
0.0578152
0.0553672
0.0527673
0.0500169
0.0471381
0.0441503
0.040786
0.0368153
0.0278105
0.0235968
0.020064
0.0169651
0.0140102
0.0112164
0.00860344
0.00616885
0.00390973
0.00182462
-8.80963e-05
-0.00183028
-0.00340394
-0.00481121
-0.00605432
-0.00713559
-0.00805746
-0.00882244
-0.00943317
-0.00989244
-0.0102031
-0.0103679
-0.0103899
-0.0102721
-0.0100176
-0.00962963
-0.00911146
-0.00846638
-0.00769782
-0.00680932
-0.00580455
-0.00468729
-0.00346139
-0.00213084
-0.000699724
0.000827741
0.0024472
0.00415416
0.00594402
0.0078121
0.00975354
0.0117633
0.0138362
0.0159669
0.0181497
0.020379
0.0226489
0.0249535
0.0272865
0.0296417
0.0320125
0.0343924
0.0367747
0.0391523
0.0415183
0.0438656
0.046187
0.048475
0.0507223
0.0529215
0.0550652
0.0571461
0.0591567
0.0610898
0.062938
0.0646941
0.066351
0.0679018
0.0693398
0.0706585
0.0718515
0.072913
0.0738372
0.0746189