/*--------------------------------*- C++ -*----------------------------------*\
| =========                 |                                                 |
| \\      /  F ield         | OpenFOAM: The Open Source CFD Toolbox           |
|  \\    /   O peration     | Version:  2212                                  |
|   \\  /    A nd           | Website:  www.openfoam.com                      |
|    \\/     M anipulation  |                                                 |
\*---------------------------------------------------------------------------*/
FoamFile
{
    version     2.0;
    format      ascii;
    arch        "LSB;label=32;scalar=64";
    class       volVectorField;
    location    "0.0635";
    object      U_0;
}
// * * * * * * * * * * * * * * * * * * * * * * * * * * * * * * * * * * * * * //

dimensions      [0 1 -1 0 0 0 0];

internalField   nonuniform List<vector> 
10000
(
(3.10678e-06 -2.71233e-06 0)
(1.42941e-05 -7.15039e-06 0)
(3.23777e-05 -8.43124e-06 0)
(4.91532e-05 -7.26009e-06 0)
(6.01212e-05 -4.85477e-06 0)
(6.28148e-05 -1.85032e-06 0)
(5.60505e-05 1.39927e-06 0)
(3.92902e-05 4.69609e-06 0)
(1.24294e-05 7.92647e-06 0)
(-2.43594e-05 1.10262e-05 0)
(-7.07231e-05 1.39587e-05 0)
(-0.000126192 1.67019e-05 0)
(-0.000190218 1.92445e-05 0)
(-0.0002622 2.15802e-05 0)
(-0.000341506 2.37049e-05 0)
(-0.000427485 2.56187e-05 0)
(-0.000519473 2.73228e-05 0)
(-0.000616805 2.88204e-05 0)
(-0.00071882 3.01165e-05 0)
(-0.000824861 3.12148e-05 0)
(-0.000934283 3.21203e-05 0)
(-0.00104645 3.28384e-05 0)
(-0.00116075 3.33741e-05 0)
(-0.00127658 3.37339e-05 0)
(-0.00139335 3.39251e-05 0)
(-0.0015105 3.39527e-05 0)
(-0.00162747 3.38221e-05 0)
(-0.00174374 3.35397e-05 0)
(-0.00185879 3.31116e-05 0)
(-0.00197214 3.25446e-05 0)
(-0.00208332 3.18452e-05 0)
(-0.00219188 3.10192e-05 0)
(-0.00229738 3.00723e-05 0)
(-0.00239943 2.90107e-05 0)
(-0.00249762 2.78405e-05 0)
(-0.00259161 2.65673e-05 0)
(-0.00268103 2.51973e-05 0)
(-0.00276557 2.37375e-05 0)
(-0.00284491 2.2194e-05 0)
(-0.00291878 2.05717e-05 0)
(-0.00298691 1.88757e-05 0)
(-0.00304905 1.71126e-05 0)
(-0.003105 1.52896e-05 0)
(-0.00315454 1.34128e-05 0)
(-0.0031975 1.14877e-05 0)
(-0.00323373 9.51987e-06 0)
(-0.00326308 7.51548e-06 0)
(-0.00328544 5.48179e-06 0)
(-0.00330073 3.42534e-06 0)
(-0.00330888 1.35217e-06 0)
(-0.00330984 -7.31148e-07 0)
(-0.00330359 -2.81796e-06 0)
(-0.00329013 -4.90119e-06 0)
(-0.0032695 -6.97311e-06 0)
(-0.00324175 -9.02654e-06 0)
(-0.00320694 -1.10549e-05 0)
(-0.00316519 -1.30512e-05 0)
(-0.00311662 -1.50078e-05 0)
(-0.00306139 -1.69173e-05 0)
(-0.00299968 -1.87718e-05 0)
(-0.00293169 -2.0563e-05 0)
(-0.00285765 -2.22837e-05 0)
(-0.00277783 -2.39265e-05 0)
(-0.00269251 -2.54832e-05 0)
(-0.00260201 -2.6946e-05 0)
(-0.00250665 -2.83074e-05 0)
(-0.00240682 -2.95592e-05 0)
(-0.0023029 -3.06934e-05 0)
(-0.00219531 -3.17024e-05 0)
(-0.0020845 -3.25792e-05 0)
(-0.00197093 -3.33163e-05 0)
(-0.00185509 -3.39061e-05 0)
(-0.00173751 -3.43418e-05 0)
(-0.00161871 -3.46165e-05 0)
(-0.00149927 -3.47235e-05 0)
(-0.00137975 -3.46567e-05 0)
(-0.00126076 -3.44106e-05 0)
(-0.00114291 -3.39801e-05 0)
(-0.00102684 -3.33601e-05 0)
(-0.000913177 -3.25457e-05 0)
(-0.000802588 -3.15329e-05 0)
(-0.000695733 -3.03183e-05 0)
(-0.000593281 -2.88991e-05 0)
(-0.000495903 -2.72735e-05 0)
(-0.000404266 -2.54408e-05 0)
(-0.000319031 -2.34019e-05 0)
(-0.000240847 -2.11585e-05 0)
(-0.000170339 -1.87143e-05 0)
(-0.000108101 -1.60761e-05 0)
(-5.46832e-05 -1.32549e-05 0)
(-1.05711e-05 -1.02673e-05 0)
(2.38398e-05 -7.13938e-06 0)
(4.82851e-05 -3.91243e-06 0)
(6.26917e-05 -6.5508e-07 0)
(6.7276e-05 2.51568e-06 0)
(6.26958e-05 5.39683e-06 0)
(5.02661e-05 7.6414e-06 0)
(3.24089e-05 8.62864e-06 0)
(1.39672e-05 7.30369e-06 0)
(2.71236e-06 2.71256e-06 0)
(7.64719e-06 -1.43823e-05 0)
(3.01747e-05 -2.9572e-05 0)
(5.99945e-05 -3.16181e-05 0)
(8.36126e-05 -2.39376e-05 0)
(9.19669e-05 -1.03519e-05 0)
(7.97825e-05 6.63795e-06 0)
(4.38545e-05 2.53998e-05 0)
(-1.75759e-05 4.48696e-05 0)
(-0.000105185 6.43511e-05 0)
(-0.00021888 8.3385e-05 0)
(-0.00035803 0.000101665 0)
(-0.000521622 0.000118986 0)
(-0.000708368 0.000135208 0)
(-0.000916795 0.000150243 0)
(-0.00114529 0.00016403 0)
(-0.00139217 0.000176535 0)
(-0.00165567 0.000187741 0)
(-0.00193402 0.000197645 0)
(-0.00222541 0.000206254 0)
(-0.00252807 0.000213582 0)
(-0.0028402 0.00021965 0)
(-0.00316006 0.000224483 0)
(-0.00348592 0.000228111 0)
(-0.0038161 0.000230563 0)
(-0.00414894 0.000231875 0)
(-0.00448287 0.000232082 0)
(-0.00481631 0.000231221 0)
(-0.00514777 0.00022933 0)
(-0.0054758 0.000226446 0)
(-0.00579901 0.00022261 0)
(-0.00611605 0.000217862 0)
(-0.00642564 0.000212243 0)
(-0.00672656 0.000205794 0)
(-0.00701763 0.000198554 0)
(-0.00729775 0.000190565 0)
(-0.00756586 0.000181866 0)
(-0.00782096 0.000172499 0)
(-0.00806212 0.000162506 0)
(-0.00828847 0.000151928 0)
(-0.00849919 0.000140807 0)
(-0.00869352 0.000129182 0)
(-0.00887077 0.000117097 0)
(-0.00903031 0.000104595 0)
(-0.00917155 9.17166e-05 0)
(-0.009294 7.85058e-05 0)
(-0.00939719 6.50059e-05 0)
(-0.00948076 5.126e-05 0)
(-0.00954437 3.73131e-05 0)
(-0.00958777 2.32102e-05 0)
(-0.00961078 8.9967e-06 0)
(-0.00961327 -5.28074e-06 0)
(-0.00959518 -1.95743e-05 0)
(-0.00955653 -3.38364e-05 0)
(-0.00949741 -4.80185e-05 0)
(-0.00941796 -6.20709e-05 0)
(-0.00931842 -7.59446e-05 0)
(-0.00919909 -8.95894e-05 0)
(-0.00906033 -0.000102954 0)
(-0.0089026 -0.000115986 0)
(-0.0087264 -0.000128634 0)
(-0.00853234 -0.000140845 0)
(-0.00832109 -0.000152566 0)
(-0.0080934 -0.000163746 0)
(-0.00785009 -0.00017433 0)
(-0.00759205 -0.000184266 0)
(-0.00732026 -0.000193502 0)
(-0.00703576 -0.000201985 0)
(-0.00673968 -0.000209663 0)
(-0.00643321 -0.000216487 0)
(-0.00611761 -0.000222407 0)
(-0.00579422 -0.000227374 0)
(-0.00546443 -0.000231341 0)
(-0.0051297 -0.000234265 0)
(-0.00479156 -0.0002361 0)
(-0.00445159 -0.000236808 0)
(-0.00411142 -0.000236351 0)
(-0.00377272 -0.000234694 0)
(-0.00343724 -0.000231807 0)
(-0.00310672 -0.000227661 0)
(-0.00278297 -0.000222234 0)
(-0.00246779 -0.000215508 0)
(-0.00216302 -0.000207469 0)
(-0.00187049 -0.000198112 0)
(-0.00159203 -0.000187439 0)
(-0.00132945 -0.000175464 0)
(-0.00108453 -0.000162209 0)
(-0.000858955 -0.000147713 0)
(-0.000654368 -0.000132032 0)
(-0.00047227 -0.000115249 0)
(-0.000314006 -9.74776e-05 0)
(-0.000180696 -7.8881e-05 0)
(-7.31638e-05 -5.96883e-05 0)
(8.18057e-06 -4.02279e-05 0)
(6.34887e-05 -2.09789e-05 0)
(9.36977e-05 -2.65299e-06 0)
(0.000100837 1.36786e-05 0)
(8.83718e-05 2.64029e-05 0)
(6.17483e-05 3.30775e-05 0)
(3.01582e-05 3.01521e-05 0)
(7.29739e-06 1.39567e-05 0)
(8.58372e-06 -3.2513e-05 0)
(3.19581e-05 -5.9722e-05 0)
(5.84124e-05 -5.79126e-05 0)
(7.15282e-05 -3.54398e-05 0)
(6.0427e-05 7.93909e-07 0)
(1.8322e-05 4.56483e-05 0)
(-5.92568e-05 9.54352e-05 0)
(-0.000174964 0.000147548 0)
(-0.000329996 0.000200156 0)
(-0.000524448 0.000251972 0)
(-0.000757592 0.000302083 0)
(-0.00102809 0.000349851 0)
(-0.00133416 0.000394822 0)
(-0.00167368 0.000436682 0)
(-0.00204428 0.000475215 0)
(-0.00244345 0.000510283 0)
(-0.00286852 0.0005418 0)
(-0.00331678 0.000569728 0)
(-0.00378548 0.000594058 0)
(-0.00427183 0.00061481 0)
(-0.00477309 0.000632025 0)
(-0.00528648 0.000645759 0)
(-0.00580933 0.000656078 0)
(-0.00633896 0.000663064 0)
(-0.00687278 0.000666804 0)
(-0.00740826 0.000667391 0)
(-0.00794292 0.000664924 0)
(-0.00847438 0.000659507 0)
(-0.00900033 0.000651245 0)
(-0.00951854 0.000640247 0)
(-0.0100269 0.000626627 0)
(-0.0105233 0.000610497 0)
(-0.0110057 0.000591972 0)
(-0.0114724 0.000571168 0)
(-0.0119216 0.000548201 0)
(-0.0123515 0.000523188 0)
(-0.0127605 0.000496245 0)
(-0.0131472 0.000467493 0)
(-0.0135101 0.000437049 0)
(-0.0138479 0.000405035 0)
(-0.0141594 0.00037157 0)
(-0.0144435 0.000336776 0)
(-0.0146992 0.000300775 0)
(-0.0149256 0.000263692 0)
(-0.0151217 0.00022565 0)
(-0.015287 0.000186775 0)
(-0.0154208 0.000147197 0)
(-0.0155226 0.000107041 0)
(-0.0155919 6.64412e-05 0)
(-0.0156285 2.55288e-05 0)
(-0.0156322 -1.55616e-05 0)
(-0.0156029 -5.66924e-05 0)
(-0.0155407 -9.77246e-05 0)
(-0.0154456 -0.000138519 0)
(-0.0153179 -0.000178933 0)
(-0.0151581 -0.000218824 0)
(-0.0149665 -0.000258045 0)
(-0.0147438 -0.00029645 0)
(-0.0144908 -0.000333889 0)
(-0.0142081 -0.000370213 0)
(-0.0138969 -0.000405271 0)
(-0.0135582 -0.000438914 0)
(-0.0131931 -0.000470988 0)
(-0.0128031 -0.000501343 0)
(-0.0123896 -0.000529829 0)
(-0.011954 -0.000556295 0)
(-0.0114982 -0.000580593 0)
(-0.0110238 -0.000602579 0)
(-0.0105329 -0.00062211 0)
(-0.0100274 -0.000639045 0)
(-0.00950939 -0.000653249 0)
(-0.00898118 -0.000664593 0)
(-0.00844508 -0.00067295 0)
(-0.0079035 -0.000678204 0)
(-0.00735895 -0.000680242 0)
(-0.00681401 -0.000678965 0)
(-0.00627136 -0.000674278 0)
(-0.0057337 -0.000666102 0)
(-0.00520382 -0.000654367 0)
(-0.00468454 -0.000639016 0)
(-0.00417869 -0.000620012 0)
(-0.00368913 -0.000597333 0)
(-0.00321872 -0.000570981 0)
(-0.00277027 -0.000540981 0)
(-0.00234658 -0.000507391 0)
(-0.00195033 -0.000470307 0)
(-0.00158411 -0.000429868 0)
(-0.00125033 -0.000386276 0)
(-0.000951217 -0.000339806 0)
(-0.000688684 -0.000290835 0)
(-0.000464281 -0.000239877 0)
(-0.000279064 -0.000187632 0)
(-0.000133439 -0.000135062 0)
(-2.69614e-05 -8.34983e-05 0)
(4.19315e-05 -3.48011e-05 0)
(7.6267e-05 8.4229e-06 0)
(8.08644e-05 4.25302e-05 0)
(6.27917e-05 6.25168e-05 0)
(3.32064e-05 6.17702e-05 0)
(8.64165e-06 3.2403e-05 0)
(7.40406e-06 -4.96965e-05 0)
(2.44731e-05 -8.37942e-05 0)
(3.65266e-05 -7.12282e-05 0)
(2.68564e-05 -2.55386e-05 0)
(-1.59584e-05 4.29876e-05 0)
(-9.93994e-05 0.000126419 0)
(-0.000228567 0.000218787 0)
(-0.000406608 0.000315685 0)
(-0.00063504 0.000413872 0)
(-0.00091409 0.000510978 0)
(-0.00124298 0.000605267 0)
(-0.00162015 0.000695472 0)
(-0.00204344 0.000780672 0)
(-0.00251024 0.000860204 0)
(-0.0030176 0.000933602 0)
(-0.0035623 0.00100055 0)
(-0.00414097 0.00106083 0)
(-0.00475009 0.00111434 0)
(-0.0053861 0.00116102 0)
(-0.00604535 0.00120088 0)
(-0.00672423 0.00123398 0)
(-0.00741913 0.0012604 0)
(-0.00812646 0.00128025 0)
(-0.0088427 0.00129367 0)
(-0.0095644 0.00130082 0)
(-0.0102882 0.00130187 0)
(-0.0110107 0.00129699 0)
(-0.0117288 0.00128639 0)
(-0.0124394 0.00127026 0)
(-0.0131396 0.0012488 0)
(-0.0138263 0.00122224 0)
(-0.0144968 0.00119079 0)
(-0.0151486 0.00115466 0)
(-0.015779 0.00111409 0)
(-0.0163856 0.00106929 0)
(-0.0169663 0.00102049 0)
(-0.0175187 0.000967931 0)
(-0.0180409 0.00091183 0)
(-0.018531 0.000852424 0)
(-0.0189872 0.000789947 0)
(-0.0194079 0.000724636 0)
(-0.0197915 0.000656728 0)
(-0.0201367 0.000586463 0)
(-0.0204422 0.000514084 0)
(-0.020707 0.000439835 0)
(-0.02093 0.000363964 0)
(-0.0211104 0.000286721 0)
(-0.0212475 0.00020836 0)
(-0.0213409 0.000129136 0)
(-0.02139 4.931e-05 0)
(-0.0213947 -3.08536e-05 0)
(-0.0213549 -0.000111088 0)
(-0.0212705 -0.000191121 0)
(-0.0211417 -0.000270678 0)
(-0.020969 -0.000349483 0)
(-0.0207529 -0.000427255 0)
(-0.0204939 -0.00050371 0)
(-0.020193 -0.000578558 0)
(-0.019851 -0.000651513 0)
(-0.0194692 -0.000722281 0)
(-0.0190488 -0.00079057 0)
(-0.0185913 -0.000856087 0)
(-0.0180984 -0.000918539 0)
(-0.0175718 -0.000977632 0)
(-0.0170134 -0.00103307 0)
(-0.0164255 -0.00108458 0)
(-0.0158101 -0.00113185 0)
(-0.0151699 -0.00117463 0)
(-0.0145072 -0.00121262 0)
(-0.0138249 -0.00124557 0)
(-0.0131258 -0.00127321 0)
(-0.0124128 -0.00129529 0)
(-0.0116891 -0.00131159 0)
(-0.010958 -0.00132187 0)
(-0.0102227 -0.00132593 0)
(-0.00948683 -0.00132358 0)
(-0.00875379 -0.00131465 0)
(-0.00802725 -0.00129899 0)
(-0.00731089 -0.00127649 0)
(-0.00660843 -0.00124705 0)
(-0.00592363 -0.00121061 0)
(-0.00526024 -0.00116715 0)
(-0.00462201 -0.00111669 0)
(-0.00401261 -0.00105933 0)
(-0.00343566 -0.000995188 0)
(-0.00289463 -0.000924492 0)
(-0.00239282 -0.000847552 0)
(-0.00193331 -0.0007648 0)
(-0.00151885 -0.000676815 0)
(-0.00115182 -0.000584372 0)
(-0.000834074 -0.0004885 0)
(-0.000566823 -0.000390569 0)
(-0.000350453 -0.000292402 0)
(-0.000184312 -0.000196443 0)
(-6.64356e-05 -0.000105969 0)
(6.77108e-06 -2.53834e-05 0)
(4.08313e-05 3.94298e-05 0)
(4.35901e-05 8.07489e-05 0)
(2.68602e-05 8.86818e-05 0)
(7.7179e-06 5.03756e-05 0)
(5.06436e-06 -6.09655e-05 0)
(1.12684e-05 -9.28926e-05 0)
(1.1811e-06 -6.07822e-05 0)
(-4.02369e-05 1.70133e-05 0)
(-0.000123914 0.000126914 0)
(-0.000257434 0.000258286 0)
(-0.000446038 0.000402906 0)
(-0.000693004 0.000554505 0)
(-0.000999945 0.000708338 0)
(-0.0013671 0.000860817 0)
(-0.00179361 0.00100925 0)
(-0.0022777 0.0011516 0)
(-0.00281693 0.00128637 0)
(-0.00340827 0.00141245 0)
(-0.00404828 0.00152903 0)
(-0.0047332 0.00163554 0)
(-0.00545902 0.0017316 0)
(-0.00622157 0.00181696 0)
(-0.00701656 0.00189151 0)
(-0.00783963 0.00195522 0)
(-0.00868641 0.00200814 0)
(-0.0095525 0.00205036 0)
(-0.0104336 0.00208207 0)
(-0.0113253 0.00210344 0)
(-0.0122235 0.00211472 0)
(-0.013124 0.00211616 0)
(-0.0140227 0.00210804 0)
(-0.0149158 0.00209067 0)
(-0.0157994 0.00206434 0)
(-0.0166698 0.00202941 0)
(-0.0175234 0.00198619 0)
(-0.0183569 0.00193503 0)
(-0.019167 0.0018763 0)
(-0.0199504 0.00181033 0)
(-0.0207044 0.00173751 0)
(-0.0214259 0.00165818 0)
(-0.0221123 0.00157273 0)
(-0.0227612 0.00148153 0)
(-0.0233701 0.00138496 0)
(-0.0239369 0.00128339 0)
(-0.0244594 0.00117721 0)
(-0.0249359 0.00106681 0)
(-0.0253646 0.000952583 0)
(-0.025744 0.000834917 0)
(-0.0260727 0.000714216 0)
(-0.0263495 0.000590882 0)
(-0.0265734 0.000465323 0)
(-0.0267435 0.000337954 0)
(-0.0268592 0.000209193 0)
(-0.0269199 7.94651e-05 0)
(-0.0269254 -5.08007e-05 0)
(-0.0268756 -0.000181168 0)
(-0.0267704 -0.000311197 0)
(-0.0266102 -0.00044044 0)
(-0.0263953 -0.000568445 0)
(-0.0261265 -0.000694755 0)
(-0.0258045 -0.00081891 0)
(-0.0254305 -0.000940441 0)
(-0.0250055 -0.00105888 0)
(-0.024531 -0.00117376 0)
(-0.0240087 -0.0012846 0)
(-0.0234404 -0.00139092 0)
(-0.022828 -0.00149226 0)
(-0.0221739 -0.00158814 0)
(-0.0214803 -0.00167808 0)
(-0.02075 -0.00176164 0)
(-0.0199858 -0.00183833 0)
(-0.0191905 -0.00190773 0)
(-0.0183675 -0.00196938 0)
(-0.01752 -0.00202285 0)
(-0.0166516 -0.00206775 0)
(-0.0157659 -0.00210366 0)
(-0.0148668 -0.00213022 0)
(-0.0139583 -0.00214708 0)
(-0.0130444 -0.00215391 0)
(-0.0121295 -0.00215042 0)
(-0.0112178 -0.00213634 0)
(-0.0103138 -0.00211146 0)
(-0.00942202 -0.00207561 0)
(-0.00854691 -0.00202864 0)
(-0.00769305 -0.00197049 0)
(-0.00686502 -0.00190116 0)
(-0.0060673 -0.00182072 0)
(-0.00530435 -0.00172933 0)
(-0.00458047 -0.00162725 0)
(-0.0038998 -0.00151488 0)
(-0.00326626 -0.00139278 0)
(-0.00268346 -0.00126167 0)
(-0.00215462 -0.00112253 0)
(-0.00168247 -0.000976664 0)
(-0.00126913 -0.000825726 0)
(-0.000915966 -0.000671895 0)
(-0.000623389 -0.000517998 0)
(-0.000390676 -0.000367721 0)
(-0.000215707 -0.000225865 0)
(-9.46854e-05 -9.86826e-05 0)
(-2.1874e-05 5.71498e-06 0)
(1.07597e-05 7.69595e-05 0)
(1.46808e-05 0.000101949 0)
(5.58477e-06 6.31528e-05 0)
(2.17203e-06 -6.42455e-05 0)
(-5.23407e-06 -8.19314e-05 0)
(-4.26608e-05 -1.9878e-05 0)
(-0.000122152 9.96642e-05 0)
(-0.000253366 0.000260171 0)
(-0.000443523 0.000448522 0)
(-0.000697615 0.000654363 0)
(-0.00101874 0.000869612 0)
(-0.0014084 0.001088 0)
(-0.00186669 0.00130468 0)
(-0.0023926 0.00151592 0)
(-0.00298412 0.00171885 0)
(-0.00363852 0.00191129 0)
(-0.00435243 0.00209161 0)
(-0.00512197 0.00225859 0)
(-0.0059429 0.00241134 0)
(-0.00681068 0.00254926 0)
(-0.00772057 0.00267193 0)
(-0.00866765 0.00277914 0)
(-0.00964694 0.00287079 0)
(-0.0106534 0.00294691 0)
(-0.0116819 0.00300761 0)
(-0.0127275 0.00305311 0)
(-0.0137852 0.00308365 0)
(-0.01485 0.00309954 0)
(-0.0159172 0.00310115 0)
(-0.0169819 0.00308885 0)
(-0.0180397 0.00306308 0)
(-0.019086 0.00302427 0)
(-0.0201165 0.00297289 0)
(-0.021127 0.00290943 0)
(-0.0221135 0.00283437 0)
(-0.0230721 0.00274823 0)
(-0.0239992 0.00265152 0)
(-0.0248913 0.00254476 0)
(-0.0257449 0.00242851 0)
(-0.026557 0.00230328 0)
(-0.0273245 0.00216963 0)
(-0.0280448 0.00202812 0)
(-0.0287151 0.00187929 0)
(-0.0293331 0.00172371 0)
(-0.0298965 0.00156195 0)
(-0.0304034 0.00139458 0)
(-0.030852 0.00122219 0)
(-0.0312405 0.00104535 0)
(-0.0315676 0.000864665 0)
(-0.0318321 0.000680733 0)
(-0.0320331 0.000494158 0)
(-0.0321696 0.000305559 0)
(-0.0322411 0.000115556 0)
(-0.0322473 -7.52185e-05 0)
(-0.032188 -0.000266127 0)
(-0.0320633 -0.000456522 0)
(-0.0318736 -0.00064575 0)
(-0.0316192 -0.000833148 0)
(-0.0313011 -0.00101805 0)
(-0.0309201 -0.00119977 0)
(-0.0304775 -0.00137764 0)
(-0.0299748 -0.00155097 0)
(-0.0294136 -0.00171907 0)
(-0.0287958 -0.00188125 0)
(-0.0281237 -0.00203681 0)
(-0.0273995 -0.00218507 0)
(-0.0266259 -0.00232533 0)
(-0.0258058 -0.00245692 0)
(-0.0249421 -0.00257916 0)
(-0.0240383 -0.00269139 0)
(-0.0230979 -0.00279294 0)
(-0.0221245 -0.0028832 0)
(-0.021122 -0.00296154 0)
(-0.0200947 -0.00302736 0)
(-0.0190469 -0.00308011 0)
(-0.0179829 -0.00311925 0)
(-0.0169076 -0.00314428 0)
(-0.0158257 -0.00315474 0)
(-0.0147421 -0.00315022 0)
(-0.0136619 -0.00313036 0)
(-0.0125902 -0.00309486 0)
(-0.0115323 -0.00304349 0)
(-0.0104934 -0.00297607 0)
(-0.00947886 -0.00289255 0)
(-0.00849381 -0.00279296 0)
(-0.00754349 -0.00267742 0)
(-0.006633 -0.00254622 0)
(-0.00576726 -0.00239979 0)
(-0.004951 -0.00223875 0)
(-0.00418865 -0.00206394 0)
(-0.00348429 -0.00187649 0)
(-0.00284155 -0.00167785 0)
(-0.00226349 -0.0014699 0)
(-0.00175248 -0.00125504 0)
(-0.00131008 -0.00103634 0)
(-0.000936814 -0.000817707 0)
(-0.000632045 -0.000604125 0)
(-0.000393718 -0.000401937 0)
(-0.000218145 -0.000219209 0)
(-9.97606e-05 -6.61719e-05 0)
(-3.08045e-05 4.43482e-05 0)
(-9.26101e-07 9.63458e-05 0)
(2.85723e-06 6.84273e-05 0)
(-9.48318e-07 -5.83651e-05 0)
(-2.35054e-05 -4.77104e-05 0)
(-9.1545e-05 5.60307e-05 0)
(-0.000213356 0.000227689 0)
(-0.000396796 0.000448289 0)
(-0.00064835 0.000702528 0)
(-0.000972456 0.000978113 0)
(-0.00137178 0.00126527 0)
(-0.00184749 0.00155626 0)
(-0.00239941 0.00184498 0)
(-0.00302627 0.00212663 0)
(-0.0037258 0.00239747 0)
(-0.00449494 0.00265461 0)
(-0.00532997 0.00289582 0)
(-0.00622664 0.00311942 0)
(-0.00718027 0.00332416 0)
(-0.00818584 0.00350916 0)
(-0.0092381 0.00367381 0)
(-0.0103316 0.00381776 0)
(-0.0114608 0.00394082 0)
(-0.01262 0.00404298 0)
(-0.0138035 0.00412437 0)
(-0.0150058 0.0041852 0)
(-0.0162213 0.0042258 0)
(-0.0174443 0.00424655 0)
(-0.0186694 0.00424791 0)
(-0.0198913 0.00423039 0)
(-0.0211048 0.00419455 0)
(-0.0223049 0.00414096 0)
(-0.0234865 0.00407024 0)
(-0.024645 0.00398305 0)
(-0.0257758 0.00388004 0)
(-0.0268744 0.0037619 0)
(-0.0279368 0.00362934 0)
(-0.0289589 0.00348306 0)
(-0.0299369 0.00332378 0)
(-0.0308672 0.00315225 0)
(-0.0317464 0.00296921 0)
(-0.0325713 0.0027754 0)
(-0.0333389 0.0025716 0)
(-0.0340466 0.00235857 0)
(-0.0346918 0.00213708 0)
(-0.0352721 0.00190794 0)
(-0.0357856 0.00167192 0)
(-0.0362303 0.00142983 0)
(-0.0366047 0.00118249 0)
(-0.0369074 0.000930722 0)
(-0.0371372 0.000675351 0)
(-0.0372932 0.000417225 0)
(-0.0373749 0.000157195 0)
(-0.0373817 -0.000103873 0)
(-0.0373136 -0.000365105 0)
(-0.0371706 -0.000625616 0)
(-0.0369531 -0.00088451 0)
(-0.0366617 -0.00114088 0)
(-0.0362972 -0.00139382 0)
(-0.0358609 -0.00164239 0)
(-0.035354 -0.00188568 0)
(-0.0347783 -0.00212274 0)
(-0.0341356 -0.00235263 0)
(-0.0334282 -0.00257442 0)
(-0.0326585 -0.00278716 0)
(-0.0318293 -0.00298991 0)
(-0.0309434 -0.00318174 0)
(-0.0300043 -0.00336172 0)
(-0.0290153 -0.00352893 0)
(-0.0279803 -0.00368247 0)
(-0.0269031 -0.00382147 0)
(-0.0257881 -0.00394507 0)
(-0.0246398 -0.00405243 0)
(-0.0234627 -0.00414275 0)
(-0.0222619 -0.00421529 0)
(-0.0210423 -0.00426932 0)
(-0.0198094 -0.00430419 0)
(-0.0185684 -0.00431928 0)
(-0.017325 -0.00431405 0)
(-0.0160849 -0.00428805 0)
(-0.0148539 -0.00424087 0)
(-0.0136379 -0.00417224 0)
(-0.0124427 -0.00408198 0)
(-0.0112743 -0.00397 0)
(-0.0101386 -0.0038364 0)
(-0.00904129 -0.00368141 0)
(-0.00798813 -0.00350545 0)
(-0.00698457 -0.00330915 0)
(-0.00603586 -0.00309341 0)
(-0.0051469 -0.0028594 0)
(-0.0043222 -0.0026087 0)
(-0.00356577 -0.00234328 0)
(-0.00288098 -0.00206569 0)
(-0.0022705 -0.0017791 0)
(-0.00173613 -0.00148754 0)
(-0.00127862 -0.00119601 0)
(-0.000897559 -0.000910805 0)
(-0.000591161 -0.000639759 0)
(-0.00035611 -0.00039265 0)
(-0.000187315 -0.000181649 0)
(-7.76509e-05 -2.17623e-05 0)
(-1.84163e-05 6.85517e-05 0)
(-1.28091e-07 6.49672e-05 0)
(-4.12029e-06 -4.27612e-05 0)
(-4.25886e-05 1.16548e-05 0)
(-0.000143141 0.000169866 0)
(-0.000309948 0.000404668 0)
(-0.000548736 0.000695153 0)
(-0.000864999 0.00102419 0)
(-0.00126237 0.00137779 0)
(-0.00174287 0.00174465 0)
(-0.00230716 0.00211565 0)
(-0.00295468 0.00248349 0)
(-0.00368377 0.00284233 0)
(-0.00449182 0.00318754 0)
(-0.00537544 0.00351549 0)
(-0.00633054 0.00382334 0)
(-0.00735248 0.00410892 0)
(-0.00843618 0.00437057 0)
(-0.00957618 0.00460711 0)
(-0.0107668 0.0048177 0)
(-0.012002 0.00500182 0)
(-0.0132757 0.00515918 0)
(-0.0145819 0.00528971 0)
(-0.0159143 0.00539353 0)
(-0.0172667 0.00547086 0)
(-0.0186329 0.00552209 0)
(-0.0200068 0.00554769 0)
(-0.0213824 0.00554822 0)
(-0.0227539 0.0055243 0)
(-0.0241154 0.00547662 0)
(-0.0254614 0.00540594 0)
(-0.0267864 0.00531303 0)
(-0.0280851 0.00519871 0)
(-0.0293525 0.00506385 0)
(-0.0305837 0.00490931 0)
(-0.031774 0.004736 0)
(-0.0329191 0.00454485 0)
(-0.0340145 0.00433678 0)
(-0.0350565 0.00411275 0)
(-0.036041 0.00387373 0)
(-0.0369647 0.00362069 0)
(-0.0378242 0.00335463 0)
(-0.0386165 0.00307655 0)
(-0.0393388 0.00278747 0)
(-0.0399884 0.0024884 0)
(-0.0405631 0.00218038 0)
(-0.0410608 0.00186447 0)
(-0.0414797 0.00154173 0)
(-0.0418184 0.00121322 0)
(-0.0420754 0.000880035 0)
(-0.0422499 0.000543277 0)
(-0.0423412 0.000204058 0)
(-0.0423486 -0.000136495 0)
(-0.0422722 -0.00047724 0)
(-0.042112 -0.000817025 0)
(-0.0418684 -0.00115468 0)
(-0.0415421 -0.00148903 0)
(-0.0411341 -0.00181887 0)
(-0.0406456 -0.00214302 0)
(-0.0400782 -0.00246026 0)
(-0.0394337 -0.00276937 0)
(-0.0387143 -0.00306914 0)
(-0.0379224 -0.00335834 0)
(-0.0370609 -0.00363574 0)
(-0.0361326 -0.00390014 0)
(-0.0351409 -0.00415031 0)
(-0.0340895 -0.00438506 0)
(-0.0329822 -0.00460321 0)
(-0.0318232 -0.0048036 0)
(-0.0306169 -0.00498508 0)
(-0.029368 -0.00514656 0)
(-0.0280816 -0.00528696 0)
(-0.0267627 -0.00540527 0)
(-0.0254169 -0.00550051 0)
(-0.0240497 -0.00557178 0)
(-0.022667 -0.00561823 0)
(-0.0212748 -0.0056391 0)
(-0.0198792 -0.00563371 0)
(-0.0184866 -0.00560147 0)
(-0.0171033 -0.00554193 0)
(-0.0157358 -0.00545473 0)
(-0.0143905 -0.00533967 0)
(-0.0130741 -0.00519672 0)
(-0.0117928 -0.00502601 0)
(-0.0105532 -0.0048279 0)
(-0.00936124 -0.00460296 0)
(-0.00822308 -0.00435208 0)
(-0.00714436 -0.00407645 0)
(-0.00613046 -0.00377763 0)
(-0.00518627 -0.00345766 0)
(-0.00431618 -0.0031191 0)
(-0.00352392 -0.00276518 0)
(-0.00281249 -0.00239991 0)
(-0.00218398 -0.00202823 0)
(-0.00163949 -0.00165628 0)
(-0.00117897 -0.00129158 0)
(-0.000801079 -0.000943389 0)
(-0.000503082 -0.000623046 0)
(-0.000280605 -0.000344441 0)
(-0.00012742 -0.00012443 0)
(-3.68122e-05 1.65709e-05 0)
(-3.18569e-06 5.21551e-05 0)
(-7.25267e-06 -1.72489e-05 0)
(-6.19015e-05 9.71087e-05 0)
(-0.000195907 0.000323306 0)
(-0.000409227 0.000632827 0)
(-0.00070529 0.00100332 0)
(-0.00108841 0.00141617 0)
(-0.00156125 0.00185598 0)
(-0.00212502 0.00231007 0)
(-0.00277973 0.00276808 0)
(-0.00352428 0.0032216 0)
(-0.00435656 0.00366379 0)
(-0.00527355 0.00408917 0)
(-0.00627145 0.00449336 0)
(-0.0073458 0.0048729 0)
(-0.00849156 0.00522509 0)
(-0.00970323 0.00554789 0)
(-0.010975 0.00583977 0)
(-0.0123006 0.00609964 0)
(-0.0136736 0.00632679 0)
(-0.0150877 0.00652081 0)
(-0.016536 0.00668158 0)
(-0.0180119 0.00680915 0)
(-0.0195088 0.0069038 0)
(-0.0210198 0.00696595 0)
(-0.0225385 0.00699614 0)
(-0.0240582 0.00699504 0)
(-0.0255727 0.0069634 0)
(-0.0270755 0.00690206 0)
(-0.0285607 0.00681193 0)
(-0.0300223 0.00669398 0)
(-0.0314545 0.00654921 0)
(-0.0328519 0.00637868 0)
(-0.034209 0.00618348 0)
(-0.0355209 0.00596473 0)
(-0.0367826 0.00572357 0)
(-0.0379896 0.00546119 0)
(-0.0391374 0.00517876 0)
(-0.0402219 0.0048775 0)
(-0.0412392 0.00455864 0)
(-0.0421857 0.00422342 0)
(-0.0430581 0.00387309 0)
(-0.0438534 0.00350894 0)
(-0.0445686 0.00313226 0)
(-0.0452012 0.00274433 0)
(-0.0457491 0.0023465 0)
(-0.0462102 0.00194008 0)
(-0.046583 0.00152644 0)
(-0.0468659 0.00110694 0)
(-0.0470579 0.000682959 0)
(-0.0471582 0.000255909 0)
(-0.0471664 -0.000172796 0)
(-0.0470823 -0.000601722 0)
(-0.0469059 -0.00102942 0)
(-0.0466377 -0.00145441 0)
(-0.0462785 -0.00187523 0)
(-0.0458294 -0.00229037 0)
(-0.0452917 -0.00269833 0)
(-0.0446671 -0.00309758 0)
(-0.0439577 -0.00348661 0)
(-0.0431658 -0.00386389 0)
(-0.0422942 -0.00422788 0)
(-0.0413457 -0.00457705 0)
(-0.0403237 -0.00490988 0)
(-0.0392318 -0.00522485 0)
(-0.038074 -0.00552047 0)
(-0.0368546 -0.00579527 0)
(-0.035578 -0.00604779 0)
(-0.0342492 -0.00627661 0)
(-0.0328732 -0.00648038 0)
(-0.0314555 -0.00665776 0)
(-0.0300017 -0.00680748 0)
(-0.0285178 -0.00692836 0)
(-0.0270098 -0.00701926 0)
(-0.0254841 -0.00707915 0)
(-0.0239472 -0.0071071 0)
(-0.0224059 -0.00710229 0)
(-0.0208669 -0.00706402 0)
(-0.0193372 -0.00699172 0)
(-0.0178238 -0.00688502 0)
(-0.0163337 -0.0067437 0)
(-0.0148739 -0.00656773 0)
(-0.0134514 -0.00635735 0)
(-0.0120731 -0.00611304 0)
(-0.0107456 -0.00583557 0)
(-0.0094753 -0.00552607 0)
(-0.00826848 -0.00518606 0)
(-0.00713088 -0.00481753 0)
(-0.00606781 -0.004423 0)
(-0.00508404 -0.00400565 0)
(-0.00418369 -0.0035694 0)
(-0.00337012 -0.00311906 0)
(-0.00264583 -0.00266054 0)
(-0.00201235 -0.00220102 0)
(-0.0014701 -0.00174921 0)
(-0.00101835 -0.00131566 0)
(-0.000655106 -0.000913103 0)
(-0.000376883 -0.000556913 0)
(-0.000178536 -0.000265455 0)
(-5.55075e-05 -6.06349e-05 0)
(-6.21656e-06 2.9764e-05 0)
(-1.02986e-05 1.81363e-05 0)
(-8.109e-05 0.000208971 0)
(-0.000248848 0.000517146 0)
(-0.000509364 0.000913383 0)
(-0.000863721 0.00137431 0)
(-0.00131496 0.00188018 0)
(-0.00186464 0.00241439 0)
(-0.00251303 0.00296312 0)
(-0.00325938 0.00351491 0)
(-0.00410195 0.00406033 0)
(-0.00503809 0.00459161 0)
(-0.00606428 0.00510245 0)
(-0.00717629 0.00558776 0)
(-0.00836921 0.00604347 0)
(-0.00963762 0.00646637 0)
(-0.0109756 0.00685399 0)
(-0.0123768 0.00720445 0)
(-0.0138348 0.00751641 0)
(-0.0153426 0.00778897 0)
(-0.0168933 0.00802157 0)
(-0.0184798 0.00821401 0)
(-0.0200949 0.00836631 0)
(-0.0217315 0.00847876 0)
(-0.0233824 0.00855182 0)
(-0.0250405 0.00858611 0)
(-0.0266989 0.00858241 0)
(-0.0283507 0.00854159 0)
(-0.0299892 0.00846467 0)
(-0.0316078 0.0083527 0)
(-0.0332001 0.00820685 0)
(-0.03476 0.00802832 0)
(-0.0362816 0.00781839 0)
(-0.037759 0.00757837 0)
(-0.0391868 0.00730962 0)
(-0.0405598 0.00701353 0)
(-0.041873 0.00669152 0)
(-0.0431216 0.00634503 0)
(-0.0443012 0.00597555 0)
(-0.0454077 0.00558457 0)
(-0.046437 0.00517361 0)
(-0.0473856 0.00474419 0)
(-0.0482503 0.00429789 0)
(-0.0490279 0.00383627 0)
(-0.0497157 0.00336094 0)
(-0.0503113 0.0028735 0)
(-0.0508126 0.00237558 0)
(-0.0512177 0.00186885 0)
(-0.0515253 0.00135498 0)
(-0.051734 0.000835653 0)
(-0.0518432 0.000312592 0)
(-0.0518522 -0.000212471 0)
(-0.0517608 -0.00073778 0)
(-0.0515692 -0.00126156 0)
(-0.0512779 -0.00178202 0)
(-0.0508876 -0.00229735 0)
(-0.0503996 -0.00280573 0)
(-0.0498154 -0.00330531 0)
(-0.0491367 -0.00379424 0)
(-0.0483658 -0.00427066 0)
(-0.0475052 -0.00473271 0)
(-0.0465578 -0.00517852 0)
(-0.0455268 -0.00560623 0)
(-0.0444158 -0.00601398 0)
(-0.0432287 -0.00639994 0)
(-0.0419698 -0.00676229 0)
(-0.0406437 -0.00709922 0)
(-0.0392552 -0.007409 0)
(-0.0378095 -0.00768989 0)
(-0.0363123 -0.00794025 0)
(-0.0347692 -0.00815847 0)
(-0.0331864 -0.00834303 0)
(-0.0315702 -0.00849248 0)
(-0.0299273 -0.00860548 0)
(-0.0282644 -0.00868079 0)
(-0.0265885 -0.0087173 0)
(-0.0249069 -0.00871403 0)
(-0.0232267 -0.00867016 0)
(-0.0215556 -0.00858506 0)
(-0.0199009 -0.00845827 0)
(-0.0182701 -0.00828959 0)
(-0.0166709 -0.00807902 0)
(-0.0151105 -0.00782689 0)
(-0.0135965 -0.00753381 0)
(-0.0121358 -0.00720077 0)
(-0.0107354 -0.00682918 0)
(-0.00940196 -0.00642089 0)
(-0.0081416 -0.00597832 0)
(-0.00696008 -0.00550451 0)
(-0.00586258 -0.00500324 0)
(-0.00485365 -0.00447911 0)
(-0.00393707 -0.00393777 0)
(-0.00311582 -0.00338601 0)
(-0.00239192 -0.002832 0)
(-0.00176643 -0.00228556 0)
(-0.00123929 -0.0017584 0)
(-0.000809395 -0.00126449 0)
(-0.000474275 -0.00082041 0)
(-0.000229967 -0.00044574 0)
(-7.4134e-05 -0.000163465 0)
(-9.17053e-06 -2.20073e-06 0)
(-1.32387e-05 6.32322e-05 0)
(-9.9954e-05 0.000347165 0)
(-0.000301332 0.000751572 0)
(-0.00060915 0.00124683 0)
(-0.00102216 0.00180888 0)
(-0.00154209 0.00241713 0)
(-0.00216931 0.00305403 0)
(-0.00290308 0.00370479 0)
(-0.00374179 0.00435701 0)
(-0.00468298 0.00500031 0)
(-0.00572336 0.00562613 0)
(-0.00685888 0.00622738 0)
(-0.00808479 0.00679831 0)
(-0.00939574 0.00733424 0)
(-0.0107858 0.00783148 0)
(-0.0122487 0.00828713 0)
(-0.0137777 0.00869898 0)
(-0.0153659 0.00906541 0)
(-0.0170058 0.00938532 0)
(-0.0186902 0.00965802 0)
(-0.0204116 0.0098832 0)
(-0.0221622 0.0100609 0)
(-0.0239346 0.0101913 0)
(-0.0257212 0.010275 0)
(-0.0275144 0.0103127 0)
(-0.0293069 0.0103053 0)
(-0.0310913 0.0102537 0)
(-0.0328605 0.0101591 0)
(-0.0346075 0.0100229 0)
(-0.0363256 0.00984623 0)
(-0.0380082 0.00963066 0)
(-0.0396489 0.00937765 0)
(-0.0412417 0.00908875 0)
(-0.0427806 0.00876556 0)
(-0.0442602 0.00840975 0)
(-0.045675 0.00802298 0)
(-0.0470201 0.007607 0)
(-0.0482907 0.00716355 0)
(-0.0494823 0.00669442 0)
(-0.0505907 0.00620141 0)
(-0.0516122 0.00568637 0)
(-0.0525431 0.00515116 0)
(-0.0533803 0.00459765 0)
(-0.0541208 0.00402775 0)
(-0.054762 0.0034434 0)
(-0.0553017 0.00284654 0)
(-0.055738 0.00223916 0)
(-0.0560692 0.00162326 0)
(-0.056294 0.00100087 0)
(-0.0564117 0.000374024 0)
(-0.0564216 -0.00025519 0)
(-0.0563236 -0.000884678 0)
(-0.0561177 -0.00151232 0)
(-0.0558045 -0.00213597 0)
(-0.0553849 -0.00275347 0)
(-0.0548601 -0.00336264 0)
(-0.0542316 -0.00396128 0)
(-0.0535016 -0.00454719 0)
(-0.0526722 -0.00511813 0)
(-0.0517462 -0.0056719 0)
(-0.0507267 -0.00620627 0)
(-0.0496172 -0.00671901 0)
(-0.0484214 -0.00720792 0)
(-0.0471435 -0.00767082 0)