/*--------------------------------*- C++ -*----------------------------------*\
| =========                 |                                                 |
| \\      /  F ield         | OpenFOAM: The Open Source CFD Toolbox           |
|  \\    /   O peration     | Version:  2212                                  |
|   \\  /    A nd           | Website:  www.openfoam.com                      |
|    \\/     M anipulation  |                                                 |
\*---------------------------------------------------------------------------*/
FoamFile
{
    version     2.0;
    format      ascii;
    arch        "LSB;label=32;scalar=64";
    class       surfaceScalarField;
    location    "0.058";
    object      phi;
}
// * * * * * * * * * * * * * * * * * * * * * * * * * * * * * * * * * * * * * //

dimensions      [0 3 -1 0 0 0 0];

oriented        oriented;

internalField   nonuniform List<scalar> 
19800
(
6.69819e-11
-6.69577e-11
2.30481e-10
-1.6349e-10
4.11156e-10
-1.80677e-10
5.51487e-10
-1.40347e-10
6.1967e-10
-6.81873e-11
5.99005e-10
2.06862e-11
4.8147e-10
1.1752e-10
2.64463e-10
2.17035e-10
-5.13897e-11
3.15847e-10
-4.6328e-10
4.11881e-10
-9.67027e-10
5.03759e-10
-1.55756e-09
5.90523e-10
-2.22913e-09
6.71586e-10
-2.97567e-09
7.46545e-10
-3.79082e-09
8.15151e-10
-4.66809e-09
8.7729e-10
-5.60098e-09
9.32888e-10
-6.58293e-09
9.81946e-10
-7.60747e-09
1.02453e-09
-8.66821e-09
1.06073e-09
-9.75885e-09
1.09063e-09
-1.08733e-08
1.11441e-09
-1.20055e-08
1.13219e-09
-1.31496e-08
1.14412e-09
-1.43e-08
1.15041e-09
-1.54512e-08
1.15123e-09
-1.6598e-08
1.14674e-09
-1.77352e-08
1.13717e-09
-1.88578e-08
1.1227e-09
-1.99614e-08
1.10353e-09
-2.10412e-08
1.07986e-09
-2.20931e-08
1.05188e-09
-2.31129e-08
1.0198e-09
-2.40968e-08
9.83832e-10
-2.50409e-08
9.44164e-10
-2.5942e-08
9.01007e-10
-2.67965e-08
8.54562e-10
-2.76015e-08
8.05034e-10
-2.83542e-08
7.52623e-10
-2.90517e-08
6.97528e-10
-2.96916e-08
6.39961e-10
-3.02718e-08
5.80129e-10
-3.079e-08
5.18241e-10
-3.12445e-08
4.54505e-10
-3.16337e-08
3.89128e-10
-3.1956e-08
3.22331e-10
-3.22103e-08
2.54327e-10
-3.23956e-08
1.85328e-10
-3.25112e-08
1.15557e-10
-3.25564e-08
4.52355e-11
-3.2531e-08
-2.54084e-11
-3.24349e-08
-9.6132e-11
-3.22682e-08
-1.66711e-10
-3.20313e-08
-2.36916e-10
-3.17248e-08
-3.06485e-10
-3.13496e-08
-3.75173e-10
-3.09069e-08
-4.42746e-10
-3.03979e-08
-5.08949e-10
-2.98244e-08
-5.73526e-10
-2.91882e-08
-6.36228e-10
-2.84914e-08
-6.96789e-10
-2.77364e-08
-7.54933e-10
-2.6926e-08
-8.10404e-10
-2.60631e-08
-8.62952e-10
-2.51508e-08
-9.12318e-10
-2.41925e-08
-9.58231e-10
-2.31921e-08
-1.00043e-09
-2.21534e-08
-1.03866e-09
-2.10808e-08
-1.07267e-09
-1.99785e-08
-1.10221e-09
-1.88515e-08
-1.12705e-09
-1.77046e-08
-1.14695e-09
-1.65429e-08
-1.16168e-09
-1.53718e-08
-1.17104e-09
-1.4197e-08
-1.17481e-09
-1.30242e-08
-1.1728e-09
-1.18594e-08
-1.16485e-09
-1.07086e-08
-1.15078e-09
-9.57815e-09
-1.13046e-09
-8.4744e-09
-1.10375e-09
-7.40382e-09
-1.07058e-09
-6.37298e-09
-1.03085e-09
-5.38846e-09
-9.84516e-10
-4.45688e-09
-9.3158e-10
-3.58479e-09
-8.72088e-10
-2.77865e-09
-8.06141e-10
-2.04476e-09
-7.339e-10
-1.38915e-09
-6.55615e-10
-8.17481e-10
-5.71663e-10
-3.34898e-10
-4.82578e-10
5.42197e-11
-3.89114e-10
3.46571e-10
-2.9235e-10
5.40421e-10
-1.93848e-10
6.36357e-10
-9.59347e-11
6.38503e-10
-2.14767e-12
5.56444e-10
8.20598e-11
4.0832e-10
1.48124e-10
2.26049e-10
1.82273e-10
6.42508e-11
1.618e-10
6.42505e-11
1.58526e-10
-2.25474e-10
4.37586e-10
-4.42578e-10
7.05725e-10
-4.48788e-10
8.6436e-10
-2.98996e-10
8.45907e-10
-4.97327e-11
6.07781e-10
2.58789e-10
1.25781e-10
5.99546e-10
-6.11576e-10
9.54357e-10
-1.60663e-09
1.31091e-09
-2.85551e-09
1.66076e-09
-4.34986e-09
1.99808e-09
-6.07814e-09
2.31881e-09
-8.02667e-09
2.6201e-09
-1.01802e-08
2.90003e-09
-1.25223e-08
3.1573e-09
-1.50361e-08
3.39108e-09
-1.77041e-08
3.6009e-09
-2.05088e-08
3.78659e-09
-2.34324e-08
3.94816e-09
-2.64574e-08
4.08576e-09
-2.95664e-08
4.19973e-09
-3.27425e-08
4.29047e-09
-3.59688e-08
4.35846e-09
-3.92289e-08
4.40426e-09
-4.2507e-08
4.42848e-09
-4.57875e-08
4.43176e-09
-4.90555e-08
4.41478e-09
-5.22966e-08
4.37823e-09
-5.54967e-08
4.32285e-09
-5.86426e-08
4.24937e-09
-6.17213e-08
4.15853e-09
-6.47205e-08
4.05109e-09
-6.76285e-08
3.92782e-09
-7.04341e-08
3.78948e-09
-7.31268e-08
3.63685e-09
-7.56965e-08
3.4707e-09
-7.81338e-08
3.29183e-09
-8.04298e-08
3.10102e-09
-8.25762e-08
2.89906e-09
-8.45654e-08
2.68672e-09
-8.63903e-08
2.46483e-09
-8.80443e-08
2.23417e-09
-8.95216e-08
1.99555e-09
-9.08169e-08
1.74978e-09
-9.19254e-08
1.49768e-09
-9.28432e-08
1.24009e-09
-9.35667e-08
9.77846e-10
-9.40932e-08
7.11795e-10
-9.44204e-08
4.42798e-10
-9.45469e-08
1.71733e-10
-9.44718e-08
-1.00524e-10
-9.41949e-08
-3.73079e-10
-9.37166e-08
-6.45012e-10
-9.3038e-08
-9.15412e-10
-9.21612e-08
-1.18334e-09
-9.10885e-08
-1.44784e-09
-8.98233e-08
-1.70794e-09
-8.83696e-08
-1.96269e-09
-8.6732e-08
-2.21112e-09
-8.4916e-08
-2.45221e-09
-8.29278e-08
-2.68499e-09
-8.07743e-08
-2.90843e-09
-7.84632e-08
-3.12154e-09
-7.60028e-08
-3.32332e-09
-7.34023e-08
-3.51278e-09
-7.06716e-08
-3.68891e-09
-6.78213e-08
-3.85073e-09
-6.48627e-08
-3.99726e-09
-6.18078e-08
-4.12755e-09
-5.86694e-08
-4.24066e-09
-5.54607e-08
-4.3357e-09
-5.21959e-08
-4.41179e-09
-4.88895e-08
-4.4681e-09
-4.55567e-08
-4.50381e-09
-4.22133e-08
-4.51819e-09
-3.88756e-08
-4.51054e-09
-3.55602e-08
-4.48022e-09
-3.22843e-08
-4.42667e-09
-2.90654e-08
-4.3494e-09
-2.59212e-08
-4.24801e-09
-2.28695e-08
-4.12222e-09
-1.99285e-08
-3.97182e-09
-1.71163e-08
-3.79678e-09
-1.44506e-08
-3.59722e-09
-1.19493e-08
-3.37347e-09
-9.62931e-09
-3.12608e-09
-7.50727e-09
-2.85593e-09
-5.59864e-09
-2.56425e-09
-3.91751e-09
-2.25279e-09
-2.47615e-09
-1.92394e-09
-1.28426e-09
-1.581e-09
-3.4806e-10
-1.22854e-09
3.30979e-10
-8.72887e-10
7.57982e-10
-5.22941e-10
9.47192e-10
-1.91358e-10
9.25578e-10
1.0368e-10
7.37599e-10
3.36105e-10
4.51014e-10
4.68856e-10
1.61713e-10
4.51103e-10
2.25961e-10
1.7143e-10
-3.96905e-10
4.33216e-10
-7.04352e-10
6.25381e-10
-6.40954e-10
6.31363e-10
-3.0497e-10
3.66681e-10
2.14955e-10
-2.258e-10
8.5127e-10
-1.18144e-09
1.55516e-09
-2.51884e-09
2.29178e-09
-4.2441e-09
3.03615e-09
-6.35376e-09
3.77044e-09
-8.83743e-09
4.48178e-09
-1.16795e-08
5.16092e-09
-1.48607e-08
5.80122e-09
-1.83586e-08
6.398e-09
-2.21493e-08
6.94796e-09
-2.62071e-08
7.44889e-09
-3.05056e-08
7.89944e-09
-3.50179e-08
8.29885e-09
-3.97166e-08
8.64691e-09
-4.45747e-08
8.94378e-09
-4.95649e-08
9.18992e-09
-5.46605e-08
9.38606e-09
-5.98351e-08
9.53311e-09
-6.5063e-08
9.63215e-09
-7.03189e-08
9.6844e-09
-7.55783e-08
9.69117e-09
-8.08174e-08
9.65386e-09
-8.60131e-08
9.57394e-09
-9.11432e-08
9.45293e-09
-9.61862e-08
9.29239e-09
-1.01122e-07
9.09393e-09
-1.0593e-07
8.85917e-09
-1.10592e-07
8.58975e-09
-1.1509e-07
8.28736e-09
-1.19406e-07
7.95366e-09
-1.23526e-07
7.59034e-09
-1.27433e-07
7.19913e-09
-1.31114e-07
6.78173e-09
-1.34555e-07
6.33986e-09
-1.37743e-07
5.87528e-09
-1.40668e-07
5.38971e-09
-1.43319e-07
4.88494e-09
-1.45686e-07
4.36273e-09
-1.47761e-07
3.82488e-09
-1.49537e-07
3.27318e-09
-1.51006e-07
2.70947e-09
-1.52164e-07
2.13558e-09
-1.53005e-07
1.5534e-09
-1.53527e-07
9.64816e-10
-1.53728e-07
3.71745e-10
-1.53604e-07
-2.2386e-10
-1.53157e-07
-8.20036e-10
-1.52387e-07
-1.41479e-09
-1.51297e-07
-2.00609e-09
-1.49888e-07
-2.59187e-09
-1.48166e-07
-3.17008e-09
-1.46135e-07
-3.73859e-09
-1.43803e-07
-4.29529e-09
-1.41176e-07
-4.83804e-09
-1.38263e-07
-5.36469e-09
-1.35075e-07
-5.87303e-09
-1.31623e-07
-6.36091e-09
-1.27918e-07
-6.82612e-09
-1.23975e-07
-7.2665e-09
-1.19808e-07
-7.67988e-09
-1.15433e-07
-8.06411e-09
-1.10866e-07
-8.41703e-09
-1.06127e-07
-8.73656e-09
-1.01234e-07
-9.02063e-09
-9.62075e-08
-9.26725e-09
-9.10687e-08
-9.47447e-09
-8.58401e-08
-9.64041e-09
-8.05449e-08
-9.7633e-09
-7.52073e-08
-9.84145e-09
-6.98522e-08
-9.87327e-09
-6.45054e-08
-9.85731e-09
-5.91934e-08
-9.79226e-09
-5.39431e-08
-9.67699e-09
-4.87819e-08
-9.51052e-09
-4.37379e-08
-9.29211e-09
-3.88388e-08
-9.02124e-09
-3.4113e-08
-8.69769e-09
-2.95882e-08
-8.32154e-09
-2.52922e-08
-7.89326e-09
-2.12518e-08
-7.4138e-09
-1.74933e-08
-6.88465e-09
-1.40412e-08
-6.30801e-09
-1.09185e-08
-5.68694e-09
-8.14568e-09
-5.0256e-09
-5.73999e-09
-4.32962e-09
-3.71445e-09
-3.60654e-09
-2.07648e-09
-2.86651e-09
-8.26174e-10
-2.1232e-09
4.60419e-11
-1.39515e-09
5.62331e-10
-7.07646e-10
7.61233e-10
-9.52275e-11
7.02261e-10
3.95072e-10
4.70766e-10
7.00352e-10
1.82742e-10
7.3913e-10
4.08701e-10
1.34028e-10
-5.30943e-10
2.87667e-10
-8.58008e-10
2.9284e-10
-6.46122e-10
2.6964e-11
-3.91061e-11
-6.00385e-10
8.42313e-10
-1.65262e-09
1.90352e-09
-3.1707e-09
3.07325e-09
-5.1774e-09
4.29849e-09
-7.68114e-09
5.53988e-09
-1.0679e-08
6.76825e-09
-1.41592e-08
7.96195e-09
-1.81032e-08
9.10497e-09
-2.24875e-08
1.01855e-08
-2.72845e-08
1.1195e-08
-3.24637e-08
1.21272e-08
-3.79928e-08
1.29779e-08
-4.38377e-08
1.37443e-08
-4.99635e-08
1.44247e-08
-5.63347e-08
1.50182e-08
-6.29158e-08
1.55249e-08
-6.96711e-08
1.59452e-08
-7.65653e-08
1.62802e-08
-8.35634e-08
1.65312e-08
-9.06312e-08
1.67e-08
-9.77351e-08
1.67883e-08
-1.04842e-07
1.67985e-08
-1.11921e-07
1.67327e-08
-1.18941e-07
1.65934e-08
-1.25871e-07
1.63831e-08
-1.32683e-07
1.61046e-08
-1.3935e-07
1.57604e-08
-1.45844e-07
1.53534e-08
-1.52141e-07
1.48864e-08
-1.58215e-07
1.43623e-08
-1.64046e-07
1.37838e-08
-1.69609e-07
1.3154e-08
-1.74886e-07
1.24758e-08
-1.79857e-07
1.17522e-08
-1.84503e-07
1.09861e-08
-1.88808e-07
1.01806e-08
-1.92757e-07
9.33874e-09
-1.96336e-07
8.46351e-09
-1.99531e-07
7.55803e-09
-2.02332e-07
6.62542e-09
-2.04727e-07
5.66884e-09
-2.06709e-07
4.69145e-09
-2.0827e-07
3.69648e-09
-2.09404e-07
2.68717e-09
-2.10106e-07
1.66684e-09
-2.10373e-07
6.38804e-10
-2.10203e-07
-3.9354e-10
-2.09597e-07
-1.42677e-09
-2.08554e-07
-2.45741e-09
-2.07078e-07
-3.48195e-09
-2.05173e-07
-4.49681e-09
-2.02845e-07
-5.4984e-09
-2.001e-07
-6.48307e-09
-1.96948e-07
-7.44716e-09
-1.934e-07
-8.38694e-09
-1.89466e-07
-9.29868e-09
-1.8516e-07
-1.01786e-08
-1.80498e-07
-1.1023e-08
-1.75496e-07
-1.18281e-08
-1.70172e-07
-1.25901e-08
-1.64547e-07
-1.33052e-08
-1.58641e-07
-1.39699e-08
-1.52478e-07
-1.45804e-08
-1.46081e-07
-1.51331e-08
-1.39477e-07
-1.56246e-08
-1.32693e-07
-1.60513e-08
-1.25758e-07
-1.641e-08
-1.18701e-07
-1.66975e-08
-1.11553e-07
-1.69109e-08
-1.04347e-07
-1.70471e-08
-9.71168e-08
-1.71037e-08
-8.98959e-08
-1.70782e-08
-8.27197e-08
-1.69685e-08
-7.5624e-08
-1.67727e-08
-6.86452e-08
-1.64893e-08
-6.18202e-08
-1.61171e-08
-5.51858e-08
-1.56556e-08
-4.8779e-08
-1.51045e-08
-4.26363e-08
-1.44643e-08
-3.67936e-08
-1.3736e-08
-3.12858e-08
-1.29216e-08
-2.61465e-08
-1.2024e-08
-2.1407e-08
-1.10475e-08
-1.70962e-08
-9.99768e-09
-1.32397e-08
-8.88216e-09
-9.8583e-09
-7.71099e-09
-6.96748e-09
-6.49737e-09
-4.57534e-09
-5.25865e-09
-2.68091e-09
-4.01763e-09
-1.27167e-09
-2.80439e-09
-3.20726e-10
-1.65859e-09
2.1667e-10
-6.3263e-10
4.07131e-10
2.04614e-10
3.43463e-10
7.64027e-10
1.50258e-10
9.32335e-10
5.58961e-10
6.737e-11
-5.98314e-10
4.97978e-11
-8.40441e-10
-2.11983e-10
-3.84341e-10
-8.3688e-10
5.85817e-10
-1.91406e-09
1.91946e-09
-3.50721e-09
3.49667e-09
-5.65848e-09
5.22453e-09
-8.39184e-09
7.03185e-09
-1.17163e-08
8.86432e-09
-1.56285e-08
1.06805e-08
-2.01154e-08
1.24489e-08
-2.51561e-08
1.41457e-08
-3.07234e-08
1.57528e-08
-3.67855e-08
1.7257e-08
-4.33067e-08
1.86485e-08
-5.02488e-08
1.992e-08
-5.75715e-08
2.1067e-08
-6.52331e-08
2.20862e-08
-7.3191e-08
2.29761e-08
-8.14023e-08
2.37362e-08
-8.9824e-08
2.43669e-08
-9.8413e-08
2.48692e-08
-1.07127e-07
2.52452e-08
-1.15924e-07
2.5497e-08
-1.24763e-07
2.56273e-08
-1.33604e-07
2.56392e-08
-1.42407e-07
2.5536e-08
-1.51135e-07
2.53214e-08
-1.59751e-07
2.49989e-08
-1.68219e-07
2.45727e-08
-1.76505e-07
2.40466e-08
-1.84576e-07
2.34249e-08
-1.92402e-07
2.27117e-08
-1.99951e-07
2.19115e-08
-2.07196e-07
2.10285e-08
-2.14109e-07
2.00672e-08
-2.20665e-07
1.9032e-08
-2.2684e-07
1.79275e-08
-2.32612e-07
1.67583e-08
-2.37961e-07
1.55288e-08
-2.42866e-07
1.42439e-08
-2.4731e-07
1.2908e-08
-2.51278e-07
1.15261e-08
-2.54755e-07
1.01027e-08
-2.57729e-07
8.64283e-09
-2.60189e-07
7.15126e-09
-2.62126e-07
5.63292e-09
-2.63531e-07
4.0928e-09
-2.644e-07
2.53594e-09
-2.64729e-07
9.67462e-10
-2.64515e-07
-6.07474e-10
-2.63758e-07
-2.18363e-09
-2.6246e-07
-3.75569e-09
-2.60624e-07
-5.31828e-09
-2.58254e-07
-6.86598e-09
-2.5536e-07
-8.39326e-09
-2.51948e-07
-9.89459e-09
-2.48031e-07
-1.13644e-08
-2.43621e-07
-1.27969e-08
-2.38733e-07
-1.41866e-08
-2.33384e-07
-1.55277e-08
-2.27592e-07
-1.68145e-08
-2.21379e-07
-1.80413e-08
-2.14767e-07
-1.92023e-08
-2.0778e-07
-2.0292e-08
-2.00445e-07
-2.13048e-08
-1.92791e-07
-2.2235e-08
-1.84846e-07
-2.30773e-08
-1.76645e-07
-2.38265e-08
-1.68219e-07
-2.44773e-08
-1.59604e-07
-2.50248e-08
-1.50837e-07
-2.54643e-08
-1.41957e-07
-2.57913e-08
-1.33002e-07
-2.60015e-08
-1.24015e-07
-2.60911e-08
-1.15037e-07
-2.60565e-08
-1.0611e-07
-2.58947e-08
-9.72801e-08
-2.5603e-08
-8.85899e-08
-2.51794e-08
-8.00847e-08
-2.46223e-08
-7.18093e-08
-2.39311e-08
-6.38081e-08
-2.31057e-08
-5.61253e-08
-2.21471e-08
-4.88039e-08
-2.10573e-08
-4.18858e-08
-1.98398e-08
-3.54105e-08
-1.84993e-08
-2.94152e-08
-1.70427e-08
-2.39339e-08
-1.54791e-08
-1.89958e-08
-1.38202e-08
-1.46253e-08
-1.20815e-08
-1.08397e-08
-1.0283e-08
-7.64811e-09
-8.45027e-09
-5.04934e-09
-6.61641e-09
-3.02979e-09
-4.82394e-09
-1.5608e-09
-3.12758e-09
-5.95703e-10
-1.59772e-09
-6.64697e-11
-3.24609e-10
1.20027e-10
5.77535e-10
8.70389e-11
9.65325e-10
6.46005e-10
-1.6029e-11
-5.82262e-10
-2.45924e-10
-6.10565e-10
-8.30089e-10
1.99818e-10
-1.87654e-09
1.63228e-09
-3.46763e-09
3.51054e-09
-5.66303e-09
5.69207e-09
-8.50252e-09
8.06399e-09
-1.20086e-08
1.05379e-08
-1.61889e-08
1.30447e-08
-2.10389e-08
1.55305e-08
-2.65435e-08
1.79535e-08
-3.26792e-08
2.02814e-08
-3.94159e-08
2.24895e-08
-4.67176e-08
2.45588e-08
-5.45445e-08
2.64753e-08
-6.28532e-08
2.82287e-08
-7.15979e-08
2.98117e-08
-8.07312e-08
3.12195e-08
-9.02044e-08
3.24493e-08
-9.9968e-08
3.34998e-08
-1.09972e-07
3.43712e-08
-1.20168e-07
3.50648e-08
-1.30505e-07
3.55826e-08
-1.40936e-07
3.59276e-08
-1.51412e-07
3.61034e-08
-1.61887e-07
3.61138e-08
-1.72314e-07
3.59634e-08
-1.8265e-07
3.5657e-08
-1.9285e-07
3.51997e-08
-2.02875e-07
3.45969e-08
-2.12682e-07
3.38541e-08
-2.22234e-07
3.29771e-08
-2.31494e-07
3.19716e-08
-2.40427e-07
3.08438e-08
-2.48998e-07
2.95997e-08
-2.57176e-07
2.82455e-08
-2.64932e-07
2.67874e-08
-2.72236e-07
2.52318e-08
-2.79063e-07
2.35851e-08
-2.85388e-07
2.18538e-08
-2.91188e-07
2.00443e-08
-2.96443e-07
1.81633e-08
-3.01135e-07
1.62174e-08
-3.05245e-07
1.42134e-08
-3.08761e-07
1.21579e-08
-3.11667e-07
1.0058e-08
-3.13955e-07
7.92046e-09
-3.15614e-07
5.75242e-09
-3.16639e-07
3.56094e-09
-3.17025e-07
1.35325e-09
-3.16769e-07
-8.63362e-10
-3.15871e-07
-3.08152e-09
-3.14333e-07
-5.29376e-09
-3.12159e-07
-7.49249e-09
-3.09355e-07
-9.67007e-09
-3.0593e-07
-1.18188e-08
-3.01893e-07
-1.39308e-08
-2.97259e-07
-1.59983e-08
-2.92043e-07
-1.80133e-08
-2.86262e-07
-1.99678e-08
-2.79936e-07
-2.18539e-08
-2.73087e-07
-2.36635e-08
-2.65739e-07
-2.53887e-08
-2.5792e-07
-2.70215e-08
-2.49658e-07
-2.8554e-08
-2.40984e-07
-2.99784e-08
-2.31932e-07
-3.12871e-08
-2.22537e-07
-3.24723e-08
-2.12837e-07
-3.3527e-08
-2.0287e-07
-3.44437e-08
-1.92679e-07
-3.52159e-08
-1.82307e-07
-3.58368e-08
-1.71798e-07
-3.63003e-08
-1.61199e-07
-3.66007e-08
-1.50557e-07
-3.67327e-08
-1.39922e-07
-3.66915e-08
-1.29344e-07
-3.64729e-08
-1.18873e-07
-3.60736e-08
-1.08562e-07
-3.54908e-08
-9.84613e-08
-3.47229e-08
-8.86235e-08
-3.3769e-08
-7.90997e-08
-3.26295e-08
-6.99406e-08
-3.13062e-08
-6.11955e-08
-2.98024e-08
-5.29121e-08
-2.81232e-08
-4.51355e-08
-2.62759e-08
-3.79079e-08
-2.42704e-08
-3.12673e-08
-2.21197e-08
-2.52469e-08
-1.98406e-08
-1.98737e-08
-1.74547e-08
-1.51673e-08
-1.49894e-08
-1.11384e-08
-1.24792e-08
-7.78676e-09
-9.96803e-09
-5.09958e-09
-7.51112e-09
-3.04903e-09
-5.17813e-09
-1.58998e-09
-3.05677e-09
-6.57333e-10
-1.25725e-09
-1.63205e-10
8.34085e-11
6.67633e-12
7.95449e-10
6.52687e-10
-1.08241e-10
-4.74044e-10
-5.75502e-10
-1.43284e-10
-1.51839e-09
1.14268e-09
-3.02937e-09
3.14327e-09
-5.18005e-09
5.66124e-09
-8.02271e-09
8.53472e-09
-1.15919e-08
1.16332e-08
-1.59064e-08
1.48524e-08
-2.0971e-08
1.81092e-08
-2.67783e-08
2.13378e-08
-3.33107e-08
2.44859e-08
-4.05419e-08
2.75126e-08
-4.84384e-08
3.03859e-08
-5.69607e-08
3.30812e-08
-6.60649e-08
3.55795e-08
-7.57032e-08
3.7867e-08
-8.58249e-08
3.99335e-08
-9.63774e-08
4.1772e-08
-1.07307e-07
4.33784e-08
-1.18557e-07
4.47504e-08
-1.30074e-07
4.58878e-08
-1.41801e-07
4.67918e-08
-1.53683e-07
4.74648e-08
-1.65665e-07
4.79101e-08
-1.77694e-07
4.81322e-08
-1.89717e-07
4.81361e-08
-2.01681e-07
4.79275e-08
-2.13536e-07
4.75125e-08
-2.25234e-07
4.68976e-08
-2.36727e-07
4.60899e-08
-2.4797e-07
4.50965e-08
-2.58918e-07
4.39251e-08
-2.69529e-07
4.25832e-08
-2.79764e-07
4.10787e-08
-2.89584e-07
3.94197e-08
-2.98953e-07
3.76144e-08
-3.07837e-07
3.5671e-08
-3.16203e-07
3.3598e-08
-3.24021e-07
3.14038e-08
-3.31264e-07
2.9097e-08
-3.37906e-07
2.66863e-08
-3.43923e-07
2.41804e-08
-3.49294e-07
2.15883e-08
-3.54e-07
1.89189e-08
-3.58023e-07
1.61812e-08
-3.61349e-07
1.33843e-08
-3.63967e-07
1.05376e-08
-3.65865e-07
7.65044e-09
-3.67036e-07
4.73224e-09
-3.67475e-07
1.79263e-09
-3.6718e-07
-1.15869e-09
-3.6615e-07
-4.11187e-09
-3.64386e-07
-7.05697e-09
-3.61895e-07
-9.9839e-09
-3.58683e-07
-1.28825e-08
-3.54759e-07
-1.57425e-08
-3.50136e-07
-1.85535e-08
-3.44829e-07
-2.13051e-08
-3.38856e-07
-2.39867e-08
-3.32236e-07
-2.65878e-08
-3.24992e-07
-2.90977e-08
-3.1715e-07
-3.1506e-08
-3.08736e-07
-3.38019e-08
-2.99783e-07
-3.5975e-08
-2.90322e-07
-3.80149e-08
-2.80389e-07
-3.99112e-08
-2.70023e-07
-4.16538e-08
-2.59262e-07
-4.32329e-08
-2.4815e-07
-4.46386e-08
-2.36732e-07
-4.58617e-08
-2.25055e-07
-4.68932e-08
-2.13167e-07
-4.77246e-08
-2.0112e-07
-4.83478e-08
-1.88965e-07
-4.87553e-08
-1.76757e-07
-4.89404e-08
-1.64552e-07
-4.88969e-08
-1.52405e-07
-4.86197e-08
-1.40374e-07
-4.81044e-08
-1.28517e-07
-4.73477e-08
-1.16893e-07
-4.63478e-08
-1.05558e-07
-4.51039e-08
-9.45702e-08
-4.3617e-08
-8.39866e-08
-4.18897e-08
-7.38619e-08
-3.99271e-08
-6.4249e-08
-3.77361e-08
-5.51978e-08
-3.5327e-08
-4.67549e-08
-3.27132e-08
-3.89624e-08
-2.99122e-08
-3.1857e-08
-2.69461e-08
-2.54686e-08
-2.38431e-08
-1.98196e-08
-2.06384e-08
-1.49228e-08
-1.7376e-08
-1.07804e-08
-1.41104e-08
-7.382e-09
-1.09095e-08
-4.70285e-09
-7.85727e-09
-2.70219e-09
-5.05743e-09
-1.32125e-09
-2.63819e-09
-4.81474e-10
-7.56359e-10
-8.26532e-11
3.96635e-10
5.70035e-10
-2.04274e-10
-2.6974e-10
-9.22781e-10
5.75209e-10
-2.24657e-09
2.46649e-09
-4.25e-09
5.14671e-09
-6.99134e-09
8.40256e-09
-1.05129e-08
1.20563e-08
-1.4842e-08
1.59623e-08
-1.99917e-08
2.00021e-08
-2.59623e-08
2.40798e-08
-3.27425e-08
2.8118e-08
-4.03113e-08
3.20547e-08
-4.8639e-08
3.58403e-08
-5.76885e-08
3.94355e-08
-6.7417e-08
4.28096e-08
-7.77763e-08
4.59389e-08
-8.87146e-08
4.88053e-08
-1.00177e-07
5.13957e-08
-1.12106e-07
5.37007e-08
-1.24442e-07
5.57145e-08
-1.37125e-07
5.74338e-08
-1.50095e-07
5.88576e-08
-1.6329e-07
5.99871e-08
-1.7665e-07
6.08247e-08
-1.90114e-07
6.13745e-08
-2.03624e-07
6.16416e-08
-2.1712e-07
6.16321e-08
-2.30545e-07
6.13529e-08
-2.43844e-07
6.08115e-08
-2.56963e-07
6.00161e-08
-2.69848e-07
5.89754e-08
-2.8245e-07
5.76984e-08
-2.9472e-07
5.61946e-08
-3.0661e-07
5.44736e-08
-3.18077e-07
5.25454e-08
-3.29077e-07
5.04201e-08
-3.39571e-07
4.81082e-08
-3.4952e-07
4.56201e-08
-3.58889e-07
4.29666e-08
-3.67643e-07
4.01584e-08
-3.75753e-07
3.72065e-08
-3.83189e-07
3.4122e-08
-3.89924e-07
3.09161e-08
-3.95936e-07
2.76001e-08
-4.01203e-07
2.41854e-08
-4.05705e-07
2.06836e-08
-4.09427e-07
1.71064e-08
-4.12355e-07
1.34657e-08
-4.14478e-07
9.77344e-09
-4.15788e-07
6.04173e-09
-4.16278e-07
2.28286e-09
-4.15946e-07
-1.49075e-09
-4.14791e-07
-5.26655e-09
-4.12816e-07
-9.0318e-09
-4.10027e-07
-1.27737e-08
-4.0643e-07
-1.64791e-08
-4.02037e-07
-2.01351e-08
-3.96863e-07
-2.37283e-08
-3.90922e-07
-2.72455e-08
-3.84236e-07
-3.06732e-08
-3.76826e-07
-3.3998e-08
-3.68717e-07
-3.72064e-08
-3.59938e-07
-4.02849e-08
-3.5052e-07
-4.32201e-08
-3.40496e-07
-4.59986e-08
-3.29904e-07
-4.86072e-08
-3.18782e-07
-5.10328e-08
-3.07174e-07
-5.32627e-08
-2.95122e-07
-5.52842e-08
-2.82676e-07
-5.70852e-08
-2.69884e-07
-5.86538e-08
-2.56798e-07
-5.99788e-08
-2.43473e-07
-6.10495e-08
-2.29965e-07
-6.18558e-08
-2.16332e-07
-6.23884e-08
-2.02634e-07
-6.26389e-08
-1.88931e-07
-6.25997e-08
-1.75286e-07
-6.22644e-08
-1.61762e-07
-6.1628e-08
-1.48423e-07
-6.06866e-08
-1.35333e-07
-5.94381e-08
-1.22555e-07
-5.7882e-08
-1.10152e-07
-5.60199e-08
-9.8186e-08
-5.38558e-08
-8.67168e-08
-5.13962e-08
-7.58023e-08
-4.86507e-08
-6.54969e-08
-4.56324e-08
-5.58514e-08
-4.23588e-08
-4.69117e-08
-3.88518e-08
-3.8718e-08
-3.51397e-08
-3.13038e-08
-3.12573e-08
-2.46945e-08
-2.72478e-08
-1.89061e-08
-2.31644e-08
-1.39442e-08
-1.90723e-08
-9.80245e-09
-1.50513e-08
-6.46115e-09
-1.11986e-08
-3.88604e-09
-7.63254e-09
-2.02723e-09
-4.49701e-09
-8.18298e-10
-1.96528e-09
-1.75951e-10
-2.45707e-10
3.94085e-10
-3.01195e-10
3.14317e-11
-1.27719e-09
1.55121e-09
-2.99386e-09
4.18315e-09
-5.50633e-09
7.65916e-09
-8.85794e-09
1.17542e-08
-1.30795e-08
1.62779e-08
-1.81892e-08
2.1072e-08
-2.4193e-08
2.60059e-08
-3.10853e-08
3.09721e-08
-3.88501e-08
3.58828e-08
-4.74619e-08
4.06665e-08
-5.68869e-08
4.52654e-08
-6.70845e-08
4.96331e-08
-7.80078e-08
5.37328e-08
-8.96047e-08
5.75358e-08
-1.01819e-07
6.102e-08
-1.14593e-07
6.41688e-08
-1.27862e-07
6.69706e-08
-1.41565e-07
6.94174e-08
-1.55636e-07
7.15048e-08
-1.7001e-07
7.32313e-08
-1.8462e-07
7.45974e-08
-1.99402e-07
7.5606e-08
-2.14289e-07
7.62616e-08
-2.29217e-07
7.65699e-08
-2.44123e-07
7.65382e-08
-2.58945e-07
7.61747e-08
-2.73622e-07
7.54884e-08
-2.88095e-07
7.44892e-08
-3.02307e-07
7.31874e-08
-3.16202e-07
7.15941e-08
-3.29729e-07
6.97208e-08
-3.42835e-07
6.75794e-08
-3.55471e-07
6.51819e-08
-3.67592e-07
6.2541e-08
-3.79153e-07
5.96692e-08
-3.90113e-07
5.65797e-08
-4.00432e-07
5.32856e-08
-4.10073e-07
4.98002e-08
-4.19004e-07
4.6137e-08
-4.27192e-07
4.23098e-08
-4.34608e-07
3.83324e-08
-4.41227e-07
3.42188e-08
-4.47024e-07
2.99832e-08
-4.51981e-07
2.564e-08
-4.56078e-07
2.12035e-08
-4.59301e-07
1.66886e-08
-4.61637e-07
1.211e-08
-4.63078e-07
7.48273e-09
-4.63617e-07
2.82207e-09
-4.63252e-07
-1.85664e-09
-4.6198e-07
-6.53782e-09
-4.59806e-07
-1.12057e-08
-4.56735e-07
-1.58445e-08
-4.52777e-07
-2.0438e-08
-4.47942e-07
-2.49701e-08
-4.42246e-07
-2.94243e-08
-4.35707e-07
-3.37843e-08
-4.28347e-07
-3.80334e-08
-4.2019e-07
-4.21551e-08
-4.11263e-07
-4.61327e-08
-4.01598e-07
-4.99497e-08
-3.91229e-07
-5.35894e-08
-3.80192e-07
-5.70355e-08
-3.68528e-07
-6.02716e-08
-3.56279e-07
-6.32817e-08
-3.43492e-07
-6.605e-08
-3.30215e-07
-6.85612e-08
-3.16499e-07
-7.08003e-08
-3.024e-07
-7.27529e-08
-2.87974e-07
-7.44053e-08
-2.73279e-07
-7.57443e-08
-2.58377e-07
-7.67578e-08
-2.43331e-07
-7.74344e-08
-2.28206e-07
-7.7764e-08
-2.13068e-07
-7.77377e-08
-1.97985e-07
-7.73478e-08
-1.83024e-07
-7.65883e-08
-1.68256e-07
-7.54549e-08
-1.53749e-07
-7.39453e-08
-1.39572e-07
-7.20593e-08
-1.25792e-07
-6.97994e-08
-1.12477e-07
-6.71708e-08
-9.96914e-08
-6.4182e-08
-8.7497e-08
-6.0845e-08
-7.5953e-08
-5.71765e-08
-6.51141e-08
-5.31977e-08
-5.50302e-08
-4.89357e-08
-4.57453e-08
-4.44246e-08
-3.72966e-08
-3.9706e-08
-2.97133e-08
-3.48311e-08
-2.30155e-08
-2.98622e-08
-1.72133e-08
-2.48745e-08
-1.23057e-08
-1.99589e-08
-8.27949e-09
-1.52248e-08
-5.10872e-09
-1.08033e-08
-2.75407e-09
-6.85166e-09
-1.16295e-09
-3.55639e-09
-2.70227e-10
-1.13843e-09
1.23862e-10
-3.97226e-10
4.28657e-10
-1.63202e-09
2.78601e-09
-3.74633e-09
6.29748e-09
-6.77603e-09
1.06888e-08
-1.07488e-08
1.5727e-08
-1.5683e-08
2.12121e-08
-2.15864e-08
2.69755e-08
-2.84568e-08
3.28762e-08
-3.62815e-08
3.87968e-08
-4.50387e-08
4.464e-08
-5.46979e-08
5.03257e-08
-6.52208e-08
5.57882e-08
-7.65623e-08
6.09745e-08
-8.86712e-08
6.58418e-08
-1.01492e-07
7.03564e-08
-1.14964e-07
7.44921e-08
-1.29024e-07
7.82291e-08
-1.43607e-07
8.1553e-08
-1.58643e-07
8.4454e-08
-1.74065e-07
8.69264e-08
-1.89801e-07
8.89678e-08
-2.05782e-07
9.05784e-08
-2.21938e-07
9.17612e-08
-2.38197e-07
9.25211e-08
-2.54492e-07
9.28648e-08
-2.70754e-07
9.28005e-08
-2.86917e-07
9.23376e-08
-3.02916e-07
9.14869e-08
-3.18686e-07
9.02599e-08
-3.34168e-07
8.86688e-08
-3.49301e-07
8.67269e-08
-3.64028e-07
8.44477e-08
-3.78294e-07
8.18454e-08
-3.92046e-07
7.89345e-08
-4.05235e-07
7.57301e-08
-4.17813e-07
7.22473e-08
-4.29735e-07
6.85018e-08
-4.40959e-07
6.45095e-08
-4.51446e-07
6.02863e-08
-4.61157e-07
5.58487e-08
-4.70061e-07
5.12131e-08
-4.78124e-07
4.63962e-08
-4.85321e-07
4.1415e-08
-4.91624e-07
3.62866e-08
-4.97012e-07
3.10283e-08
-5.01467e-07
2.56577e-08
-5.0497e-07
2.01924e-08
-5.07511e-07
1.46503e-08
-5.09078e-07
9.0498e-09
-5.09665e-07
3.40908e-09
-5.09268e-07
-2.25323e-09
-5.07888e-07
-7.91833e-09
-5.05526e-07
-1.35672e-08
-5.0219e-07
-1.91807e-08
-4.97889e-07
-2.47393e-08
-4.92635e-07
-3.02236e-08
-4.86446e-07
-3.56137e-08
-4.7934e-07
-4.08899e-08
-4.71341e-07
-4.60322e-08
-4.62476e-07
-5.10207e-08
-4.52773e-07
-5.58352e-08
-4.42267e-07
-6.04558e-08
-4.30994e-07
-6.48626e-08
-4.18994e-07
-6.90359e-08
-4.06309e-07
-7.29561e-08
-3.92987e-07
-7.66039e-08
-3.79076e-07
-7.99605e-08
-3.6463e-07
-8.30074e-08
-3.49704e-07
-8.57267e-08
-3.34355e-07
-8.81014e-08
-3.18646e-07
-9.01148e-08
-3.02639e-07
-9.17514e-08
-2.864e-07
-9.29969e-08
-2.69996e-07
-9.38377e-08
-2.53498e-07
-9.42619e-08
-2.36977e-07
-9.42591e-08
-2.20504e-07
-9.38202e-08
-2.04154e-07
-9.29385e-08
-1.88e-07
-9.16091e-08
-1.72116e-07
-8.98296e-08
-1.56575e-07
-8.76002e-08
-1.4145e-07
-8.49241e-08
-1.26813e-07
-8.18081e-08
-1.12732e-07
-7.82625e-08
-9.9275e-08
-7.43024e-08
-8.65041e-08
-6.99474e-08
-7.44785e-08
-6.52232e-08
-6.32524e-08
-6.01619e-08
-5.28737e-08
-5.48033e-08
-4.33838e-08
-4.91959e-08
-3.48165e-08
-4.33985e-08
-2.71966e-08
-3.7482e-08
-2.05398e-08
-3.15312e-08
-1.48515e-08
-2.56472e-08
-1.01262e-08
-1.995e-08
-6.34744e-09
-1.45821e-08
-3.48754e-09
-9.71155e-09
-1.50859e-09
-5.53533e-09
-3.63725e-10
-2.28329e-09
-2.39861e-10
-4.91398e-10
9.20068e-10
-1.9831e-09
4.27769e-09
-4.49491e-09
8.80931e-09
-8.04405e-09
1.4238e-08
-1.26425e-08
2.03254e-08
-1.82954e-08
2.68649e-08
-2.49996e-08
3.36797e-08
-3.27436e-08
4.06202e-08
-4.15072e-08
4.75603e-08
-5.12617e-08
5.43945e-08
-6.19708e-08
6.10348e-08
-7.35911e-08
6.74085e-08
-8.60727e-08
7.3456e-08
-9.936e-08
7.91292e-08
-1.13393e-07
8.43894e-08
-1.28107e-07
8.92064e-08
-1.43436e-07
9.35572e-08
-1.59307e-07
9.74248e-08
-1.75651e-07
1.00797e-07
-1.92392e-07
1.03668e-07
-2.09458e-07
1.06033e-07
-2.26773e-07
1.07893e-07
-2.44262e-07
1.09251e-07
-2.61853e-07
1.10111e-07
-2.7947e-07
1.10482e-07
-2.97043e-07
1.10373e-07
-3.145e-07
1.09795e-07
-3.31772e-07
1.08759e-07
-3.48792e-07
1.0728e-07
-3.65494e-07
1.05371e-07
-3.81815e-07
1.03048e-07
-3.97694e-07
1.00327e-07
-4.13073e-07
9.72241e-08
-4.27895e-07
9.37567e-08
-4.42107e-07
8.99423e-08
-4.55659e-07
8.57989e-08
-4.68502e-07
8.13449e-08
-4.80591e-07
7.65989e-08
-4.91885e-07
7.15799e-08
-5.02343e-07
6.63071e-08
-5.1193e-07
6.08003e-08
-5.20613e-07
5.50789e-08
-5.28361e-07
4.91632e-08
-5.35148e-07
4.30734e-08
-5.4095e-07
3.683e-08
-5.45746e-07
3.04537e-08
-5.49519e-07
2.39655e-08
-5.52255e-07
1.73867e-08
-5.53944e-07
1.07388e-08
-5.54578e-07
4.04346e-09
-5.54154e-07
-2.6772e-09
-5.52672e-07
-9.40098e-09
-5.50134e-07
-1.61054e-08
-5.46547e-07
-2.27677e-08
-5.41921e-07
-2.9365e-08
-5.3627e-07
-3.5874e-08
-5.29612e-07
-4.22716e-08
-5.21968e-07
-4.85343e-08
-5.13362e-07
-5.46385e-08
-5.03822e-07
-6.05606e-08
-4.9338e-07
-6.62769e-08
-4.82072e-07
-7.17639e-08
-4.69937e-07
-7.69982e-08
-4.57016e-07
-8.19563e-08
-4.43357e-07
-8.66154e-08
-4.29008e-07
-9.09528e-08
-4.14022e-07
-9.49462e-08
-3.98456e-07
-9.8574e-08
-3.82367e-07
-1.01815e-07
-3.65819e-07
-1.0465e-07
-3.48876e-07
-1.07058e-07
-3.31605e-07
-1.09022e-07
-3.14077e-07
-1.10525e-07
-2.96363e-07
-1.11552e-07
-2.78537e-07
-1.12088e-07
-2.60676e-07
-1.12121e-07
-2.42855e-07
-1.11641e-07
-2.25153e-07
-1.10641e-07
-2.07648e-07
-1.09114e-07
-1.90419e-07
-1.07059e-07
-1.73543e-07
-1.04476e-07
-1.57097e-07
-1.01369e-07
-1.41159e-07
-9.77468e-08
-1.258e-07
-9.36211e-08
-1.11093e-07
-8.90099e-08
-9.71034e-08
-8.39365e-08
-8.38961e-08
-7.84305e-08
-7.15289e-08
-7.25292e-08
-6.00543e-08
-6.62778e-08
-4.95185e-08
-5.97317e-08
-3.99601e-08
-5.29569e-08
-3.14098e-08
-4.60324e-08
-2.38894e-08
-3.90516e-08
-1.74115e-08
-3.2125e-08
-1.19795e-08
-2.53821e-08
-7.58685e-09
-1.89747e-08
-4.21841e-09
-1.308e-08
-1.85099e-09
-7.90274e-09
-4.55465e-10
-3.67881e-09
-6.9533e-10
-5.83222e-10
1.50328e-09
-2.328e-09
6.02245e-09
-5.23398e-09
1.17153e-08
-9.30063e-09
1.83046e-08
-1.45245e-08
2.55493e-08
-2.08974e-08
3.32379e-08
-2.84049e-08
4.11872e-08
-3.70256e-08
4.92409e-08
-4.67309e-08
5.72656e-08
-5.74848e-08
6.51484e-08
-6.92446e-08
7.27946e-08
-8.19612e-08
8.01251e-08
-9.55794e-08
8.70743e-08
-1.10039e-07
9.35888e-08
-1.25275e-07
9.96257e-08
-1.4122e-07
1.05151e-07
-1.578e-07
1.10138e-07
-1.74943e-07
1.14567e-07
-1.92571e-07
1.18426e-07
-2.10608e-07
1.21705e-07
-2.28975e-07
1.244e-07
-2.47593e-07
1.26512e-07
-2.66384e-07
1.28042e-07
-2.8527e-07
1.28997e-07
-3.04174e-07
1.29386e-07
-3.23018e-07
1.29218e-07
-3.4173e-07
1.28506e-07
-3.60235e-07
1.27264e-07
-3.78463e-07
1.25507e-07
-3.96344e-07
1.23252e-07
-4.13812e-07
1.20516e-07
-4.30802e-07
1.17317e-07
-4.47253e-07
1.13675e-07
-4.63104e-07
1.09609e-07
-4.78301e-07
1.05139e-07
-4.92789e-07
1.00287e-07
-5.06517e-07
9.5073e-08
-5.19438e-07
8.95197e-08
-5.31507e-07
8.36488e-08
-5.42682e-07
7.74827e-08
-5.52926e-07
7.10441e-08
-5.62203e-07
6.43559e-08
-5.70481e-07
5.74416e-08
-5.77732e-07
5.03246e-08
-5.83931e-07
4.30289e-08
-5.89056e-07
3.55787e-08
-5.93089e-07
2.79983e-08
-5.96015e-07
2.03126e-08
-5.97823e-07
1.25465e-08
-5.98505e-07
4.72543e-09
-5.98057e-07
-3.12503e-09
-5.96479e-07
-1.0979e-08
-5.93774e-07
-1.88102e-08
-5.8995e-07
-2.65923e-08
-5.85016e-07
-3.42986e-08
-5.78988e-07
-4.19021e-08
-5.71884e-07
-4.93758e-08
-5.63726e-07
-5.66923e-08
-5.5454e-07
-6.38244e-08