/*--------------------------------*- C++ -*----------------------------------*\
| =========                 |                                                 |
| \\      /  F ield         | OpenFOAM: The Open Source CFD Toolbox           |
|  \\    /   O peration     | Version:  2212                                  |
|   \\  /    A nd           | Website:  www.openfoam.com                      |
|    \\/     M anipulation  |                                                 |
\*---------------------------------------------------------------------------*/
FoamFile
{
    version     2.0;
    format      ascii;
    arch        "LSB;label=32;scalar=64";
    class       surfaceScalarField;
    location    "0.0075";
    object      phi;
}
// * * * * * * * * * * * * * * * * * * * * * * * * * * * * * * * * * * * * * //

dimensions      [0 3 -1 0 0 0 0];

oriented        oriented;

internalField   nonuniform List<scalar> 
19800
(
6.77516e-11
-6.78421e-11
1.0133e-10
-3.3571e-11
3.3398e-11
6.79317e-11
-1.04198e-10
1.37595e-10
-3.01469e-10
1.97276e-10
-5.63121e-10
2.61652e-10
-8.91384e-10
3.28262e-10
-1.28528e-09
3.93903e-10
-1.74081e-09
4.55531e-10
-2.25216e-09
5.11351e-10
-2.81253e-09
5.60375e-10
-3.41488e-09
6.02353e-10
-4.05244e-09
6.37566e-10
-4.71859e-09
6.66145e-10
-5.40698e-09
6.88389e-10
-6.11193e-09
7.04956e-10
-6.82819e-09
7.16248e-10
-7.55112e-09
7.22931e-10
-8.27644e-09
7.25317e-10
-9.00017e-09
7.2373e-10
-9.71885e-09
7.18674e-10
-1.04296e-08
7.1076e-10
-1.11299e-08
7.00243e-10
-1.18174e-08
6.87524e-10
-1.24903e-08
6.72888e-10
-1.31467e-08
6.5647e-10
-1.37852e-08
6.38485e-10
-1.44044e-08
6.19235e-10
-1.50033e-08
5.98863e-10
-1.55807e-08
5.77352e-10
-1.61354e-08
5.5478e-10
-1.66667e-08
5.31302e-10
-1.71738e-08
5.07085e-10
-1.7656e-08
4.82156e-10
-1.81125e-08
4.56529e-10
-1.85428e-08
4.30334e-10
-1.89464e-08
4.03564e-10
-1.93226e-08
3.76188e-10
-1.96708e-08
3.48259e-10
-1.99907e-08
3.19854e-10
-2.02818e-08
2.91085e-10
-2.05437e-08
2.61944e-10
-2.07761e-08
2.32412e-10
-2.09787e-08
2.02549e-10
-2.11511e-08
1.72382e-10
-2.1293e-08
1.41936e-10
-2.14042e-08
1.1122e-10
-2.14845e-08
8.02968e-11
-2.15338e-08
4.93083e-11
-2.15521e-08
1.82415e-11
-2.15391e-08
-1.29404e-11
-2.1495e-08
-4.41275e-11
-2.14197e-08
-7.53162e-11
-2.13132e-08
-1.065e-10
-2.11757e-08
-1.37485e-10
-2.10074e-08
-1.68278e-10
-2.08083e-08
-1.99074e-10
-2.05786e-08
-2.29743e-10
-2.03186e-08
-2.6002e-10
-2.00286e-08
-2.89971e-10
-1.97089e-08
-3.1969e-10
-1.936e-08
-3.48973e-10
-1.89823e-08
-3.77694e-10
-1.85763e-08
-4.05999e-10
-1.81424e-08
-4.33878e-10
-1.76813e-08
-4.611e-10
-1.71936e-08
-4.87647e-10
-1.668e-08
-5.13676e-10
-1.61409e-08
-5.3906e-10
-1.55774e-08
-5.63489e-10
-1.49905e-08
-5.8694e-10
-1.43809e-08
-6.0955e-10
-1.37498e-08
-6.31151e-10
-1.30984e-08
-6.51344e-10
-1.24285e-08
-6.69949e-10
-1.17415e-08
-6.87005e-10
-1.10391e-08
-7.02382e-10
-1.03234e-08
-7.15706e-10
-9.59674e-09
-7.26653e-10
-8.86172e-09
-7.35024e-10
-8.12123e-09
-7.4048e-10
-7.37877e-09
-7.42461e-10
-6.63834e-09
-7.40435e-10
-5.90427e-09
-7.34069e-10
-5.18124e-09
-7.23024e-10
-4.4745e-09
-7.06744e-10
-3.78996e-09
-6.84542e-10
-3.13412e-09
-6.55846e-10
-2.51389e-09
-6.20221e-10
-1.93675e-09
-5.77142e-10
-1.41083e-09
-5.2593e-10
-9.44815e-10
-4.66016e-10
-5.47645e-10
-3.97169e-10
-2.28055e-10
-3.19594e-10
6.05071e-12
-2.34109e-10
1.48799e-10
-1.4274e-10
1.98604e-10
-4.97983e-11
1.63408e-10
3.51729e-11
7.23785e-11
9.09853e-11
7.23376e-11
1.36787e-10
-2.04622e-10
1.90698e-10
-8.74998e-11
2.52919e-11
2.33349e-10
-3.53061e-10
5.15945e-10
-9.3569e-10
7.79909e-10
-1.71699e-09
1.04295e-09
-2.69021e-09
1.30149e-09
-3.84441e-09
1.54811e-09
-5.16512e-09
1.77625e-09
-6.63562e-09
1.98186e-09
-8.23752e-09
2.16229e-09
-9.95234e-09
2.31718e-09
-1.17618e-08
2.44701e-09
-1.36483e-08
2.55266e-09
-1.55955e-08
2.63557e-09
-1.75878e-08
2.69727e-09
-1.9611e-08
2.73951e-09
-2.16524e-08
2.76431e-09
-2.37002e-08
2.77312e-09
-2.57441e-08
2.76761e-09
-2.77749e-08
2.74943e-09
-2.97842e-08
2.72005e-09
-3.17647e-08
2.68075e-09
-3.37101e-08
2.6329e-09
-3.56146e-08
2.57747e-09
-3.74734e-08
2.51521e-09
-3.92819e-08
2.44696e-09
-4.10361e-08
2.37351e-09
-4.27326e-08
2.29538e-09
-4.43682e-08
2.21294e-09
-4.59401e-08
2.12664e-09
-4.74457e-08
2.0369e-09
-4.88826e-08
1.94404e-09
-5.02488e-08
1.84831e-09
-5.15422e-08
1.74991e-09
-5.27609e-08
1.64911e-09
-5.39034e-08
1.54607e-09
-5.49681e-08
1.44089e-09
-5.59536e-08
1.33376e-09
-5.68587e-08
1.22492e-09
-5.76821e-08
1.11452e-09
-5.84229e-08
1.00267e-09
-5.908e-08
8.89506e-10
-5.96526e-08
7.75166e-10
-6.014e-08
6.59771e-10
-6.05415e-08
5.43477e-10
-6.08567e-08
4.26378e-10
-6.10849e-08
3.0857e-10
-6.1226e-08
1.90342e-10
-6.12796e-08
7.18505e-11
-6.12455e-08
-4.69786e-11
-6.11237e-08
-1.65962e-10
-6.09143e-08
-2.84777e-10
-6.06174e-08
-4.03375e-10
-6.02332e-08
-5.21678e-10
-5.9762e-08
-6.39442e-10
-5.92045e-08
-7.56595e-10
-5.85611e-08
-8.73116e-10
-5.78324e-08
-9.88728e-10
-5.70193e-08
-1.10314e-09
-5.61227e-08
-1.21631e-09
-5.51435e-08
-1.32813e-09
-5.40829e-08
-1.43833e-09
-5.29422e-08
-1.54664e-09
-5.17231e-08
-1.65298e-09
-5.0427e-08
-1.75722e-09
-4.90555e-08
-1.8591e-09
-4.76109e-08
-1.95831e-09
-4.60953e-08
-2.05462e-09
-4.45111e-08
-2.14776e-09
-4.28607e-08
-2.23737e-09
-4.11472e-08
-2.32303e-09
-3.9374e-08
-2.40429e-09
-3.75448e-08
-2.48059e-09
-3.56634e-08
-2.5513e-09
-3.37347e-08
-2.61572e-09
-3.1764e-08
-2.67309e-09
-2.97572e-08
-2.72256e-09
-2.77207e-08
-2.76311e-09
-2.56622e-08
-2.79355e-09
-2.35902e-08
-2.81246e-09
-2.15143e-08
-2.81834e-09
-1.94451e-08
-2.80967e-09
-1.73943e-08
-2.78485e-09
-1.53753e-08
-2.74208e-09
-1.34025e-08
-2.67946e-09
-1.1492e-08
-2.59506e-09
-9.66085e-09
-2.48703e-09
-7.92755e-09
-2.35352e-09
-6.31189e-09
-2.1928e-09
-4.83447e-09
-2.00336e-09
-3.51618e-09
-1.78431e-09
-2.3776e-09
-1.53575e-09
-1.43786e-09
-1.25934e-09
-7.12636e-10
-9.59341e-10
-2.10905e-10
-6.44471e-10
7.03379e-11
-3.31027e-10
1.5377e-10
-4.81908e-11
9.3056e-11
1.5179e-10
1.6537e-10
1.36333e-10
-3.40955e-10
1.32782e-10
-8.39364e-11
-1.77341e-10
5.43476e-10
-8.19961e-10
1.15856e-09
-1.7925e-09
1.75245e-09
-3.08366e-09
2.33411e-09
-4.67692e-09
2.89475e-09
-6.55091e-09
3.42211e-09
-8.68107e-09
3.90641e-09
-1.10402e-08
4.34102e-09
-1.36004e-08
4.72251e-09
-1.63334e-08
5.05018e-09
-1.92114e-08
5.32502e-09
-2.22079e-08
5.54912e-09
-2.52978e-08
5.72542e-09
-2.84577e-08
5.8572e-09
-3.16662e-08
5.94797e-09
-3.49032e-08
6.00132e-09
-3.81509e-08
6.02087e-09
-4.13932e-08
6.00984e-09
-4.46154e-08
5.97162e-09
-4.78045e-08
5.90921e-09
-5.09491e-08
5.82535e-09
-5.40388e-08
5.72258e-09
-5.70644e-08
5.60306e-09
-6.00178e-08
5.46865e-09
-6.28919e-08
5.3211e-09
-6.56803e-08
5.1619e-09
-6.83772e-08
4.99228e-09
-7.09775e-08
4.81325e-09
-7.34766e-08
4.62575e-09
-7.58704e-08
4.43066e-09
-7.8155e-08
4.22863e-09
-8.03269e-08
4.02027e-09
-8.23832e-08
3.80614e-09
-8.43207e-08
3.58666e-09
-8.61369e-08
3.36229e-09
-8.78294e-08
3.13338e-09
-8.9396e-08
2.90029e-09
-9.08346e-08
2.66353e-09
-9.21435e-08
2.42339e-09
-9.33209e-08
2.18009e-09
-9.43654e-08
1.93404e-09
-9.52758e-08
1.68553e-09
-9.60508e-08
1.4348e-09
-9.66895e-08
1.18214e-09
-9.7191e-08
9.27891e-10
-9.75547e-08
6.72331e-10
-9.77802e-08
4.15773e-10
-9.78668e-08
1.5849e-10
-9.78145e-08
-9.92521e-11
-9.76233e-08
-3.5718e-10
-9.72931e-08
-6.14995e-10
-9.68242e-08
-8.72317e-10
-9.6217e-08
-1.12881e-09
-9.54722e-08
-1.38431e-09
-9.45902e-08
-1.6386e-09
-9.35721e-08
-1.89122e-09
-9.2419e-08
-2.14175e-09
-9.11321e-08
-2.39004e-09
-8.97127e-08
-2.63573e-09
-8.81626e-08
-2.87824e-09
-8.64838e-08
-3.1172e-09
-8.4678e-08
-3.35239e-09
-8.27476e-08
-3.58336e-09
-8.06954e-08
-3.80945e-09
-7.85242e-08
-4.03026e-09
-7.62371e-08
-4.24545e-09
-7.38374e-08
-4.45432e-09
-7.13292e-08
-4.656e-09
-6.87167e-08
-4.8498e-09
-6.60048e-08
-5.03502e-09
-6.31984e-08
-5.21061e-09
-6.03038e-08
-5.37518e-09
-5.73278e-08
-5.52738e-09
-5.42776e-08
-5.66586e-09
-5.11618e-08
-5.78896e-09
-4.79897e-08
-5.89463e-09
-4.47722e-08
-5.98061e-09
-4.15212e-08
-6.04448e-09
-3.82502e-08
-6.08351e-09
-3.49739e-08
-6.09459e-09
-3.17092e-08
-6.07437e-09
-2.84746e-08
-6.01944e-09
-2.52905e-08
-5.92621e-09
-2.21791e-08
-5.79091e-09
-1.91645e-08
-5.60963e-09
-1.62729e-08
-5.37862e-09
-1.35319e-08
-5.09445e-09
-1.09706e-08
-4.75414e-09
-8.61857e-09
-4.35541e-09
-6.50553e-09
-3.89734e-09
-4.66002e-09
-3.38126e-09
-3.10746e-09
-2.81189e-09
-1.8675e-09
-2.1993e-09
-9.50118e-10
-1.56188e-09
-3.50093e-10
-9.31093e-10
-3.99533e-11
-3.58354e-10
3.94536e-11
7.24239e-11
2.04821e-10
4.24462e-11
-3.83403e-10
-1.34176e-10
9.26814e-11
-6.82729e-10
1.09202e-09
-1.64789e-09
2.12372e-09
-3.03532e-09
3.13988e-09
-4.83335e-09
4.13214e-09
-7.02053e-09
5.08193e-09
-9.56902e-09
5.97059e-09
-1.24467e-08
6.78411e-09
-1.56191e-08
7.51342e-09
-1.90505e-08
8.15391e-09
-2.27051e-08
8.70475e-09
-2.65476e-08
9.16752e-09
-3.05441e-08
9.54566e-09
-3.46626e-08
9.8439e-09
-3.88729e-08
1.00675e-08
-4.3147e-08
1.02221e-08
-4.74595e-08
1.03138e-08
-5.17868e-08
1.03482e-08
-5.61078e-08
1.03308e-08
-6.04032e-08
1.0267e-08
-6.46558e-08
1.01618e-08
-6.88501e-08
1.00196e-08
-7.29722e-08
9.84474e-09
-7.701e-08
9.64081e-09
-8.09524e-08
9.41105e-09
-8.47897e-08
9.15841e-09
-8.85132e-08
8.88539e-09
-9.2115e-08
8.59414e-09
-9.55883e-08
8.28656e-09
-9.89268e-08
7.96426e-09
-1.02125e-07
7.62866e-09
-1.05177e-07
7.28097e-09
-1.08079e-07
6.92223e-09
-1.10826e-07
6.5535e-09
-1.13415e-07
6.17557e-09
-1.15842e-07
5.78915e-09
-1.18104e-07
5.39501e-09
-1.20197e-07
4.99376e-09
-1.2212e-07
4.58603e-09
-1.23869e-07
4.17248e-09
-1.25442e-07
3.75364e-09
-1.26839e-07
3.33004e-09
-1.28055e-07
2.90224e-09
-1.29091e-07
2.47072e-09
-1.29945e-07
2.03595e-09
-1.30615e-07
1.59842e-09
-1.31102e-07
1.15869e-09
-1.31403e-07
7.17349e-10
-1.3152e-07
2.74789e-10
-1.3145e-07
-1.68622e-10
-1.31195e-07
-6.12228e-10
-1.30755e-07
-1.05546e-09
-1.30129e-07
-1.49797e-09
-1.29319e-07
-1.93926e-09
-1.28324e-07
-2.37864e-09
-1.27147e-07
-2.8157e-09
-1.25788e-07
-3.25003e-09
-1.24249e-07
-3.6809e-09
-1.22532e-07
-4.10763e-09
-1.20638e-07
-4.52977e-09
-1.18569e-07
-4.94672e-09
-1.16329e-07
-5.35765e-09
-1.13919e-07
-5.76181e-09
-1.11344e-07
-6.15856e-09
-1.08606e-07
-6.5472e-09
-1.0571e-07
-6.92677e-09
-1.02659e-07
-7.29627e-09
-9.94587e-08
-7.65467e-09
-9.61139e-08
-8.0008e-09
-9.26304e-08
-8.33334e-09
-8.90147e-08
-8.65072e-09
-8.52742e-08
-8.95113e-09
-8.14168e-08
-9.23254e-09
-7.74515e-08
-9.49267e-09
-7.33885e-08
-9.72891e-09
-6.92392e-08
-9.93828e-09
-6.50163e-08
-1.01175e-08
-6.07341e-08
-1.02628e-08
-5.64085e-08
-1.03701e-08
-5.20573e-08
-1.04347e-08
-4.77004e-08
-1.04515e-08
-4.33595e-08
-1.04152e-08
-3.90588e-08
-1.03202e-08
-3.48247e-08
-1.01604e-08
-3.06859e-08
-9.9297e-09
-2.66733e-08
-9.62214e-09
-2.282e-08
-9.23193e-09
-1.91606e-08
-8.75387e-09
-1.57311e-08
-8.18366e-09
-1.2568e-08
-7.5185e-09
-9.70731e-09
-6.75804e-09
-7.18292e-09
-5.90566e-09
-5.0246e-09
-4.97019e-09
-3.25522e-09
-3.96866e-09
-1.88693e-09
-2.93015e-09
-9.16383e-10
-1.90163e-09
-3.19437e-10
-9.55348e-10
-4.44127e-11
-2.02584e-10
1.60411e-10
-7.94981e-11
-3.03901e-10
-4.8617e-10
4.99355e-10
-1.33268e-09
1.93853e-09
-2.66442e-09
3.45546e-09
-4.48956e-09
4.96503e-09
-6.79595e-09
6.43853e-09
-9.55916e-09
7.84514e-09
-1.27472e-08
9.15861e-09
-1.63228e-08
1.03598e-08
-2.02461e-08
1.14367e-08
-2.44756e-08
1.23834e-08
-2.89696e-08
1.31987e-08
-3.3687e-08
1.3885e-08
-3.85883e-08
1.4447e-08
-4.36356e-08
1.48911e-08
-4.87932e-08
1.52251e-08
-5.4028e-08
1.54569e-08
-5.93093e-08
1.55951e-08
-6.46089e-08
1.56478e-08
-6.99013e-08
1.56232e-08
-7.51632e-08
1.55289e-08
-8.03737e-08
1.53723e-08
-8.55139e-08
1.51598e-08
-9.05669e-08
1.48977e-08
-9.55175e-08
1.45914e-08
-1.00352e-07
1.42457e-08
-1.05059e-07
1.38651e-08
-1.09627e-07
1.34533e-08
-1.14046e-07
1.30135e-08
-1.18308e-07
1.25487e-08
-1.22405e-07
1.20614e-08
-1.2633e-07
1.15537e-08
-1.30077e-07
1.10275e-08
-1.33639e-07
1.04845e-08
-1.37012e-07
9.92617e-09
-1.4019e-07
9.35385e-09
-1.4317e-07
8.76864e-09
-1.45946e-07
8.17167e-09
-1.48517e-07
7.564e-09
-1.50877e-07
6.94652e-09
-1.53025e-07
6.32011e-09
-1.54957e-07
5.6857e-09
-1.56671e-07
5.04414e-09
-1.58165e-07
4.39622e-09
-1.59437e-07
3.74262e-09
-1.60485e-07
3.08415e-09
-1.61308e-07
2.42167e-09
-1.61905e-07
1.75584e-09
-1.62276e-07
1.08742e-09
-1.62418e-07
4.17251e-10
-1.62333e-07
-2.53985e-10
-1.62019e-07
-9.256e-10
-1.61478e-07
-1.59673e-09
-1.60709e-07
-2.26657e-09
-1.59714e-07
-2.93444e-09
-1.58493e-07
-3.59962e-09
-1.57048e-07
-4.26126e-09
-1.55379e-07
-4.91839e-09
-1.5349e-07
-5.57024e-09
-1.51382e-07
-6.21604e-09
-1.49057e-07
-6.85481e-09
-1.46518e-07
-7.48544e-09
-1.43769e-07
-8.10692e-09
-1.40812e-07
-8.71832e-09
-1.37652e-07
-9.31849e-09
-1.34293e-07
-9.90609e-09
-1.3074e-07
-1.04798e-08
-1.26998e-07
-1.10383e-08
-1.23073e-07
-1.15799e-08
-1.18971e-07
-1.21026e-08
-1.147e-07
-1.26044e-08
-1.10268e-07
-1.30831e-08
-1.05683e-07
-1.3536e-08
-1.00956e-07
-1.39597e-08
-9.60973e-08
-1.4351e-08
-9.11204e-08
-1.47058e-08
-8.60387e-08
-1.50199e-08
-8.0868e-08
-1.52882e-08
-7.56257e-08
-1.55051e-08
-7.03314e-08
-1.56644e-08
-6.50066e-08
-1.57595e-08
-5.96751e-08
-1.5783e-08
-5.43633e-08
-1.5727e-08
-4.91001e-08
-1.55834e-08
-4.39169e-08
-1.53436e-08
-3.88476e-08
-1.49991e-08
-3.39284e-08
-1.45413e-08
-2.91978e-08
-1.39625e-08
-2.46961e-08
-1.32556e-08
-2.04647e-08
-1.24152e-08
-1.65449e-08
-1.14383e-08
-1.29775e-08
-1.03254e-08
-9.80073e-09
-9.08247e-09
-7.04806e-09
-7.72288e-09
-4.74593e-09
-6.27082e-09
-2.9104e-09
-4.76566e-09
-1.54381e-09
-3.26821e-09
-6.31262e-10
-1.86792e-09
-1.3696e-10
-6.96877e-10
2.34497e-11
-1.95495e-10
-1.08407e-10
-8.45703e-10
1.14956e-09
-2.01418e-09
3.10701e-09
-3.73338e-09
5.17465e-09
-6.00671e-09
7.23836e-09
-8.81877e-09
9.2506e-09
-1.21418e-08
1.11682e-08
-1.59402e-08
1.29569e-08
-2.01727e-08
1.45924e-08
-2.47953e-08
1.60593e-08
-2.9762e-08
1.73501e-08
-3.50264e-08
1.84632e-08
-4.05431e-08
1.94017e-08
-4.62677e-08
2.01715e-08
-5.21578e-08
2.07812e-08
-5.81733e-08
2.12406e-08
-6.42768e-08
2.15604e-08
-7.04333e-08
2.17516e-08
-7.66108e-08
2.18252e-08
-8.27798e-08
2.17923e-08
-8.89138e-08
2.16629e-08
-9.49884e-08
2.14469e-08
-1.00982e-07
2.11534e-08
-1.06875e-07
2.07904e-08
-1.12649e-07
2.03656e-08
-1.18289e-07
1.98857e-08
-1.2378e-07
1.93566e-08
-1.29111e-07
1.87835e-08
-1.34268e-07
1.81712e-08
-1.39243e-07
1.75235e-08
-1.44026e-07
1.6844e-08
-1.48608e-07
1.61358e-08
-1.52982e-07
1.54016e-08
-1.57141e-07
1.46437e-08
-1.61079e-07
1.38642e-08
-1.6479e-07
1.3065e-08
-1.68269e-07
1.22478e-08
-1.71512e-07
1.14141e-08
-1.74513e-07
1.05654e-08
-1.7727e-07
9.70295e-09
-1.79778e-07
8.82807e-09
-1.82034e-07
7.94198e-09
-1.84035e-07
7.0458e-09
-1.8578e-07
6.14071e-09
-1.87265e-07
5.22778e-09
-1.88489e-07
4.30805e-09
-1.8945e-07
3.38265e-09
-1.90147e-07
2.4527e-09
-1.90579e-07
1.51922e-09
-1.90745e-07
5.83127e-10
-1.90644e-07
-3.54454e-10
-1.90277e-07
-1.2923e-09
-1.89645e-07
-2.22942e-09
-1.88746e-07
-3.16491e-09
-1.87583e-07
-4.0976e-09
-1.86157e-07
-5.02624e-09
-1.84468e-07
-5.94983e-09
-1.82519e-07
-6.86729e-09
-1.80312e-07
-7.77728e-09
-1.7785e-07
-8.67854e-09
-1.75134e-07
-9.56989e-09
-1.7217e-07
-1.04499e-08
-1.6896e-07
-1.13172e-08
-1.65508e-07
-1.21702e-08
-1.61819e-07
-1.30073e-08
-1.57898e-07
-1.38269e-08
-1.53751e-07
-1.4627e-08
-1.49384e-07
-1.54055e-08
-1.44803e-07
-1.61602e-08
-1.40018e-07
-1.68885e-08
-1.35035e-07
-1.75873e-08
-1.29864e-07
-1.82535e-08
-1.24517e-07
-1.88832e-08
-1.19005e-07
-1.94721e-08
-1.1334e-07
-2.00154e-08
-1.07538e-07
-2.05078e-08
-1.01615e-07
-2.09429e-08
-9.55894e-08
-2.13141e-08
-8.94809e-08
-2.16136e-08
-8.33122e-08
-2.18331e-08
-7.71082e-08
-2.19635e-08
-7.08963e-08
-2.19949e-08
-6.47066e-08
-2.19167e-08
-5.85718e-08
-2.17181e-08
-5.25275e-08
-2.13879e-08
-4.66118e-08
-2.09148e-08
-4.08653e-08
-2.02878e-08
-3.53308e-08
-1.94969e-08
-3.00529e-08
-1.85335e-08
-2.5077e-08
-1.73911e-08
-2.04488e-08
-1.60665e-08
-1.62128e-08
-1.45614e-08
-1.24109e-08
-1.28844e-08
-9.08054e-09
-1.10532e-08
-6.25259e-09
-9.09879e-09
-3.94901e-09
-7.06923e-09
-2.18073e-09
-5.03649e-09
-9.45738e-10
-3.1029e-09
-2.28313e-10
-1.41431e-09
-2.04859e-10
-2.98205e-10
1.89795e-10
-1.18313e-09
2.03447e-09
-2.67337e-09
4.59725e-09
-4.78141e-09
7.2827e-09
-7.50036e-09
9.9573e-09
-1.08082e-08
1.25584e-08
-1.46724e-08
1.50325e-08
-1.90533e-08
1.73378e-08
-2.3906e-08
1.9445e-08
-2.91825e-08
2.13358e-08
-3.48335e-08
2.3001e-08
-4.08089e-08
2.44386e-08
-4.70594e-08
2.56521e-08
-5.35369e-08
2.6649e-08
-6.01953e-08
2.74396e-08
-6.69908e-08
2.80362e-08
-7.38825e-08
2.84521e-08
-8.0832e-08
2.87011e-08
-8.78039e-08
2.87972e-08
-9.47658e-08
2.87541e-08
-1.01688e-07
2.8585e-08
-1.08543e-07
2.83023e-08
-1.15308e-07
2.79176e-08
-1.21959e-07
2.74415e-08
-1.28477e-07
2.68836e-08
-1.34844e-07
2.62528e-08
-1.41044e-07
2.55567e-08
-1.47063e-07
2.48023e-08
-1.52887e-07
2.39956e-08
-1.58506e-07
2.31419e-08
-1.63908e-07
2.22459e-08
-1.69083e-07
2.13116e-08
-1.74024e-07
2.03427e-08
-1.78723e-07
1.93423e-08
-1.83172e-07
1.83132e-08
-1.87365e-07
1.72579e-08
-1.91296e-07
1.61787e-08
-1.94959e-07
1.50776e-08
-1.9835e-07
1.39565e-08
-2.01465e-07
1.28173e-08
-2.04298e-07
1.16616e-08
-2.06847e-07
1.04911e-08
-2.09109e-07
9.30726e-09
-2.1108e-07
8.11155e-09
-2.12757e-07
6.90542e-09
-2.1414e-07
5.69047e-09
-2.15225e-07
4.46808e-09
-2.16012e-07
3.23951e-09
-2.16499e-07
2.00626e-09
-2.16686e-07
7.698e-10
-2.16571e-07
-4.68575e-10
-2.16156e-07
-1.70746e-09
-2.1544e-07
-2.94535e-09
-2.14424e-07
-4.18086e-09
-2.13109e-07
-5.4126e-09
-2.11497e-07
-6.63907e-09
-2.09588e-07
-7.85874e-09
-2.07385e-07
-9.07008e-09
-2.04891e-07
-1.02715e-08
-2.02108e-07
-1.14614e-08
-1.9904e-07
-1.26381e-08
-1.9569e-07
-1.37997e-08
-1.92063e-07
-1.49442e-08
-1.88163e-07
-1.60699e-08
-1.83996e-07
-1.71746e-08
-1.79567e-07
-1.82558e-08
-1.74883e-07
-1.93112e-08
-1.6995e-07
-2.03378e-08
-1.64778e-07
-2.13328e-08
-1.59374e-07
-2.22925e-08
-1.53748e-07
-2.32132e-08
-1.47911e-07
-2.40904e-08
-1.41875e-07
-2.49191e-08
-1.35654e-07
-2.56938e-08
-1.29261e-07
-2.6408e-08
-1.22714e-07
-2.70547e-08
-1.16031e-07
-2.76258e-08
-1.09233e-07
-2.81126e-08
-1.02341e-07
-2.8505e-08
-9.53823e-08
-2.87923e-08
-8.83829e-08
-2.89628e-08
-8.13738e-08
-2.9004e-08
-7.43879e-08
-2.89025e-08
-6.74615e-08
-2.86446e-08
-6.06332e-08
-2.82161e-08
-5.39448e-08
-2.76032e-08
-4.74404e-08
-2.67923e-08
-4.11662e-08
-2.57711e-08
-3.51703e-08
-2.45294e-08
-2.95016e-08
-2.30597e-08
-2.42093e-08
-2.13588e-08
-1.93413e-08
-1.94294e-08
-1.49434e-08
-1.72823e-08
-1.10572e-08
-1.49394e-08
-7.71909e-09
-1.24369e-08
-4.95852e-09
-9.82981e-09
-2.79678e-09
-7.19821e-09
-1.24677e-09
-4.6529e-09
-3.14017e-10
-2.34707e-09
-5.18869e-10
-3.87122e-10
5.76918e-10
-1.48925e-09
3.13661e-09
-3.28754e-09
6.39554e-09
-5.77234e-09
9.7675e-09
-8.92335e-09
1.31083e-08
-1.27098e-08
1.63449e-08
-1.70928e-08
1.94155e-08
-2.20276e-08
2.22726e-08
-2.74654e-08
2.48829e-08
-3.33549e-08
2.72253e-08
-3.9643e-08
2.92891e-08
-4.62766e-08
3.10723e-08
-5.32033e-08
3.25788e-08
-6.0372e-08
3.38177e-08
-6.77334e-08
3.4801e-08
-7.52408e-08
3.55436e-08
-8.28502e-08
3.60614e-08
-9.05204e-08
3.63713e-08
-9.82134e-08
3.64901e-08
-1.05894e-07
3.64347e-08
-1.1353e-07
3.6221e-08
-1.21092e-07
3.58644e-08
-1.28554e-07
3.53791e-08
-1.3589e-07
3.47784e-08
-1.43081e-07
3.40742e-08
-1.50106e-07
3.32773e-08
-1.56946e-07
3.23975e-08
-1.63587e-07
3.14435e-08
-1.70015e-07
3.04228e-08
-1.76215e-07
2.93422e-08
-1.82176e-07
2.82075e-08
-1.87889e-07
2.7024e-08
-1.93342e-07
2.57963e-08
-1.98529e-07
2.45285e-08
-2.03439e-07
2.3224e-08
-2.08068e-07
2.18861e-08
-2.12407e-07
2.05177e-08
-2.16451e-07
1.91215e-08
-2.20194e-07
1.76998e-08
-2.23632e-07
1.6255e-08
-2.26759e-07
1.47894e-08
-2.29573e-07
1.33048e-08
-2.32069e-07
1.18033e-08
-2.34244e-07
1.02867e-08
-2.36096e-07
8.75707e-09
-2.37622e-07
7.21605e-09
-2.38819e-07
5.66559e-09
-2.39687e-07
4.10744e-09
-2.40224e-07
2.54334e-09
-2.40429e-07
9.75086e-10
-2.40302e-07
-5.95499e-10
-2.39843e-07
-2.16659e-09
-2.39052e-07
-3.73642e-09
-2.3793e-07
-5.30327e-09
-2.36477e-07
-6.86522e-09
-2.34696e-07
-8.42032e-09
-2.32588e-07
-9.96671e-09
-2.30155e-07
-1.15025e-08
-2.27401e-07
-1.30257e-08
-2.24329e-07
-1.4534e-08
-2.20941e-07
-1.60254e-08
-2.17243e-07
-1.74977e-08
-2.13239e-07
-1.89482e-08
-2.08935e-07
-2.03747e-08
-2.04335e-07
-2.17743e-08
-1.99447e-07
-2.31441e-08
-1.94277e-07
-2.44808e-08
-1.88834e-07
-2.57809e-08
-1.83126e-07
-2.70406e-08
-1.77163e-07
-2.82553e-08
-1.70956e-07
-2.94202e-08
-1.64517e-07
-3.05297e-08
-1.57859e-07
-3.15774e-08
-1.50996e-07
-3.25564e-08
-1.43945e-07
-3.34586e-08
-1.36725e-07
-3.42752e-08
-1.29355e-07
-3.49961e-08
-1.21857e-07
-3.56101e-08
-1.14257e-07
-3.61051e-08
-1.06582e-07
-3.64677e-08
-9.88609e-08
-3.66835e-08
-9.11277e-08
-3.67372e-08
-8.34177e-08
-3.66125e-08
-7.57698e-08
-3.62925e-08
-6.82254e-08
-3.57605e-08
-6.08291e-08
-3.49995e-08
-5.36279e-08
-3.39935e-08
-4.66711e-08
-3.2728e-08
-4.00095e-08
-3.1191e-08
-3.36952e-08
-2.9374e-08
-2.77804e-08
-2.72736e-08
-2.23167e-08
-2.48931e-08
-1.73536e-08
-2.22454e-08
-1.29377e-08
-1.93553e-08
-9.11172e-09
-1.62628e-08
-5.91342e-09
-1.30281e-08
-3.37551e-09
-9.73611e-09
-1.52636e-09
-6.50205e-09
-3.91992e-10
-3.48143e-09
-9.10863e-10
-4.64056e-10
1.04097e-09
-1.76329e-09
4.43585e-09
-3.84873e-09
8.48097e-09
-6.69007e-09
1.26088e-08
-1.02523e-08
1.66706e-08
-1.44945e-08
2.0587e-08
-1.93702e-08
2.42912e-08
-2.48292e-08
2.77316e-08
-3.08182e-08
3.08718e-08
-3.72819e-08
3.36889e-08
-4.41641e-08
3.61714e-08
-5.14089e-08
3.8317e-08
-5.89608e-08
4.01307e-08
-6.6766e-08
4.16229e-08
-7.47729e-08
4.28079e-08
-8.29322e-08
4.37028e-08
-9.11973e-08
4.43265e-08
-9.95248e-08
4.46987e-08
-1.07874e-07
4.48395e-08
-1.16208e-07
4.47687e-08
-1.24493e-07
4.45053e-08
-1.32696e-07
4.40677e-08
-1.4079e-07
4.3473e-08
-1.48748e-07
4.27369e-08
-1.56548e-07
4.18739e-08
-1.64168e-07
4.08971e-08
-1.71588e-07
3.98183e-08
-1.78793e-07
3.86479e-08
-1.85765e-07
3.73953e-08
-1.92492e-07
3.60688e-08
-1.9896e-07
3.46755e-08
-2.05158e-07
3.32219e-08
-2.11075e-07
3.17136e-08
-2.16702e-07
3.01557e-08
-2.22031e-07
2.85525e-08
-2.27053e-07
2.69081e-08
-2.31761e-07
2.52259e-08
-2.36149e-07
2.35094e-08
-2.40211e-07
2.17616e-08
-2.43941e-07
1.99853e-08
-2.47335e-07
1.81831e-08
-2.50388e-07
1.63577e-08
-2.53096e-07
1.45115e-08
-2.55456e-07
1.26467e-08
-2.57465e-07
1.07657e-08
-2.59119e-07
8.87097e-09
-2.60418e-07
6.96454e-09
-2.6136e-07
5.04857e-09
-2.61942e-07
3.12536e-09
-2.62164e-07
1.19717e-09
-2.62025e-07
-7.33876e-10
-2.61526e-07
-2.66558e-09
-2.60667e-07
-4.59568e-09
-2.59448e-07
-6.52197e-09
-2.57871e-07
-8.44217e-09
-2.55938e-07
-1.03539e-08
-2.5365e-07
-1.22549e-08
-2.5101e-07
-1.41427e-08
-2.4802e-07
-1.60148e-08
-2.44686e-07
-1.78686e-08
-2.4101e-07
-1.97015e-08
-2.36997e-07
-2.15107e-08
-2.32652e-07
-2.32931e-08
-2.27981e-07
-2.50458e-08
-2.2299e-07
-2.67652e-08
-2.17686e-07
-2.84478e-08
-2.12077e-07
-3.00896e-08
-2.06172e-07
-3.16861e-08
-1.9998e-07
-3.32326e-08
-1.93512e-07
-3.47236e-08
-1.86779e-07
-3.61531e-08
-1.79794e-07
-3.75142e-08
-1.72573e-07
-3.87992e-08
-1.65129e-07
-3.99995e-08
-1.57483e-07
-4.11054e-08
-1.49652e-07
-4.21061e-08
-1.41659e-07
-4.29893e-08
-1.33527e-07
-4.37417e-08
-1.25283e-07
-4.43486e-08
-1.16957e-07
-4.47939e-08
-1.0858e-07
-4.50605e-08
-1.00187e-07
-4.513e-08
-9.18167e-08
-4.49832e-08
-8.3509e-08
-4.46003e-08
-7.53082e-08
-4.39612e-08
-6.72613e-08
-4.30464e-08
-5.94177e-08
-4.18371e-08
-5.18291e-08
-4.03165e-08
-4.45493e-08
-3.84709e-08
-3.76329e-08
-3.62904e-08
-3.11354e-08
-3.37711e-08
-2.51117e-08
-3.09168e-08
-1.96157e-08
-2.77414e-08
-1.46994e-08
-2.42716e-08
-1.04121e-08
-2.05501e-08
-6.80063e-09
-1.66396e-08
-3.90918e-09
-1.26276e-08
-1.78123e-09
-8.63e-09
-4.61605e-10
-4.80105e-09
-1.37247e-09
-5.30675e-10
1.57165e-09
-2.00686e-09
5.91203e-09
-4.35627e-09
1.08304e-08
-7.52965e-09
1.57822e-08
-1.14779e-08
2.06189e-08
-1.61492e-08
2.52583e-08
-2.14895e-08
2.96314e-08
-2.74419e-08
3.36841e-08
-3.39485e-08
3.73784e-08
-4.09499e-08
4.06903e-08
-4.83866e-08
4.36082e-08
-5.61998e-08
4.61301e-08
-6.43312e-08
4.82622e-08
-7.27249e-08
5.00165e-08
-8.13266e-08
5.14096e-08
-9.00849e-08
5.24612e-08
-9.89514e-08
5.31929e-08
-1.0788e-07
5.36277e-08
-1.1683e-07
5.37887e-08
-1.2576e-07
5.36988e-08
-1.34635e-07
5.33805e-08
-1.43422e-07
5.28548e-08
-1.52091e-07
5.21419e-08
-1.60614e-07
5.12603e-08
-1.68967e-07
5.02269e-08
-1.77127e-07
4.90572e-08
-1.85074e-07
4.77652e-08
-1.9279e-07
4.63633e-08
-2.00257e-07
4.48625e-08
-2.07461e-07
4.32727e-08
-2.14388e-07
4.16026e-08
-2.21026e-07
3.98598e-08
-2.27363e-07
3.80511e-08
-2.3339e-07
3.61825e-08
-2.39097e-07
3.42594e-08
-2.44476e-07
3.22867e-08
-2.49518e-07
3.02685e-08
-2.54218e-07
2.8209e-08
-2.58568e-07
2.61117e-08
-2.62563e-07
2.39803e-08
-2.66198e-07
2.18177e-08
-2.69467e-07
1.96272e-08
-2.72367e-07
1.74116e-08
-2.74894e-07
1.51738e-08
-2.77045e-07
1.29167e-08
-2.78817e-07
1.06429e-08
-2.80208e-07
8.35512e-09
-2.81215e-07
6.05598e-09
-2.81838e-07
3.7482e-09
-2.82075e-07
1.43444e-09
-2.81926e-07
-8.82725e-10
-2.81391e-07
-3.20062e-09
-2.80471e-07
-5.51652e-09
-2.79165e-07
-7.82779e-09
-2.77475e-07
-1.01317e-08
-2.75404e-07
-1.24253e-08
-2.72953e-07
-1.4706e-08
-2.70125e-07
-1.69708e-08
-2.66923e-07
-1.92166e-08
-2.63351e-07
-2.14404e-08
-2.59414e-07
-2.3639e-08
-2.55115e-07
-2.58089e-08
-2.50462e-07
-2.79467e-08
-2.45459e-07
-3.00486e-08
-2.40114e-07
-3.21105e-08
-2.34433e-07
-3.4128e-08
-2.28427e-07
-3.60962e-08
-2.22103e-07
-3.801e-08
-2.15472e-07
-3.98635e-08
-2.08545e-07
-4.16502e-08
-2.01336e-07
-4.33628e-08
-1.93857e-07
-4.49932e-08
-1.86124e-07
-4.65322e-08
-1.78154e-07
-4.79695e-08
-1.69966e-07
-4.92936e-08
-1.6158e-07
-5.04915e-08
-1.5302e-07
-5.1549e-08
-1.44312e-07
-5.24503e-08
-1.35482e-07
-5.3178e-08
-1.26563e-07
-5.37135e-08
-1.17587e-07
-5.40366e-08
-1.08591e-07
-5.4126e-08
-9.96145e-08
-5.39593e-08
-9.07012e-08
-5.35136e-08
-8.18966e-08
-5.27658e-08
-7.32496e-08
-5.16934e-08
-6.48119e-08
-5.02748e-08
-5.66376e-08
-4.84909e-08
-4.87827e-08
-4.63258e-08
-4.13047e-08
-4.37683e-08
-3.42621e-08
-4.08137e-08
-2.77137e-08
-3.74653e-08
-2.17178e-08
-3.37374e-08
-1.63319e-08
-2.96575e-08
-1.16125e-08
-2.52695e-08
-7.61524e-09
-2.06369e-08
-4.39562e-09
-1.58472e-08
-2.01112e-09
-1.10145e-08
-5.23262e-10
-6.28892e-09
-1.89573e-09
-5.88622e-10
2.16027e-09
-2.22315e-09
7.54657e-09
-4.81275e-09
1.342e-08
-8.29214e-09
1.92616e-08
-1.25991e-08
2.49258e-08
-1.76715e-08
3.03307e-08
-2.34468e-08
3.54067e-08
-2.98619e-08
4.00992e-08
-3.68534e-08
4.43699e-08
-4.4358e-08
4.81949e-08
-5.23126e-08
5.15628e-08
-6.06552e-08
5.44728e-08
-6.93254e-08
5.69324e-08
-7.82645e-08
5.89556e-08
-8.74164e-08
6.05615e-08
-9.67276e-08
6.17724e-08
-1.06148e-07
6.26132e-08
-1.1563e-07
6.31096e-08
-1.25129e-07
6.32882e-08
-1.34606e-07
6.31752e-08
-1.44021e-07
6.27962e-08
-1.53342e-07
6.21754e-08
-1.62536e-07
6.13359e-08
-1.71574e-07
6.0299e-08
-1.80432e-07
5.90843e-08
-1.89084e-07
5.77097e-08
-1.9751e-07
5.61913e-08
-2.05691e-07
5.45437e-08
-2.13608e-07
5.27796e-08
-2.21246e-07
5.09107e-08
-2.2859e-07
4.8947e-08
-2.35628e-07
4.68975e-08
-2.42347e-07
4.47702e-08
-2.48737e-07
4.25724e-08
-2.54787e-07
4.03101e-08
-2.6049e-07
3.79891e-08
-2.65836e-07
3.56146e-08
-2.70818e-07
3.31914e-08
-2.7543e-07
3.07237e-08
-2.79666e-07
2.82155e-08
-2.83519e-07
2.56708e-08
-2.86985e-07
2.30931e-08
-2.90059e-07
2.04859e-08
-2.92738e-07
1.78527e-08
-2.95018e-07
1.51967e-08
-2.96896e-07
1.2521e-08
-2.9837e-07
9.82895e-09
-2.99437e-07
7.12357e-09
-3.00097e-07
4.40805e-09
-3.00348e-07
1.68554e-09
-3.0019e-07
-1.04094e-09
-2.99622e-07
-3.76824e-09
-2.98646e-07
-6.49315e-09
-2.97261e-07
-9.21252e-09
-2.9547e-07
-1.19231e-08
-2.93273e-07
-1.46217e-08
-2.90675e-07
-1.73048e-08
-2.87676e-07
-1.99692e-08
-2.84281e-07
-2.26113e-08
-2.80495e-07
-2.52273e-08
-2.7632e-07
-2.78135e-08
-2.71763e-07
-3.0366e-08
-2.66829e-07
-3.28805e-08
-2.61525e-07
-3.53525e-08
-2.55858e-07
-3.77774e-08
-2.49837e-07
-4.01498e-08
-2.43469e-07
-4.24642e-08
-2.36764e-07
-4.47142e-08
-2.29735e-07
-4.68932e-08
-2.22391e-07
-4.89934e-08
-2.14748e-07
-5.10063e-08
-2.06819e-07
-5.29222e-08
-1.98621e-07
-5.47306e-08
-1.90171e-07
-5.64193e-08
-1.81489e-07
-5.7975e-08
-1.72598e-07
-5.93827e-08
-1.63521e-07
-6.06258e-08
-1.54286e-07
-6.1686e-08
-1.4492e-07
-6.25435e-08
-1.35457e-07
-6.31766e-08
-1.25931e-07
-6.35623e-08
-1.16381e-07
-6.3676e-08
-1.06848e-07
-6.34924e-08
-9.73769e-08
-6.29852e-08
-8.80146e-08
-6.21282e-08
-7.88123e-08
-6.08957e-08
-6.98235e-08
-5.92635e-08
-6.11046e-08
-5.72098e-08
-5.27139e-08
-5.47164e-08
-4.47119e-08
-5.17704e-08
-3.71601e-08
-4.83655e-08
-3.01211e-08
-4.45043e-08
-2.36578e-08
-4.02006e-08
-1.78337e-08
-3.54816e-08
-1.27122e-08
-3.0391e-08
-8.35761e-09
-2.49915e-08
-4.83603e-09
-1.93688e-08
-2.21747e-09
-1.36331e-08
-5.7798e-10
-7.92841e-09
-2.4737e-09
-6.39378e-10
2.79966e-09
-2.41504e-09
9.32224e-09
-5.22224e-09
1.62272e-08
-8.98188e-09
2.30213e-08
-1.36202e-08
2.95641e-08
-1.90652e-08
3.57757e-08
-2.52462e-08
4.15877e-08
-3.20938e-08
4.69468e-08
-3.95392e-08
5.18153e-08
-4.75145e-08
5.61703e-08
-5.59532e-08
6.00015e-08
-6.47903e-08
6.33098e-08
-7.39625e-08
6.61046e-08
-8.34091e-08
6.84022e-08
-9.30719e-08
7.02243e-08
-1.02896e-07
7.15961e-08
-1.12828e-07
7.25457e-08
-1.22821e-07
7.31021e-08
-1.32828e-07
7.32952e-08
-1.42807e-07
7.31545e-08
-1.5272e-07
7.27089e-08
-1.6253e-07
7.19859e-08
-1.72206e-07
7.10115e-08
-1.81717e-07
6.981e-08
-1.91036e-07
6.84035e-08
-2.00139e-07
6.68126e-08
-2.09003e-07
6.50555e-08
-2.17608e-07
6.3149e-08
-2.25937e-07
6.11077e-08
-2.33971e-07
5.89448e-08
-2.41696e-07
5.66721e-08
-2.49098e-07
5.43e-08
-2.56166e-07
5.18376e-08
-2.62886e-07
4.92931e-08
-2.6925e-07
4.66739e-08
-2.75248e-07
4.39867e-08
-2.8087e-07
4.12374e-08
-2.8611e-07
3.84314e-08
-2.90961e-07
3.55739e-08
-2.95415e-07
3.26696e-08
-2.99467e-07
2.97228e-08
-3.03112e-07
2.67379e-08
-3.06345e-07
2.37189e-08
-3.09162e-07
2.06697e-08
-3.11559e-07
1.75941e-08
-3.13534e-07
1.44958e-08
-3.15084e-07
1.13786e-08
-3.16206e-07
8.24601e-09
-3.169e-07
5.10173e-09
-3.17163e-07
1.94938e-09
-3.16997e-07
-1.20753e-09
-3.164e-07
-4.36532e-09
-3.15373e-07
-7.5203e-09
-3.13916e-07
-1.06688e-08
-3.12032e-07
-1.38071e-08
-3.09723e-07
-1.69314e-08
-3.0699e-07