/*--------------------------------*- C++ -*----------------------------------*\
| =========                 |                                                 |
| \\      /  F ield         | OpenFOAM: The Open Source CFD Toolbox           |
|  \\    /   O peration     | Version:  2212                                  |
|   \\  /    A nd           | Website:  www.openfoam.com                      |
|    \\/     M anipulation  |                                                 |
\*---------------------------------------------------------------------------*/
FoamFile
{
    version     2.0;
    format      ascii;
    arch        "LSB;label=32;scalar=64";
    class       surfaceScalarField;
    location    "0.088";
    object      phi;
}
// * * * * * * * * * * * * * * * * * * * * * * * * * * * * * * * * * * * * * //

dimensions      [0 3 -1 0 0 0 0];

oriented        oriented;

internalField   nonuniform List<scalar> 
19800
(
7.04946e-11
-7.04064e-11
2.42161e-10
-1.71668e-10
4.31289e-10
-1.8913e-10
5.7981e-10
-1.485e-10
6.54416e-10
-7.45979e-11
6.36737e-10
1.76727e-11
5.1757e-10
1.19152e-10
2.9353e-10
2.24041e-10
-3.51005e-11
3.2864e-10
-4.65667e-10
4.3057e-10
-9.93951e-10
5.28279e-10
-1.61469e-09
6.20732e-10
-2.32192e-09
7.07238e-10
-3.10926e-09
7.87345e-10
-3.97002e-09
8.60763e-10
-4.89735e-09
9.27332e-10
-5.88432e-09
9.86982e-10
-6.92403e-09
1.03971e-09
-8.00958e-09
1.08555e-09
-9.13418e-09
1.12459e-09
-1.02911e-08
1.15695e-09
-1.14739e-08
1.18277e-09
-1.26761e-08
1.20219e-09
-1.38915e-08
1.2154e-09
-1.51141e-08
1.22256e-09
-1.63379e-08
1.22386e-09
-1.75574e-08
1.21949e-09
-1.87671e-08
1.20967e-09
-1.99617e-08
1.1946e-09
-2.11362e-08
1.1745e-09
-2.22858e-08
1.14956e-09
-2.34058e-08
1.12001e-09
-2.44918e-08
1.08605e-09
-2.55397e-08
1.0479e-09
-2.65455e-08
1.00576e-09
-2.75053e-08
9.59862e-10
-2.84158e-08
9.10418e-10
-2.92734e-08
8.57643e-10
-3.00752e-08
8.01759e-10
-3.08181e-08
7.42985e-10
-3.14997e-08
6.8154e-10
-3.21173e-08
6.17652e-10
-3.26689e-08
5.51545e-10
-3.31523e-08
4.83441e-10
-3.35659e-08
4.13574e-10
-3.39081e-08
3.4217e-10
-3.41775e-08
2.69459e-10
-3.43732e-08
1.95686e-10
-3.44943e-08
1.21087e-10
-3.45402e-08
4.59023e-11
-3.45106e-08
-2.96146e-11
-3.44054e-08
-1.05208e-10
-3.42247e-08
-1.80626e-10
-3.39691e-08
-2.55609e-10
-3.36392e-08
-3.29894e-10
-3.3236e-08
-4.03218e-10
-3.27607e-08
-4.75309e-10
-3.22148e-08
-5.45894e-10
-3.16001e-08
-6.14703e-10
-3.09186e-08
-6.81459e-10
-3.01728e-08
-7.45881e-10
-2.93651e-08
-8.07688e-10
-2.84985e-08
-8.666e-10
-2.75762e-08
-9.22331e-10
-2.66015e-08
-9.746e-10
-2.55784e-08
-1.02313e-09
-2.45108e-08
-1.06765e-09
-2.34029e-08
-1.10788e-09
-2.22593e-08
-1.14356e-09
-2.10849e-08
-1.17443e-09
-1.98846e-08
-1.20025e-09
-1.86639e-08
-1.22075e-09
-1.74282e-08
-1.23572e-09
-1.61832e-08
-1.24493e-09
-1.49351e-08
-1.24816e-09
-1.36899e-08
-1.24521e-09
-1.2454e-08
-1.23591e-09
-1.12339e-08
-1.22009e-09
-1.00363e-08
-1.19762e-09
-8.86789e-09
-1.16837e-09
-7.73564e-09
-1.13225e-09
-6.64644e-09
-1.08919e-09
-5.60727e-09
-1.03917e-09
-4.62508e-09
-9.82193e-10
-3.70676e-09
-9.1832e-10
-2.85909e-09
-8.47669e-10
-2.08864e-09
-7.70438e-10
-1.40174e-09
-6.86912e-10
-8.04251e-10
-5.97495e-10
-3.01481e-10
-5.02771e-10
1.02093e-10
-4.03569e-10
4.03157e-10
-3.01063e-10
6.00092e-10
-1.9694e-10
6.93781e-10
-9.36952e-11
6.8889e-10
4.89187e-12
5.95941e-10
9.29574e-11
4.34535e-10
1.61408e-10
2.38887e-10
1.95645e-10
6.70845e-11
1.718e-10
6.709e-11
1.71719e-10
-2.42126e-10
4.72087e-10
-4.72025e-10
7.60274e-10
-4.77352e-10
9.34324e-10
-3.2256e-10
9.23356e-10
-6.36236e-11
6.8195e-10
2.59097e-10
1.83591e-10
6.17504e-10
-5.84616e-10
9.92229e-10
-1.62593e-09
1.36995e-09
-2.93679e-09
1.74143e-09
-4.50876e-09
2.10028e-09
-6.33002e-09
2.44199e-09
-8.38624e-09
2.76346e-09
-1.06614e-08
3.06253e-09
-1.31384e-08
3.33773e-09
-1.57992e-08
3.58813e-09
-1.86254e-08
3.81318e-09
-2.15983e-08
4.01263e-09
-2.46992e-08
4.18646e-09
-2.79095e-08
4.33484e-09
-3.12106e-08
4.45806e-09
-3.45843e-08
4.55653e-09
-3.80129e-08
4.63076e-09
-4.14788e-08
4.68131e-09
-4.49651e-08
4.7088e-09
-4.84551e-08
4.71389e-09
-5.19329e-08
4.6973e-09
-5.5383e-08
4.65976e-09
-5.87904e-08
4.60202e-09
-6.21408e-08
4.52487e-09
-6.54203e-08
4.42909e-09
-6.86158e-08
4.31548e-09
-7.17146e-08
4.18484e-09
-7.47047e-08
4.038e-09
-7.75747e-08
3.87577e-09
-8.03138e-08
3.69897e-09
-8.29119e-08
3.50846e-09
-8.53593e-08
3.30506e-09
-8.76472e-08
3.08963e-09
-8.97672e-08
2.863e-09
-9.17117e-08
2.62605e-09
-9.34737e-08
2.37964e-09
-9.50467e-08
2.12463e-09
-9.64252e-08
1.86191e-09
-9.7604e-08
1.59237e-09
-9.85788e-08
1.31691e-09
-9.93457e-08
1.03644e-09
-9.99019e-08
7.51875e-10
-1.00245e-07
4.64167e-10
-1.00373e-07
1.74256e-10
-1.00286e-07
-1.169e-10
-9.99829e-08
-4.08315e-10
-9.94646e-08
-6.98993e-10
-9.87322e-08
-9.87937e-10
-9.7788e-08
-1.27413e-09
-9.66347e-08
-1.55653e-09
-9.52759e-08
-1.83412e-09
-9.37159e-08
-2.10585e-09
-9.196e-08
-2.37063e-09
-9.0014e-08
-2.62743e-09
-8.78848e-08
-2.87516e-09
-8.55797e-08
-3.11274e-09
-8.31072e-08
-3.33909e-09
-8.04764e-08
-3.55314e-09
-7.76972e-08
-3.75382e-09
-7.47802e-08
-3.94007e-09
-7.1737e-08
-4.11083e-09
-6.85798e-08
-4.26509e-09
-6.53215e-08
-4.40185e-09
-6.19759e-08
-4.5201e-09
-5.85572e-08
-4.61892e-09
-5.50806e-08
-4.69738e-09
-5.15617e-08
-4.75461e-09
-4.80168e-08
-4.78979e-09
-4.44629e-08
-4.80212e-09
-4.09171e-08
-4.79091e-09
-3.73975e-08
-4.75552e-09
-3.39223e-08
-4.69537e-09
-3.05099e-08
-4.60997e-09
-2.71793e-08
-4.49895e-09
-2.39495e-08
-4.36205e-09
-2.08396e-08
-4.19911e-09
-1.78686e-08
-4.01014e-09
-1.50555e-08
-3.79533e-09
-1.24187e-08
-3.55506e-09
-9.9764e-09
-3.29001e-09
-7.7457e-09
-3.00115e-09
-5.74277e-09
-2.68983e-09
-3.98227e-09
-2.35799e-09
-2.47679e-09
-2.00825e-09
-1.23616e-09
-1.64419e-09
-2.6651e-10
-1.27072e-09
4.31205e-10
-8.9466e-10
8.63057e-10
-5.25543e-10
1.04487e-09
-1.76911e-10
1.00597e-09
1.31865e-10
7.94263e-10
3.7312e-10
4.82207e-10
5.07699e-10
1.71714e-10
4.82304e-10
2.3881e-10
1.89859e-10
-4.31987e-10
4.79597e-10
-7.61723e-10
6.95979e-10
-6.93738e-10
7.16184e-10
-3.42779e-10
4.51189e-10
2.01361e-10
-1.59743e-10
8.70036e-10
-1.15465e-09
1.61242e-09
-2.554e-09
2.39158e-09
-4.36489e-09
3.18083e-09
-6.58436e-09
3.96089e-09
-9.2019e-09
4.71782e-09
-1.22014e-08
5.44152e-09
-1.55627e-08
6.12473e-09
-1.92624e-08
6.76229e-09
-2.32752e-08
7.35054e-09
-2.75741e-08
7.88703e-09
-3.21312e-08
8.37019e-09
-3.69177e-08
8.79916e-09
-4.19048e-08
9.17361e-09
-4.70636e-08
9.49363e-09
-5.23652e-08
9.75967e-09
-5.77811e-08
9.97244e-09
-6.32832e-08
1.01329e-08
-6.8844e-08
1.02421e-08
-7.44365e-08
1.03013e-08
-8.00344e-08
1.03118e-08
-8.56124e-08
1.02753e-08
-9.11457e-08
1.0193e-08
-9.66104e-08
1.00667e-08
-1.01984e-07
9.89806e-09
-1.07243e-07
9.68866e-09
-1.12368e-07
9.44026e-09
-1.17338e-07
9.15461e-09
-1.22133e-07
8.83345e-09
-1.26736e-07
8.4786e-09
-1.31129e-07
8.09184e-09
-1.35295e-07
7.67499e-09
-1.3922e-07
7.2299e-09
-1.42889e-07
6.75841e-09
-1.46288e-07
6.2624e-09
-1.49406e-07
5.74374e-09
-1.52231e-07
5.20434e-09
-1.54752e-07
4.64611e-09
-1.56961e-07
4.07099e-09
-1.5885e-07
3.48095e-09
-1.60411e-07
2.87795e-09
-1.61639e-07
2.26402e-09
-1.62528e-07
1.64118e-09
-1.63075e-07
1.0115e-09
-1.63278e-07
3.77057e-10
-1.63135e-07
-2.60023e-10
-1.62646e-07
-8.97599e-10
-1.61811e-07
-1.53349e-09
-1.60634e-07
-2.16548e-09
-1.59116e-07
-2.79137e-09
-1.57264e-07
-3.40887e-09
-1.55082e-07
-4.01573e-09
-1.52579e-07
-4.60964e-09
-1.49761e-07
-5.1883e-09
-1.46639e-07
-5.74935e-09
-1.43224e-07
-6.29047e-09
-1.39527e-07
-6.80931e-09
-1.35563e-07
-7.30353e-09
-1.31345e-07
-7.77078e-09
-1.2689e-07
-8.20875e-09
-1.22215e-07
-8.61514e-09
-1.17338e-07
-8.98769e-09
-1.12279e-07
-9.32418e-09
-1.07058e-07
-9.62243e-09
-1.01698e-07
-9.88034e-09
-9.62212e-08
-1.00959e-08
-9.06516e-08
-1.02671e-08
-8.50141e-08
-1.03921e-08
-7.93348e-08
-1.04691e-08
-7.36403e-08
-1.04966e-08
-6.79582e-08
-1.0473e-08
-6.23166e-08
-1.03971e-08
-5.67444e-08
-1.02676e-08
-5.12707e-08
-1.00837e-08
-4.59251e-08
-9.84456e-09
-4.07373e-08
-9.54981e-09
-3.57371e-08
-9.1993e-09
-3.0954e-08
-8.79321e-09
-2.64172e-08
-8.33218e-09
-2.21549e-08
-7.81731e-09
-1.81946e-08
-7.25031e-09
-1.45621e-08
-6.63363e-09
-1.12813e-08
-5.97064e-09
-8.37341e-09
-5.26592e-09
-5.85609e-09
-4.52558e-09
-3.7425e-09
-3.75778e-09
-2.03977e-09
-2.97345e-09
-7.47157e-10
-2.18728e-09
1.46402e-10
-1.4191e-09
6.65391e-10
-6.95902e-10
8.51689e-10
-5.44299e-11
7.69349e-10
4.55467e-10
5.09677e-10
7.67375e-10
1.96138e-10
7.95852e-10
4.34952e-10
1.50887e-10
-5.82895e-10
3.29781e-10
-9.40591e-10
3.53851e-10
-7.17793e-10
9.21278e-11
-8.10588e-11
-5.51593e-10
8.45061e-10
-1.64492e-09
1.96335e-09
-3.23182e-09
3.19932e-09
-5.33715e-09
4.49691e-09
-7.97046e-09
5.81416e-09
-1.11293e-08
7.11974e-09
-1.48018e-08
8.39032e-09
-1.89689e-08
9.60856e-09
-2.36057e-08
1.07616e-08
-2.86836e-08
1.18401e-08
-3.41704e-08
1.28373e-08
-4.00317e-08
1.37484e-08
-4.62318e-08
1.45702e-08
-5.27334e-08
1.53008e-08
-5.94991e-08
1.59393e-08
-6.64909e-08
1.64854e-08
-7.3671e-08
1.69397e-08
-8.10016e-08
1.7303e-08
-8.84455e-08
1.75768e-08
-9.59662e-08
1.77628e-08
-1.03528e-07
1.78629e-08
-1.11095e-07
1.78793e-08
-1.18634e-07
1.78145e-08
-1.26112e-07
1.76709e-08
-1.33497e-07
1.74513e-08
-1.40757e-07
1.71584e-08
-1.47864e-07
1.67951e-08
-1.54788e-07
1.63643e-08
-1.61502e-07
1.58689e-08
-1.67981e-07
1.5312e-08
-1.74199e-07
1.46967e-08
-1.80133e-07
1.4026e-08
-1.85761e-07
1.33032e-08
-1.91063e-07
1.25313e-08
-1.96018e-07
1.17137e-08
-2.00609e-07
1.08534e-08
-2.04819e-07
9.95392e-09
-2.08633e-07
9.01843e-09
-2.12037e-07
8.05028e-09
-2.15019e-07
7.05285e-09
-2.17568e-07
6.02956e-09
-2.19674e-07
4.98386e-09
-2.21329e-07
3.91924e-09
-2.22527e-07
2.83925e-09
-2.23263e-07
1.74746e-09
-2.23533e-07
6.4752e-10
-2.23337e-07
-4.56892e-10
-2.22672e-07
-1.56204e-09
-2.21541e-07
-2.66416e-09
-2.19948e-07
-3.7594e-09
-2.17895e-07
-4.84391e-09
-2.1539e-07
-5.91377e-09
-2.12441e-07
-6.96503e-09
-2.09057e-07
-7.99372e-09
-2.05249e-07
-8.99582e-09
-2.01031e-07
-9.96731e-09
-1.96418e-07
-1.09041e-08
-1.91425e-07
-1.18023e-08
-1.8607e-07
-1.26576e-08
-1.80375e-07
-1.34663e-08
-1.7436e-07
-1.42241e-08
-1.68048e-07
-1.49273e-08
-1.61463e-07
-1.55719e-08
-1.54633e-07
-1.61541e-08
-1.47586e-07
-1.66702e-08
-1.4035e-07
-1.71166e-08
-1.32956e-07
-1.74898e-08
-1.25436e-07
-1.77866e-08
-1.17824e-07
-1.80037e-08
-1.10155e-07
-1.81383e-08
-1.02464e-07
-1.81877e-08
-9.47878e-08
-1.81493e-08
-8.71638e-08
-1.8021e-08
-7.96304e-08
-1.78011e-08
-7.22262e-08
-1.74879e-08
-6.49902e-08
-1.70805e-08
-5.79617e-08
-1.65783e-08
-5.11797e-08
-1.59813e-08
-4.46829e-08
-1.52901e-08
-3.8509e-08
-1.45061e-08
-3.26948e-08
-1.36315e-08
-2.72755e-08
-1.26696e-08
-2.2284e-08
-1.16252e-08
-1.77502e-08
-1.05044e-08
-1.37006e-08
-9.31552e-09
-1.01567e-08
-8.0695e-09
-7.13394e-09
-6.78057e-09
-4.63997e-09
-5.46741e-09
-2.67277e-09
-4.15448e-09
-1.21796e-09
-2.87391e-09
-2.45847e-10
-1.66801e-09
2.92179e-10
-5.92449e-10
4.67884e-10
2.79769e-10
3.80702e-10
8.54557e-10
1.63609e-10
1.01295e-09
5.98562e-10
7.94551e-11
-6.62363e-10
7.79881e-11
-9.39128e-10
-1.77845e-10
-4.61945e-10
-8.16323e-10
5.57439e-10
-1.93308e-09
1.96181e-09
-3.59649e-09
3.62676e-09
-5.85193e-09
5.45476e-09
-8.72554e-09
7.3705e-09
-1.22275e-08
9.31613e-09
-1.63551e-08
1.12473e-08
-2.10949e-08
1.31301e-08
-2.64252e-08
1.49389e-08
-3.23178e-08
1.66542e-08
-3.8739e-08
1.82614e-08
-4.56515e-08
1.97498e-08
-5.30147e-08
2.11116e-08
-6.0786e-08
2.23415e-08
-6.89213e-08
2.34361e-08
-7.73753e-08
2.43933e-08
-8.61023e-08
2.52125e-08
-9.50566e-08
2.58939e-08
-1.04192e-07
2.64388e-08
-1.13464e-07
2.68487e-08
-1.22828e-07
2.71262e-08
-1.32239e-07
2.72739e-08
-1.41654e-07
2.72949e-08
-1.51033e-07
2.71928e-08
-1.60333e-07
2.69712e-08
-1.69516e-07
2.66342e-08
-1.78543e-07
2.61857e-08
-1.87378e-07
2.563e-08
-1.95985e-07
2.49716e-08
-2.04331e-07
2.42148e-08
-2.12383e-07
2.33643e-08
-2.20111e-07
2.24247e-08
-2.27486e-07
2.14007e-08
-2.3448e-07
2.02971e-08
-2.41067e-07
1.91187e-08
-2.47224e-07
1.78704e-08
-2.52928e-07
1.65572e-08
-2.58158e-07
1.5184e-08
-2.62896e-07
1.3756e-08
-2.67123e-07
1.22781e-08
-2.70826e-07
1.07555e-08
-2.7399e-07
9.19359e-09
-2.76604e-07
7.59752e-09
-2.78657e-07
5.97266e-09
-2.80142e-07
4.32443e-09
-2.81053e-07
2.65833e-09
-2.81386e-07
9.79915e-10
-2.81137e-07
-7.05189e-10
-2.80308e-07
-2.39127e-09
-2.789e-07
-4.07255e-09
-2.76916e-07
-5.74319e-09
-2.74363e-07
-7.39729e-09
-2.71247e-07
-9.02887e-09
-2.67581e-07
-1.06319e-08
-2.63374e-07
-1.22004e-08
-2.58642e-07
-1.37281e-08
-2.534e-07
-1.52091e-08
-2.47667e-07
-1.6637e-08
-2.41463e-07
-1.80058e-08
-2.34812e-07
-1.93094e-08
-2.27736e-07
-2.05417e-08
-2.20264e-07
-2.16966e-08
-2.12423e-07
-2.27682e-08
-2.04244e-07
-2.37505e-08
-1.9576e-07
-2.4638e-08
-1.87005e-07
-2.54249e-08
-1.78016e-07
-2.61059e-08
-1.6883e-07
-2.66758e-08
-1.59487e-07
-2.71297e-08
-1.50028e-07
-2.74628e-08
-1.40495e-07
-2.76708e-08
-1.30933e-07
-2.77498e-08
-1.21386e-07
-2.76961e-08
-1.11901e-07
-2.75067e-08
-1.02523e-07
-2.71789e-08
-9.32999e-08
-2.67107e-08
-8.42796e-08
-2.61008e-08
-7.55092e-08
-2.53487e-08
-6.7036e-08
-2.44545e-08
-5.89065e-08
-2.34195e-08
-5.11662e-08
-2.22464e-08
-4.3859e-08
-2.09387e-08
-3.70264e-08
-1.95022e-08
-3.07074e-08
-1.79442e-08
-2.49372e-08
-1.62746e-08
-1.97463e-08
-1.45064e-08
-1.51594e-08
-1.26564e-08
-1.1194e-08
-1.0746e-08
-7.85864e-09
-8.80275e-09
-5.15101e-09
-6.86212e-09
-3.05541e-09
-4.96952e-09
-1.54014e-09
-3.18327e-09
-5.54429e-10
-1.57815e-09
-2.48396e-11
-2.49818e-10
1.4868e-10
6.81038e-10
9.80744e-11
1.06355e-09
6.96637e-10
-9.90627e-12
-6.52449e-10
-2.36708e-10
-7.12337e-10
-8.33241e-10
1.34576e-10
-1.91685e-09
1.64106e-09
-3.57656e-09
3.62153e-09
-5.87682e-09
5.92701e-09
-8.8607e-09
8.43864e-09
-1.25529e-08
1.10627e-08
-1.69622e-08
1.37255e-08
-2.20845e-08
1.63696e-08
-2.79044e-08
1.895e-08
-3.43976e-08
2.14321e-08
-4.15323e-08
2.37889e-08
-4.9271e-08
2.60001e-08
-5.75715e-08
2.80503e-08
-6.63881e-08
2.99282e-08
-7.56722e-08
3.16257e-08
-8.53736e-08
3.31374e-08
-9.54405e-08
3.44602e-08
-1.0582e-07
3.55923e-08
-1.1646e-07
3.65339e-08
-1.27307e-07
3.7286e-08
-1.38309e-07
3.78507e-08
-1.49414e-07
3.82309e-08
-1.6057e-07
3.84302e-08
-1.71728e-07
3.84527e-08
-1.82839e-07
3.83032e-08
-1.93854e-07
3.79865e-08
-2.04728e-07
3.7508e-08
-2.15415e-07
3.68733e-08
-2.25874e-07
3.60884e-08
-2.36061e-07
3.51592e-08
-2.45938e-07
3.40919e-08
-2.55467e-07
3.28929e-08
-2.64611e-07
3.15687e-08
-2.73336e-07
3.01259e-08
-2.8161e-07
2.8571e-08
-2.89403e-07
2.69111e-08
-2.96685e-07
2.51528e-08
-3.03431e-07
2.33031e-08
-3.09616e-07
2.13691e-08
-3.15218e-07
1.93579e-08
-3.20216e-07
1.72766e-08
-3.24593e-07
1.51326e-08
-3.28333e-07
1.29332e-08
-3.31421e-07
1.06859e-08
-3.33847e-07
8.39812e-09
-3.356e-07
6.07764e-09
-3.36674e-07
3.73216e-09
-3.37063e-07
1.36951e-09
-3.36766e-07
-1.00237e-09
-3.35782e-07
-3.37544e-09
-3.34113e-07
-5.74157e-09
-3.31764e-07
-8.09253e-09
-3.28741e-07
-1.042e-08
-3.25054e-07
-1.27156e-08
-3.20715e-07
-1.49709e-08
-3.15738e-07
-1.71774e-08
-3.1014e-07
-1.93264e-08
-3.03939e-07
-2.14095e-08
-2.97159e-07
-2.34179e-08
-2.89821e-07
-2.53431e-08
-2.81954e-07
-2.71765e-08
-2.73586e-07
-2.89096e-08
-2.64749e-07
-3.0534e-08
-2.55476e-07
-3.20413e-08
-2.45803e-07
-3.34235e-08
-2.35769e-07
-3.46724e-08
-2.25413e-07
-3.57805e-08
-2.14779e-07
-3.67401e-08
-2.03911e-07
-3.75441e-08
-1.92855e-07
-3.81856e-08
-1.81659e-07
-3.86583e-08
-1.70374e-07
-3.89563e-08
-1.59049e-07
-3.9074e-08
-1.47739e-07
-3.90067e-08
-1.36495e-07
-3.87502e-08
-1.25373e-07
-3.83011e-08
-1.14427e-07
-3.7657e-08
-1.03712e-07
-3.68161e-08
-9.32824e-08
-3.5778e-08
-8.31933e-08
-3.45435e-08
-7.3498e-08
-3.31148e-08
-6.42485e-08
-3.14958e-08
-5.54949e-08
-2.96923e-08
-4.72846e-08
-2.77125e-08
-3.96616e-08
-2.55672e-08
-3.26655e-08
-2.32707e-08
-2.63306e-08
-2.08413e-08
-2.06847e-08
-1.83023e-08
-1.57475e-08
-1.56832e-08
-1.1529e-08
-1.30212e-08
-8.02797e-09
-1.03632e-08
-5.2293e-09
-7.76819e-09
-3.10214e-09
-5.31041e-09
-1.59723e-09
-3.08307e-09
-6.44068e-10
-1.20298e-09
-1.47943e-10
1.84914e-10
1.39461e-11
9.01659e-10
7.10586e-10
-1.08523e-10
-5.43914e-10
-5.87921e-10
-2.3293e-10
-1.56508e-09
1.11173e-09
-3.14105e-09
3.21702e-09
-5.39378e-09
5.87427e-09
-8.38015e-09
8.91338e-09
-1.21379e-08
1.21964e-08
-1.66878e-08
1.56126e-08
-2.20358e-08
1.90734e-08
-2.81746e-08
2.25085e-08
-3.50864e-08
2.58618e-08
-4.27435e-08
2.90892e-08
-5.11111e-08
3.21564e-08
-6.01476e-08
3.50366e-08
-6.98066e-08
3.77093e-08
-8.00375e-08
4.01591e-08
-9.07869e-08
4.23751e-08
-1.01999e-07
4.43493e-08
-1.13616e-07
4.60771e-08
-1.25579e-07
4.75557e-08
-1.3783e-07
4.87846e-08
-1.50309e-07
4.97648e-08
-1.62956e-07
5.04986e-08
-1.75715e-07
5.09895e-08
-1.88527e-07
5.12418e-08
-2.01335e-07
5.12607e-08
-2.14084e-07
5.10522e-08
-2.2672e-07
5.06226e-08
-2.39191e-07
4.99787e-08
-2.51445e-07
4.91279e-08
-2.63434e-07
4.80777e-08
-2.75111e-07
4.68362e-08
-2.86431e-07
4.54113e-08
-2.97349e-07
4.38115e-08
-3.07826e-07
4.20453e-08
-3.17821e-07
4.01214e-08
-3.27299e-07
3.80487e-08
-3.36224e-07
3.58362e-08
-3.44564e-07
3.34929e-08
-3.52289e-07
3.10281e-08
-3.59372e-07
2.84512e-08
-3.65785e-07
2.57716e-08
-3.71507e-07
2.29988e-08
-3.76518e-07
2.01427e-08
-3.80797e-07
1.7213e-08
-3.84331e-07
1.42196e-08
-3.87106e-07
1.11726e-08
-3.8911e-07
8.08218e-09
-3.90337e-07
4.95868e-09
-3.9078e-07
1.81253e-09
-3.90436e-07
-1.34569e-09
-3.89306e-07
-4.50527e-09
-3.87393e-07
-7.65541e-09
-3.847e-07
-1.07851e-08
-3.81237e-07
-1.38834e-08
-3.77013e-07
-1.69391e-08
-3.72043e-07
-1.99409e-08
-3.66343e-07
-2.28776e-08
-3.59932e-07
-2.57377e-08
-3.52831e-07
-2.85099e-08
-3.45066e-07
-3.11828e-08
-3.36664e-07
-3.3745e-08
-3.27656e-07
-3.61851e-08
-3.18074e-07
-3.84918e-08
-3.07953e-07
-4.06542e-08
-2.97334e-07
-4.26611e-08
-2.86255e-07
-4.45018e-08
-2.74762e-07
-4.61659e-08
-2.62899e-07
-4.76432e-08
-2.50715e-07
-4.89237e-08
-2.38261e-07
-4.99982e-08
-2.25589e-07
-5.08576e-08
-2.12754e-07
-5.14938e-08
-1.99811e-07
-5.1899e-08
-1.86819e-07
-5.20661e-08
-1.73837e-07
-5.19891e-08
-1.60924e-07
-5.16627e-08
-1.48143e-07
-5.10827e-08
-1.35554e-07
-5.0246e-08
-1.23219e-07
-4.91509e-08
-1.112e-07
-4.77971e-08
-9.9557e-08
-4.61862e-08
-8.83505e-08
-4.43213e-08
-7.76381e-08
-4.22083e-08
-6.74753e-08
-3.98551e-08
-5.79147e-08
-3.72731e-08
-4.90049e-08
-3.4477e-08
-4.07897e-08
-3.14859e-08
-3.3307e-08
-2.8324e-08
-2.65877e-08
-2.50216e-08
-2.06543e-08
-2.16167e-08
-1.55191e-08
-1.81563e-08
-1.11832e-08
-1.46991e-08
-7.634e-09
-1.13174e-08
-4.84392e-09
-8.10049e-09
-2.76816e-09
-5.15883e-09
-1.34279e-09
-2.62834e-09
-4.82815e-10
-6.75066e-10
-8.00424e-11
4.98882e-10
6.30548e-10
-2.1114e-10
-3.32773e-10
-9.582e-10
5.14146e-10
-2.34043e-09
2.49396e-09
-4.43958e-09
5.31615e-09
-7.31955e-09
8.75423e-09
-1.10269e-08
1.26207e-08
-1.55916e-08
1.67611e-08
-2.10286e-08
2.10496e-08
-2.7339e-08
2.53838e-08
-3.45117e-08
2.96812e-08
-4.2525e-08
3.3875e-08
-5.13478e-08
3.7912e-08
-6.09413e-08
4.175e-08
-7.12605e-08
4.53557e-08
-8.22545e-08
4.87033e-08
-9.38685e-08
5.17732e-08
-1.06044e-07
5.45508e-08
-1.18721e-07
5.70259e-08
-1.31835e-07
5.91917e-08
-1.45324e-07
6.10444e-08
-1.59122e-07
6.25827e-08
-1.73165e-07
6.38073e-08
-1.87387e-07
6.47207e-08
-2.01724e-07
6.53269e-08
-2.16114e-07
6.5631e-08
-2.30492e-07
6.56393e-08
-2.44799e-07
6.53588e-08
-2.58974e-07
6.47976e-08
-2.72959e-07
6.3964e-08
-2.86698e-07
6.28672e-08
-3.00137e-07
6.15167e-08
-3.13224e-07
5.99224e-08
-3.25907e-07
5.80945e-08
-3.38139e-07
5.60437e-08
-3.49875e-07
5.37807e-08
-3.6107e-07
5.13165e-08
-3.71683e-07
4.86625e-08
-3.81677e-07
4.58301e-08
-3.91015e-07
4.28308e-08
-3.99663e-07
3.96764e-08
-4.07591e-07
3.63789e-08
-4.1477e-07
3.29504e-08
-4.21174e-07
2.9403e-08
-4.26781e-07
2.57493e-08
-4.31569e-07
2.20017e-08
-4.35523e-07
1.81729e-08
-4.38626e-07
1.42758e-08
-4.40867e-07
1.03235e-08
-4.42238e-07
6.32917e-09
-4.42731e-07
2.3061e-09
-4.42345e-07
-1.73217e-09
-4.41078e-07
-5.77194e-09
-4.38934e-07
-9.79939e-09
-4.35919e-07
-1.38006e-08
-4.32041e-07
-1.77613e-08
-4.27313e-07
-2.16675e-08
-4.21749e-07
-2.55047e-08
-4.15368e-07
-2.92585e-08
-4.08191e-07
-3.29144e-08
-4.00243e-07
-3.6458e-08
-3.91551e-07
-3.98747e-08
-3.82146e-07
-4.315e-08
-3.72062e-07
-4.62695e-08
-3.61335e-07
-4.9219e-08
-3.50005e-07
-5.19844e-08
-3.38114e-07
-5.45517e-08
-3.25709e-07
-5.69073e-08
-3.12837e-07
-5.90379e-08
-2.99549e-07
-6.09308e-08
-2.85899e-07
-6.25734e-08
-2.71943e-07
-6.39541e-08
-2.57739e-07
-6.50616e-08
-2.43348e-07
-6.58855e-08
-2.2883e-07
-6.64163e-08
-2.14251e-07
-6.66452e-08
-1.99676e-07
-6.65647e-08
-1.8517e-07
-6.61684e-08
-1.70801e-07
-6.54513e-08
-1.56637e-07
-6.44099e-08
-1.42746e-07
-6.30423e-08
-1.29194e-07
-6.13486e-08
-1.1605e-07
-5.93311e-08
-1.03376e-07
-5.69945e-08
-9.12382e-08
-5.43464e-08
-7.96957e-08
-5.13976e-08
-6.88061e-08
-4.81627e-08
-5.86225e-08
-4.46607e-08
-4.91926e-08
-4.09158e-08
-4.05582e-08
-3.69584e-08
-3.27535e-08
-3.28263e-08
-2.58043e-08
-2.85659e-08
-1.97263e-08
-2.42343e-08
-1.45242e-08
-1.99013e-08
-1.01896e-08
-1.5652e-08
-6.70004e-09
-1.159e-08
-4.01768e-09
-7.84118e-09
-2.08786e-09
-4.55817e-09
-8.38279e-10
-1.92465e-09
-1.78518e-10
-1.60881e-10
4.52032e-10
-3.14618e-10
-1.81606e-11
-1.33622e-09
1.53576e-09
-3.1368e-09
4.29455e-09
-5.77752e-09
7.95687e-09
-9.30645e-09
1.22832e-08
-1.37579e-08
1.70721e-08
-1.91524e-08
2.21556e-08
-2.54972e-08
2.73944e-08
-3.27874e-08
3.2674e-08
-4.10066e-08
3.79004e-08
-5.01286e-08
4.2997e-08
-6.01181e-08
4.79016e-08
-7.09323e-08
5.25643e-08
-8.25219e-08
5.69453e-08
-9.48321e-08
6.10135e-08
-1.07804e-07
6.47447e-08
-1.21374e-07
6.8121e-08
-1.35477e-07
7.11292e-08
-1.50046e-07
7.37605e-08
-1.65011e-07
7.60098e-08
-1.80304e-07
7.78749e-08
-1.95852e-07
7.93561e-08
-2.11588e-07
8.0456e-08
-2.2744e-07
8.11791e-08
-2.4334e-07
8.15311e-08
-2.5922e-07
8.15196e-08
-2.75014e-07
8.11529e-08
-2.90657e-07
8.04404e-08
-3.06086e-07
7.93924e-08
-3.21238e-07
7.80198e-08
-3.36056e-07
7.63342e-08
-3.50481e-07
7.43477e-08
-3.64459e-07
7.20728e-08
-3.77938e-07
6.95224e-08
-3.90867e-07
6.67098e-08
-4.03199e-07
6.36487e-08
-4.14889e-07
6.03528e-08
-4.25896e-07
5.68362e-08
-4.36178e-07
5.31133e-08
-4.457e-07
4.91986e-08
-4.54428e-07
4.51068e-08
-4.62331e-07
4.08531e-08
-4.6938e-07
3.64524e-08
-4.75551e-07
3.19201e-08
-4.80821e-07
2.72718e-08
-4.85172e-07
2.25232e-08
-4.88586e-07
1.76904e-08
-4.91052e-07
1.27893e-08
-4.92559e-07
7.83637e-09
-4.93101e-07
2.84815e-09
-4.92675e-07
-2.15862e-09
-4.9128e-07
-7.16702e-09
-4.88919e-07
-1.21599e-08
-4.85599e-07
-1.712e-08
-4.81331e-07
-2.20299e-08
-4.76126e-07
-2.6872e-08
-4.70002e-07
-3.16285e-08
-4.62979e-07
-3.62817e-08
-4.5508e-07
-4.08137e-08
-4.46331e-07
-4.52065e-08
-4.36764e-07
-4.94423e-08
-4.26411e-07
-5.35032e-08
-4.15309e-07
-5.73715e-08
-4.03498e-07
-6.10296e-08
-3.91022e-07
-6.44602e-08
-3.77928e-07
-6.76461e-08
-3.64264e-07
-7.05708e-08
-3.50084e-07
-7.32178e-08
-3.35444e-07
-7.55714e-08
-3.204e-07
-7.76166e-08
-3.05016e-07
-7.93389e-08
-2.89353e-07
-8.07247e-08
-2.73477e-07
-8.17613e-08
-2.57456e-07
-8.24372e-08
-2.41359e-07
-8.27419e-08
-2.25257e-07
-8.26664e-08
-2.09223e-07
-8.22032e-08
-1.93328e-07
-8.13463e-08
-1.77646e-07
-8.00918e-08
-1.6225e-07
-7.84379e-08
-1.47214e-07
-7.6385e-08
-1.32609e-07
-7.39363e-08
-1.18505e-07
-7.10982e-08
-1.04971e-07
-6.78804e-08
-9.20721e-08
-6.42964e-08
-7.98702e-08
-6.03646e-08
-6.84225e-08
-5.61083e-08
-5.77811e-08
-5.15572e-08
-4.79914e-08
-4.67481e-08
-3.90918e-08
-4.17259e-08
-3.1112e-08
-3.65457e-08
-2.40719e-08
-3.12743e-08
-1.7981e-08
-2.59923e-08
-1.28364e-08
-2.07966e-08
-8.62261e-09
-1.58038e-08
-5.31044e-09
-1.11534e-08
-2.8564e-09
-7.01222e-09
-1.20275e-09
-3.57829e-09
-2.78245e-10
-1.08539e-09
1.73786e-10
-4.17124e-10
3.98956e-10
-1.71474e-09
2.83338e-09
-3.93906e-09
6.51888e-09
-7.13052e-09
1.11483e-08
-1.13205e-08
1.64732e-08
-1.653e-08
2.22816e-08
-2.27685e-08
2.83942e-08
-3.00347e-08
3.46606e-08
-3.83161e-08
4.09555e-08
-4.75904e-08
4.71747e-08
-5.78257e-08
5.32323e-08
-6.89821e-08
5.90579e-08
-8.10121e-08
6.45943e-08
-9.38621e-08
6.97953e-08
-1.07473e-07
7.46244e-08
-1.21781e-07
7.9053e-08
-1.3672e-07
8.30595e-08
-1.52218e-07
8.66279e-08
-1.68205e-07
8.97474e-08
-1.84607e-07
9.24113e-08
-2.01348e-07
9.46164e-08
-2.18355e-07
9.63626e-08
-2.35551e-07
9.76526e-08
-2.52863e-07
9.84912e-08
-2.70217e-07
9.88851e-08
-2.87541e-07
9.88427e-08
-3.04761e-07
9.83738e-08
-3.21811e-07
9.74895e-08
-3.3862e-07
9.62016e-08
-3.55123e-07
9.45233e-08
-3.71257e-07
9.24682e-08
-3.8696e-07
9.00507e-08
-4.02173e-07
8.72858e-08
-4.1684e-07
8.41888e-08
-4.30906e-07
8.07758e-08
-4.4432e-07
7.7063e-08
-4.57034e-07
7.3067e-08
-4.69003e-07
6.88048e-08
-4.80184e-07
6.42937e-08
-4.90536e-07
5.95512e-08
-5.00024e-07
5.45951e-08
-5.08615e-07
4.94435e-08
-5.16277e-07
4.41146e-08
-5.22984e-07
3.8627e-08
-5.28712e-07
3.29995e-08
-5.3344e-07
2.72511e-08
-5.3715e-07
2.1401e-08
-5.3983e-07
1.54689e-08
-5.41468e-07
9.47435e-09
-5.42057e-07
3.43743e-09
-5.41594e-07
-2.62165e-09
-5.40079e-07
-8.68246e-09
-5.37514e-07
-1.47243e-08
-5.33908e-07
-2.07263e-08
-5.2927e-07
-2.66675e-08
-5.23616e-07
-3.25266e-08
-5.16962e-07
-3.82822e-08
-5.09331e-07
-4.39129e-08
-5.00747e-07
-4.93972e-08
-4.9124e-07
-5.47134e-08
-4.80843e-07
-5.98402e-08
-4.6959e-07
-6.47559e-08
-4.57522e-07
-6.94393e-08
-4.44683e-07
-7.38692e-08
-4.31118e-07
-7.80249e-08
-4.16878e-07
-8.18858e-08
-4.02017e-07
-8.54319e-08
-3.86591e-07
-8.86437e-08
-3.7066e-07
-9.15025e-08
-3.54287e-07
-9.399e-08
-3.37536e-07
-9.60893e-08
-3.20477e-07
-9.7784e-08
-3.03179e-07
-9.90592e-08
-2.85715e-07
-9.99011e-08
-2.6816e-07
-1.00297e-07
-2.50588e-07
-1.00238e-07
-2.33079e-07
-9.9713e-08
-2.15708e-07
-9.87167e-08
-1.98556e-07
-9.72444e-08
-1.81699e-07
-9.52942e-08
-1.65217e-07
-9.28672e-08
-1.49186e-07
-8.99676e-08
-1.33681e-07
-8.66032e-08
-1.18775e-07
-8.27862e-08
-1.04538e-07
-7.8533e-08
-9.10371e-08
-7.38658e-08
-7.8333e-08
-6.88124e-08
-6.64823e-08
-6.3408e-08
-5.55349e-08
-5.76955e-08
-4.55334e-08
-5.17273e-08
-3.65123e-08
-4.55669e-08
-2.84966e-08
-3.929e-08
-2.15013e-08
-3.29875e-08
-1.55307e-08
-2.67672e-08
-1.05772e-08
-2.07572e-08
-6.62167e-09
-1.51089e-08
-3.63294e-09
-1.0001e-08
-1.56878e-09
-5.64245e-09
-3.77306e-10
-2.27686e-09
-2.03521e-10
-5.17632e-10
9.16592e-10
-2.08927e-09
4.405e-09
-4.73731e-09
9.16692e-09
-8.48206e-09
1.48931e-08
-1.33381e-08
2.13292e-08
-1.93122e-08
2.82557e-08
-2.64024e-08
3.54844e-08
-3.45974e-08
4.28556e-08
-4.38767e-08
5.02347e-08
-5.42107e-08
5.75087e-08
-6.55616e-08
6.45832e-08
-7.78837e-08
7.13801e-08
-9.11248e-08
7.78354e-08
-1.05226e-07
8.38969e-08
-1.20125e-07
8.95229e-08
-1.35753e-07
9.46805e-08
-1.52038e-07
9.93445e-08
-1.68906e-07
1.03496e-07
-1.86281e-07
1.07122e-07
-2.04084e-07
1.10215e-07
-2.22237e-07
1.12769e-07
-2.4066e-07
1.14786e-07
-2.59274e-07
1.16267e-07
-2.78e-07
1.17217e-07
-2.96759e-07
1.17644e-07
-3.15475e-07
1.17558e-07
-3.34071e-07
1.1697e-07
-3.52473e-07
1.15892e-07
-3.7061e-07
1.14338e-07
-3.8841e-07
1.12324e-07
-4.05807e-07
1.09865e-07
-4.22735e-07
1.06978e-07
-4.3913e-07
1.03681e-07
-4.54933e-07
9.99918e-08
-4.70086e-07
9.59288e-08
-4.84535e-07
9.15115e-08
-4.98227e-07
8.67594e-08
-5.11115e-07
8.16925e-08
-5.23152e-07
7.63313e-08
-5.34297e-07
7.06964e-08
-5.44511e-07
6.48089e-08
-5.53758e-07
5.869e-08
-5.62005e-07
5.23616e-08
-5.69223e-07
4.58455e-08
-5.75388e-07
3.9164e-08
-5.80476e-07
3.23396e-08
-5.8447e-07
2.53951e-08
-5.87355e-07
1.83536e-08
-5.89119e-07
1.12385e-08
-5.89755e-07
4.07341e-09
-5.89259e-07
-3.11764e-09
-5.87631e-07
-1.03105e-08
-5.84875e-07
-1.74807e-08
-5.80997e-07
-2.46036e-08
-5.76011e-07
-3.16542e-08
-5.6993e-07
-3.86075e-08
-5.62774e-07
-4.54383e-08
-5.54566e-07
-5.21211e-08
-5.45332e-07
-5.86306e-08
-5.35104e-07
-6.49413e-08
-5.23917e-07
-7.10277e-08
-5.11808e-07
-7.68647e-08
-4.9882e-07
-8.2427e-08
-4.85e-07
-8.76897e-08
-4.70396e-07
-9.26284e-08
-4.55063e-07
-9.72189e-08
-4.39057e-07
-1.01438e-07
-4.22439e-07
-1.05262e-07
-4.05272e-07
-1.0867e-07
-3.87623e-07
-1.11639e-07
-3.69561e-07
-1.14151e-07
-3.51159e-07
-1.16186e-07
-3.32492e-07
-1.17726e-07
-3.13637e-07
-1.18756e-07
-2.94673e-07
-1.19262e-07
-2.7568e-07
-1.19231e-07
-2.5674e-07
-1.18653e-07
-2.37936e-07
-1.1752e-07
-2.19352e-07
-1.15829e-07
-2.01071e-07
-1.13576e-07
-1.83174e-07
-1.10764e-07
-1.65745e-07
-1.07397e-07
-1.48862e-07
-1.03486e-07
-1.32603e-07
-9.90448e-08
-1.17043e-07
-9.40928e-08
-1.02253e-07
-8.8656e-08
-8.82986e-08
-8.27669e-08
-7.52407e-08
-7.64659e-08
-6.3134e-08
-6.98022e-08
-5.2026e-08
-6.28353e-08
-4.19564e-08
-5.56364e-08
-3.29563e-08
-4.82901e-08
-2.50473e-08
-4.08965e-08
-1.82412e-08
-3.35733e-08
-1.25398e-08
-2.64587e-08
-7.93448e-09
-1.97142e-08
-4.4073e-09
-1.35282e-08
-1.93169e-09
-8.11806e-09
-4.746e-10
-3.73395e-09
-6.7812e-10
-6.156e-10
1.53221e-09
-2.45714e-09
6.24653e-09
-5.52528e-09
1.22351e-08
-9.8212e-09
1.9189e-08
-1.53429e-08
2.68508e-08
-2.20829e-08
3.49957e-08
-3.00271e-08
4.34285e-08
-3.91537e-08
5.19823e-08
-4.94334e-08
6.05144e-08
-6.08287e-08
6.8904e-08
-7.32951e-08
7.70495e-08
-8.67809e-08
8.48659e-08
-1.01228e-07
9.22827e-08
-1.16574e-07
9.92423e-08
-1.32749e-07
1.05698e-07
-1.49681e-07
1.11613e-07
-1.67294e-07
1.16958e-07
-1.8551e-07
1.21712e-07
-2.04248e-07
1.2586e-07
-2.23425e-07
1.29392e-07
-2.42959e-07
1.32303e-07
-2.62764e-07
1.34592e-07
-2.82759e-07
1.36261e-07
-3.02859e-07
1.37317e-07
-3.22982e-07
1.37767e-07
-3.43047e-07
1.37623e-07
-3.62973e-07
1.36896e-07
-3.82684e-07
1.35602e-07
-4.02101e-07
1.33756e-07
-4.21153e-07
1.31375e-07
-4.39766e-07
1.28478e-07
-4.57872e-07
1.25084e-07
-4.75404e-07
1.21213e-07
-4.92299e-07
1.16887e-07
-5.08496e-07
1.12126e-07
-5.23937e-07
1.06953e-07
-5.38568e-07
1.0139e-07
-5.52337e-07
9.54615e-08
-5.65196e-07
8.91905e-08
-5.771e-07
8.2601e-08
-5.88009e-07
7.57177e-08
-5.97885e-07
6.85654e-08
-6.06692e-07
6.11692e-08
-6.14401e-07
5.35546e-08
-6.20985e-07
4.57476e-08
-6.2642e-07
3.77745e-08
-6.30686e-07
2.96617e-08
-6.33769e-07
2.14362e-08
-6.35656e-07
1.31252e-08
-6.36339e-07
4.75627e-09
-6.35814e-07
-3.64273e-09
-6.3408e-07
-1.20436e-08
-6.31143e-07
-2.0418e-08
-6.2701e-07
-2.8737e-08
-6.21692e-07
-3.69719e-08
-6.15206e-07
-4.50933e-08
-6.07573e-07
-5.3072e-08
-5.98815e-07
-6.08784e-08
-5.88963e-07
-6.84831e-08