/*--------------------------------*- C++ -*----------------------------------*\
| =========                 |                                                 |
| \\      /  F ield         | OpenFOAM: The Open Source CFD Toolbox           |
|  \\    /   O peration     | Version:  2212                                  |
|   \\  /    A nd           | Website:  www.openfoam.com                      |
|    \\/     M anipulation  |                                                 |
\*---------------------------------------------------------------------------*/
FoamFile
{
    version     2.0;
    format      ascii;
    arch        "LSB;label=32;scalar=64";
    class       volVectorField;
    location    "0.088";
    object      U_0;
}
// * * * * * * * * * * * * * * * * * * * * * * * * * * * * * * * * * * * * * //

dimensions      [0 1 -1 0 0 0 0];

internalField   nonuniform List<vector> 
10000
(
(3.00293e-06 -3.0014e-06 0)
(1.493e-05 -7.72194e-06 0)
(3.39375e-05 -8.91876e-06 0)
(5.18241e-05 -7.69648e-06 0)
(6.35661e-05 -5.19129e-06 0)
(6.67295e-05 -2.06259e-06 0)
(6.005e-05 1.32425e-06 0)
(4.29494e-05 4.76271e-06 0)
(1.53059e-05 8.13587e-06 0)
(-2.27101e-05 1.13762e-05 0)
(-7.07379e-05 1.44438e-05 0)
(-0.000128292 1.7315e-05 0)
(-0.000194804 1.99766e-05 0)
(-0.000269653 2.24217e-05 0)
(-0.00035218 2.46483e-05 0)
(-0.000441706 2.66557e-05 0)
(-0.000537542 2.84455e-05 0)
(-0.000638994 3.00202e-05 0)
(-0.000745371 3.13836e-05 0)
(-0.000855989 3.25404e-05 0)
(-0.000970172 3.34956e-05 0)
(-0.00108726 3.42544e-05 0)
(-0.0012066 3.48229e-05 0)
(-0.00132757 3.52077e-05 0)
(-0.00144955 3.54149e-05 0)
(-0.00157195 3.54508e-05 0)
(-0.0016942 3.53216e-05 0)
(-0.00181573 3.50336e-05 0)
(-0.00193601 3.45931e-05 0)
(-0.00205453 3.40062e-05 0)
(-0.0021708 3.32795e-05 0)
(-0.00228433 3.24195e-05 0)
(-0.00239468 3.14326e-05 0)
(-0.00250143 3.03251e-05 0)
(-0.00260416 2.91034e-05 0)
(-0.00270248 2.7774e-05 0)
(-0.00279603 2.63432e-05 0)
(-0.00288447 2.4817e-05 0)
(-0.00296747 2.32018e-05 0)
(-0.00304474 2.15035e-05 0)
(-0.003116 1.97284e-05 0)
(-0.00318099 1.78829e-05 0)
(-0.00323948 1.59734e-05 0)
(-0.00329125 1.40062e-05 0)
(-0.00333612 1.1988e-05 0)
(-0.00337393 9.92527e-06 0)
(-0.00340453 7.82476e-06 0)
(-0.0034278 5.69371e-06 0)
(-0.00344365 3.53856e-06 0)
(-0.00345201 1.36583e-06 0)
(-0.00345283 -8.17139e-07 0)
(-0.0034461 -3.00318e-06 0)
(-0.00343181 -5.18531e-06 0)
(-0.00340999 -7.35576e-06 0)
(-0.00338071 -9.50662e-06 0)
(-0.00334405 -1.16303e-05 0)
(-0.00330011 -1.37191e-05 0)
(-0.00324904 -1.57654e-05 0)
(-0.00319099 -1.77615e-05 0)
(-0.00312616 -1.96994e-05 0)
(-0.00305477 -2.15705e-05 0)
(-0.00297707 -2.33667e-05 0)
(-0.00289332 -2.508e-05 0)
(-0.00280384 -2.67018e-05 0)
(-0.00270896 -2.82239e-05 0)
(-0.00260903 -2.96386e-05 0)
(-0.00250445 -3.09379e-05 0)
(-0.00239562 -3.21135e-05 0)
(-0.00228299 -3.31574e-05 0)
(-0.00216703 -3.40617e-05 0)
(-0.00204823 -3.48188e-05 0)
(-0.0019271 -3.54208e-05 0)
(-0.0018042 -3.58607e-05 0)
(-0.00168008 -3.6132e-05 0)
(-0.00155534 -3.62281e-05 0)
(-0.00143058 -3.61421e-05 0)
(-0.00130642 -3.58683e-05 0)
(-0.00118352 -3.54013e-05 0)
(-0.00106252 -3.47362e-05 0)
(-0.000944107 -3.38683e-05 0)
(-0.000828959 -3.27934e-05 0)
(-0.000717767 -3.15086e-05 0)
(-0.000611226 -3.00115e-05 0)
(-0.000510034 -2.83004e-05 0)
(-0.000414885 -2.63744e-05 0)
(-0.000326463 -2.42344e-05 0)
(-0.000245438 -2.18827e-05 0)
(-0.000172457 -1.93237e-05 0)
(-0.000108135 -1.65648e-05 0)
(-5.30334e-05 -1.36177e-05 0)
(-7.64999e-06 -1.05004e-05 0)
(2.76155e-05 -7.24095e-06 0)
(5.25011e-05 -3.88351e-06 0)
(6.69473e-05 -5.01072e-07 0)
(7.11994e-05 2.78291e-06 0)
(6.5967e-05 5.75714e-06 0)
(5.26477e-05 8.05638e-06 0)
(3.37918e-05 9.03281e-06 0)
(1.4473e-05 7.59195e-06 0)
(2.77711e-06 2.77753e-06 0)
(7.72e-06 -1.4922e-05 0)
(3.13201e-05 -3.13067e-05 0)
(6.29976e-05 -3.34603e-05 0)
(8.83752e-05 -2.55676e-05 0)
(9.79281e-05 -1.14789e-05 0)
(8.61445e-05 6.19512e-06 0)
(4.96356e-05 2.57466e-05 0)
(-1.34719e-05 4.60606e-05 0)
(-0.000103913 6.64066e-05 0)
(-0.000221617 8.63025e-05 0)
(-0.000365944 0.000105425 0)
(-0.000535852 0.000123556 0)
(-0.00073001 0.000140548 0)
(-0.00094689 0.000156305 0)
(-0.00118482 0.000170764 0)
(-0.00144204 0.000183889 0)
(-0.00171672 0.000195661 0)
(-0.002007 0.000206074 0)
(-0.00231102 0.000215136 0)
(-0.00262689 0.000222859 0)
(-0.00295275 0.000229264 0)
(-0.00328679 0.000234377 0)
(-0.00362718 0.000238227 0)
(-0.00397217 0.000240846 0)
(-0.00432002 0.000242271 0)
(-0.00466908 0.000242537 0)
(-0.00501769 0.000241683 0)
(-0.0053643 0.000239748 0)
(-0.00570738 0.000236771 0)
(-0.00604545 0.000232795 0)
(-0.00637713 0.000227859 0)
(-0.00670104 0.000222006 0)
(-0.00701591 0.000215278 0)
(-0.0073205 0.000207718 0)
(-0.00761364 0.000199369 0)
(-0.00789422 0.000190274 0)
(-0.0081612 0.000180475 0)
(-0.00841359 0.000170016 0)
(-0.00865045 0.000158939 0)
(-0.00887094 0.000147289 0)
(-0.00907426 0.000135108 0)
(-0.00925967 0.000122442 0)
(-0.0094265 0.000109334 0)
(-0.00957414 9.58293e-05 0)
(-0.00970207 8.19738e-05 0)
(-0.0098098 6.78138e-05 0)
(-0.00989693 5.33956e-05 0)
(-0.00996313 3.87671e-05 0)
(-0.0100081 2.39759e-05 0)
(-0.0100317 9.06987e-06 0)
(-0.0100338 -5.90189e-06 0)
(-0.0100143 -2.08891e-05 0)
(-0.00997322 -3.58412e-05 0)
(-0.00991069 -5.07065e-05 0)
(-0.00982684 -6.54322e-05 0)
(-0.00972194 -7.99656e-05 0)
(-0.00959631 -9.42535e-05 0)
(-0.00945033 -0.000108242 0)
(-0.00928448 -0.000121876 0)
(-0.00909933 -0.000135102 0)
(-0.00889549 -0.000147864 0)
(-0.0086737 -0.000160106 0)
(-0.00843473 -0.000171772 0)
(-0.00817945 -0.000182807 0)
(-0.00790884 -0.000193156 0)
(-0.0076239 -0.000202764 0)
(-0.00732575 -0.000211576 0)
(-0.00701557 -0.00021954 0)
(-0.00669462 -0.000226603 0)
(-0.00636423 -0.000232712 0)
(-0.00602581 -0.000237817 0)
(-0.00568083 -0.000241872 0)
(-0.00533083 -0.000244829 0)
(-0.00497739 -0.000246645 0)
(-0.00462219 -0.000247278 0)
(-0.00426693 -0.000246691 0)
(-0.00391338 -0.000244847 0)
(-0.00356334 -0.000241717 0)
(-0.00321865 -0.000237271 0)
(-0.00288118 -0.000231487 0)
(-0.00255283 -0.000224349 0)
(-0.00223551 -0.000215844 0)
(-0.00193113 -0.00020597 0)
(-0.00164158 -0.000194729 0)
(-0.00136875 -0.000182136 0)
(-0.00111446 -0.000168218 0)
(-0.000880497 -0.000153017 0)
(-0.000668523 -0.000136594 0)
(-0.000480092 -0.000119036 0)
(-0.000316582 -0.000100466 0)
(-0.000179135 -8.10583e-05 0)
(-6.8576e-05 -6.10548e-05 0)
(1.47022e-05 -4.08024e-05 0)
(7.09e-05 -2.08054e-05 0)
(0.000101043 -1.81098e-06 0)
(0.000107297 1.50605e-05 0)
(9.33259e-05 2.81228e-05 0)
(6.48576e-05 3.48326e-05 0)
(3.15181e-05 3.15149e-05 0)
(7.58406e-06 1.44615e-05 0)
(8.94036e-06 -3.39439e-05 0)
(3.36028e-05 -6.30177e-05 0)
(6.18708e-05 -6.15996e-05 0)
(7.65582e-05 -3.85111e-05 0)
(6.61685e-05 -9.49404e-07 0)
(2.35545e-05 4.57103e-05 0)
(-5.60092e-05 9.7599e-05 0)
(-0.000175345 0.000151982 0)
(-0.000335746 0.000206935 0)
(-0.000537348 0.000261104 0)
(-0.000779424 0.000313534 0)
(-0.0010606 0.000363544 0)
(-0.00137904 0.000410659 0)
(-0.00173254 0.000454541 0)
(-0.00211864 0.000494964 0)
(-0.00253472 0.000531778 0)
(-0.00297801 0.000564892 0)
(-0.00344569 0.000594259 0)
(-0.00393487 0.000619871 0)
(-0.00444264 0.000641744 0)
(-0.00496613 0.000659917 0)
(-0.00550246 0.000674446 0)
(-0.0060488 0.000685402 0)
(-0.00660236 0.000692864 0)
(-0.00716042 0.000696924 0)
(-0.00772032 0.000697677 0)
(-0.00827947 0.000695226 0)
(-0.00883538 0.000689677 0)
(-0.0093856 0.000681142 0)
(-0.0099278 0.000669732 0)
(-0.0104597 0.000655564 0)
(-0.0109792 0.000638755 0)
(-0.0114842 0.000619426 0)
(-0.0119727 0.000597695 0)
(-0.0124428 0.000573686 0)
(-0.0128928 0.000547521 0)
(-0.013321 0.000519323 0)
(-0.0137257 0.000489217 0)
(-0.0141056 0.000457327 0)
(-0.0144591 0.000423779 0)
(-0.0147851 0.000388701 0)
(-0.0150824 0.00035222 0)
(-0.0153498 0.000314465 0)
(-0.0155865 0.000275568 0)
(-0.0157914 0.00023566 0)
(-0.015964 0.000194876 0)
(-0.0161035 0.000153351 0)
(-0.0162094 0.000111222 0)
(-0.0162813 6.86281e-05 0)
(-0.0163189 2.57097e-05 0)
(-0.0163219 -1.73909e-05 0)
(-0.0162903 -6.05285e-05 0)
(-0.0162241 -0.000103556 0)
(-0.0161235 -0.000146324 0)
(-0.0159887 -0.000188683 0)
(-0.0158202 -0.000230479 0)
(-0.0156185 -0.000271558 0)
(-0.0153841 -0.000311766 0)
(-0.015118 -0.000350945 0)
(-0.0148209 -0.000388938 0)
(-0.0144939 -0.000425585 0)
(-0.0141382 -0.000460728 0)
(-0.013755 -0.000494207 0)
(-0.0133457 -0.000525863 0)
(-0.0129119 -0.00055554 0)
(-0.0124551 -0.000583081 0)
(-0.0119773 -0.000608331 0)
(-0.0114803 -0.00063114 0)
(-0.010966 -0.000651359 0)
(-0.0104366 -0.000668842 0)
(-0.00989447 -0.00068345 0)
(-0.00934179 -0.000695048 0)
(-0.00878106 -0.000703507 0)
(-0.00821483 -0.000708709 0)
(-0.00764573 -0.000710538 0)
(-0.00707646 -0.000708893 0)
(-0.00650983 -0.000703679 0)
(-0.00594867 -0.000694814 0)
(-0.00539589 -0.00068223 0)
(-0.00485443 -0.000665873 0)
(-0.00432725 -0.000645706 0)
(-0.00381733 -0.000621713 0)
(-0.00332765 -0.000593899 0)
(-0.00286114 -0.000562297 0)
(-0.00242067 -0.000526972 0)
(-0.00200906 -0.000488027 0)
(-0.00162895 -0.000445616 0)
(-0.00128287 -0.000399954 0)
(-0.00097307 -0.000351334 0)
(-0.000701527 -0.00030016 0)
(-0.000469814 -0.000246972 0)
(-0.000278981 -0.000192513 0)
(-0.0001294 -0.000137793 0)
(-2.05502e-05 -8.42115e-05 0)
(4.92659e-05 -3.37173e-05 0)
(8.32714e-05 1.0964e-05 0)
(8.65576e-05 4.6033e-05 0)
(6.65538e-05 6.62857e-05 0)
(3.49547e-05 6.48803e-05 0)
(9.0426e-06 3.37807e-05 0)
(7.78732e-06 -5.19627e-05 0)
(2.60191e-05 -8.86674e-05 0)
(3.94643e-05 -7.64285e-05 0)
(3.06044e-05 -2.94003e-05 0)
(-1.26203e-05 4.16652e-05 0)
(-9.81001e-05 0.000128467 0)
(-0.000231229 0.000224747 0)
(-0.000415352 0.000325875 0)
(-0.000652106 0.00042845 0)
(-0.000941774 0.000529979 0)
(-0.00128358 0.000628636 0)
(-0.00167593 0.000723085 0)
(-0.0021166 0.000812354 0)
(-0.00260288 0.00089574 0)
(-0.00313169 0.000972747 0)
(-0.00369972 0.00104303 0)
(-0.00430342 0.00110638 0)
(-0.00493914 0.00116265 0)
(-0.00560314 0.00121179 0)
(-0.00629164 0.00125381 0)
(-0.00700084 0.00128875 0)
(-0.00772696 0.0013167 0)
(-0.00846626 0.00133777 0)
(-0.00921504 0.00135211 0)
(-0.00996969 0.00135987 0)
(-0.0107266 0.00136123 0)
(-0.0114825 0.00135637 0)
(-0.0122338 0.0013455 0)
(-0.0129773 0.00132883 0)
(-0.01371 0.00130656 0)
(-0.0144287 0.00127892 0)
(-0.0151306 0.00124613 0)
(-0.0158129 0.00120842 0)
(-0.0164728 0.00116603 0)
(-0.0171079 0.00111919 0)
(-0.0177158 0.00106813 0)
(-0.0182942 0.00101311 0)
(-0.0188409 0.000954349 0)
(-0.019354 0.000892106 0)
(-0.0198315 0.000826622 0)
(-0.0202718 0.000758147 0)
(-0.0206732 0.000686932 0)
(-0.0210342 0.00061323 0)
(-0.0213537 0.000537298 0)
(-0.0216304 0.000459395 0)
(-0.0218632 0.000379784 0)
(-0.0220514 0.000298731 0)
(-0.0221941 0.000216503 0)
(-0.0222909 0.000133374 0)
(-0.0223413 4.96203e-05 0)
(-0.022345 -3.44791e-05 0)
(-0.0223019 -0.000118641 0)
(-0.0222122 -0.000202577 0)
(-0.0220759 -0.000285996 0)
(-0.0218936 -0.000368603 0)
(-0.0216657 -0.000450101 0)
(-0.0213929 -0.000530189 0)
(-0.0210761 -0.000608563 0)
(-0.0207164 -0.000684918 0)
(-0.020315 -0.000758947 0)
(-0.0198733 -0.000830341 0)
(-0.0193928 -0.00089879 0)
(-0.0188752 -0.000963986 0)
(-0.0183225 -0.00102562 0)
(-0.0177367 -0.00108339 0)
(-0.01712 -0.001137 0)
(-0.0164749 -0.00118614 0)
(-0.0158038 -0.00123052 0)
(-0.0151096 -0.00126986 0)
(-0.014395 -0.00130388 0)
(-0.013663 -0.00133231 0)
(-0.0129169 -0.0013549 0)
(-0.0121598 -0.00137141 0)
(-0.0113953 -0.0013816 0)
(-0.0106267 -0.00138526 0)
(-0.00985778 -0.00138221 0)
(-0.00909218 -0.00137227 0)
(-0.00833369 -0.00135529 0)
(-0.00758617 -0.00133116 0)
(-0.00685351 -0.00129979 0)
(-0.00613963 -0.00126112 0)
(-0.00544844 -0.00121514 0)
(-0.00478383 -0.00116189 0)
(-0.00414963 -0.00110145 0)
(-0.00354959 -0.00103399 0)
(-0.0029873 -0.000959743 0)
(-0.00246618 -0.000879044 0)
(-0.00198941 -0.000792355 0)
(-0.00155981 -0.000700294 0)
(-0.00117982 -0.000603682 0)
(-0.000851314 -0.000503605 0)
(-0.000575497 -0.000401508 0)
(-0.000352707 -0.00029931 0)
(-0.000182192 -0.000199571 0)
(-6.18272e-05 -0.000105723 0)
(1.22151e-05 -2.23654e-05 0)
(4.57708e-05 4.43682e-05 0)
(4.70893e-05 8.64492e-05 0)
(2.85729e-05 9.36333e-05 0)
(8.12861e-06 5.27461e-05 0)
(5.3894e-06 -6.40511e-05 0)
(1.23874e-05 -9.89117e-05 0)
(2.88015e-06 -6.66685e-05 0)
(-3.89473e-05 1.35729e-05 0)
(-0.000124644 0.000127622 0)
(-0.000262216 0.000264344 0)
(-0.00045721 0.000415113 0)
(-0.000713118 0.000573353 0)
(-0.00103168 0.000734078 0)
(-0.0014132 0.000893518 0)
(-0.00185681 0.00104884 0)
(-0.00236072 0.0011979 0)
(-0.00292239 0.00133912 0)
(-0.00353869 0.00147132 0)
(-0.00420604 0.00159363 0)
(-0.00492054 0.00170547 0)
(-0.005678 0.0018064 0)
(-0.00647407 0.00189618 0)
(-0.00730428 0.00197466 0)
(-0.00816407 0.00204181 0)
(-0.00904887 0.00209767 0)
(-0.00995408 0.00214235 0)
(-0.0108752 0.00217601 0)
(-0.0118076 0.00219884 0)
(-0.0127469 0.00221109 0)
(-0.0136889 0.00221301 0)
(-0.0146292 0.00220491 0)
(-0.0155637 0.00218708 0)
(-0.0164883 0.00215986 0)
(-0.0173993 0.00212357 0)
(-0.0182929 0.00207858 0)
(-0.0191655 0.00202524 0)
(-0.0200136 0.00196392 0)
(-0.0208339 0.00189498 0)
(-0.0216232 0.00181882 0)
(-0.0223787 0.0017358 0)
(-0.0230975 0.00164633 0)
(-0.0237769 0.00155079 0)
(-0.0244143 0.00144959 0)
(-0.0250076 0.00134311 0)
(-0.0255546 0.00123177 0)
(-0.0260532 0.00111598 0)
(-0.0265016 0.000996142 0)
(-0.0268983 0.000872683 0)
(-0.0272418 0.000746025 0)
(-0.0275309 0.000616595 0)
(-0.0277643 0.000484826 0)
(-0.0279414 0.000351158 0)
(-0.0280613 0.000216034 0)
(-0.0281235 7.99053e-05 0)
(-0.0281278 -5.67725e-05 0)
(-0.0280739 -0.000193537 0)
(-0.027962 -0.000329921 0)
(-0.0277924 -0.000465449 0)
(-0.0275655 -0.000599643 0)
(-0.027282 -0.000732018 0)
(-0.0269428 -0.000862086 0)
(-0.0265491 -0.000989355 0)
(-0.026102 -0.00111333 0)
(-0.0256031 -0.00123351 0)
(-0.0250542 -0.0013494 0)
(-0.0244571 -0.00146049 0)
(-0.0238141 -0.0015663 0)
(-0.0231274 -0.00166631 0)
(-0.0223997 -0.00176005 0)
(-0.0216337 -0.00184702 0)
(-0.0208323 -0.00192675 0)
(-0.0199987 -0.00199876 0)
(-0.0191364 -0.00206261 0)
(-0.0182486 -0.00211785 0)
(-0.0173393 -0.00216404 0)
(-0.0164123 -0.00220079 0)
(-0.0154716 -0.00222771 0)
(-0.0145214 -0.00224444 0)
(-0.013566 -0.00225066 0)
(-0.0126099 -0.00224605 0)
(-0.0116575 -0.00223037 0)
(-0.0107136 -0.00220338 0)
(-0.0097828 -0.00216492 0)
(-0.00886986 -0.00211487 0)
(-0.00797954 -0.00205317 0)
(-0.00711657 -0.00197981 0)
(-0.00628565 -0.0018949 0)
(-0.00549138 -0.00179862 0)
(-0.00473826 -0.00169125 0)
(-0.00403055 -0.00157323 0)
(-0.00337232 -0.00144515 0)
(-0.00276729 -0.00130779 0)
(-0.00221875 -0.00116221 0)
(-0.00172952 -0.00100974 0)
(-0.00130173 -0.000852171 0)
(-0.000936744 -0.000691776 0)
(-0.000634914 -0.000531529 0)
(-0.000395406 -0.000375294 0)
(-0.000215923 -0.000228093 0)
(-9.24194e-05 -9.64558e-05 0)
(-1.88263e-05 1.11632e-05 0)
(1.33117e-05 8.39789e-05 0)
(1.60599e-05 0.000108407 0)
(5.94106e-06 6.64083e-05 0)
(2.39083e-06 -6.78428e-05 0)
(-4.75509e-06 -8.83378e-05 0)
(-4.26997e-05 -2.52553e-05 0)
(-0.000124166 9.82575e-05 0)
(-0.000259385 0.000264931 0)
(-0.000455982 0.00046102 0)
(-0.000719253 0.000675657 0)
(-0.00105251 0.000900367 0)
(-0.00145736 0.00112857 0)
(-0.00193399 0.00135516 0)
(-0.00248136 0.00157621 0)
(-0.00309744 0.00178872 0)
(-0.00377939 0.00199038 0)
(-0.00452372 0.00217945 0)
(-0.00532642 0.00235466 0)
(-0.00618305 0.00251505 0)
(-0.0070889 0.00265997 0)
(-0.00803901 0.00278899 0)
(-0.00902827 0.00290185 0)
(-0.0100514 0.00299845 0)
(-0.0111033 0.00307881 0)
(-0.0121784 0.00314304 0)
(-0.0132717 0.00319133 0)
(-0.0143778 0.00322395 0)
(-0.0154916 0.00324122 0)
(-0.016608 0.0032435 0)
(-0.0177221 0.00323119 0)
(-0.018829 0.00320472 0)
(-0.019924 0.00316456 0)
(-0.0210027 0.00311119 0)
(-0.0220606 0.0030451 0)
(-0.0230934 0.00296681 0)
(-0.0240971 0.00287685 0)
(-0.0250679 0.00277576 0)
(-0.0260019 0.00266409 0)
(-0.0268958 0.00254241 0)
(-0.0277461 0.00241126 0)
(-0.0285498 0.00227124 0)
(-0.0293039 0.00212291 0)
(-0.0300056 0.00196687 0)
(-0.0306524 0.00180371 0)
(-0.031242 0.00163402 0)
(-0.0317723 0.00145842 0)
(-0.0322413 0.00127752 0)
(-0.0326473 0.00109194 0)
(-0.0329889 0.000902307 0)
(-0.0332647 0.000709259 0)
(-0.0334738 0.00051344 0)
(-0.0336152 0.000315504 0)
(-0.0336885 0.00011611 0)
(-0.0336931 -8.40716e-05 0)
(-0.0336291 -0.000284363 0)
(-0.0334965 -0.000484077 0)
(-0.0332955 -0.000682521 0)
(-0.0330269 -0.000878993 0)
(-0.0326913 -0.00107278 0)
(-0.0322899 -0.00126318 0)
(-0.031824 -0.00144946 0)
(-0.0312951 -0.0016309 0)
(-0.0307049 -0.00180677 0)
(-0.0300556 -0.00197634 0)
(-0.0293495 -0.0021389 0)
(-0.0285889 -0.0022937 0)
(-0.0277769 -0.00244003 0)
(-0.0269162 -0.00257718 0)
(-0.0260103 -0.00270443 0)
(-0.0250625 -0.0028211 0)
(-0.0240766 -0.00292651 0)
(-0.0230566 -0.00302 0)
(-0.0220065 -0.00310093 0)
(-0.0209308 -0.00316868 0)
(-0.0198339 -0.00322268 0)
(-0.0187207 -0.00326238 0)
(-0.0175959 -0.00328726 0)
(-0.0164646 -0.00329685 0)
(-0.0153321 -0.00329075 0)
(-0.0142036 -0.00326859 0)
(-0.0130844 -0.00323007 0)
(-0.0119801 -0.00317496 0)
(-0.0108962 -0.00310311 0)
(-0.00983803 -0.00301447 0)
(-0.00881121 -0.00290909 0)
(-0.00782111 -0.00278713 0)
(-0.006873 -0.0026489 0)
(-0.00597201 -0.00249488 0)
(-0.00512303 -0.00232573 0)
(-0.00433064 -0.00214237 0)
(-0.00359905 -0.00194598 0)
(-0.00293199 -0.00173811 0)
(-0.00233259 -0.00152074 0)
(-0.00180326 -0.00129642 0)
(-0.00134553 -0.00106836 0)
(-0.000959883 -0.000840664 0)
(-0.000645562 -0.000618562 0)
(-0.000400333 -0.000408684 0)
(-0.000220257 -0.000219453 0)
(-9.94347e-05 -6.15341e-05 0)
(-2.96835e-05 5.17225e-05 0)
(-7.70083e-08 0.000103701 0)
(3.12225e-06 7.23328e-05 0)
(-8.59598e-07 -6.20948e-05 0)
(-2.37966e-05 -5.35454e-05 0)
(-9.36559e-05 5.26278e-05 0)
(-0.000219263 0.00023024 0)
(-0.000408967 0.000459447 0)
(-0.000669636 0.000724211 0)
(-0.00100598 0.00101163 0)
(-0.00142087 0.00131145 0)
(-0.00191557 0.00161554 0)
(-0.00248998 0.00191748 0)
(-0.0031428 0.00221224 0)
(-0.0038717 0.00249588 0)
(-0.00467353 0.00276533 0)
(-0.00554444 0.00301826 0)
(-0.00647999 0.00325287 0)
(-0.00747533 0.00346785 0)
(-0.00852523 0.00366225 0)
(-0.0096242 0.00383542 0)
(-0.0107666 0.00398696 0)
(-0.0119465 0.00411666 0)
(-0.0131581 0.00422452 0)
(-0.0143955 0.00431062 0)
(-0.0156527 0.00437519 0)
(-0.0169239 0.00441856 0)
(-0.0182032 0.00444113 0)
(-0.019485 0.00444335 0)
(-0.0207636 0.00442576 0)
(-0.0220335 0.00438891 0)
(-0.0232896 0.00433342 0)
(-0.0245265 0.00425993 0)
(-0.0257393 0.0041691 0)
(-0.0269232 0.00406164 0)
(-0.0280736 0.00393825 0)
(-0.029186 0.00379965 0)
(-0.0302563 0.00364661 0)
(-0.0312803 0.00347987 0)
(-0.0322544 0.00330021 0)
(-0.033175 0.00310841 0)
(-0.0340386 0.00290525 0)
(-0.0348422 0.00269155 0)
(-0.0355829 0.00246811 0)
(-0.036258 0.00223576 0)
(-0.036865 0.00199532 0)
(-0.0374019 0.00174764 0)
(-0.0378666 0.00149356 0)
(-0.0382575 0.00123395 0)
(-0.0385731 0.000969689 0)
(-0.0388122 0.000701649 0)
(-0.0389738 0.000430727 0)
(-0.0390574 0.00015783 0)
(-0.0390624 -0.000116124 0)
(-0.0389888 -0.000390208 0)
(-0.0388366 -0.000663482 0)
(-0.0386063 -0.000934997 0)
(-0.0382984 -0.00120379 0)
(-0.037914 -0.0014689 0)
(-0.0374542 -0.00172935 0)
(-0.0369206 -0.00198414 0)
(-0.0363148 -0.00223231 0)
(-0.035639 -0.00247284 0)
(-0.0348955 -0.00270476 0)
(-0.0340868 -0.00292707 0)
(-0.0332159 -0.00313878 0)
(-0.032286 -0.00333892 0)
(-0.0313005 -0.0035265 0)
(-0.030263 -0.00370059 0)
(-0.0291776 -0.00386024 0)
(-0.0280484 -0.00400452 0)
(-0.02688 -0.00413256 0)
(-0.025677 -0.00424349 0)
(-0.0244444 -0.00433648 0)
(-0.0231874 -0.00441076 0)
(-0.0219112 -0.0044656 0)
(-0.0206215 -0.00450031 0)
(-0.0193239 -0.00451428 0)
(-0.0180243 -0.00450696 0)
(-0.0167286 -0.00447788 0)
(-0.015443 -0.00442667 0)
(-0.0141735 -0.00435303 0)
(-0.0129263 -0.00425681 0)
(-0.0117076 -0.00413797 0)
(-0.0105236 -0.00399661 0)
(-0.00938012 -0.00383299 0)
(-0.00828323 -0.0036476 0)
(-0.00723856 -0.00344112 0)
(-0.00625154 -0.00321451 0)
(-0.00532724 -0.00296904 0)
(-0.00447032 -0.00270637 0)
(-0.00368487 -0.00242861 0)
(-0.00297439 -0.00213843 0)
(-0.00234155 -0.0018392 0)
(-0.00178816 -0.00153512 0)
(-0.00131491 -0.00123148 0)
(-0.000921283 -0.000934831 0)
(-0.000605319 -0.00065339 0)
(-0.000363458 -0.000397364 0)
(-0.000190292 -0.000179445 0)
(-7.8288e-05 -1.5262e-05 0)
(-1.82218e-05 7.60013e-05 0)
(2.52471e-08 6.92089e-05 0)
(-4.17227e-06 -4.61983e-05 0)
(-4.37256e-05 7.48183e-06 0)
(-0.000147533 0.000170094 0)
(-0.000320131 0.000413323 0)
(-0.000567644 0.000715294 0)
(-0.000895898 0.00105804 0)
(-0.00130877 0.00142689 0)
(-0.00180846 0.00180996 0)
(-0.0023957 0.00219769 0)
(-0.00306997 0.0025824 0)
(-0.0038296 0.00295795 0)
(-0.00467189 0.00331948 0)
(-0.00559335 0.00366314 0)
(-0.00658973 0.00398595 0)
(-0.00765622 0.00428558 0)
(-0.00878751 0.00456032 0)
(-0.00997794 0.00480887 0)
(-0.0112215 0.00503034 0)
(-0.0125121 0.00522416 0)
(-0.0138432 0.00539002 0)
(-0.0152085 0.00552781 0)
(-0.0166015 0.00563764 0)
(-0.0180157 0.00571973 0)
(-0.0194446 0.00577447 0)
(-0.0208818 0.00580234 0)
(-0.0223211 0.0058039 0)
(-0.0237562 0.0057798 0)
(-0.0251811 0.00573075 0)
(-0.0265898 0.00565753 0)
(-0.0279768 0.00556093 0)
(-0.0293364 0.00544183 0)
(-0.0306633 0.0053011 0)
(-0.0319524 0.00513966 0)
(-0.0331987 0.00495844 0)
(-0.0343977 0.00475842 0)
(-0.0355447 0.00454058 0)
(-0.0366356 0.00430591 0)
(-0.0376665 0.00405543 0)
(-0.0386335 0.00379016 0)
(-0.0395332 0.00351116 0)
(-0.0403623 0.00321947 0)
(-0.041118 0.00291618 0)
(-0.0417974 0.00260235 0)
(-0.0423982 0.0022791 0)
(-0.0429182 0.00194753 0)
(-0.0433555 0.00160876 0)
(-0.0437086 0.00126393 0)
(-0.0439759 0.000914207 0)
(-0.0441567 0.000560745 0)
(-0.04425 0.000204731 0)
(-0.0442554 -0.000152641 0)
(-0.0441728 -0.000510158 0)
(-0.0440023 -0.000866596 0)
(-0.0437443 -0.00122072 0)
(-0.0433995 -0.00157127 0)
(-0.0429691 -0.001917 0)
(-0.0424544 -0.00225663 0)
(-0.041857 -0.00258888 0)
(-0.0411789 -0.00291248 0)
(-0.0404224 -0.00322612 0)
(-0.0395901 -0.00352853 0)
(-0.038685 -0.00381842 0)
(-0.0377101 -0.0040945 0)
(-0.0366691 -0.00435552 0)
(-0.0355657 -0.00460021 0)
(-0.0344042 -0.00482734 0)
(-0.0331888 -0.0050357 0)
(-0.0319243 -0.0052241 0)
(-0.0306157 -0.0053914 0)
(-0.0292681 -0.00553649 0)
(-0.027887 -0.00565833 0)
(-0.0264782 -0.0057559 0)
(-0.0250476 -0.00582828 0)
(-0.0236012 -0.0058746 0)
(-0.0221455 -0.00589409 0)
(-0.0206868 -0.00588605 0)
(-0.0192317 -0.00584992 0)
(-0.017787 -0.00578523 0)
(-0.0163593 -0.00569165 0)
(-0.0149555 -0.00556899 0)
(-0.0135822 -0.00541726 0)
(-0.0122464 -0.00523662 0)
(-0.0109544 -0.00502748 0)
(-0.00971283 -0.00479049 0)
(-0.00852782 -0.0045266 0)
(-0.00740531 -0.00423708 0)
(-0.00635082 -0.00392362 0)
(-0.00536943 -0.00358837 0)
(-0.00446562 -0.00323406 0)
(-0.00364324 -0.00286409 0)
(-0.00290531 -0.00248267 0)
(-0.00225394 -0.00209501 0)
(-0.00169019 -0.00170754 0)
(-0.00121389 -0.00132815 0)
(-0.00082357 -0.00096651 0)
(-0.000516251 -0.00063447 0)
(-0.00028727 -0.000346518 0)
(-0.000130025 -0.000120222 0)
(-3.73465e-05 2.31808e-05 0)
(-3.15427e-06 5.63705e-05 0)
(-7.44807e-06 -1.99439e-05 0)
(-6.39192e-05 9.57674e-05 0)
(-0.000202697 0.000328941 0)
(-0.000423915 0.000649883 0)
(-0.000731288 0.00103519 0)
(-0.00112942 0.00146536 0)
(-0.00162116 0.00192418 0)
(-0.00220785 0.00239838 0)
(-0.00288957 0.00287707 0)
(-0.00366523 0.0033514 0)
(-0.00453268 0.00381418 0)
(-0.0054888 0.00425966 0)
(-0.00652967 0.0046832 0)
(-0.00765065 0.00508116 0)
(-0.00884652 0.00545069 0)
(-0.0101115 0.00578961 0)
(-0.0114396 0.00609629 0)
(-0.0128243 0.00636958 0)
(-0.014259 0.00660868 0)
(-0.0157367 0.00681317 0)
(-0.0172507 0.00698287 0)
(-0.0187937 0.00711783 0)
(-0.0203589 0.00721831 0)
(-0.0219393 0.00728473 0)
(-0.0235279 0.00731764 0)
(-0.0251178 0.00731772 0)
(-0.0267024 0.00728575 0)
(-0.0282751 0.00722259 0)
(-0.0298295 0.00712918 0)
(-0.0313593 0.00700651 0)
(-0.0328586 0.00685564 0)
(-0.0343214 0.00667766 0)
(-0.0357423 0.00647371 0)
(-0.0371157 0.00624495 0)
(-0.0384367 0.00599259 0)
(-0.0397003 0.00571785 0)
(-0.040902 0.00542199 0)
(-0.0420373 0.00510626 0)
(-0.0431022 0.00477197 0)
(-0.0440928 0.00442042 0)
(-0.0450057 0.00405294 0)
(-0.0458376 0.00367087 0)
(-0.0465855 0.00327559 0)
(-0.0472468 0.00286846 0)
(-0.0478192 0.00245089 0)
(-0.0483004 0.0020243 0)
(-0.0486889 0.0015901 0)
(-0.0489831 0.00114977 0)
(-0.0491818 0.000704758 0)
(-0.0492844 0.000256563 0)
(-0.0492903 -0.000193314 0)
(-0.0491992 -0.000643349 0)
(-0.0490115 -0.001092 0)
(-0.0487274 -0.00153772 0)
(-0.048348 -0.00197893 0)
(-0.0478742 -0.00241405 0)
(-0.0473076 -0.00284149 0)
(-0.0466501 -0.00325964 0)
(-0.0459038 -0.00366689 0)
(-0.0450711 -0.00406163 0)
(-0.044155 -0.00444224 0)
(-0.0431586 -0.00480712 0)
(-0.0420854 -0.00515466 0)
(-0.0409393 -0.00548329 0)
(-0.0397244 -0.00579143 0)
(-0.0384454 -0.00607754 0)
(-0.0371068 -0.00634012 0)
(-0.035714 -0.00657769 0)
(-0.0342723 -0.00678882 0)
(-0.0327873 -0.00697215 0)
(-0.0312651 -0.00712636 0)
(-0.0297118 -0.00725024 0)
(-0.0281339 -0.00734262 0)
(-0.0265381 -0.00740244 0)
(-0.0249313 -0.00742877 0)
(-0.0233203 -0.00742076 0)
(-0.0217124 -0.00737773 0)
(-0.0201148 -0.00729913 0)
(-0.0185348 -0.00718458 0)
(-0.0169798 -0.00703389 0)
(-0.0154571 -0.0068471 0)
(-0.0139739 -0.00662448 0)
(-0.0125373 -0.00636657 0)
(-0.0111543 -0.00607422 0)
(-0.00983168 -0.00574867 0)
(-0.00857568 -0.00539154 0)
(-0.00739233 -0.00500496 0)
(-0.0062871 -0.0045916 0)
(-0.00526491 -0.00415483 0)
(-0.00432997 -0.00369877 0)
(-0.0034857 -0.00322852 0)
(-0.00273462 -0.00275025 0)
(-0.00207823 -0.00227152 0)
(-0.00151688 -0.00180144 0)
(-0.00104969 -0.00135104 0)
(-0.000674465 -0.000933643 0)
(-0.000387474 -0.00056527 0)
(-0.000183229 -0.000265081 0)
(-5.68099e-05 -5.5881e-05 0)
(-6.31105e-06 3.35637e-05 0)
(-1.06379e-05 1.66417e-05 0)
(-8.40028e-05 0.000211673 0)
(-0.000258084 0.000530033 0)
(-0.000528661 0.000941225 0)
(-0.000896988 0.00142077 0)
(-0.00136632 0.00194794 0)
(-0.00193837 0.00250531 0)
(-0.00261349 0.00307837 0)
(-0.00339097 0.00365508 0)
(-0.00426904 0.00422552 0)
(-0.00524498 0.00478153 0)
(-0.00631518 0.00531649 0)
(-0.00747524 0.00582501 0)
(-0.00872008 0.00630282 0)
(-0.010044 0.00674651 0)
(-0.011441 0.00715345 0)
(-0.0129044 0.00752167 0)
(-0.0144273 0.00784971 0)
(-0.0160027 0.00813659 0)
(-0.0176232 0.00838172 0)
(-0.0192814 0.00858483 0)
(-0.0209699 0.00874595 0)
(-0.0226811 0.00886533 0)
(-0.0244076 0.00894342 0)
(-0.0261419 0.00898088 0)
(-0.0278768 0.00897847 0)
(-0.0296049 0.00893712 0)
(-0.0313193 0.00885784 0)
(-0.0330131 0.00874174 0)
(-0.0346796 0.00859002 0)
(-0.0363123 0.00840393 0)
(-0.0379049 0.0081848 0)
(-0.0394514 0.00793399 0)
(-0.040946 0.00765292 0)
(-0.0423833 0.00734304 0)
(-0.0437579 0.00700585 0)
(-0.0450649 0.00664286 0)
(-0.0462995 0.00625562 0)
(-0.0474575 0.00584571 0)
(-0.0485346 0.00541472 0)
(-0.0495271 0.00496427 0)
(-0.0504314 0.004496 0)
(-0.0512444 0.00401159 0)
(-0.0519631 0.00351272 0)
(-0.0525852 0.00300111 0)
(-0.0531082 0.00247847 0)
(-0.0535303 0.00194657 0)
(-0.05385 0.00140719 0)
(-0.0540661 0.000862111 0)
(-0.0541776 0.000313164 0)
(-0.054184 -0.000237814 0)
(-0.0540851 -0.000788961 0)
(-0.0538811 -0.00133839 0)
(-0.0535725 -0.00188421 0)
(-0.0531603 -0.0024245 0)
(-0.0526456 -0.00295733 0)
(-0.05203 -0.00348074 0)
(-0.0513155 -0.00399278 0)
(-0.0505046 -0.0044915 0)
(-0.0495997 -0.00497492 0)
(-0.0486042 -0.00544107 0)
(-0.0475212 -0.00588801 0)
(-0.0463548 -0.00631378 0)
(-0.0451089 -0.00671646 0)
(-0.0437882 -0.00709414 0)
(-0.0423973 -0.00744495 0)
(-0.0409416 -0.00776707 0)
(-0.0394266 -0.0080587 0)
(-0.0378579 -0.00831813 0)
(-0.0362419 -0.00854369 0)
(-0.0345848 -0.00873383 0)
(-0.0328934 -0.00888704 0)
(-0.0311746 -0.00900196 0)
(-0.0294355 -0.00907731 0)
(-0.0276834 -0.00911197 0)
(-0.025926 -0.00910495 0)
(-0.0241708 -0.00905544 0)
(-0.0224256 -0.00896282 0)
(-0.0206982 -0.00882665 0)
(-0.0189966 -0.00864676 0)
(-0.0173285 -0.00842322 0)
(-0.0157016 -0.00815641 0)
(-0.0141236 -0.00784702 0)
(-0.0126019 -0.00749614 0)
(-0.0111437 -0.00710529 0)
(-0.00975581 -0.00667645 0)
(-0.00844462 -0.00621222 0)
(-0.00721605 -0.00571581 0)
(-0.00607545 -0.00519121 0)
(-0.00502746 -0.00464331 0)
(-0.00407596 -0.00407801 0)
(-0.00322394 -0.00350248 0)
(-0.00247344 -0.00292528 0)
(-0.00182542 -0.00235668 0)
(-0.00127975 -0.00180895 0)
(-0.000835143 -0.00129666 0)
(-0.000488912 -0.000837141 0)
(-0.000236807 -0.000450816 0)
(-7.622e-05 -0.000161627 0)
(-9.39105e-06 7.82537e-07 0)
(-1.37191e-05 6.33951e-05 0)
(-0.000103755 0.000355135 0)
(-0.000313017 0.000773586 0)
(-0.000633073 0.00128788 0)
(-0.00106273 0.00187282 0)
(-0.00160387 0.00250678 0)
(-0.00225696 0.00317134 0)
(-0.00302129 0.00385096 0)
(-0.00389525 0.00453262 0)
(-0.00487632 0.00520542 0)
(-0.00596112 0.00586033 0)
(-0.00714547 0.00648993 0)
(-0.00842444 0.00708812 0)
(-0.00979248 0.00764999 0)
(-0.0112435 0.00817163 0)
(-0.0127708 0.00864995 0)
(-0.0143675 0.00908262 0)
(-0.0160263 0.0094679 0)
(-0.0177396 0.00980459 0)
(-0.0194997 0.0100919 0)
(-0.0212986 0.0103296 0)
(-0.0231286 0.0105176 0)
(-0.0249816 0.010656 0)
(-0.0268497 0.0107455 0)
(-0.028725 0.0107868 0)
(-0.0305997 0.0107807 0)
(-0.0324663 0.0107283 0)
(-0.0343172 0.0106308 0)
(-0.036145 0.0104895 0)
(-0.0379428 0.0103057 0)
(-0.0397035 0.0100809 0)
(-0.0414205 0.0098168 0)
(-0.0430874 0.00951488 0)
(-0.044698 0.00917686 0)
(-0.0462465 0.00880447 0)
(-0.0477272 0.00839946 0)
(-0.0491349 0.00796365 0)
(-0.0504644 0.00749888 0)
(-0.0517112 0.00700703 0)
(-0.0528708 0.00649 0)
(-0.0539392 0.00594973 0)
(-0.0549126 0.00538819 0)
(-0.0557877 0.00480736 0)
(-0.0565613 0.00420926 0)
(-0.0572308 0.00359594 0)
(-0.0577937 0.00296948 0)
(-0.0582481 0.00233196 0)
(-0.0585922 0.00168551 0)
(-0.0588248 0.00103228 0)
(-0.0589449 0.000374444 0)
(-0.058952 -0.000285792 0)
(-0.0588459 -0.000946206 0)
(-0.0586267 -0.00160455 0)
(-0.058295 -0.00225855 0)
(-0.0578517 -0.00290591 0)
(-0.0572982 -0.00354434 0)
(-0.0566362 -0.0041715 0)
(-0.0558678 -0.00478506 0)
(-0.0549954 -0.00538269 0)
(-0.054022 -0.00596203 0)
(-0.0529509 -0.00652075 0)
(-0.0517857 -0.00705651 0)
(-0.0505304 -0.007567 0)
(-0.0491894 -0.00804993 0)