/*--------------------------------*- C++ -*----------------------------------*\
| =========                 |                                                 |
| \\      /  F ield         | OpenFOAM: The Open Source CFD Toolbox           |
|  \\    /   O peration     | Version:  2212                                  |
|   \\  /    A nd           | Website:  www.openfoam.com                      |
|    \\/     M anipulation  |                                                 |
\*---------------------------------------------------------------------------*/
FoamFile
{
    version     2.0;
    format      ascii;
    arch        "LSB;label=32;scalar=64";
    class       volScalarField;
    location    "0.0425";
    object      p;
}
// * * * * * * * * * * * * * * * * * * * * * * * * * * * * * * * * * * * * * //

dimensions      [0 2 -2 0 0 0 0];

internalField   nonuniform List<scalar> 
10000
(
1.97362e-07
2.99053e-06
-0.000302713
-0.000911487
-0.001764
-0.00281729
-0.00402446
-0.00534016
-0.00672323
-0.00813723
-0.00955032
-0.0109347
-0.0122662
-0.0135236
-0.0146887
-0.015746
-0.0166825
-0.0174869
-0.0181501
-0.0186643
-0.0190231
-0.0192215
-0.019256
-0.019124
-0.0188243
-0.0183564
-0.0177206
-0.0169183
-0.0159514
-0.0148227
-0.0135359
-0.0120948
-0.0105041
-0.00876868
-0.00689411
-0.00488637
-0.00275181
-0.00049719
0.00187038
0.00434351
0.00691445
0.00957515
0.0123173
0.0151325
0.0180122
0.0209474
0.0239289
0.0269474
0.0299936
0.0330582
0.0361316
0.0392039
0.0422654
0.0453063
0.0483169
0.0512876
0.0542086
0.0570701
0.0598627
0.0625772
0.0652045
0.0677354
0.0701613
0.0724736
0.0746641
0.0767252
0.0786499
0.0804312
0.0820627
0.0835385
0.0848532
0.0860025
0.0869826
0.0877907
0.0884248
0.0888837
0.0891672
0.089276
0.0892121
0.0889787
0.0885806
0.0880237
0.0873157
0.0864656
0.0854843
0.0843845
0.0831809
0.0818906
0.0805333
0.0791318
0.0777117
0.0763024
0.0749373
0.0736542
0.0724954
0.0715077
0.0707395
0.0702388
0.0700476
0.0701281
-0.000135205
-0.000128033
-0.00040355
-0.000935189
-0.0016712
-0.00257728
-0.00361822
-0.00475779
-0.00596162
-0.00719812
-0.00843885
-0.0096586
-0.0108349
-0.0119481
-0.0129807
-0.0139176
-0.0147461
-0.015455
-0.0160352
-0.0164789
-0.0167796
-0.0169323
-0.0169329
-0.0167788
-0.0164682
-0.0160003
-0.0153753
-0.0145941
-0.0136581
-0.0125699
-0.0113324
-0.00994956
-0.00842521
-0.00676402
-0.00497113
-0.00305207
-0.00101275
0.00114045
0.00340074
0.00576121
0.00821461
0.0107533
0.0133694
0.0160549
0.0188016
0.021601
0.0244443
0.0273227
0.0302274
0.0331493
0.0360794
0.0390084
0.0419268
0.0448255
0.0476953
0.0505268
0.0533108
0.0560382
0.0586999
0.0612872
0.0637916
0.0662044
0.0685174
0.0707226
0.0728124
0.0747797
0.0766179
0.0783206
0.0798818
0.0812962
0.0825589
0.0836659
0.084614
0.0854009
0.086025
0.0864853
0.0867821
0.0869162
0.08689
0.086707
0.0863719
0.0858911
0.0852721
0.0845238
0.083657
0.0826838
0.0816186
0.0804777
0.0792798
0.0780461
0.0768004
0.0755694
0.0743825
0.0732722
0.0722738
0.0714243
0.0707594
0.0703128
0.0701277
0.0702086
-2.20694e-05
-4.15316e-06
-0.000254849
-0.000739329
-0.00140393
-0.00221744
-0.00314998
-0.00417079
-0.00525035
-0.00636095
-0.00747712
-0.00857582
-0.0096365
-0.0106408
-0.0115724
-0.0124169
-0.0131618
-0.0137964
-0.0143117
-0.0146999
-0.0149548
-0.0150711
-0.0150448
-0.0148729
-0.0145535
-0.0140857
-0.0134692
-0.0127047
-0.0117936
-0.0107379
-0.00954043
-0.00820451
-0.00673393
-0.00513298
-0.00340641
-0.00155939
0.000402489
0.00247315
0.00464614
0.00691487
0.00927246
0.0117116
0.0142249
0.0168046
0.0194428
0.0221313
0.024862
0.0276261
0.0304153
0.0332209
0.0360343
0.0388465
0.0416485
0.0444314
0.0471865
0.0499048
0.0525775
0.0551959
0.0577514
0.0602357
0.0626405
0.0649577
0.0671794
0.0692981
0.0713065
0.0731982
0.0749668
0.0766062
0.078111
0.0794761
0.080697
0.0817701
0.0826927
0.0834627
0.0840787
0.0845401
0.0848472
0.0850012
0.0850046
0.084861
0.0845753
0.0841537
0.0836036
0.0829339
0.0821548
0.0812781
0.0803175
0.0792884
0.0782085
0.0770975
0.0759773
0.0748718
0.0738074
0.0728124
0.0719167
0.0711513
0.0705453
0.0701267
0.0699423
0.0700188
0.000408982
0.000386311
0.000123263
-0.000347452
-0.000978449
-0.00174076
-0.00260755
-0.00355171
-0.00454727
-0.00556981
-0.00659652
-0.00760639
-0.00858055
-0.00950203
-0.0103556
-0.0111279
-0.0118071
-0.0123827
-0.0128462
-0.0131899
-0.0134077
-0.0134944
-0.0134462
-0.0132599
-0.0129334
-0.0124657
-0.0118565
-0.0111061
-0.0102159
-0.00918751
-0.00802367
-0.00672738
-0.00530211
-0.00375193
-0.0020814
-0.000295388
0.00160084
0.00360152
0.0057005
0.00789144
0.0101677
0.0125224
0.0149483
0.017438
0.0199841
0.0225786
0.0252134
0.0278805
0.0305716
0.0332785
0.0359929
0.0387061
0.0414094
0.0440943
0.0467522
0.0493748
0.0519534
0.0544799
0.0569458
0.0593432
0.0616641
0.0639007
0.0660457
0.0680917
0.0700321
0.0718604
0.0735706
0.0751571
0.0766147
0.0779385
0.0791245
0.0801695
0.0810708
0.0818265
0.0824356
0.0828974
0.0832126
0.0833825
0.0834095
0.0832974
0.083051
0.0826763
0.0821807
0.0815726
0.0808618
0.0800595
0.0791786
0.0782339
0.0772417
0.0762202
0.0751893
0.0741708
0.073188
0.0722659
0.0714305
0.0707087
0.0701257
0.069707
0.0694958
0.0695209
0.0011252
0.00100449
0.000690443
0.000204304
-0.000420147
-0.00115752
-0.00198396
-0.00287574
-0.00381017
-0.00476575
-0.00572228
-0.00666095
-0.0075645
-0.00841733
-0.0092055
-0.00991644
-0.0105391
-0.0110639
-0.0114824
-0.0117873
-0.0119726
-0.0120334
-0.0119658
-0.0117668
-0.0114344
-0.0109672
-0.0103649
-0.00962767
-0.00875671
-0.00775372
-0.006621
-0.00536132
-0.00397794
-0.00247471
-0.000855983
0.000873589
0.00270902
0.00464484
0.0066752
0.00879401
0.0109949
0.0132712
0.015616
0.0180223
0.0204829
0.0229901
0.0255362
0.0281132
0.0307134
0.0333288
0.0359515
0.038573
0.0411849
0.0437791
0.0463472
0.0488812
0.0513731
0.0538146
0.0561979
0.0585152
0.0607588
0.0629214
0.0649957
0.0669751
0.0688529
0.070623
0.0722798
0.0738177
0.0752319
0.076518
0.0776721
0.0786912
0.0795728
0.0803153
0.0809176
0.0813794
0.0817013
0.0818847
0.0819322
0.0818473
0.0816349
0.0813008
0.0808519
0.0802963
0.0796434
0.0789036
0.0780893
0.0772139
0.0762927
0.0753422
0.0743807
0.0734274
0.0725031
0.0716297
0.0708299
0.0701266
0.0695421
0.0690992
0.0688302
0.0687558
0.00207074
0.00181508
0.00142049
0.000893696
0.000251494
-0.000484406
-0.00129312
-0.00215439
-0.00304853
-0.00395663
-0.00486093
-0.00574477
-0.00659267
-0.00739042
-0.00812525
-0.00878559
-0.00936119
-0.00984305
-0.0102233
-0.0104952
-0.0106528
-0.0106914
-0.0106073
-0.0103977
-0.0100604
-0.00959412
-0.00899842
-0.00827355
-0.00742048
-0.00644077
-0.00533655
-0.00411044
-0.00276549
-0.00130535
0.000265842
0.00194365
0.00372332
0.00559963
0.00756697
0.0096195
0.0117511
0.0139554
0.0162257
0.0185554
0.0209374
0.0233644
0.0258289
0.0283232
0.0308399
0.0333714
0.0359099
0.0384473
0.0409754
0.0434863
0.0459722
0.0484253
0.0508378
0.0532018
0.0555096
0.0577537
0.0599268
0.0620219
0.0640321
0.0659508
0.0677717
0.0694889
0.071097
0.0725909
0.0739658
0.0752176
0.0763427
0.0773381
0.0782017
0.0789318
0.0795276
0.0799887
0.0803159
0.0805106
0.0805752
0.0805133
0.0803295
0.0800294
0.0796196
0.0791077
0.0785024
0.0778138
0.077053
0.0762327
0.0753667
0.0744702
0.0735594
0.0726516
0.071765
0.0709188
0.0701325
0.0694256
0.0688178
0.068329
0.0679766
0.0677687
0.00319558
0.00278201
0.00228552
0.0016975
0.00101666
0.00026151
-0.00054975
-0.00140024
-0.00227304
-0.00315179
-0.00402088
-0.00486553
-0.00567208
-0.00642781
-0.00712103
-0.00774124
-0.00827911
-0.00872619
-0.00907516
-0.00931968
-0.00945434
-0.00947469
-0.00937712
-0.00915886
-0.00881793
-0.00835308
-0.00776384
-0.00705047
-0.00621383
-0.00525531
-0.00417695
-0.00298121
-0.00167105
-0.000249966
0.00127814
0.00290905
0.00463824
0.00646068
0.00837089
0.0103633
0.012432
0.014571
0.0167739
0.0190342
0.0213449
0.0236991
0.0260895
0.0285089
0.03095
0.0334056
0.035868
0.0383292
0.0407815
0.0432172
0.0456288
0.0480089
0.0503499
0.052644
0.0548837
0.057062
0.0591717
0.0612062
0.0631588
0.0650231
0.066793
0.0684629
0.0700274
0.0714818
0.0728215
0.0740426
0.0751416
0.0761158
0.076963
0.0776817
0.0782711
0.078731
0.079062
0.0792655
0.0793439
0.0793007
0.0791402
0.0788676
0.0784892
0.0780121
0.0774446
0.0767958
0.0760761
0.075297
0.0744713
0.0736124
0.0727349
0.0718543
0.0709865
0.070148
0.0693555
0.0686255
0.0679755
0.0674225
0.0669675
0.0666042
0.00445433
0.00386936
0.00325621
0.00259121
0.00185503
0.00106336
0.000232335
-0.000624152
-0.001492
-0.00235707
-0.00320583
-0.00402537
-0.00480351
-0.00552896
-0.00619131
-0.00678109
-0.00728972
-0.0077095
-0.00803365
-0.00825635
-0.00837262
-0.00837831
-0.00827006
-0.00804521
-0.0077019
-0.00723897
-0.00665604
-0.00595339
-0.00513179
-0.00419253
-0.00313754
-0.00196922
-0.00069043
0.00069547
0.00218478
0.00377349
0.00545721
0.00723107
0.00908977
0.011028
0.0130401
0.0151203
0.0172624
0.01946
0.0217065
0.0239951
0.0263189
0.0286709
0.0310441
0.0334312
0.035825
0.0382178
0.040602
0.0429703
0.0453154
0.04763
0.0499069
0.0521383
0.0543173
0.0564367
0.0584898
0.0604703
0.0623715
0.0641874
0.065912
0.0675397
0.0690656
0.0704848
0.0717933
0.0729871
0.0740629
0.075018
0.0758504
0.0765586
0.0771418
0.0775998
0.0779332
0.0781434
0.0782325
0.0782038
0.0780615
0.0778104
0.0774564
0.077006
0.076467
0.0758477
0.0751577
0.0744075
0.0736084
0.0727727
0.0719133
0.0710439
0.0701783
0.0693308
0.0685155
0.0677463
0.0670386
0.0664071
0.0658358
0.0653039
0.00580754
0.00504414
0.00430462
0.00355104
0.00274656
0.00190451
0.00103941
0.000162661
-0.000714214
-0.00157921
-0.00242063
-0.0032273
-0.00398855
-0.00469438
-0.00533556
-0.00590363
-0.0063908
-0.00679012
-0.00709546
-0.00730148
-0.00740362
-0.00739808
-0.00728173
-0.00705214
-0.00670764
-0.00624721
-0.00567052
-0.00497783
-0.00416991
-0.00324804
-0.00221411
-0.00107045
0.000180202
0.00153464
0.00298929
0.00454026
0.00618327
0.0079136
0.00972621
0.0116159
0.0135775
0.0156051
0.0176928
0.0198343
0.0220233
0.0242533
0.0265176
0.0288094
0.0311218
0.033448
0.0357806
0.0381123
0.0404358
0.0427441
0.04503
0.0472865
0.0495063
0.0516822
0.0538072
0.0558745
0.0578777
0.0598103
0.0616663
0.0634394
0.065124
0.0667146
0.0682064
0.0695948
0.0708757
0.0720455
0.0731007
0.0740389
0.074858
0.0755565
0.0761337
0.0765894
0.076924
0.0771387
0.0772357
0.0772178
0.077089
0.0768539
0.0765177
0.0760867
0.0755678
0.0749687
0.0742981
0.0735655
0.072781
0.0719558
0.0711011
0.070229
0.0693515
0.068481
0.0676291
0.0668074
0.0660297
0.0653088
0.0646121
0.0639049
0.00722156
0.00627713
0.00540527
0.00455465
0.00367195
0.00276866
0.00185784
0.000948757
5.09494e-05
-0.000825665
-0.00167111
-0.00247569
-0.00323021
-0.00392594
-0.00455473
-0.00510899
-0.00558181
-0.00596697
-0.00625898
-0.00645305
-0.00654501
-0.0065314
-0.00640938
-0.0061768
-0.00583223
-0.0053748
-0.00480421
-0.00412076
-0.00332525
-0.00241901
-0.0014039
-0.000282202
0.000943474
0.00227003
0.00369398
0.00521147
0.00681838
0.00851012
0.0102819
0.0121287
0.0140455
0.0160265
0.0180659
0.0201578
0.0222959
0.024474
0.0266857
0.0289243
0.0311831
0.0334552
0.0357338
0.0380117
0.0402818
0.0425372
0.0447711
0.0469765
0.0491463
0.0512734
0.0533511
0.0553729
0.0573323
0.0592233
0.0610397
0.0627756
0.0644254
0.0659837
0.0674459
0.0688076
0.0700646
0.0712135
0.0722509
0.0731742
0.0739815
0.0746713
0.0752428
0.0756957
0.0760303
0.0762478
0.0763499
0.0763395
0.07622
0.0759958
0.0756716
0.0752531
0.0747466
0.0741593
0.0734988
0.0727738
0.0719934
0.0711673
0.0703057
0.0694189
0.0685175
0.0676119
0.066712
0.0658271
0.0649699
0.0641517
0.0633239
0.0624387
0.00866787
0.00754265
0.00653519
0.00558165
0.00461323
0.00364007
0.00267421
0.00172294
0.00079402
-0.000104267
-0.000963535
-0.00177551
-0.00253231
-0.00322638
-0.00385054
-0.00439811
-0.00486302
-0.00523977
-0.00552349
-0.0057099
-0.00579526
-0.00577646
-0.00565102
-0.00541711
-0.00507349
-0.00461941
-0.00405472
-0.00337979
-0.00259549
-0.00170318
-0.000704705
0.000397711
0.00160149
0.00290361
0.00430064
0.0057888
0.00736406
0.00902206
0.0107581
0.0125675
0.014445
0.0163852
0.0183824
0.0204308
0.0225245
0.0246575
0.0268232
0.0290153
0.0312273
0.0334524
0.035684
0.037915
0.0401388
0.0423484
0.0445371
0.0466982
0.0488247
0.0509098
0.0529467
0.0549292
0.0568511
0.0587063
0.0604889
0.0621929
0.0638129
0.0653437
0.0667807
0.0681196
0.0693564
0.0704874
0.0715095
0.0724201
0.0732172
0.0738992
0.0744654
0.0749152
0.0752489
0.0754674
0.0755725
0.0755664
0.0754525
0.0752345
0.0749169
0.0745048
0.074004
0.0734208
0.0727622
0.0720359
0.0712501
0.0704133
0.0695345
0.0686228
0.0676872
0.0667366
0.0657793
0.0648226
0.0638786
0.0629575
0.0619955
0.0609325
0.0101222
0.00881816
0.00767385
0.00661348
0.00555374
0.00450399
0.00347553
0.00247401
0.00150553
0.00057703
-0.000304501
-0.00113215
-0.00189915
-0.00259896
-0.00322537
-0.00377262
-0.00423543
-0.00460896
-0.00488893
-0.00507152
-0.00515348
-0.00513213
-0.00500535
-0.00477157
-0.00442974
-0.00397929
-0.00342023
-0.00275308
-0.00197879
-0.00109872
-0.000114724
0.000971004
0.00215591
0.00343694
0.00481071
0.00627356
0.00782159
0.00945057
0.011156
0.0129331
0.0147768
0.0166819
0.0186427
0.0206538
0.0227094
0.0248035
0.0269298
0.0290821
0.0312539
0.0334388
0.0356301
0.0378213
0.0400054
0.042176
0.0443264
0.0464499
0.0485397
0.0505891
0.0525916
0.0545411
0.0564314
0.0582567
0.0600109
0.0616883
0.0632835
0.0647914
0.0662075
0.0675275
0.0687475
0.0698639
0.0708734
0.0717734
0.0725618
0.0732371
0.0737984
0.074245
0.074577
0.0747953
0.0749012
0.0748968
0.074785
0.0745692
0.0742534
0.0738422
0.0733409
0.0727551
0.0720911
0.0713557
0.0705561
0.0697
0.0687953
0.0678498
0.0668714
0.0658676
0.0648451
0.06381
0.0627737
0.0617459
0.0606483
0.0594093
0.0115638
0.010084
0.0088028
0.00763325
0.00647821
0.00534671
0.00424957
0.00319109
0.00217608
0.00121015
0.000299077
-0.000551358
-0.00133539
-0.00204744
-0.00268222
-0.00323482
-0.00370069
-0.00407561
-0.00435584
-0.00453806
-0.00461954
-0.00459801
-0.00447169
-0.00423927
-0.00389992
-0.0034533
-0.00289958
-0.00223942
-0.00147387
-0.000604327
0.000367354
0.00143895
0.00260787
0.00387108
0.00522523
0.00666676
0.00819187
0.00979643
0.011476
0.0132259
0.0150412
0.0169167
0.018847
0.0208268
0.0228503
0.0249118
0.0270051
0.0291239
0.0312622
0.0334134
0.0355713
0.0377292
0.0398805
0.0420187
0.0441373
0.0462297
0.0482893
0.0503094
0.0522837
0.0542062
0.0560709
0.0578718
0.0596031
0.061259
0.0628343
0.0643239
0.0657234
0.0670285
0.0682352
0.06934
0.0703395
0.0712311
0.0720126
0.0726823
0.0732393
0.0736827
0.0740127
0.0742295
0.0743345
0.0743295
0.0742168
0.0739996
0.0736813
0.0732663
0.072759
0.0721646
0.0714887
0.0707373
0.0699168
0.069034
0.0680958
0.0671091
0.0660805
0.0650166
0.0639227
0.062804
0.0616714
0.0605343
0.0593009
0.0578886
0.0129755
0.0113229
0.00990559
0.00862558
0.00737245
0.00615522
0.00498465
0.00386382
0.0027964
0.0017869
0.00084012
-3.91579e-05
-0.000846119
-0.0015761
-0.00222465
-0.00278759
-0.00326103
-0.00364136
-0.00392538
-0.00411034
-0.00419393
-0.0041743
-0.00404998
-0.00381992
-0.00348358
-0.00304085
-0.00249209
-0.00183808
-0.00107993
-0.000219143
0.000742375
0.00180235
0.00295817
0.00420679
0.00554491
0.00696904
0.00847548
0.0100602
0.0117186
0.0134463
0.0152384
0.0170898
0.0189953
0.0209496
0.0229471
0.024982
0.0270485
0.0291403
0.0312514
0.0333755
0.0355064
0.0376376
0.0397626
0.0418749
0.0439682
0.0460359
0.0480716
0.0500686
0.0520209
0.0539224
0.0557672
0.0575493
0.059263
0.0609026
0.0624628
0.0639387
0.0653258
0.0666199
0.0678169
0.0689132
0.0699054
0.0707909
0.0715672
0.0722327
0.0727862
0.0732268
0.0735543
0.0737689
0.0738717
0.0738639
0.0737478
0.073526
0.0732016
0.0727784
0.0722605
0.0716523
0.0709589
0.0701854
0.0693378
0.0684219
0.0674437
0.0664093
0.0653245
0.0641947
0.0630246
0.061818
0.0605861
0.0593381
0.0579694
0.0563868
0.0143421
0.0125201
0.0109676
0.00957645
0.00822339
0.00691746
0.00566964
0.00448208
0.00335737
0.0022992
0.0013115
0.000398196
-0.000436797
-0.00118963
-0.00185663
-0.00243424
-0.00291918
-0.00330843
-0.00359937
-0.00378975
-0.00387771
-0.00386173
-0.00374065
-0.00351376
-0.0031808
-0.0027419
-0.00219757
-0.00154872
-0.000796593
5.72322e-05
0.00101077
0.00206166
0.00320724
0.00444448
0.00577016
0.00718082
0.00867276
0.010242
0.011884
0.0135945
0.0153685
0.0172012
0.0190874
0.0210219
0.0229993
0.0250138
0.0270595
0.0291305
0.0312207
0.0333241
0.0354344
0.0375453
0.0396504
0.0417433
0.0438176
0.045867
0.0478849
0.0498651
0.0518014
0.0536877
0.0555183
0.0572872
0.0589886
0.0606169
0.0621669
0.0636337
0.0650126
0.0662995
0.0674904
0.0685814
0.0695692
0.0704509
0.071224
0.0718867
0.0724376
0.0728758
0.0732008
0.0734127
0.073512
0.0735
0.0733782
0.0731491
0.0728155
0.0723805
0.0718478
0.0712213
0.0705054
0.0697048
0.0688247
0.0678701
0.0668465
0.065759
0.0646128
0.0634125
0.0621619
0.0608643
0.0595308
0.0581709
0.0566677
0.0549179
0.0156503
0.0136622
0.0119758
0.0104732
0.00901889
0.00762209
0.00629398
0.00503607
0.00385012
0.00273907
0.00170607
0.000754283
-0.000113137
-0.000893079
-0.00158251
-0.0021785
-0.00267832
-0.00307954
-0.00338012
-0.00357823
-0.00367241
-0.00366148
-0.00354466
-0.00332156
-0.00299216
-0.00255682
-0.00201624
-0.00137147
-0.000623863
0.000224872
0.00117261
0.00221695
0.0033552
0.00458434
0.00590115
0.00730218
0.00878377
0.0103419
0.0119722
0.0136702
0.0154313
0.0172506
0.019123
0.0210434
0.0230064
0.0250064
0.0270375
0.0290937
0.0311693
0.0332582
0.0353542
0.0374512
0.0395427
0.0416224
0.0436841
0.0457213
0.0477277
0.0496971
0.0516233
0.0535003
0.0553223
0.0570834
0.0587779
0.0604
0.0619446
0.0634068
0.0647819
0.0660656
0.0672539
0.068343
0.0693291
0.0702094
0.0709814
0.0716429
0.0721924
0.072629
0.0729517
0.0731606
0.0732557
0.073238
0.0731089
0.0728703
0.0725246
0.0720747
0.0715237
0.070875
0.0701324
0.0693003
0.0683829
0.067385
0.0663112
0.0651661
0.0639541
0.0626794
0.0613451
0.0599537
0.0585169
0.0570445
0.0554078
0.0534938
0.0168884
0.0147373
0.0129184
0.0113043
0.00974778
0.00825838
0.00684761
0.00551643
0.004266
0.00309855
0.00201657
0.00102253
0.000118951
-0.000691695
-0.00140694
-0.00202442
-0.00254203
-0.00295789
-0.00327037
-0.0034781
-0.00357999
-0.00357526
-0.00346345
-0.00324449
-0.00291863
-0.00248642
-0.00194874
-0.00130679
-0.000562128
0.000283412
0.00122763
0.00226804
0.00340191
0.00462622
0.00593774
0.00733302
0.00880837
0.0103597
0.0119829
0.0136734
0.0154266
0.0172377
0.0191018
0.0210137
0.022968
0.0249592
0.0269816
0.0290292
0.0310962
0.0331768
0.0352648
0.0373541
0.0394383
0.0415111
0.0435662
0.0455974
0.0475984
0.049563
0.051485
0.0533585
0.0551776
0.0569364
0.0586292
0.0602502
0.0617943
0.0632564
0.0646319
0.0659165
0.067106
0.0681963
0.0691838
0.0700654
0.0708383
0.0715004
0.07205
0.0724857
0.0728067
0.0730124
0.0731029
0.0730786
0.0729408
0.0726909
0.0723311
0.0718636
0.0712912
0.070617
0.0698442
0.0689766
0.0680181
0.0669727
0.0658447
0.0646381
0.0633567
0.0620043
0.0605834
0.0590961
0.0575548
0.0559695
0.0542002
0.0521247
0.0180459
0.0157345
0.0137845
0.0120589
0.0103996
0.00881625
0.00732095
0.00591417
0.00459655
0.00336979
0.00223573
0.00119628
0.000253411
-0.000590917
-0.00133481
-0.00197649
-0.00251434
-0.00294699
-0.00327324
-0.00349211
-0.00360288
-0.00360516
-0.00349888
-0.0032842
-0.0029616
-0.00253185
-0.00199605
-0.00135559
-0.000612184
0.000232195
0.00117524
0.00221441
0.00334691
0.00456972
0.00587957
0.00727295
0.00874614
0.0102951
0.0119157
0.0136034
0.0153538
0.017162
0.0190231
0.0209319
0.0228833
0.0248715
0.026891
0.0289359
0.0310005
0.0330789
0.035165
0.0372528
0.0393358
0.0414078
0.0434626
0.045494
0.0474957
0.0494614
0.0513851
0.0532609
0.0550826
0.0568446
0.0585409
0.060166
0.0617144
0.0631811
0.0645614
0.0658509
0.0670452
0.0681402
0.0691322
0.0700178
0.0707941
0.0714588
0.07201
0.0724461
0.0727659
0.0729688
0.0730544
0.0730231
0.0728755
0.072613
0.0722371
0.0717499
0.0711537
0.0704511
0.069645
0.0687387
0.0677357
0.0666395
0.0654538
0.0641823
0.0628283
0.0613954
0.0598856
0.0583007
0.0566537
0.0549551
0.0530541
0.0508195
0.0191133
0.016644
0.014564
0.0127272
0.0109645
0.00928624
0.00770491
0.00622064
0.00483358
0.00354501
0.00235629
0.00126885
0.000284123
-0.000596404
-0.00137132
-0.00203941
-0.00259955
-0.00305075
-0.00339219
-0.00362334
-0.00374387
-0.00375377
-0.00365321
-0.00344265
-0.00312281
-0.0026947
-0.00215962
-0.00151915
-0.000775185
7.0155e-05
0.00101448
0.00205518
0.00318943
0.0044141
0.00572589
0.00712123
0.00859638
0.0101474
0.0117699
0.0134598
0.0152122
0.0170226
0.0188861
0.0207974
0.0227513
0.0247423
0.0267647
0.0288129
0.030881
0.0329632
0.0350536
0.0371459
0.0392339
0.0413113
0.043372
0.0454096
0.0474179
0.0493908
0.0513221
0.0532058
0.055036
0.0568066
0.0585118
0.060146
0.0617036
0.0631796
0.0645692
0.0658677
0.0670707
0.0681741
0.0691737
0.0700662
0.0708484
0.0715179
0.0720724
0.0725102
0.07283
0.0730306
0.0731116
0.073073
0.0729151
0.0726389
0.0722456
0.0717369
0.0711148
0.0703816
0.0695396
0.0685918
0.0675413
0.0663913
0.065145
0.0638057
0.0623766
0.0608607
0.0592599
0.0575759
0.0558222
0.0540101
0.051978
0.0495859
0.0200822
0.0174569
0.0152477
0.0132999
0.0114334
0.00965935
0.00799075
0.00642737
0.00496903
0.00361662
0.0023711
0.00123348
0.000204807
-0.000713952
-0.00152191
-0.00221824
-0.00280223
-0.00327329
-0.00363105
-0.00387534
-0.00400622
-0.00402399
-0.00392909
-0.00372227
-0.00340448
-0.00297697
-0.00244127
-0.00179916
-0.00105272
-0.000204167
0.000744017
0.00178915
0.00292828
0.00415823
0.0054756
0.0068768
0.00835806
0.0099154
0.0115446
0.0132412
0.0150008
0.0168186
0.0186896
0.0206087
0.0225708
0.0245702
0.0266014
0.0286587
0.0307363
0.0328284
0.0349291
0.0370321
0.0391312
0.0412201
0.0432926
0.0453426
0.0473637
0.0493497
0.0512945
0.053192
0.0550362
0.0568209
0.0585405
0.0601889
0.0617608
0.0632509
0.0646542
0.0659661
0.0671819
0.0682972
0.0693079
0.0702103
0.0710012
0.0716778
0.0722377
0.072679
0.0729999
0.0731993
0.0732762
0.0732303
0.0730618
0.0727713
0.0723596
0.0718282
0.0711786
0.0704128
0.0695328
0.0685413
0.0674408
0.0662344
0.064925
0.0635154
0.0620087
0.0604078
0.0587143
0.0569297
0.0550683
0.0531423
0.0509795
0.0484311
0.0209448
0.0181646
0.015827
0.0137682
0.0117976
0.00992691
0.00816994
0.00652616
0.00499497
0.00357701
0.00227298
0.00108346
9.0656e-06
-0.000949658
-0.00179222
-0.00251819
-0.00312724
-0.00361918
-0.00399404
-0.00425203
-0.00439353
-0.00441913
-0.00432958
-0.00412587
-0.0038092
-0.00338108
-0.00284327
-0.00219777
-0.00144675
-0.00059259
0.000362152
0.00141466
0.0025619
0.00380057
0.00512723
0.00653824
0.00802978
0.00959787
0.0112383
0.0129466
0.0147182
0.0165484
0.0184322
0.0203646
0.0223403
0.0243538
0.0263995
0.0284718
0.0305648
0.0326729
0.0347898
0.0369096
0.0390258
0.0411324
0.043223
0.0452914
0.0473314
0.0493366
0.0513008
0.0532179
0.0550818
0.0568864
0.0586256
0.0602937
0.061885
0.063394
0.0648158
0.0661454
0.0673781
0.0685093
0.0695346
0.0704503
0.0712528
0.0719392
0.0725068
0.0729535
0.0732772
0.0734764
0.07355
0.0734974
0.0733184
0.0730133
0.0725827
0.0720276
0.0713493
0.0705494
0.0696297
0.0685924
0.06744
0.0661751
0.0648002
0.0633183
0.061732
0.0600441
0.0582562
0.0563697
0.0543997
0.0523592
0.0500657
0.0473615
0.0216937
0.0187594
0.0162936
0.0141237
0.0120486
0.0100807
0.00823432
0.0065089
0.00490361
0.00341876
0.00205475
0.000811873
-0.000309671
-0.00130971
-0.00218809
-0.00294475
-0.00357974
-0.00409327
-0.00448572
-0.00475765
-0.00490976
-0.0049429
-0.00485812
-0.00465665
-0.00433999
-0.00390989
-0.00336834
-0.00271748
-0.00195964
-0.00109733
-0.000133239
0.000929698
0.00208832
0.00333924
0.00467895
0.00610376
0.00760981
0.00919307
0.0108493
0.012574
0.0143626
0.0162104
0.0181123
0.0200634
0.0220582
0.0240914
0.0261574
0.0282505
0.0303649
0.0324948
0.0346341
0.0367766
0.0389162
0.0410466
0.0431614
0.0452544
0.0473194
0.0493498
0.0513395
0.0532821
0.0551715
0.0570016
0.0587661
0.0604592
0.062075
0.0636081
0.0650531
0.0664051
0.067659
0.0688101
0.0698539
0.0707863
0.0716037
0.0723028
0.0728807
0.073335
0.0736633
0.0738639
0.0739355
0.073877
0.073688
0.0733684
0.0729186
0.0723393
0.0716314
0.0707963
0.0698355
0.068751
0.0675449
0.0662195
0.0647774
0.0632211
0.0615534
0.0597768
0.0578929
0.0559031
0.0538235
0.0516677
0.0492431
0.0463832
0.0223219
0.0192339
0.0166398
0.0143586
0.0121784
0.0101124
0.00817584
0.00636776
0.00468723
0.00313434
0.00170918
0.000411731
-0.0007581
-0.00180047
-0.00271557
-0.00350367
-0.00416519
-0.00470072
-0.00511096
-0.00539679
-0.0055592
-0.00559932
-0.00551848
-0.00531821
-0.00500026
-0.00456662
-0.00401948
-0.00336113
-0.00259407
-0.00172095
-0.000744601
0.000331902
0.00150528
0.00277206
0.00412867
0.00557135
0.00709618
0.00869908
0.0103758
0.0121217
0.0139323
0.0158027
0.017728
0.0197031
0.0217226
0.0237812
0.0258732
0.027993
0.0301347
0.0322924
0.0344601
0.0366315
0.0388006
0.0409609
0.0431062
0.04523
0.047326
0.0493878
0.0514089
0.0533831
0.0553039
0.0571652
0.0589607
0.0606843
0.0623301
0.0638924
0.0653657
0.0667448
0.0680244
0.0691998
0.070266
0.071219
0.0720547
0.0727697
0.0733608
0.0738251
0.0741603
0.0743642
0.0744351
0.0743718
0.0741736
0.0738401
0.0733712
0.0727675
0.0720296
0.0711586
0.0701558
0.0690227
0.0677615
0.0663742
0.0648632
0.0632309
0.06148
0.0596132
0.0576317
0.0555373
0.0533467
0.0510746
0.048518
0.0455015
0.0228225
0.0195807
0.016858
0.0144649
0.012179
0.0100143
0.00798656
0.00609493
0.00433818
0.00271624
0.00122894
-0.000124034
-0.00134303
-0.00242848
-0.00338091
-0.00420092
-0.00488931
-0.00544696
-0.00587491
-0.00617431
-0.00634644
-0.00639273
-0.00631481
-0.00611448
-0.00579373
-0.00535479
-0.00480001
-0.00413186
-0.00335302
-0.00246629
-0.00147467
-0.000381354
0.000810258
0.00209661
0.00347405
0.00493873
0.00648668
0.00811375
0.00981557
0.0115876
0.0134251
0.0153234
0.0172773
0.0192818
0.0213317
0.0234213
0.0255451
0.0276974
0.0298723
0.0320639
0.034266
0.0364726
0.0386773
0.0408737
0.0430556
0.0452165
0.0473498
0.0494491
0.0515078
0.0535195
0.0554778
0.0573762
0.0592084
0.0609682
0.0626494
0.0642463
0.065753
0.0671642
0.0684743
0.0696784
0.0707715
0.071749
0.0726068
0.0733411
0.0739485
0.0744258
0.0747703
0.0749796
0.0750518
0.0749852
0.0747789
0.0744322
0.0739448
0.0733169
0.0725488
0.0716415
0.0705959
0.0694135
0.068096
0.0666454
0.0650641
0.0633544
0.0615188
0.05956
0.0574795
0.0552788
0.0529758
0.0505861
0.047896
0.0447218
0.023189
0.0197926
0.0169408
0.014435
0.0120427
0.00977834
0.00765868
0.00568263
0.00384879
0.00215691
0.000606633
-0.000802599
-0.00207139
-0.00320043
-0.00419056
-0.00504274
-0.00575804
-0.00633767
-0.00678295
-0.00709531
-0.00727635
-0.0073278
-0.00725156
-0.00704969
-0.00672443
-0.00627819
-0.00571353
-0.0050331
-0.00423977
-0.00333651
-0.00232646
-0.00121295
4.93145e-07
0.00131023
0.00271253
0.00420346
0.00577893
0.00743472
0.00916644
0.0109695
0.012839
0.0147702
0.0167582
0.0187977
0.0208834
0.0230098
0.0251712
0.0273619
0.029576
0.0318075
0.0340502
0.036298
0.0385446
0.0407835
0.0430083
0.0452124
0.0473893
0.0495323
0.0516348
0.0536903
0.055692
0.0576335
0.0595084
0.0613101
0.0630325
0.0646694
0.0662149
0.0676633
0.0690089
0.0702465
0.0713709
0.0723772
0.0732611
0.0740185
0.0746457
0.0751391
0.0754958
0.075713
0.0757885
0.0757205
0.0755076
0.0751488
0.0746437
0.073992
0.0731941
0.0722503
0.0711615
0.0699291
0.0685545
0.0670397
0.0653868
0.0635982
0.0616764
0.0596241
0.0574428
0.0551342
0.0527171
0.050208
0.0473828
0.0440488
0.0234147
0.0198626
0.0168806
0.0142613
0.0117616
0.00939683
0.00718438
0.00512305
0.00321128
0.00144871
-0.000165219
-0.00163125
-0.00295024
-0.00412319
-0.00515119
-0.00603552
-0.00677752
-0.00737871
-0.00784067
-0.00816516
-0.00835408
-0.00840945
-0.00833342
-0.00812832
-0.00779659
-0.00734086
-0.00676388
-0.00606851
-0.00525782
-0.00433495
-0.00330319
-0.00216599
-0.000926974
0.000410092
0.00184138
0.00336284
0.00497031
0.00665949
0.00842591
0.0102649
0.0121716
0.0141411
0.0161684
0.0182484
0.0203756
0.0225445
0.0247495
0.0269845
0.0292438
0.0315213
0.0338108
0.0361061
0.0384008
0.0406885
0.0429626
0.0452163
0.0474431
0.0496362
0.0517887
0.0538941
0.0559455
0.0579363
0.0598598
0.0617095
0.0634788
0.0651614
0.0667512
0.0682422
0.0696286
0.0709047
0.0720652
0.0731049
0.0740193
0.0748038
0.0754544
0.0759673
0.0763393
0.0765673
0.0766487
0.0765813
0.0763636
0.0759943
0.0754725
0.074798
0.0739706
0.0729905
0.0718586
0.0705757
0.0691433
0.0675634
0.0658378
0.063969
0.0619595
0.0598121
0.0575284
0.0551099
0.0525767
0.0499463
0.0469838
0.0434875
0.0234931
0.0197836
0.0166702
0.0139363
0.0113283
0.00886198
0.00655577
0.00440831
0.00241787
0.000583935
-0.00109417
-0.00261739
-0.00398685
-0.0052038
-0.00626962
-0.00718584
-0.00795409
-0.00857616
-0.00905394
-0.00938951
-0.00958506
-0.00964288
-0.00956538
-0.0093551
-0.00901473
-0.00854709
-0.00795518
-0.00724207
-0.006411
-0.00546531
-0.00440839
-0.00324383
-0.00197539
-0.000606951
0.00085754
0.00241394
0.00405798
0.00578527
0.00759126
0.00947121
0.0114202
0.0134333
0.0155055
0.0176316
0.019806
0.0220233
0.0242776
0.026563
0.0288736
0.0312033
0.0335458
0.0358949
0.0382442
0.040587
0.0429167
0.0452265
0.0475096
0.0497591
0.0519681
0.0541298
0.0562372
0.0582836
0.060262
0.0621657
0.063988
0.0657223
0.0673621
0.0689013
0.0703338
0.0716537
0.0728554
0.0739334
0.0748828
0.0756987
0.0763768
0.0769131
0.0773039
0.0775457
0.0776358
0.0775716
0.0773512
0.0769731
0.0764363
0.07574
0.0748839
0.0738681
0.072693
0.0713595
0.069869
0.0682231
0.066424
0.0644737
0.0623751
0.0601309
0.0577427
0.0552125
0.052561
0.049807
0.0467047
0.0430431
0.0234174
0.0195486
0.0163022
0.0134524
0.0107348
0.0081659
0.00576491
0.00353044
0.00146062
-0.000445211
-0.0021879
-0.00376859
-0.00518862
-0.00644949
-0.00755286
-0.00850048
-0.0092943
-0.00993636
-0.0104289
-0.0107743
-0.010975
-0.0110336
-0.0109527
-0.0107351
-0.0103837
-0.00990153
-0.00929192
-0.00855809
-0.00770347
-0.00673156
-0.00564589
-0.00445018
-0.00314834
-0.00174439
-0.000242369
0.00135346
0.0030387
0.0048089
0.00665942
0.00858545
0.010582
0.0126441
0.0147667
0.0169445
0.019172
0.0214434
0.023753
0.0260949
0.028463
0.0308511
0.033253
0.0356623
0.0380725
0.0404769
0.0428688
0.0452411
0.047587
0.0498995
0.0521715
0.054396
0.056566
0.0586743
0.060714
0.0626781
0.0645596
0.0663516
0.0680476
0.0696409
0.0711253
0.0724945
0.0737427