/*--------------------------------*- C++ -*----------------------------------*\
| =========                 |                                                 |
| \\      /  F ield         | OpenFOAM: The Open Source CFD Toolbox           |
|  \\    /   O peration     | Version:  2212                                  |
|   \\  /    A nd           | Website:  www.openfoam.com                      |
|    \\/     M anipulation  |                                                 |
\*---------------------------------------------------------------------------*/
FoamFile
{
    version     2.0;
    format      ascii;
    arch        "LSB;label=32;scalar=64";
    class       surfaceScalarField;
    location    "0.0425";
    object      phi;
}
// * * * * * * * * * * * * * * * * * * * * * * * * * * * * * * * * * * * * * //

dimensions      [0 3 -1 0 0 0 0];

oriented        oriented;

internalField   nonuniform List<scalar> 
19800
(
6.3407e-11
-6.34829e-11
2.1423e-10
-1.50828e-10
3.72146e-10
-1.57918e-10
4.89899e-10
-1.17751e-10
5.39447e-10
-4.95425e-11
5.06014e-10
3.34338e-11
3.82612e-10
1.23403e-10
1.67072e-10
2.15541e-10
-1.39736e-10
3.06798e-10
-5.34983e-10
3.95243e-10
-1.01462e-09
4.79623e-10
-1.57377e-09
5.59138e-10
-2.20699e-09
6.33224e-10
-2.90851e-09
7.01529e-10
-3.67235e-09
7.63853e-10
-4.49245e-09
8.20094e-10
-5.36269e-09
8.70242e-10
-6.27699e-09
9.14319e-10
-7.22936e-09
9.52382e-10
-8.21389e-09
9.84533e-10
-9.22477e-09
1.01089e-09
-1.02564e-08
1.03159e-09
-1.13032e-08
1.04679e-09
-1.23598e-08
1.05665e-09
-1.34211e-08
1.06134e-09
-1.44822e-08
1.06103e-09
-1.55381e-08
1.0559e-09
-1.65842e-08
1.04615e-09
-1.76162e-08
1.03195e-09
-1.86296e-08
1.01348e-09
-1.96206e-08
9.90978e-10
-2.05852e-08
9.64614e-10
-2.15198e-08
9.3456e-10
-2.24208e-08
9.01008e-10
-2.3285e-08
8.64161e-10
-2.41092e-08
8.24199e-10
-2.48905e-08
7.81301e-10
-2.56261e-08
7.35664e-10
-2.63136e-08
6.87486e-10
-2.69506e-08
6.36942e-10
-2.75348e-08
5.84201e-10
-2.80642e-08
5.29457e-10
-2.85371e-08
4.72904e-10
-2.89518e-08
4.14728e-10
-2.9307e-08
3.55108e-10
-2.96012e-08
2.94224e-10
-2.98335e-08
2.32282e-10
-3.00029e-08
1.69478e-10
-3.01089e-08
1.05995e-10
-3.0151e-08
4.20259e-11
-3.01287e-08
-2.22322e-11
-3.00422e-08
-8.6572e-11
-2.98914e-08
-1.50779e-10
-2.96767e-08
-2.14651e-10
-2.93987e-08
-2.77983e-10
-2.90582e-08
-3.40557e-10
-2.8656e-08
-4.02151e-10
-2.81935e-08
-4.62545e-10
-2.7672e-08
-5.21512e-10
-2.70931e-08
-5.78832e-10
-2.64589e-08
-6.34285e-10
-2.57712e-08
-6.87633e-10
-2.50326e-08
-7.38638e-10
-2.42455e-08
-7.87063e-10
-2.34129e-08
-8.32673e-10
-2.25376e-08
-8.7523e-10
-2.16231e-08
-9.14509e-10
-2.06728e-08
-9.50277e-10
-1.96906e-08
-9.82291e-10
-1.86802e-08
-1.01031e-09
-1.76461e-08
-1.03412e-09
-1.65926e-08
-1.05348e-09
-1.55245e-08
-1.06818e-09
-1.44465e-08
-1.07802e-09
-1.33637e-08
-1.0828e-09
-1.22813e-08
-1.08234e-09
-1.12049e-08
-1.07645e-09
-1.01399e-08
-1.06498e-09
-9.09211e-09
-1.04778e-09
-8.0674e-09
-1.02472e-09
-7.07173e-09
-9.95671e-10
-6.11115e-09
-9.60568e-10
-5.19179e-09
-9.19356e-10
-4.31979e-09
-8.72007e-10
-3.50126e-09
-8.18526e-10
-2.74229e-09
-7.5897e-10
-2.04883e-09
-6.9346e-10
-1.42665e-09
-6.2219e-10
-8.81195e-10
-5.45455e-10
-4.17491e-10
-4.63701e-10
-3.99134e-11
-3.77574e-10
2.48098e-10
-2.88013e-10
4.44484e-10
-1.96387e-10
5.49253e-10
-1.04765e-10
5.6559e-10
-1.63294e-11
5.01657e-10
6.39357e-11
3.7349e-10
1.28161e-10
2.09936e-10
1.63551e-10
6.12127e-11
1.48729e-10
6.12104e-11
1.44782e-10
-2.08277e-10
3.95324e-10
-4.01335e-10
6.25681e-10
-3.88281e-10
7.45967e-10
-2.38033e-10
6.96984e-10
-5.61295e-13
4.41455e-10
2.88975e-10
-4.16249e-11
6.06485e-10
-7.6166e-10
9.35587e-10
-1.71999e-09
1.26514e-09
-2.91223e-09
1.5875e-09
-4.33002e-09
1.89742e-09
-5.96216e-09
2.19127e-09
-7.79551e-09
2.46657e-09
-9.81557e-09
2.7216e-09
-1.2007e-08
2.95524e-09
-1.43537e-08
3.16685e-09
-1.68395e-08
3.35607e-09
-1.94481e-08
3.52282e-09
-2.21629e-08
3.66719e-09
-2.49677e-08
3.7894e-09
-2.78467e-08
3.8898e-09
-3.07839e-08
3.96883e-09
-3.37641e-08
4.02698e-09
-3.67723e-08
4.06481e-09
-3.97938e-08
4.08291e-09
-4.28147e-08
4.08192e-09
-4.58213e-08
4.06248e-09
-4.88004e-08
4.02528e-09
-5.17395e-08
3.97101e-09
-5.46264e-08
3.90039e-09
-5.74496e-08
3.81412e-09
-6.01979e-08
3.71294e-09
-6.28609e-08
3.59755e-09
-6.54286e-08
3.46868e-09
-6.78914e-08
3.32704e-09
-7.02406e-08
3.17333e-09
-7.24675e-08
3.00829e-09
-7.45645e-08
2.83265e-09
-7.65241e-08
2.64711e-09
-7.83396e-08
2.4524e-09
-8.00047e-08
2.24924e-09
-8.15135e-08
2.03834e-09
-8.28611e-08
1.82043e-09
-8.40425e-08
1.59622e-09
-8.50539e-08
1.36643e-09
-8.58914e-08
1.13181e-09
-8.65523e-08
8.93088e-10
-8.70338e-08
6.51032e-10
-8.73342e-08
4.06382e-10
-8.74521e-08
1.59893e-10
-8.73866e-08
-8.76567e-11
-8.71377e-08
-3.35483e-10
-8.67057e-08
-5.82787e-10
-8.60916e-08
-8.28758e-10
-8.5297e-08
-1.07258e-09
-8.43241e-08
-1.31343e-09
-8.31758e-08
-1.55045e-09
-8.18556e-08
-1.78279e-09
-8.03675e-08
-2.00959e-09
-7.87164e-08
-2.22999e-09
-7.69076e-08
-2.44309e-09
-7.49472e-08
-2.64801e-09
-7.2842e-08
-2.84386e-09
-7.05993e-08
-3.02972e-09
-6.82273e-08
-3.20469e-09
-6.57346e-08
-3.36788e-09
-6.31308e-08
-3.51839e-09
-6.04257e-08
-3.65532e-09
-5.76302e-08
-3.77779e-09
-5.47556e-08
-3.88492e-09
-5.18139e-08
-3.97586e-09
-4.88176e-08
-4.04976e-09
-4.57799e-08
-4.10584e-09
-4.27146e-08
-4.14333e-09
-3.96359e-08
-4.16149e-09
-3.65586e-08
-4.15964e-09
-3.34979e-08
-4.13715e-09
-3.04695e-08
-4.09345e-09
-2.74892e-08
-4.02802e-09
-2.45735e-08
-3.94042e-09
-2.17389e-08
-3.83033e-09
-1.90019e-08
-3.69749e-09
-1.63795e-08
-3.54177e-09
-1.38883e-08
-3.36321e-09
-1.15449e-08
-3.162e-09
-9.36531e-09
-2.93853e-09
-7.3653e-09
-2.69347e-09
-5.55965e-09
-2.42784e-09
-3.96201e-09
-2.14309e-09
-2.58445e-09
-1.84127e-09
-1.43679e-09
-1.52524e-09
-5.25782e-10
-1.19902e-09
1.46069e-10
-8.68231e-10
5.82208e-10
-5.40895e-10
7.94383e-10
-2.28505e-10
8.06022e-10
5.22874e-11
6.56806e-10
2.77372e-10
4.08243e-10
4.12121e-10
1.48626e-10
4.08347e-10
2.09827e-10
1.5812e-10
-3.66399e-10
3.87634e-10
-6.30868e-10
5.40138e-10
-5.40781e-10
5.0895e-10
-2.06844e-10
2.18952e-10
2.89436e-10
-3.79952e-10
8.87878e-10
-1.31819e-09
1.54471e-09
-2.61113e-09
2.22853e-09
-4.26285e-09
2.91684e-09
-6.2689e-09
3.59356e-09
-8.61863e-09
4.24715e-09
-1.12967e-08
4.86936e-09
-1.42845e-08
5.45432e-09
-1.75608e-08
5.99791e-09
-2.11028e-08
6.4973e-09
-2.48866e-08
6.95066e-09
-2.88875e-08
7.35692e-09
-3.30802e-08
7.71557e-09
-3.74395e-08
8.02655e-09
-4.19403e-08
8.29017e-09
-4.65575e-08
8.50698e-09
-5.12665e-08
8.67777e-09
-5.6043e-08
8.80351e-09
-6.08635e-08
8.88529e-09
-6.57049e-08
8.92432e-09
-7.05449e-08
8.92189e-09
-7.53617e-08
8.87937e-09
-8.01346e-08
8.79817e-09
-8.48434e-08
8.67977e-09
-8.94687e-08
8.52567e-09
-9.39919e-08
8.3374e-09
-9.83955e-08
8.1165e-09
-1.02662e-07
7.8645e-09
-1.06777e-07
7.58297e-09
-1.10723e-07
7.27348e-09
-1.14487e-07
6.93759e-09
-1.18056e-07
6.57686e-09
-1.21416e-07
6.19286e-09
-1.24556e-07
5.78717e-09
-1.27465e-07
5.36136e-09
-1.30133e-07
4.91701e-09
-1.3255e-07
4.45569e-09
-1.34709e-07
3.97901e-09
-1.36601e-07
3.48853e-09
-1.38221e-07
2.98586e-09
-1.39562e-07
2.47261e-09
-1.40619e-07
1.95041e-09
-1.41389e-07
1.42091e-09
-1.41868e-07
8.85764e-10
-1.42055e-07
3.46652e-10
-1.41948e-07
-1.94732e-10
-1.41547e-07
-7.36659e-10
-1.40852e-07
-1.27739e-09
-1.39866e-07
-1.81514e-09
-1.3859e-07
-2.34811e-09
-1.37029e-07
-2.87448e-09
-1.35187e-07
-3.39242e-09
-1.3307e-07
-3.90005e-09
-1.30684e-07
-4.39548e-09
-1.28037e-07
-4.8768e-09
-1.25138e-07
-5.34209e-09
-1.21997e-07
-5.78941e-09
-1.18624e-07
-6.21679e-09
-1.15031e-07
-6.62229e-09
-1.11232e-07
-7.00392e-09
-1.0724e-07
-7.35975e-09
-1.03071e-07
-7.68783e-09
-9.87398e-08
-7.98622e-09
-9.42645e-08
-8.25301e-09
-8.96631e-08
-8.48634e-09
-8.49546e-08
-8.68438e-09
-8.0159e-08
-8.84534e-09
-7.52973e-08
-8.96753e-09
-7.03914e-08
-9.0493e-09
-6.54637e-08
-9.08914e-09
-6.05378e-08
-9.0856e-09
-5.56376e-08
-9.03736e-09
-5.07877e-08
-8.94326e-09
-4.60135e-08
-8.80229e-09
-4.13403e-08
-8.61359e-09
-3.67941e-08
-8.37653e-09
-3.24009e-08
-8.09073e-09
-2.81865e-08
-7.75609e-09
-2.41769e-08
-7.37285e-09
-2.03973e-08
-6.94163e-09
-1.68722e-08
-6.4636e-09
-1.36252e-08
-5.94049e-09
-1.06782e-08
-5.37486e-09
-8.05103e-09
-4.77025e-09
-5.76079e-09
-4.1315e-09
-3.82078e-09
-3.46525e-09
-2.23933e-09
-2.78047e-09
-1.01814e-09
-2.08942e-09
-1.50179e-10
-1.40885e-09
3.83124e-10
-7.61802e-10
6.15433e-10
-1.80024e-10
5.99914e-10
2.9289e-10
4.13959e-10
5.98076e-10
1.63996e-10
6.58298e-10
3.73824e-10
1.19949e-10
-4.86343e-10
2.44666e-10
-7.55578e-10
2.17826e-10
-5.13947e-10
-7.25783e-11
8.35842e-11
-7.07476e-10
9.24334e-10
-1.74254e-09
1.92296e-09
-3.21296e-09
3.01514e-09
-5.13748e-09
4.15306e-09
-7.52189e-09
5.30124e-09
-1.03618e-08
6.43344e-09
-1.36449e-08
7.53025e-09
-1.73529e-08
8.57738e-09
-2.1463e-08
9.56442e-09
-2.59489e-08
1.04838e-08
-3.07818e-08
1.13302e-08
-3.59312e-08
1.21001e-08
-4.13654e-08
1.27911e-08
-4.70518e-08
1.34019e-08
-5.29574e-08
1.39322e-08
-5.90494e-08
1.43821e-08
-6.52947e-08
1.47523e-08
-7.1661e-08
1.50441e-08
-7.81162e-08
1.52587e-08
-8.46288e-08
1.53979e-08
-9.11683e-08
1.54638e-08
-9.77048e-08
1.54584e-08
-1.04209e-07
1.53839e-08
-1.10654e-07
1.52427e-08
-1.17011e-07
1.50374e-08
-1.23256e-07
1.47703e-08
-1.29363e-07
1.44441e-08
-1.35308e-07
1.40615e-08
-1.41068e-07
1.3625e-08
-1.46623e-07
1.31373e-08
-1.5195e-07
1.26011e-08
-1.57032e-07
1.20192e-08
-1.61849e-07
1.13942e-08
-1.66385e-07
1.07288e-08
-1.70624e-07
1.00258e-08
-1.7455e-07
9.28781e-09
-1.78151e-07
8.51769e-09
-1.81413e-07
7.71812e-09
-1.84326e-07
6.89188e-09
-1.86879e-07
6.04173e-09
-1.89064e-07
5.17045e-09
-1.90872e-07
4.28085e-09
-1.92297e-07
3.37577e-09
-1.93335e-07
2.45807e-09
-1.9398e-07
1.53062e-09
-1.94229e-07
5.96371e-10
-1.94082e-07
-3.41742e-10
-1.93538e-07
-1.28072e-09
-1.92598e-07
-2.21751e-09
-1.91264e-07
-3.14905e-09
-1.8954e-07
-4.07222e-09
-1.87431e-07
-4.98384e-09
-1.84942e-07
-5.88073e-09
-1.82083e-07
-6.75965e-09
-1.78861e-07
-7.61732e-09
-1.75287e-07
-8.45043e-09
-1.71374e-07
-9.25566e-09
-1.67133e-07
-1.00297e-08
-1.62581e-07
-1.0769e-08
-1.57733e-07
-1.14704e-08
-1.52607e-07
-1.21305e-08
-1.4722e-07
-1.27458e-08
-1.41595e-07
-1.3313e-08
-1.35753e-07
-1.38289e-08
-1.29716e-07
-1.42901e-08
-1.23508e-07
-1.46935e-08
-1.17157e-07
-1.5036e-08
-1.10688e-07
-1.53145e-08
-1.04129e-07
-1.55262e-08
-9.751e-08
-1.56684e-08
-9.08607e-08
-1.57384e-08
-8.42125e-08
-1.57338e-08
-7.75972e-08
-1.56526e-08
-7.10477e-08
-1.54928e-08
-6.45971e-08
-1.52528e-08
-5.82794e-08
-1.49313e-08
-5.21286e-08
-1.45274e-08
-4.61787e-08
-1.40406e-08
-4.04639e-08
-1.3471e-08
-3.50175e-08
-1.28192e-08
-2.98723e-08
-1.20868e-08
-2.506e-08
-1.12759e-08
-2.06104e-08
-1.03901e-08
-1.65513e-08
-9.43405e-09
-1.29072e-08
-8.41432e-09
-9.69903e-09
-7.33965e-09
-6.9426e-09
-6.22168e-09
-4.6472e-09
-5.07587e-09
-2.81391e-09
-3.92271e-09
-1.43331e-09
-2.78944e-09
-4.82805e-10
-1.71231e-09
7.66803e-11
-7.39513e-10
3.0451e-10
6.50643e-11
2.84492e-10
6.18088e-10
1.30238e-10
8.1255e-10
5.04072e-10
5.47864e-11
-5.41126e-10
1.55562e-11
-7.16353e-10
-2.6423e-10
-2.34159e-10
-8.93092e-10
7.12444e-10
-1.95091e-09
1.98215e-09
-3.49374e-09
3.46579e-09
-5.55773e-09
5.07913e-09
-8.16246e-09
6.7578e-09
-1.1314e-08
8.45278e-09
-1.50073e-08
1.01268e-08
-1.92287e-08
1.17516e-08
-2.39573e-08
1.3306e-08
-2.91668e-08
1.47739e-08
-3.48268e-08
1.61438e-08
-4.09036e-08
1.74071e-08
-4.73612e-08
1.85577e-08
-5.41618e-08
1.95917e-08
-6.12667e-08
2.05068e-08
-6.86364e-08
2.13019e-08
-7.6231e-08
2.19767e-08
-8.40108e-08
2.25322e-08
-9.19364e-08
2.29696e-08
-9.99687e-08
2.3291e-08
-1.08069e-07
2.34987e-08
-1.16201e-07
2.35954e-08
-1.24327e-07
2.35843e-08
-1.32412e-07
2.34685e-08
-1.40421e-07
2.32516e-08
-1.4832e-07
2.29372e-08
-1.56079e-07
2.2529e-08
-1.63666e-07
2.20309e-08
-1.71051e-07
2.14469e-08
-1.78207e-07
2.07808e-08
-1.85107e-07
2.00367e-08
-1.91724e-07
1.92187e-08
-1.98036e-07
1.83309e-08
-2.04019e-07
1.73774e-08
-2.09652e-07
1.63622e-08
-2.14916e-07
1.52896e-08
-2.19792e-07
1.41638e-08
-2.24263e-07
1.29888e-08
-2.28314e-07
1.17689e-08
-2.31931e-07
1.05083e-08
-2.351e-07
9.21117e-09
-2.37811e-07
7.88187e-09
-2.40055e-07
6.52466e-09
-2.41823e-07
5.14388e-09
-2.43109e-07
3.7439e-09
-2.43908e-07
2.32913e-09
-2.44215e-07
9.04064e-10
-2.4403e-07
-5.26784e-10
-2.43352e-07
-1.95884e-09
-2.42182e-07
-3.38745e-09
-2.40523e-07
-4.80791e-09
-2.3838e-07
-6.21547e-09
-2.35759e-07
-7.60531e-09
-2.32667e-07
-8.97253e-09
-2.29114e-07
-1.03122e-08
-2.25112e-07
-1.16193e-08
-2.20674e-07
-1.28889e-08
-2.15814e-07
-1.41159e-08
-2.10548e-07
-1.52951e-08
-2.04896e-07
-1.64215e-08
-1.98876e-07
-1.74899e-08
-1.92511e-07
-1.84952e-08
-1.85825e-07
-1.94324e-08
-1.78841e-07
-2.02964e-08
-1.71588e-07
-2.10821e-08
-1.64093e-07
-2.17848e-08
-1.56387e-07
-2.23995e-08
-1.48502e-07
-2.29218e-08
-1.40469e-07
-2.33469e-08
-1.32325e-07
-2.36708e-08
-1.24104e-07
-2.38892e-08
-1.15844e-07
-2.39985e-08
-1.07582e-07
-2.3995e-08
-9.93594e-08
-2.38757e-08
-9.12143e-08
-2.36379e-08
-8.31879e-08
-2.32792e-08
-7.53213e-08
-2.27979e-08
-6.76557e-08
-2.2193e-08
-6.02324e-08
-2.14638e-08
-5.30924e-08
-2.0611e-08
-4.62758e-08
-1.96358e-08
-3.98218e-08
-1.85408e-08
-3.37678e-08
-1.73299e-08
-2.81492e-08
-1.60087e-08
-2.29984e-08
-1.45849e-08
-1.8344e-08
-1.30687e-08
-1.421e-08
-1.14737e-08
-1.06142e-08
-9.81743e-09
-7.56718e-09
-8.12291e-09
-5.07002e-09
-6.41986e-09
-3.11256e-09
-4.74691e-09
-1.67082e-09
-3.15406e-09
-7.04213e-10
-1.70611e-09
-1.52451e-10
-4.86692e-10
6.80471e-11
3.97586e-10
6.87778e-11
8.11829e-10
5.72853e-10
-2.51054e-11
-5.16021e-10
-2.65491e-10
-4.75966e-10
-8.48577e-10
3.48925e-10
-1.87232e-09
1.73619e-09
-3.41033e-09
3.52017e-09
-5.515e-09
5.57047e-09
-8.22028e-09
7.78441e-09
-1.15443e-08
1.00818e-08
-1.54918e-08
1.24003e-08
-2.00564e-08
1.46913e-08
-2.52222e-08
1.69175e-08
-3.09661e-08
1.90498e-08
-3.72587e-08
2.10665e-08
-4.40658e-08
2.29509e-08
-5.13495e-08
2.46908e-08
-5.90692e-08
2.62773e-08
-6.71819e-08
2.77044e-08
-7.56434e-08
2.89683e-08
-8.44085e-08
3.00669e-08
-9.34314e-08
3.09997e-08
-1.02666e-07
3.17671e-08
-1.12068e-07
3.2371e-08
-1.2159e-07
3.28135e-08
-1.31189e-07
3.30978e-08
-1.40822e-07
3.32275e-08
-1.50444e-07
3.32067e-08
-1.60015e-07
3.30396e-08
-1.69494e-07
3.2731e-08
-1.78843e-07
3.22859e-08
-1.88024e-07
3.17094e-08
-1.96999e-07
3.10068e-08
-2.05736e-07
3.01836e-08
-2.142e-07
2.92451e-08
-2.22361e-07
2.81971e-08
-2.30187e-07
2.70452e-08
-2.37652e-07
2.57952e-08
-2.44727e-07
2.44527e-08
-2.51388e-07
2.30235e-08
-2.57612e-07
2.15136e-08
-2.63377e-07
1.99287e-08
-2.68663e-07
1.82746e-08
-2.73452e-07
1.65574e-08
-2.77726e-07
1.47829e-08
-2.81472e-07
1.29571e-08
-2.84676e-07
1.10861e-08
-2.87327e-07
9.17578e-09
-2.89416e-07
7.23239e-09
-2.90934e-07
5.26207e-09
-2.91876e-07
3.27105e-09
-2.92238e-07
1.26565e-09
-2.92017e-07
-7.47774e-10
-2.91213e-07
-2.76274e-09
-2.89827e-07
-4.77272e-09
-2.87864e-07
-6.7711e-09
-2.85329e-07
-8.75117e-09
-2.82228e-07
-1.07061e-08
-2.78571e-07
-1.26291e-08
-2.7437e-07
-1.45133e-08
-2.69638e-07
-1.63515e-08
-2.6439e-07
-1.81368e-08
-2.58644e-07
-1.9862e-08
-2.52419e-07
-2.152e-08
-2.45737e-07
-2.31036e-08
-2.38621e-07
-2.46057e-08
-2.31097e-07
-2.60191e-08
-2.23193e-07
-2.73368e-08
-2.14938e-07
-2.85516e-08
-2.06363e-07
-2.96567e-08
-1.97503e-07
-3.06453e-08
-1.88391e-07
-3.15107e-08
-1.79067e-07
-3.22464e-08
-1.69567e-07
-3.28464e-08
-1.59934e-07
-3.33046e-08
-1.50207e-07
-3.36155e-08
-1.40432e-07
-3.37739e-08
-1.30652e-07
-3.37751e-08
-1.20913e-07
-3.36149e-08
-1.11261e-07
-3.32896e-08
-1.01744e-07
-3.27964e-08
-9.24088e-08
-3.2133e-08
-8.33036e-08
-3.12982e-08
-7.44758e-08
-3.02917e-08
-6.59723e-08
-2.91144e-08
-5.78394e-08
-2.77688e-08
-5.01216e-08
-2.62586e-08
-4.28615e-08
-2.459e-08
-3.6099e-08
-2.27711e-08
-2.98709e-08
-2.08131e-08
-2.42091e-08
-1.87305e-08
-1.91404e-08
-1.65423e-08
-1.46851e-08
-1.42728e-08
-1.0855e-08
-1.1953e-08
-7.65258e-09
-9.62232e-09
-5.06841e-09
-7.33109e-09
-3.07954e-09
-5.14294e-09
-1.64707e-09
-3.13857e-09
-7.13795e-10
-1.41997e-09
-2.01489e-10
-1.14721e-10
-7.79438e-12
6.18143e-10
5.65053e-10
-1.12243e-10
-4.03774e-10
-5.75653e-10
-1.25536e-11
-1.49428e-09
1.26754e-09
-2.95109e-09
3.19302e-09
-5.00969e-09
5.57877e-09
-7.71558e-09
8.27636e-09
-1.1098e-08
1.11668e-08
-1.51715e-08
1.41554e-08
-1.99381e-08
1.71669e-08
-2.53889e-08
2.01421e-08
-3.15055e-08
2.30341e-08
-3.82619e-08
2.58063e-08
-4.56257e-08
2.84303e-08
-5.35593e-08
3.08845e-08
-6.2021e-08
3.31525e-08
-7.09658e-08
3.52222e-08
-8.03465e-08
3.70851e-08
-9.01137e-08
3.87356e-08
-1.00217e-07
4.01706e-08
-1.10607e-07
4.13888e-08
-1.2123e-07
4.23905e-08
-1.32036e-07
4.31774e-08
-1.42975e-07
4.37522e-08
-1.53996e-07
4.41188e-08
-1.6505e-07
4.42814e-08
-1.76088e-07
4.42452e-08
-1.87065e-07
4.40159e-08
-1.97933e-07
4.35994e-08
-2.08649e-07
4.30021e-08
-2.1917e-07
4.22306e-08
-2.29456e-07
4.1292e-08
-2.39465e-07
4.01932e-08
-2.49162e-07
3.89416e-08
-2.58509e-07
3.75444e-08
-2.67473e-07
3.60093e-08
-2.76021e-07
3.43436e-08
-2.84124e-07
3.2555e-08
-2.91751e-07
3.06512e-08
-2.98878e-07
2.86399e-08
-3.05478e-07
2.65289e-08
-3.11529e-07
2.4326e-08
-3.17011e-07
2.2039e-08
-3.21904e-07
1.96759e-08
-3.26191e-07
1.72445e-08
-3.29858e-07
1.4753e-08
-3.32892e-07
1.22093e-08
-3.35281e-07
9.62173e-09
-3.37017e-07
6.99838e-09
-3.38094e-07
4.34763e-09
-3.38506e-07
1.67786e-09
-3.38252e-07
-1.00243e-09
-3.3733e-07
-3.68463e-09
-3.35742e-07
-6.36002e-09
-3.33494e-07
-9.01981e-09
-3.3059e-07
-1.16551e-08
-3.27039e-07
-1.42568e-08
-3.22852e-07
-1.68158e-08
-3.18043e-07
-1.93229e-08
-3.12625e-07
-2.17689e-08
-3.06618e-07
-2.41443e-08
-3.0004e-07
-2.64397e-08
-2.92914e-07
-2.86457e-08
-2.85265e-07
-3.07527e-08
-2.77119e-07
-3.27514e-08
-2.68506e-07
-3.46322e-08
-2.59457e-07
-3.63858e-08
-2.50006e-07
-3.80029e-08
-2.40188e-07
-3.94744e-08
-2.30042e-07
-4.07914e-08
-2.19608e-07
-4.19451e-08
-2.08927e-07
-4.29271e-08
-1.98044e-07
-4.37293e-08
-1.87005e-07
-4.43439e-08
-1.75857e-07
-4.47639e-08
-1.64648e-07
-4.49825e-08
-1.53429e-07
-4.49936e-08
-1.42252e-07
-4.47919e-08
-1.31169e-07
-4.43729e-08
-1.20233e-07
-4.37328e-08
-1.09496e-07
-4.28692e-08
-9.90138e-08
-4.17808e-08
-8.88381e-08
-4.04674e-08
-7.90215e-08
-3.89309e-08
-6.96155e-08
-3.71748e-08
-6.06696e-08
-3.52046e-08
-5.22309e-08
-3.30287e-08
-4.43436e-08
-3.06584e-08
-3.70479e-08
-2.81087e-08
-3.03795e-08
-2.53989e-08
-2.4368e-08
-2.25539e-08
-1.90359e-08
-1.96048e-08
-1.43978e-08
-1.65911e-08
-1.04579e-08
-1.35622e-08
-7.20956e-09
-1.05795e-08
-4.63271e-09
-7.71978e-09
-2.69276e-09
-5.07852e-09
-1.33864e-09
-2.77409e-09
-5.01284e-10
-9.52076e-10
-9.19773e-11
2.08833e-10
4.73072e-10
-2.02148e-10
-2.01633e-10
-8.99989e-10
6.85291e-10
-2.17315e-09
2.5407e-09
-4.08727e-09
5.10713e-09
-6.69337e-09
8.18488e-09
-1.00278e-08
1.16108e-08
-1.4113e-08
1.5252e-08
-1.89584e-08
1.90007e-08
-2.45617e-08
2.27703e-08
-3.09104e-08
2.64908e-08
-3.79831e-08
3.01067e-08
-4.57504e-08
3.35736e-08
-5.41768e-08
3.68567e-08
-6.32211e-08
3.99288e-08
-7.2838e-08
4.27694e-08
-8.29786e-08
4.53628e-08
-9.35914e-08
4.76979e-08
-1.04623e-07
4.97672e-08
-1.16019e-07
5.15662e-08
-1.27722e-07
5.30925e-08
-1.39678e-07
5.43464e-08
-1.5183e-07
5.53293e-08
-1.64122e-07
5.60445e-08
-1.765e-07
5.64961e-08
-1.88908e-07
5.66897e-08
-2.01294e-07
5.66312e-08
-2.13605e-07
5.63275e-08
-2.25792e-07
5.57862e-08
-2.37805e-07
5.50151e-08
-2.49597e-07
5.40224e-08
-2.61122e-07
5.2817e-08
-2.72336e-07
5.14076e-08
-2.83198e-07
4.98035e-08
-2.93668e-07
4.80138e-08
-3.03707e-07
4.60481e-08
-3.13279e-07
4.39159e-08
-3.22351e-07
4.1627e-08
-3.30891e-07
3.9191e-08
-3.38869e-07
3.66178e-08
-3.46257e-07
3.39173e-08
-3.5303e-07
3.10995e-08
-3.59166e-07
2.81743e-08
-3.64642e-07
2.51519e-08
-3.6944e-07
2.20425e-08
-3.73543e-07
1.88563e-08
-3.76937e-07
1.56036e-08
-3.79611e-07
1.22949e-08
-3.81553e-07
8.94064e-09
-3.82757e-07
5.5515e-09
-3.83217e-07
2.13823e-09
-3.82931e-07
-1.28832e-09
-3.81899e-07
-4.71713e-09
-3.80122e-07
-8.13709e-09
-3.77605e-07
-1.15369e-08
-3.74354e-07
-1.49053e-08
-3.7038e-07
-1.82306e-08
-3.65695e-07
-2.15013e-08
-3.60312e-07
-2.47055e-08
-3.5425e-07
-2.78316e-08
-3.47527e-07
-3.08674e-08
-3.40165e-07
-3.3801e-08
-3.32191e-07
-3.66204e-08
-3.2363e-07
-3.93136e-08
-3.14513e-07
-4.18684e-08
-3.04872e-07
-4.42729e-08
-2.94743e-07
-4.65153e-08
-2.84162e-07
-4.85838e-08
-2.73169e-07
-5.04668e-08
-2.61808e-07
-5.21531e-08
-2.50121e-07
-5.36316e-08
-2.38156e-07
-5.48918e-08
-2.25962e-07
-5.59235e-08
-2.13589e-07
-5.67171e-08
-2.01089e-07
-5.72635e-08
-1.88517e-07
-5.75545e-08
-1.75928e-07
-5.75825e-08
-1.63379e-07
-5.7341e-08
-1.50928e-07
-5.68246e-08
-1.38632e-07
-5.60288e-08
-1.2655e-07
-5.49509e-08
-1.14741e-07
-5.35895e-08
-1.03264e-07
-5.1945e-08
-9.21745e-08
-5.002e-08
-8.153e-08
-4.78193e-08
-7.1384e-08
-4.53506e-08
-6.17879e-08
-4.26248e-08
-5.27898e-08
-3.96565e-08
-4.44336e-08
-3.64648e-08
-3.67583e-08
-3.30742e-08
-2.97966e-08
-2.95155e-08
-2.35743e-08
-2.58271e-08
-1.81087e-08
-2.20567e-08
-1.34076e-08
-1.82633e-08
-9.46787e-09
-1.45192e-08
-6.27442e-09
-1.09132e-08
-3.7989e-09
-7.55406e-09
-1.99868e-09
-4.5743e-09
-8.16327e-10
-2.13443e-09
-1.7925e-10
-4.28248e-10
2.93829e-10
-2.9221e-10
9.05712e-11
-1.22903e-09
1.62213e-09
-2.86629e-09
4.17795e-09
-5.25145e-09
7.49229e-09
-8.42156e-09
1.1355e-08
-1.24022e-08
1.55915e-08
-1.72075e-08
2.00572e-08
-2.28402e-08
2.46334e-08
-2.92929e-08
2.92229e-08
-3.65483e-08
3.37463e-08
-4.4581e-08
3.81394e-08
-5.33581e-08
4.23507e-08
-6.28403e-08
4.63389e-08
-7.2983e-08
5.00715e-08
-8.37371e-08
5.35235e-08
-9.505e-08
5.66757e-08
-1.06866e-07
5.95142e-08
-1.19128e-07
6.20294e-08
-1.31777e-07
6.42151e-08
-1.44753e-07
6.60683e-08
-1.57995e-07
6.75884e-08
-1.71443e-07
6.8777e-08
-1.85036e-07
6.96375e-08
-1.98715e-07
7.01749e-08
-2.1242e-07
7.03952e-08
-2.26095e-07
7.03057e-08
-2.39682e-07
6.99147e-08
-2.53127e-07
6.9231e-08
-2.66376e-07
6.82641e-08
-2.79378e-07
6.70242e-08
-2.92082e-07
6.55217e-08
-3.04442e-07
6.37674e-08
-3.16411e-07
6.17727e-08
-3.27946e-07
5.95487e-08
-3.39005e-07
5.71072e-08
-3.49549e-07
5.44599e-08
-3.59541e-07
5.16187e-08
-3.68945e-07
4.85956e-08
-3.7773e-07
4.54028e-08
-3.85866e-07
4.20526e-08
-3.93323e-07
3.85571e-08
-4.00078e-07
3.49289e-08
-4.06106e-07
3.11804e-08
-4.11388e-07
2.73243e-08
-4.15905e-07
2.33731e-08
-4.19641e-07
1.93398e-08
-4.22584e-07
1.52372e-08
-4.24721e-07
1.10784e-08
-4.26046e-07
6.8766e-09
-4.26553e-07
2.64503e-09
-4.26239e-07
-1.60281e-09
-4.25103e-07
-5.85328e-09
-4.23147e-07
-1.00926e-08
-4.20377e-07
-1.43069e-08
-4.168e-07
-1.8482e-08
-4.12427e-07
-2.26037e-08
-4.07271e-07
-2.66576e-08
-4.01347e-07
-3.06292e-08
-3.94675e-07
-3.45039e-08
-3.87276e-07
-3.82668e-08
-3.79173e-07
-4.19033e-08
-3.70395e-07
-4.53984e-08
-3.60972e-07
-4.87373e-08
-3.50935e-07
-5.19052e-08
-3.4032e-07
-5.48874e-08
-3.29166e-07
-5.76693e-08
-3.17514e-07
-6.02364e-08
-3.05406e-07
-6.25745e-08
-2.92889e-07
-6.46699e-08
-2.80012e-07
-6.65091e-08
-2.66825e-07
-6.80791e-08
-2.53381e-07
-6.93676e-08
-2.39735e-07
-7.03628e-08
-2.25945e-07
-7.10538e-08
-2.12068e-07
-7.14307e-08
-1.98167e-07
-7.14844e-08
-1.843e-07
-7.12071e-08
-1.70533e-07
-7.05923e-08
-1.56926e-07
-6.96351e-08
-1.43545e-07
-6.83324e-08
-1.30452e-07
-6.66827e-08
-1.1771e-07
-6.46871e-08
-1.05381e-07
-6.23491e-08
-9.35248e-08
-5.96751e-08
-8.22005e-08
-5.66749e-08
-7.14633e-08
-5.33621e-08
-6.13649e-08
-4.97549e-08
-5.19531e-08
-4.58767e-08
-4.32702e-08
-4.17571e-08
-3.53527e-08
-3.7433e-08
-2.82297e-08
-3.29501e-08
-2.19225e-08
-2.8364e-08
-1.64431e-08
-2.37427e-08
-1.17934e-08
-1.91689e-08
-7.96449e-09
-1.47421e-08
-4.9358e-09
-1.05828e-08
-2.67476e-09
-6.83533e-09
-1.13697e-09
-3.67222e-09
-2.66943e-10
-1.29827e-09
2.68945e-11
-3.80957e-10
4.7152e-10
-1.55689e-09
2.79806e-09
-3.56131e-09
6.18237e-09
-6.42363e-09
1.03546e-08
-1.01664e-08
1.50977e-08
-1.48034e-08
2.02285e-08
-2.03393e-08
2.55932e-08
-2.67693e-08
3.10634e-08
-3.40794e-08
3.6533e-08
-4.22472e-08
4.19141e-08
-5.12426e-08
4.71348e-08
-6.10282e-08
5.21363e-08
-7.15609e-08
5.68716e-08
-8.27923e-08
6.13029e-08
-9.46694e-08
6.54006e-08
-1.07136e-07
6.91423e-08
-1.20133e-07
7.2511e-08
-1.33598e-07
7.54949e-08
-1.4747e-07
7.80863e-08
-1.61682e-07
8.02812e-08
-1.76172e-07
8.20783e-08
-1.90874e-07
8.34792e-08
-2.05724e-07
8.44875e-08
-2.20658e-07
8.51087e-08
-2.35613e-07
8.53499e-08
-2.50527e-07
8.52194e-08
-2.65339e-07
8.47267e-08
-2.7999e-07
8.38823e-08
-2.94423e-07
8.26974e-08
-3.08583e-07
8.1184e-08
-3.22416e-07
7.93544e-08
-3.3587e-07
7.72217e-08
-3.48896e-07
7.47991e-08
-3.61448e-07
7.21003e-08
-3.7348e-07
6.91392e-08
-3.8495e-07
6.59298e-08
-3.95818e-07
6.24866e-08
-4.06046e-07
5.88239e-08
-4.156e-07
5.49564e-08
-4.24446e-07
5.08988e-08
-4.32555e-07
4.6666e-08
-4.39899e-07
4.22729e-08
-4.46453e-07
3.77347e-08
-4.52195e-07
3.30666e-08
-4.57106e-07
2.82838e-08
-4.61168e-07
2.34018e-08
-4.64367e-07
1.84364e-08
-4.66692e-07
1.34031e-08
-4.68133e-07
8.31806e-09
-4.68686e-07
3.19722e-09
-4.68345e-07
-1.9431e-09
-4.67112e-07
-7.08646e-09
-4.64989e-07
-1.22162e-08
-4.6198e-07
-1.73155e-08
-4.58095e-07
-2.23674e-08
-4.53344e-07
-2.73546e-08
-4.47741e-07
-3.22599e-08
-4.41305e-07
-3.70656e-08
-4.34055e-07
-4.17542e-08
-4.26014e-07
-4.63079e-08
-4.17208e-07
-5.07089e-08
-4.07667e-07
-5.49393e-08
-3.97423e-07
-5.89813e-08
-3.86511e-07
-6.2817e-08
-3.7497e-07
-6.64288e-08
-3.6284e-07
-6.9799e-08
-3.50166e-07
-7.29105e-08
-3.36994e-07
-7.57463e-08
-3.23374e-07
-7.82898e-08
-3.09359e-07
-8.05249e-08
-2.95001e-07
-8.24362e-08
-2.8036e-07
-8.40089e-08
-2.65494e-07
-8.52292e-08
-2.50464e-07
-8.6084e-08
-2.35333e-07
-8.65616e-08
-2.20166e-07
-8.66515e-08
-2.05028e-07
-8.63444e-08
-1.89988e-07
-8.56329e-08
-1.75111e-07
-8.45115e-08
-1.60467e-07
-8.29765e-08
-1.46123e-07
-8.10269e-08
-1.32146e-07
-7.86641e-08
-1.18602e-07
-7.58928e-08
-1.05557e-07
-7.27209e-08
-9.30708e-08
-6.91606e-08
-8.12046e-08
-6.52283e-08
-7.00136e-08
-6.09458e-08
-5.95495e-08
-5.63408e-08
-4.98584e-08
-5.14482e-08
-4.09806e-08
-4.63108e-08
-3.29495e-08
-4.09812e-08
-2.57909e-08
-3.55226e-08
-1.95218e-08
-3.00118e-08
-1.41503e-08
-2.45404e-08
-9.67467e-09
-1.92178e-08
-6.08316e-09
-1.41743e-08
-3.35423e-09
-9.56426e-09
-1.45716e-09
-5.56929e-09
-3.53528e-10
-2.40189e-09
-3.26635e-10
-4.67609e-10
9.39121e-10
-1.88002e-09
4.21048e-09
-4.25036e-09
8.5527e-09
-7.59067e-09
1.36949e-08
-1.19088e-08
1.94159e-08
-1.72066e-08
2.55263e-08
-2.34784e-08
3.1865e-08
-3.0711e-08
3.8296e-08
-3.88833e-08
4.47053e-08
-4.79667e-08
5.09976e-08
-5.79258e-08
5.70939e-08
-6.87186e-08
6.29291e-08
-8.02974e-08
6.84504e-08
-9.26098e-08
7.36152e-08
-1.05599e-07
7.83897e-08
-1.19204e-07
8.27478e-08
-1.33363e-07
8.66699e-08
-1.4801e-07
9.0142e-08
-1.63079e-07
9.31547e-08
-1.785e-07
9.57029e-08
-1.94207e-07
9.77849e-08
-2.1013e-07
9.9402e-08
-2.262e-07
1.00558e-07
-2.42351e-07
1.01259e-07
-2.58515e-07
1.01514e-07
-2.74626e-07
1.0133e-07
-2.9062e-07
1.00721e-07
-3.06434e-07
9.96965e-08
-3.22008e-07
9.82709e-08
-3.37281e-07
9.64576e-08
-3.52198e-07
9.42712e-08
-3.66703e-07
9.17268e-08
-3.80744e-07
8.884e-08
-3.94271e-07
8.56268e-08
-4.07235e-07
8.21035e-08
-4.19592e-07
7.82867e-08
-4.31299e-07
7.41934e-08
-4.42315e-07
6.98405e-08
-4.52604e-07
6.52453e-08
-4.6213e-07
6.04252e-08
-4.70862e-07
5.53978e-08
-4.7877e-07
5.01808e-08
-4.85827e-07
4.4792e-08
-4.9201e-07
3.92495e-08
-4.97298e-07
3.35714e-08
-5.01672e-07
2.77761e-08
-5.05118e-07
2.18819e-08
-5.07622e-07
1.59077e-08
-5.09176e-07
9.87215e-09
-5.09774e-07
3.79443e-09
-5.09411e-07
-2.30622e-09
-5.08087e-07
-8.41031e-09
-5.05805e-07
-1.44982e-08
-5.0257e-07
-2.05499e-08
-4.98392e-07
-2.65453e-08
-4.93283e-07
-3.24641e-08
-4.87257e-07
-3.82857e-08
-4.80333e-07
-4.39895e-08
-4.72533e-07
-4.95547e-08
-4.6388e-07
-5.49602e-08
-4.54404e-07
-6.0185e-08
-4.44136e-07
-6.5208e-08
-4.33109e-07
-7.00082e-08
-4.21361e-07
-7.45646e-08
-4.08934e-07
-7.88562e-08
-3.9587e-07
-8.28626e-08
-3.82217e-07
-8.65632e-08
-3.68025e-07
-8.99383e-08
-3.53347e-07
-9.29683e-08
-3.38237e-07
-9.56344e-08
-3.22755e-07
-9.79186e-08
-3.0696e-07
-9.98034e-08
-2.90917e-07
-1.01273e-07
-2.74689e-07
-1.02312e-07
-2.58344e-07
-1.02906e-07
-2.41951e-07
-1.03044e-07
-2.2558e-07
-1.02716e-07
-2.09301e-07
-1.01911e-07
-1.93187e-07
-1.00625e-07
-1.7731e-07
-9.88538e-08
-1.61741e-07
-9.65956e-08
-1.46553e-07
-9.38529e-08
-1.31814e-07
-9.06313e-08
-1.17594e-07
-8.69408e-08
-1.03959e-07
-8.27953e-08
-9.09732e-08
-7.82146e-08
-7.86953e-08
-7.32238e-08
-6.7181e-08
-6.7855e-08
-5.6481e-08
-6.21482e-08
-4.66398e-08
-5.6152e-08
-3.76956e-08
-4.99254e-08
-2.96791e-08
-4.35391e-08
-2.26136e-08
-3.70774e-08
-1.65137e-08
-3.06403e-08
-1.13858e-08
-2.43457e-08
-7.22756e-09
-1.83324e-08
-4.02905e-09
-1.27628e-08
-1.77325e-09
-7.82509e-09
-4.38187e-10
-3.73694e-09
-7.6483e-10
-5.51781e-10
1.4909e-09
-2.19649e-09
5.8552e-09
-4.92876e-09
1.1285e-08
-8.74429e-09
1.75105e-08
-1.36367e-08
2.43083e-08
-1.95954e-08
3.1485e-08
-2.66044e-08
3.8874e-08
-3.46414e-08
4.63331e-08
-4.36777e-08
5.37416e-08
-5.3678e-08
6.09979e-08
-6.46009e-08
6.80167e-08
-7.63992e-08
7.47274e-08
-8.90204e-08
8.10716e-08
-1.02408e-07
8.70024e-08
-1.165e-07
9.24819e-08
-1.31233e-07
9.74808e-08
-1.4654e-07
1.01977e-07
-1.62351e-07
1.05953e-07
-1.78597e-07
1.094e-07
-1.95205e-07
1.12311e-07
-2.12103e-07
1.14683e-07
-2.29219e-07
1.16518e-07
-2.4648e-07
1.1782e-07
-2.63816e-07
1.18595e-07
-2.81156e-07
1.18853e-07
-2.9843e-07
1.18605e-07
-3.15571e-07
1.17861e-07
-3.32512e-07
1.16637e-07
-3.49189e-07
1.14948e-07
-3.65539e-07
1.12808e-07
-3.81503e-07
1.10235e-07
-3.97022e-07
1.07246e-07
-4.12041e-07
1.03859e-07
-4.26506e-07
1.00093e-07
-4.40368e-07
9.59655e-08
-4.53579e-07
9.14972e-08
-4.66093e-07
8.67072e-08
-4.77867e-07
8.16151e-08
-4.88863e-07
7.62411e-08
-4.99043e-07
7.06054e-08
-5.08374e-07
6.47284e-08
-5.16824e-07
5.86306e-08
-5.24365e-07
5.2333e-08
-5.30972e-07
4.58564e-08
-5.36622e-07
3.92221e-08
-5.41297e-07
3.24512e-08
-5.44981e-07
2.55654e-08
-5.4766e-07
1.85864e-08
-5.49324e-07
1.15362e-08
-5.49966e-07
4.43689e-09
-5.49583e-07
-2.68898e-09
-5.48175e-07
-9.81877e-09
-5.45743e-07
-1.69295e-08
-5.42295e-07
-2.39981e-08
-5.37839e-07
-3.10011e-08
-5.32389e-07
-3.79148e-08
-5.25959e-07
-4.47154e-08
-5.1857e-07