/*--------------------------------*- C++ -*----------------------------------*\
| =========                 |                                                 |
| \\      /  F ield         | OpenFOAM: The Open Source CFD Toolbox           |
|  \\    /   O peration     | Version:  2212                                  |
|   \\  /    A nd           | Website:  www.openfoam.com                      |
|    \\/     M anipulation  |                                                 |
\*---------------------------------------------------------------------------*/
FoamFile
{
    version     2.0;
    format      ascii;
    arch        "LSB;label=32;scalar=64";
    class       volVectorField;
    location    "0.0425";
    object      U;
}
// * * * * * * * * * * * * * * * * * * * * * * * * * * * * * * * * * * * * * //

dimensions      [0 1 -1 0 0 0 0];

internalField   nonuniform List<vector> 
10000
(
(2.41179e-06 -3.12886e-06 0)
(1.3331e-05 -7.23269e-06 0)
(2.94849e-05 -7.7357e-06 0)
(4.43642e-05 -6.42246e-06 0)
(5.31834e-05 -4.06935e-06 0)
(5.42353e-05 -1.23488e-06 0)
(4.65124e-05 1.78242e-06 0)
(2.95975e-05 4.81379e-06 0)
(3.45168e-06 7.764e-06 0)
(-3.17181e-05 1.05822e-05 0)
(-7.55568e-05 1.32389e-05 0)
(-0.00012761 1.57168e-05 0)
(-0.000187355 1.80031e-05 0)
(-0.000254225 2.00914e-05 0)
(-0.000327632 2.19816e-05 0)
(-0.00040697 2.36775e-05 0)
(-0.00049163 2.51835e-05 0)
(-0.000581001 2.65017e-05 0)
(-0.000674476 2.7636e-05 0)
(-0.00077146 2.85899e-05 0)
(-0.000871367 2.93676e-05 0)
(-0.000973624 2.99764e-05 0)
(-0.00107767 3.0422e-05 0)
(-0.00118297 3.07097e-05 0)
(-0.00128899 3.08457e-05 0)
(-0.00139523 3.08341e-05 0)
(-0.00150119 3.06798e-05 0)
(-0.0016064 3.03905e-05 0)
(-0.00171041 2.99729e-05 0)
(-0.00181279 2.9432e-05 0)
(-0.0019131 2.87738e-05 0)
(-0.00201098 2.8004e-05 0)
(-0.00210602 2.71272e-05 0)
(-0.00219788 2.61497e-05 0)
(-0.00228622 2.50777e-05 0)
(-0.00237071 2.39162e-05 0)
(-0.00245105 2.26699e-05 0)
(-0.00252697 2.13448e-05 0)
(-0.00259819 1.99471e-05 0)
(-0.00266446 1.84814e-05 0)
(-0.00272557 1.69522e-05 0)
(-0.0027813 1.53655e-05 0)
(-0.00283146 1.37275e-05 0)
(-0.00287588 1.2043e-05 0)
(-0.0029144 1.03162e-05 0)
(-0.0029469 8.55209e-06 0)
(-0.00297325 6.75734e-06 0)
(-0.00299335 4.93832e-06 0)
(-0.00300714 3.09994e-06 0)
(-0.00301455 1.24686e-06 0)
(-0.00301554 -6.1566e-07 0)
(-0.0030101 -2.48136e-06 0)
(-0.00299823 -4.34344e-06 0)
(-0.00297995 -6.19591e-06 0)
(-0.0029553 -8.03328e-06 0)
(-0.00292435 -9.8496e-06 0)
(-0.00288719 -1.16386e-05 0)
(-0.00284392 -1.33937e-05 0)
(-0.00279468 -1.5108e-05 0)
(-0.00273962 -1.67751e-05 0)
(-0.00267892 -1.8389e-05 0)
(-0.00261277 -1.99429e-05 0)
(-0.00254139 -2.143e-05 0)
(-0.00246504 -2.28434e-05 0)
(-0.00238399 -2.41758e-05 0)
(-0.00229851 -2.542e-05 0)
(-0.00220894 -2.65695e-05 0)
(-0.00211562 -2.76175e-05 0)
(-0.00201889 -2.8557e-05 0)
(-0.00191916 -2.93806e-05 0)
(-0.00181684 -3.00815e-05 0)
(-0.00171235 -3.06525e-05 0)
(-0.00160615 -3.10868e-05 0)
(-0.00149872 -3.13781e-05 0)
(-0.00139056 -3.15205e-05 0)
(-0.00128217 -3.15079e-05 0)
(-0.0011741 -3.13349e-05 0)
(-0.00106689 -3.09965e-05 0)
(-0.000961117 -3.04876e-05 0)
(-0.000857352 -2.98031e-05 0)
(-0.000756189 -2.89382e-05 0)
(-0.000658232 -2.78896e-05 0)
(-0.000564089 -2.66547e-05 0)
(-0.000474377 -2.5231e-05 0)
(-0.000389707 -2.36166e-05 0)
(-0.000310693 -2.18108e-05 0)
(-0.000237937 -1.98142e-05 0)
(-0.000172027 -1.76288e-05 0)
(-0.000113528 -1.52591e-05 0)
(-6.29684e-05 -1.27129e-05 0)
(-2.08231e-05 -1.00035e-05 0)
(1.25074e-05 -7.15231e-06 0)
(3.6735e-05 -4.19419e-06 0)
(5.17376e-05 -1.18809e-06 0)
(5.76467e-05 1.76415e-06 0)
(5.49858e-05 4.48425e-06 0)
(4.48676e-05 6.6591e-06 0)
(2.94093e-05 7.72363e-06 0)
(1.29562e-05 6.69925e-06 0)
(2.61442e-06 2.61454e-06 0)
(6.27975e-06 -1.3112e-05 0)
(2.62642e-05 -2.73353e-05 0)
(5.2485e-05 -2.78913e-05 0)
(7.20137e-05 -2.00443e-05 0)
(7.67519e-05 -7.04313e-06 0)
(6.22025e-05 8.85369e-06 0)
(2.56343e-05 2.61976e-05 0)
(-3.43893e-05 4.40544e-05 0)
(-0.000118339 6.18184e-05 0)
(-0.000226015 7.90934e-05 0)
(-0.000356748 9.56189e-05 0)
(-0.000509536 0.000111222 0)
(-0.000683144 0.000125786 0)
(-0.000876175 0.000139233 0)
(-0.00108713 0.000151517 0)
(-0.00131443 0.000162614 0)
(-0.00155645 0.000172516 0)
(-0.00181157 0.000181227 0)
(-0.00207814 0.000188755 0)
(-0.00235452 0.00019512 0)
(-0.0026391 0.000200341 0)
(-0.00293029 0.000204444 0)
(-0.00322653 0.000207461 0)
(-0.00352631 0.000209422 0)
(-0.00382815 0.000210359 0)
(-0.00413061 0.000210306 0)
(-0.00443232 0.000209299 0)
(-0.00473192 0.000207374 0)
(-0.00502813 0.000204568 0)
(-0.00531973 0.000200918 0)
(-0.00560551 0.000196464 0)
(-0.00588435 0.000191243 0)
(-0.00615517 0.000185292 0)
(-0.00641694 0.000178646 0)
(-0.0066687 0.000171345 0)
(-0.00690951 0.000163425 0)
(-0.00713852 0.000154922 0)
(-0.0073549 0.000145876 0)
(-0.00755791 0.000136322 0)
(-0.00774683 0.000126298 0)
(-0.007921 0.000115839 0)
(-0.00807983 0.000104983 0)
(-0.00822278 9.37682e-05 0)
(-0.00834933 8.22295e-05 0)
(-0.00845907 7.04038e-05 0)
(-0.00855159 5.83284e-05 0)
(-0.00862658 4.60426e-05 0)
(-0.00868376 3.35854e-05 0)
(-0.00872289 2.0994e-05 0)
(-0.00874383 8.30658e-06 0)
(-0.00874647 -4.43706e-06 0)
(-0.00873075 -1.71964e-05 0)
(-0.00869668 -2.99297e-05 0)
(-0.00864435 -4.25958e-05 0)
(-0.00857386 -5.51534e-05 0)
(-0.00848542 -6.75601e-05 0)
(-0.00837929 -7.97717e-05 0)
(-0.00825577 -9.17444e-05 0)
(-0.00811524 -0.000103434 0)
(-0.00795815 -0.000114796 0)
(-0.00778501 -0.000125785 0)
(-0.0075964 -0.000136355 0)
(-0.00739294 -0.00014646 0)
(-0.00717536 -0.000156053 0)
(-0.00694442 -0.000165087 0)
(-0.00670096 -0.000173515 0)
(-0.00644589 -0.000181291 0)
(-0.00618019 -0.000188369 0)
(-0.00590489 -0.000194702 0)
(-0.0056211 -0.000200245 0)
(-0.00532998 -0.000204951 0)
(-0.00503276 -0.000208777 0)
(-0.00473073 -0.000211681 0)
(-0.00442524 -0.000213622 0)
(-0.00411768 -0.000214561 0)
(-0.00380951 -0.000214462 0)
(-0.00350223 -0.00021329 0)
(-0.00319739 -0.000211015 0)
(-0.00289655 -0.000207608 0)
(-0.00260135 -0.000203043 0)
(-0.00231343 -0.000197299 0)
(-0.00203444 -0.000190362 0)
(-0.00176606 -0.000182221 0)
(-0.00150998 -0.000172872 0)
(-0.00126784 -0.000162321 0)
(-0.00104131 -0.000150581 0)
(-0.00083196 -0.000137679 0)
(-0.000641334 -0.000123657 0)
(-0.000470861 -0.000108582 0)
(-0.00032184 -9.25472e-05 0)
(-0.000195383 -7.56887e-05 0)
(-9.23436e-05 -5.82025e-05 0)
(-1.32186e-05 -4.03731e-05 0)
(4.19923e-05 -2.26207e-05 0)
(7.39872e-05 -5.5758e-06 0)
(8.44433e-05 9.80256e-06 0)
(7.63402e-05 2.20505e-05 0)
(5.44805e-05 2.89264e-05 0)
(2.71126e-05 2.7111e-05 0)
(6.69099e-06 1.29441e-05 0)
(7.46309e-06 -2.92129e-05 0)
(2.7682e-05 -5.30613e-05 0)
(4.94131e-05 -4.95101e-05 0)
(5.7952e-05 -2.72665e-05 0)
(4.3451e-05 7.13242e-06 0)
(-3.44893e-08 4.89789e-05 0)
(-7.63413e-05 9.49471e-05 0)
(-0.000187666 0.00014272 0)
(-0.000334907 0.000190684 0)
(-0.000517981 0.000237709 0)
(-0.000736088 0.000283009 0)
(-0.000987896 0.000326034 0)
(-0.00127168 0.000366399 0)
(-0.00158542 0.00040384 0)
(-0.00192691 0.00043818 0)
(-0.00229381 0.000469308 0)
(-0.00268365 0.000497167 0)
(-0.00309395 0.000521734 0)
(-0.00352218 0.000543016 0)
(-0.00396581 0.000561042 0)
(-0.00442232 0.000575859 0)
(-0.00488923 0.000587528 0)
(-0.0053641 0.000596118 0)
(-0.00584452 0.000601709 0)
(-0.00632818 0.000604388 0)
(-0.0068128 0.000604245 0)
(-0.00729617 0.000601376 0)
(-0.00777617 0.000595881 0)
(-0.00825074 0.00058786 0)
(-0.00871791 0.000577417 0)
(-0.00917579 0.000564659 0)
(-0.00962256 0.000549691 0)
(-0.0100565 0.000532617 0)
(-0.0104759 0.000513545 0)
(-0.0108793 0.000492581 0)
(-0.0112652 0.000469831 0)
(-0.0116322 0.0004454 0)
(-0.0119789 0.000419396 0)
(-0.0123042 0.000391926 0)
(-0.0126069 0.000363096 0)
(-0.012886 0.000333012 0)
(-0.0131405 0.000301781 0)
(-0.0133695 0.000269511 0)
(-0.0135722 0.000236307 0)
(-0.0137479 0.000202278 0)
(-0.0138961 0.000167533 0)
(-0.0140161 0.000132181 0)
(-0.0141076 9.63341e-05 0)
(-0.0141701 6.01041e-05 0)
(-0.0142034 2.3603e-05 0)
(-0.0142074 -1.30539e-05 0)
(-0.014182 -4.975e-05 0)
(-0.0141272 -8.63674e-05 0)
(-0.0140431 -0.000122786 0)
(-0.0139299 -0.000158884 0)
(-0.013788 -0.00019454 0)
(-0.0136177 -0.000229627 0)
(-0.0134196 -0.00026402 0)
(-0.0131943 -0.000297589 0)
(-0.0129424 -0.000330207 0)
(-0.0126649 -0.000361744 0)
(-0.0123626 -0.000392066 0)
(-0.0120366 -0.000421042 0)
(-0.011688 -0.000448538 0)
(-0.0113181 -0.00047442 0)
(-0.0109282 -0.000498555 0)
(-0.0105197 -0.000520811 0)
(-0.0100943 -0.000541057 0)
(-0.00965357 -0.000559161 0)
(-0.00919928 -0.000574995 0)
(-0.0087333 -0.000588433 0)
(-0.00825759 -0.000599354 0)
(-0.00777419 -0.000607638 0)
(-0.00728526 -0.000613175 0)
(-0.00679301 -0.000615857 0)
(-0.00629974 -0.000615585 0)
(-0.00580783 -0.000612266 0)
(-0.00531971 -0.000605817 0)
(-0.00483788 -0.000596166 0)
(-0.00436487 -0.00058325 0)
(-0.00390327 -0.000567021 0)
(-0.00345565 -0.000547447 0)
(-0.00302463 -0.000524514 0)
(-0.00261281 -0.000498229 0)
(-0.00222273 -0.000468628 0)
(-0.0018569 -0.000435776 0)
(-0.00151774 -0.000399781 0)
(-0.00120752 -0.000360801 0)
(-0.000928361 -0.000319063 0)
(-0.000682119 -0.000274883 0)
(-0.000470341 -0.000228697 0)
(-0.000294144 -0.000181112 0)
(-0.000154076 -0.00013297 0)
(-4.99283e-05 -8.54469e-05 0)
(1.95068e-05 -4.02039e-05 0)
(5.67556e-05 4.08088e-07 0)
(6.59801e-05 3.30699e-05 0)
(5.34182e-05 5.31681e-05 0)
(2.90409e-05 5.45037e-05 0)
(7.73245e-06 2.9397e-05 0)
(6.35582e-06 -4.37267e-05 0)
(2.03891e-05 -7.26178e-05 0)
(2.81372e-05 -5.81342e-05 0)
(1.48419e-05 -1.36457e-05 0)
(-2.97157e-05 5.10749e-05 0)
(-0.000112114 0.000128727 0)
(-0.000236733 0.000213908 0)
(-0.000406184 0.000302675 0)
(-0.000621619 0.000392157 0)
(-0.000883044 0.000480268 0)
(-0.00118957 0.000565488 0)
(-0.00153964 0.000646722 0)
(-0.00193115 0.000723184 0)
(-0.00236163 0.000794312 0)
(-0.00282831 0.000859718 0)
(-0.0033282 0.000919145 0)
(-0.00385818 0.000972434 0)
(-0.00441501 0.0010195 0)
(-0.00499543 0.00106034 0)
(-0.00559613 0.00109497 0)
(-0.00621381 0.00112347 0)
(-0.00684519 0.00114592 0)
(-0.00748705 0.00116244 0)
(-0.00813621 0.00117319 0)
(-0.00878957 0.00117831 0)
(-0.00944409 0.00117797 0)
(-0.0100969 0.00117234 0)
(-0.010745 0.00116162 0)
(-0.0113858 0.001146 0)
(-0.0120165 0.00112566 0)
(-0.0126347 0.00110081 0)
(-0.0132378 0.00107165 0)
(-0.0138237 0.00103839 0)
(-0.0143899 0.00100122 0)
(-0.0149345 0.000960364 0)
(-0.0154555 0.000916016 0)
(-0.0159508 0.000868388 0)
(-0.0164189 0.000817685 0)
(-0.016858 0.000764116 0)
(-0.0172666 0.000707887 0)
(-0.0176433 0.000649208 0)
(-0.0179868 0.000588288 0)
(-0.0182958 0.000525335 0)
(-0.0185693 0.00046056 0)
(-0.0188064 0.000394176 0)
(-0.0190062 0.000326395 0)
(-0.0191681 0.000257433 0)
(-0.0192913 0.000187507 0)
(-0.0193755 0.000116836 0)
(-0.0194203 4.56441e-05 0)
(-0.0194254 -2.58455e-05 0)
(-0.0193909 -9.74041e-05 0)
(-0.0193166 -0.000168801 0)
(-0.0192029 -0.000239803 0)
(-0.0190499 -0.00031017 0)
(-0.018858 -0.000379664 0)
(-0.018628 -0.000448039 0)
(-0.0183604 -0.000515048 0)
(-0.0180561 -0.000580444 0)
(-0.017716 -0.000643973 0)
(-0.0173413 -0.000705381 0)
(-0.0169333 -0.000764413 0)
(-0.0164933 -0.00082081 0)
(-0.0160229 -0.000874313 0)
(-0.0155237 -0.000924665 0)
(-0.0149976 -0.000971607 0)
(-0.0144465 -0.00101488 0)
(-0.0138725 -0.00105424 0)
(-0.013278 -0.00108943 0)
(-0.0126651 -0.00112021 0)
(-0.0120365 -0.00114632 0)
(-0.0113948 -0.00116756 0)
(-0.0107427 -0.00118368 0)
(-0.0100831 -0.00119447 0)
(-0.00941891 -0.00119975 0)
(-0.00875325 -0.00119931 0)
(-0.00808927 -0.00119299 0)
(-0.00743021 -0.00118065 0)
(-0.00677937 -0.00116214 0)
(-0.00614011 -0.00113736 0)
(-0.00551584 -0.00110623 0)
(-0.00490996 -0.00106872 0)
(-0.00432589 -0.00102481 0)
(-0.003767 -0.000974545 0)
(-0.00323663 -0.000918018 0)
(-0.002738 -0.00085539 0)
(-0.00227419 -0.000786907 0)
(-0.0018481 -0.000712917 0)
(-0.00146238 -0.000633903 0)
(-0.00111931 -0.00055052 0)
(-0.000820768 -0.000463655 0)
(-0.000568044 -0.000374497 0)
(-0.000361707 -0.000284651 0)
(-0.000201401 -0.000196286 0)
(-8.55948e-05 -0.000112339 0)
(-1.12825e-05 -3.67902e-05 0)
(2.63013e-05 2.499e-05 0)
(3.40617e-05 6.58799e-05 0)
(2.24771e-05 7.66318e-05 0)
(6.72863e-06 4.49594e-05 0)
(4.18278e-06 -5.29865e-05 0)
(7.96542e-06 -7.8056e-05 0)
(-5.11827e-06 -4.43252e-05 0)
(-4.81464e-05 3.06431e-05 0)
(-0.000130786 0.000134038 0)
(-0.000259692 0.000256075 0)
(-0.000439353 0.000389296 0)
(-0.000672478 0.000528081 0)
(-0.000960284 0.00066821 0)
(-0.00130277 0.000806519 0)
(-0.00169894 0.000940643 0)
(-0.00214702 0.00106882 0)
(-0.00264463 0.00118975 0)
(-0.0031889 0.0013025 0)
(-0.00377661 0.00140637 0)
(-0.00440424 0.00150091 0)
(-0.00506811 0.00158582 0)
(-0.00576436 0.00166092 0)
(-0.00648907 0.00172614 0)
(-0.00723827 0.00178149 0)
(-0.00800798 0.00182705 0)
(-0.00879423 0.00186294 0)
(-0.00959308 0.00188934 0)
(-0.0104007 0.00190645 0)
(-0.0112132 0.0019145 0)
(-0.012027 0.00191375 0)
(-0.0128384 0.00190448 0)
(-0.0136439 0.00188697 0)
(-0.0144402 0.00186153 0)
(-0.0152239 0.00182845 0)
(-0.0159919 0.00178807 0)
(-0.0167412 0.0017407 0)
(-0.017469 0.00168666 0)
(-0.0181724 0.00162629 0)
(-0.0188489 0.00155991 0)
(-0.0194959 0.00148787 0)
(-0.0201112 0.00141049 0)
(-0.0206925 0.00132812 0)
(-0.0212379 0.00124108 0)
(-0.0217453 0.00114971 0)
(-0.0222131 0.00105437 0)
(-0.0226395 0.000955371 0)
(-0.0230232 0.000853072 0)
(-0.0233628 0.000747812 0)
(-0.0236571 0.000639938 0)
(-0.0239051 0.000529796 0)
(-0.0241059 0.000417739 0)
(-0.0242587 0.000304119 0)
(-0.024363 0.000189297 0)
(-0.0244184 7.36352e-05 0)
(-0.0244246 -4.25008e-05 0)
(-0.0243814 -0.00015874 0)
(-0.0242889 -0.000274706 0)
(-0.0241474 -0.000390016 0)
(-0.0239572 -0.000504284 0)
(-0.0237188 -0.00061712 0)
(-0.0234329 -0.000728125 0)
(-0.0231004 -0.000836901 0)
(-0.0227224 -0.000943042 0)
(-0.0223 -0.00104614 0)
(-0.0218347 -0.00114578 0)
(-0.021328 -0.00124155 0)
(-0.0207816 -0.00133303 0)
(-0.0201975 -0.00141981 0)
(-0.0195777 -0.00150146 0)
(-0.0189245 -0.00157758 0)
(-0.0182404 -0.00164775 0)
(-0.0175279 -0.00171157 0)
(-0.0167897 -0.00176862 0)
(-0.0160289 -0.00181853 0)
(-0.0152485 -0.00186091 0)
(-0.0144518 -0.00189538 0)
(-0.013642 -0.0019216 0)
(-0.0128229 -0.00193923 0)
(-0.0119979 -0.00194796 0)
(-0.0111709 -0.00194749 0)
(-0.0103457 -0.00193757 0)
(-0.00952625 -0.00191795 0)
(-0.00871666 -0.00188846 0)
(-0.00792098 -0.00184893 0)
(-0.00714335 -0.00179927 0)
(-0.00638788 -0.00173942 0)
(-0.00565871 -0.00166941 0)
(-0.00495989 -0.00158933 0)
(-0.00429541 -0.00149937 0)
(-0.0036691 -0.00139983 0)
(-0.00308463 -0.00129116 0)
(-0.0025454 -0.00117395 0)
(-0.00205448 -0.00104903 0)
(-0.00161454 -0.00091749 0)
(-0.0012277 -0.000780782 0)
(-0.000895407 -0.000640802 0)
(-0.000618302 -0.000500044 0)
(-0.000395986 -0.000361789 0)
(-0.000226814 -0.000230345 0)
(-0.000107627 -0.000111371 0)
(-3.34989e-05 -1.22693e-05 0)
(2.60419e-06 5.74134e-05 0)
(1.07471e-05 8.5487e-05 0)
(4.66131e-06 5.54039e-05 0)
(1.50997e-06 -5.47405e-05 0)
(-7.36197e-06 -6.47662e-05 0)
(-4.582e-05 -2.15892e-06 0)
(-0.000124103 0.000112136 0)
(-0.00025063 0.00026264 0)
(-0.000431697 0.000437297 0)
(-0.000671557 0.000626715 0)
(-0.000972746 0.000823637 0)
(-0.00133635 0.00102248 0)
(-0.00176224 0.00121895 0)
(-0.00224925 0.00140978 0)
(-0.00279539 0.00159247 0)
(-0.00339801 0.00176512 0)
(-0.00405389 0.00192635 0)
(-0.00475941 0.00207512 0)
(-0.00551062 0.0022107 0)
(-0.00630332 0.0023326 0)
(-0.00713315 0.00244052 0)
(-0.00799561 0.00253431 0)
(-0.00888615 0.00261393 0)
(-0.00980019 0.00267947 0)
(-0.0107331 0.00273107 0)
(-0.0116804 0.00276894 0)
(-0.0126376 0.00279337 0)
(-0.0136003 0.00280467 0)
(-0.014564 0.00280319 0)
(-0.0155247 0.00278931 0)
(-0.0164782 0.00276344 0)
(-0.0174206 0.002726 0)
(-0.018348 0.00267744 0)
(-0.0192567 0.0026182 0)
(-0.0201432 0.00254876 0)
(-0.021004 0.00246958 0)
(-0.021836 0.00238113 0)
(-0.0226361 0.0022839 0)
(-0.0234013 0.00217838 0)
(-0.0241289 0.00206505 0)
(-0.0248164 0.00194439 0)
(-0.0254612 0.00181691 0)
(-0.0260612 0.0016831 0)
(-0.0266142 0.00154344 0)
(-0.0271183 0.00139845 0)
(-0.0275719 0.00124862 0)
(-0.0279733 0.00109446 0)
(-0.0283211 0.000936471 0)
(-0.0286141 0.000775166 0)
(-0.0288513 0.000611061 0)
(-0.0290318 0.000444678 0)
(-0.0291549 0.000276542 0)
(-0.0292202 0.000107185 0)
(-0.0292272 -6.28534e-05 0)
(-0.029176 -0.00023303 0)
(-0.0290665 -0.000402792 0)
(-0.0288989 -0.000571581 0)
(-0.0286738 -0.00073883 0)
(-0.0283918 -0.000903965 0)
(-0.0280537 -0.00106641 0)
(-0.0276605 -0.00122557 0)
(-0.0272135 -0.00138086 0)
(-0.026714 -0.00153169 0)
(-0.0261639 -0.00167744 0)
(-0.0255648 -0.00181752 0)
(-0.0249189 -0.00195132 0)
(-0.0242284 -0.00207823 0)
(-0.0234958 -0.00219764 0)
(-0.0227236 -0.00230896 0)
(-0.0219149 -0.00241158 0)
(-0.0210726 -0.00250492 0)
(-0.0202 -0.0025884 0)
(-0.0193005 -0.00266144 0)
(-0.0183778 -0.00272351 0)
(-0.0174356 -0.00277408 0)
(-0.0164779 -0.00281262 0)
(-0.0155088 -0.00283868 0)
(-0.0145326 -0.0028518 0)
(-0.0135537 -0.00285158 0)
(-0.0125766 -0.00283765 0)
(-0.0116059 -0.00280969 0)
(-0.0106463 -0.00276745 0)
(-0.00970252 -0.00271072 0)
(-0.00877932 -0.00263939 0)
(-0.00788148 -0.00255341 0)
(-0.00701376 -0.00245286 0)
(-0.00618081 -0.0023379 0)
(-0.00538719 -0.00220886 0)
(-0.00463726 -0.00206622 0)
(-0.00393519 -0.00191066 0)
(-0.0032848 -0.00174311 0)
(-0.00268956 -0.00156481 0)
(-0.00215245 -0.00137735 0)
(-0.00167585 -0.00118282 0)
(-0.00126139 -0.000983917 0)
(-0.00090985 -0.000784088 0)
(-0.000620911 -0.000587778 0)
(-0.000393017 -0.000400682 0)
(-0.000223136 -0.000230098 0)
(-0.000106527 -8.53519e-05 0)
(-3.6451e-05 2.1778e-05 0)
(-3.94573e-06 7.6474e-05 0)
(2.08886e-06 5.87202e-05 0)
(-1.35587e-06 -4.80118e-05 0)
(-2.41927e-05 -2.99804e-05 0)
(-9.08298e-05 7.23089e-05 0)
(-0.000208009 0.000235408 0)
(-0.000382439 0.000441649 0)
(-0.000619725 0.000677007 0)
(-0.000923602 0.00093034 0)
(-0.0012962 0.00119287 0)
(-0.0017383 0.00145768 0)
(-0.00224952 0.00171939 0)
(-0.00282844 0.00197376 0)
(-0.00347282 0.00221753 0)
(-0.00417971 0.00244819 0)
(-0.00494557 0.00266383 0)
(-0.00576642 0.00286302 0)
(-0.0066379 0.00304474 0)
(-0.00755537 0.00320825 0)
(-0.00851401 0.0033531 0)
(-0.00950882 0.00347903 0)
(-0.0105347 0.00358594 0)
(-0.0115866 0.0036739 0)
(-0.0126594 0.00374307 0)
(-0.0137479 0.0037937 0)
(-0.0148471 0.00382613 0)
(-0.0159521 0.00384078 0)
(-0.0170579 0.00383808 0)
(-0.0181598 0.00381855 0)
(-0.0192531 0.00378271 0)
(-0.0203334 0.00373113 0)
(-0.0213964 0.00366439 0)
(-0.0224377 0.00358311 0)
(-0.0234534 0.0034879 0)
(-0.0244396 0.00337939 0)
(-0.0253927 0.00325824 0)
(-0.0263091 0.00312509 0)
(-0.0271855 0.00298061 0)
(-0.0280187 0.00282545 0)
(-0.0288059 0.00266028 0)
(-0.0295443 0.00248577 0)
(-0.0302312 0.00230261 0)
(-0.0308643 0.00211145 0)
(-0.0314415 0.001913 0)
(-0.0319606 0.00170794 0)
(-0.0324201 0.00149695 0)
(-0.0328181 0.00128073 0)
(-0.0331534 0.00105998 0)
(-0.0334248 0.000835408 0)
(-0.0336313 0.000607731 0)
(-0.0337721 0.000377667 0)
(-0.0338466 0.000145947 0)
(-0.0338545 -8.6694e-05 0)
(-0.0337957 -0.000319508 0)
(-0.0336702 -0.000551738 0)
(-0.0334782 -0.000782621 0)
(-0.0332204 -0.00101138 0)
(-0.0328974 -0.00123724 0)
(-0.0325103 -0.00145939 0)
(-0.0320601 -0.00167705 0)
(-0.0315483 -0.0018894 0)
(-0.0309766 -0.00209562 0)
(-0.0303468 -0.0022949 0)
(-0.0296611 -0.00248642 0)
(-0.0289217 -0.00266935 0)
(-0.0281313 -0.00284285 0)
(-0.0272926 -0.00300612 0)
(-0.0264087 -0.00315833 0)
(-0.0254828 -0.00329868 0)
(-0.0245184 -0.00342636 0)
(-0.0235192 -0.00354059 0)
(-0.0224892 -0.00364062 0)
(-0.0214324 -0.0037257 0)
(-0.0203531 -0.00379512 0)
(-0.0192558 -0.00384821 0)
(-0.0181452 -0.00388433 0)
(-0.0170261 -0.00390289 0)
(-0.0159035 -0.00390335 0)
(-0.0147824 -0.00388524 0)
(-0.0136681 -0.00384815 0)
(-0.0125658 -0.00379175 0)
(-0.0114808 -0.00371581 0)
(-0.0104185 -0.00362018 0)
(-0.00938431 -0.00350486 0)
(-0.0083834 -0.00336997 0)
(-0.00742101 -0.00321581 0)
(-0.00650221 -0.00304283 0)
(-0.00563184 -0.00285176 0)
(-0.00481448 -0.00264355 0)
(-0.00405439 -0.00241951 0)
(-0.00335537 -0.00218132 0)
(-0.00272071 -0.00193116 0)
(-0.00215307 -0.00167181 0)
(-0.00165432 -0.00140678 0)
(-0.00122544 -0.00114051 0)
(-0.000866355 -0.00087861 0)
(-0.000575764 -0.000628115 0)
(-0.000350994 -0.000397866 0)
(-0.000187771 -0.000198936 0)
(-7.99698e-05 -4.50634e-05 0)
(-2.02069e-05 4.67432e-05 0)
(-6.88205e-07 5.38729e-05 0)
(-4.25468e-06 -3.23499e-05 0)
(-4.16612e-05 2.78771e-05 0)
(-0.000138041 0.000181548 0)
(-0.000296348 0.000403492 0)
(-0.000521301 0.000674355 0)
(-0.000817574 0.000978474 0)
(-0.00118816 0.00130319 0)
(-0.00163461 0.00163835 0)
(-0.00215724 0.00197581 0)
(-0.00275527 0.00230912 0)
(-0.00342698 0.00263311 0)
(-0.00416979 0.00294376 0)
(-0.00498044 0.0032379 0)
(-0.00585505 0.00351308 0)
(-0.00678929 0.00376747 0)
(-0.00777841 0.00399968 0)
(-0.0088174 0.00420874 0)
(-0.00990097 0.00439399 0)
(-0.0110237 0.00455506 0)
(-0.0121801 0.00469177 0)
(-0.0133644 0.00480415 0)
(-0.0145712 0.00489236 0)
(-0.0157948 0.00495669 0)
(-0.0170297 0.00499756 0)
(-0.0182703 0.00501545 0)
(-0.0195113 0.00501091 0)
(-0.0207475 0.00498457 0)
(-0.0219736 0.00493711 0)
(-0.0231848 0.00486923 0)
(-0.0243762 0.00478168 0)
(-0.0255432 0.00467524 0)
(-0.0266812 0.0045507 0)
(-0.027786 0.00440888 0)
(-0.0288536 0.0042506 0)
(-0.0298799 0.00407671 0)
(-0.0308613 0.00388806 0)
(-0.0317944 0.00368551 0)
(-0.0326757 0.00346993 0)
(-0.0335023 0.00324218 0)
(-0.0342713 0.00300315 0)
(-0.03498 0.00275372 0)
(-0.035626 0.00249478 0)
(-0.0362071 0.00222722 0)
(-0.0367212 0.00195194 0)
(-0.0371667 0.00166986 0)
(-0.0375419 0.00138188 0)
(-0.0378455 0.00108893 0)
(-0.0380765 0.000791943 0)
(-0.038234 0.000491859 0)
(-0.0383173 0.000189629 0)
(-0.038326 -0.000113784 0)
(-0.0382601 -0.000417406 0)
(-0.0381195 -0.000720252 0)
(-0.0379047 -0.00102132 0)
(-0.0376161 -0.00131961 0)
(-0.0372546 -0.00161409 0)
(-0.0368214 -0.00190374 0)
(-0.0363176 -0.00218751 0)
(-0.0357448 -0.00246435 0)
(-0.035105 -0.0027332 0)
(-0.0344002 -0.002993 0)
(-0.0336328 -0.00324267 0)
(-0.0328053 -0.00348115 0)
(-0.0319206 -0.00370737 0)
(-0.0309819 -0.00392026 0)
(-0.0299925 -0.00411877 0)
(-0.028956 -0.00430185 0)
(-0.0278763 -0.00446846 0)
(-0.0267575 -0.00461762 0)
(-0.025604 -0.00474833 0)
(-0.0244202 -0.00485964 0)
(-0.023211 -0.00495066 0)
(-0.0219814 -0.00502051 0)
(-0.0207364 -0.00506838 0)
(-0.0194814 -0.00509354 0)
(-0.018222 -0.0050953 0)
(-0.0169637 -0.00507307 0)
(-0.0157122 -0.00502635 0)
(-0.0144734 -0.00495474 0)
(-0.013253 -0.00485798 0)
(-0.012057 -0.00473591 0)
(-0.0108913 -0.00458858 0)
(-0.00976152 -0.00441617 0)
(-0.00867347 -0.00421911 0)
(-0.00763263 -0.00399806 0)
(-0.00664428 -0.00375397 0)
(-0.00571342 -0.00348814 0)
(-0.00484467 -0.00320225 0)
(-0.0040422 -0.0028985 0)
(-0.00330962 -0.00257967 0)
(-0.00264988 -0.00224923 0)
(-0.00206516 -0.00191156 0)
(-0.00155676 -0.00157206 0)
(-0.00112493 -0.00123745 0)
(-0.000768812 -0.000916047 0)
(-0.000486265 -0.000618081 0)
(-0.000273698 -0.000356164 0)
(-0.000125839 -0.000145678 0)
(-3.71663e-05 -5.35899e-06 0)
(-3.50701e-06 4.03734e-05 0)
(-7.10275e-06 -7.64135e-06 0)
(-5.92484e-05 0.000109545 0)
(-0.000186083 0.000326909 0)
(-0.000386713 0.000618212 0)
(-0.000663742 0.000962861 0)
(-0.00102075 0.00134389 0)
(-0.00145984 0.00174737 0)
(-0.00198181 0.00216194 0)
(-0.00258639 0.00257836 0)
(-0.00327233 0.00298915 0)
(-0.00403747 0.0033883 0)
(-0.00487886 0.00377102 0)
(-0.00579288 0.00413348 0)
(-0.00677529 0.00447271 0)
(-0.0078214 0.00478642 0)
(-0.00892611 0.00507288 0)
(-0.010084 0.00533084 0)
(-0.0112894 0.00555944 0)
(-0.0125364 0.00575815 0)
(-0.0138191 0.00592671 0)
(-0.0151315 0.0060651 0)
(-0.0164675 0.00617347 0)
(-0.0178211 0.00625216 0)
(-0.0191861 0.00630163 0)
(-0.0205568 0.00632245 0)
(-0.0219272 0.00631529 0)
(-0.0232917 0.00628089 0)
(-0.0246447 0.00622009 0)
(-0.0259807 0.00613374 0)
(-0.0272945 0.00602277 0)
(-0.028581 0.00588812 0)
(-0.0298354 0.00573079 0)
(-0.031053 0.00555178 0)
(-0.0322292 0.00535213 0)
(-0.03336 0.00513288 0)
(-0.0344411 0.0048951 0)
(-0.0354687 0.00463986 0)
(-0.0364394 0.00436825 0)
(-0.0373496 0.00408136 0)
(-0.0381964 0.00378029 0)
(-0.0389767 0.00346616 0)
(-0.0396879 0.00314007 0)
(-0.0403276 0.00280316 0)
(-0.0408936 0.00245655 0)
(-0.041384 0.0021014 0)
(-0.041797 0.00173884 0)
(-0.0421312 0.00137004 0)
(-0.0423854 0.000996185 0)
(-0.0425588 0.000618445 0)
(-0.0426505 0.000238023 0)
(-0.0426601 -0.00014387 0)
(-0.0425876 -0.000526008 0)
(-0.0424329 -0.000907152 0)
(-0.0421965 -0.00128605 0)
(-0.0418789 -0.00166143 0)
(-0.0414811 -0.00203201 0)
(-0.0410043 -0.00239649 0)
(-0.0404498 -0.00275357 0)
(-0.0398195 -0.00310193 0)
(-0.0391154 -0.00344025 0)
(-0.0383397 -0.00376717 0)
(-0.0374949 -0.00408138 0)
(-0.0365841 -0.00438152 0)
(-0.0356102 -0.00466627 0)
(-0.0345767 -0.00493428 0)
(-0.0334873 -0.00518425 0)
(-0.0323459 -0.00541486 0)
(-0.0311568 -0.00562485 0)
(-0.0299244 -0.00581295 0)
(-0.0286534 -0.00597795 0)
(-0.0273489 -0.00611867 0)
(-0.026016 -0.006234 0)
(-0.0246601 -0.00632286 0)
(-0.0232869 -0.00638427 0)
(-0.0219021 -0.0064173 0)
(-0.0205116 -0.00642115 0)
(-0.0191217 -0.00639509 0)
(-0.0177384 -0.00633852 0)
(-0.0163682 -0.00625098 0)
(-0.0150172 -0.00613217 0)
(-0.0136919 -0.00598195 0)
(-0.0123986 -0.00580039 0)
(-0.0111435 -0.0055878 0)
(-0.00993274 -0.00534473 0)
(-0.00877232 -0.00507206 0)
(-0.0076679 -0.004771 0)
(-0.00662487 -0.00444319 0)
(-0.00564824 -0.00409075 0)
(-0.00474252 -0.0037164 0)
(-0.00391167 -0.0033235 0)
(-0.00315901 -0.00291628 0)
(-0.00248709 -0.00249991 0)
(-0.00189757 -0.00208074 0)
(-0.00139119 -0.00166655 0)
(-0.000967629 -0.0012668 0)
(-0.000625443 -0.00089296 0)
(-0.000361877 -0.000558959 0)
(-0.000172667 -0.000281508 0)
(-5.4293e-05 -8.0634e-05 0)
(-6.2825e-06 1.80757e-05 0)
(-9.86002e-06 2.60396e-05 0)
(-7.66469e-05 0.000215202 0)
(-0.000234089 0.000508967 0)
(-0.000477507 0.0008805 0)
(-0.000807363 0.00130836 0)
(-0.00122607 0.0017746 0)
(-0.00173472 0.00226424 0)
(-0.00233326 0.00276489 0)
(-0.00302072 0.00326634 0)
(-0.00379528 0.0037602 0)
(-0.00465429 0.00423966 0)
(-0.00559434 0.00469919 0)
(-0.00661141 0.00513435 0)
(-0.00770088 0.00554163 0)
(-0.00885767 0.0059183 0)
(-0.0100763 0.00626227 0)
(-0.011351 0.00657201 0)
(-0.0126756 0.00684643 0)
(-0.0140441 0.00708486 0)
(-0.0154499 0.00728693 0)
(-0.0168866 0.00745256 0)
(-0.0183479 0.00758191 0)
(-0.0198271 0.00767532 0)
(-0.0213178 0.00773331 0)
(-0.0228138 0.00775656 0)
(-0.0243088 0.00774583 0)
(-0.0257965 0.00770202 0)
(-0.0272712 0.00762608 0)
(-0.0287268 0.00751906 0)
(-0.0301578 0.00738204 0)
(-0.0315587 0.00721619 0)
(-0.0329244 0.00702267 0)
(-0.0342496 0.00680272 0)
(-0.0355296 0.00655759 0)
(-0.0367599 0.00628853 0)
(-0.037936 0.00599685 0)
(-0.0390539 0.00568385 0)
(-0.0401096 0.00535085 0)
(-0.0410996 0.00499919 0)
(-0.0420203 0.0046302 0)
(-0.0428688 0.00424525 0)
(-0.0436421 0.0038457 0)
(-0.0443376 0.00343292 0)
(-0.044953 0.00300829 0)
(-0.0454861 0.00257323 0)
(-0.0459351 0.00212912 0)
(-0.0462985 0.0016774 0)
(-0.0465749 0.00121951 0)
(-0.0467634 0.000756881 0)
(-0.0468632 0.000290991 0)
(-0.0468738 -0.000176681 0)
(-0.0467951 -0.000644636 0)
(-0.0466272 -0.00111136 0)
(-0.0463704 -0.00157531 0)
(-0.0460255 -0.00203496 0)
(-0.0455934 -0.00248871 0)
(-0.0450753 -0.00293501 0)
(-0.0444729 -0.00337224 0)
(-0.043788 -0.00379881 0)
(-0.0430228 -0.00421308 0)
(-0.0421798 -0.00461345 0)
(-0.0412617 -0.00499826 0)
(-0.0402716 -0.0053659 0)
(-0.0392129 -0.00571474 0)
(-0.0380893 -0.00604316 0)
(-0.0369047 -0.00634956 0)
(-0.0356633 -0.00663236 0)
(-0.0343698 -0.00689001 0)
(-0.033029 -0.00712098 0)
(-0.0316459 -0.00732382 0)
(-0.0302258 -0.0074971 0)
(-0.0287745 -0.00763947 0)
(-0.0272976 -0.00774965 0)
(-0.0258012 -0.00782645 0)
(-0.0242915 -0.00786879 0)
(-0.022775 -0.00787568 0)
(-0.0212581 -0.00784629 0)
(-0.0197476 -0.00777991 0)
(-0.01825 -0.00767601 0)
(-0.0167723 -0.00753427 0)
(-0.0153212 -0.00735456 0)
(-0.0139035 -0.00713701 0)
(-0.0125258 -0.00688201 0)
(-0.0111947 -0.00659028 0)
(-0.00991665 -0.00626292 0)
(-0.00869761 -0.00590144 0)
(-0.00754341 -0.00550782 0)
(-0.00645943 -0.00508462 0)
(-0.00545059 -0.00463508 0)
(-0.00452122 -0.00416318 0)
(-0.00367503 -0.00367383 0)
(-0.002915 -0.003173 0)
(-0.0022433 -0.00266794 0)
(-0.00166118 -0.00216739 0)
(-0.00116899 -0.00168182 0)
(-0.000766098 -0.00122381 0)
(-0.000450676 -0.00080835 0)
(-0.000219562 -0.000453208 0)
(-7.12719e-05 -0.000179324 0)
(-8.97309e-06 -1.29669e-05 0)
(-1.25092e-05 6.8507e-05 0)
(-9.36887e-05 0.000344692 0)
(-0.000281517 0.000727764 0)
(-0.000567694 0.00119066 0)
(-0.000950567 0.00171139 0)
(-0.00143135 0.00227129 0)
(-0.00201006 0.00285455 0)
(-0.00268571 0.00344793 0)
(-0.00345658 0.00404038 0)
(-0.00432018 0.00462272 0)
(-0.00527328 0.00518737 0)
(-0.00631199 0.00572815 0)
(-0.00743183 0.00624003 0)
(-0.00862775 0.00671899 0)
(-0.00989429 0.00716186 0)
(-0.0112256 0.00756621 0)
(-0.0126154 0.0079302 0)
(-0.0140573 0.00825255 0)
(-0.0155448 0.0085324 0)
(-0.017071 0.00876929 0)
(-0.0186291 0.00896309 0)
(-0.0202123 0.00911392 0)
(-0.0218137 0.00922217 0)
(-0.0234264 0.00928841 0)
(-0.0250438 0.0093134 0)
(-0.0266592 0.00929802 0)
(-0.028266 0.0092433 0)
(-0.029858 0.00915035 0)
(-0.0314289 0.0090204 0)
(-0.0329727 0.00885473 0)
(-0.0344836 0.00865467 0)
(-0.035956 0.00842164 0)
(-0.0373846 0.00815708 0)
(-0.0387642 0.00786246 0)
(-0.0400899 0.00753928 0)
(-0.041357 0.0071891 0)
(-0.0425613 0.00681345 0)
(-0.0436984 0.00641391 0)
(-0.0447646 0.00599208 0)
(-0.0457562 0.00554955 0)
(-0.0466698 0.00508794 0)
(-0.0475025 0.00460888 0)
(-0.0482514 0.00411402 0)
(-0.048914 0.00360501 0)
(-0.049488 0.00308353 0)
(-0.0499715 0.00255125 0)
(-0.0503629 0.00200987 0)
(-0.0506606 0.00146113 0)
(-0.0508638 0.000906739 0)
(-0.0509714 0.000348463 0)
(-0.0509832 -0.000211928 0)
(-0.0508988 -0.000772642 0)
(-0.0507184 -0.00133187 0)
(-0.0504424 -0.00188777 0)
(-0.0500716 -0.0024385 0)
(-0.0496069 -0.00298219 0)
(-0.0490497 -0.00351694 0)
(-0.0484017 -0.00404085 0)
(-0.0476649 -0.00455201 0)
(-0.0468416 -0.00504847 0)
(-0.0459344 -0.0055283 0)
(-0.0449464 -0.00598957 0)