/*--------------------------------*- C++ -*----------------------------------*\
| =========                 |                                                 |
| \\      /  F ield         | OpenFOAM: The Open Source CFD Toolbox           |
|  \\    /   O peration     | Version:  2212                                  |
|   \\  /    A nd           | Website:  www.openfoam.com                      |
|    \\/     M anipulation  |                                                 |
\*---------------------------------------------------------------------------*/
FoamFile
{
    version     2.0;
    format      ascii;
    arch        "LSB;label=32;scalar=64";
    class       surfaceScalarField;
    location    "0.0725";
    object      phi_0;
}
// * * * * * * * * * * * * * * * * * * * * * * * * * * * * * * * * * * * * * //

dimensions      [0 3 -1 0 0 0 0];

oriented        oriented;

internalField   nonuniform List<scalar> 
19800
(
6.91121e-11
-6.91362e-11
2.38231e-10
-1.69122e-10
4.2515e-10
-1.8691e-10
5.71544e-10
-1.46389e-10
6.44493e-10
-7.29535e-11
6.26278e-10
1.82114e-11
5.08221e-10
1.18081e-10
2.87178e-10
2.21024e-10
-3.63506e-11
3.23528e-10
-4.59641e-10
4.23301e-10
-9.78503e-10
5.18847e-10
-1.5877e-09
6.09211e-10
-2.28139e-09
6.937e-10
-3.05329e-09
7.71898e-10
-3.89682e-09
8.43548e-10
-4.80531e-09
9.08485e-10
-5.77197e-09
9.66656e-10
-6.79002e-09
1.01806e-09
-7.85276e-09
1.06274e-09
-8.95353e-09
1.10077e-09
-1.00858e-08
1.13227e-09
-1.12432e-08
1.15738e-09
-1.24194e-08
1.17624e-09
-1.36085e-08
1.18903e-09
-1.48044e-08
1.19593e-09
-1.60015e-08
1.19711e-09
-1.71943e-08
1.19276e-09
-1.83774e-08
1.1831e-09
-1.95457e-08
1.1683e-09
-2.06943e-08
1.14858e-09
-2.18184e-08
1.12415e-09
-2.29136e-08
1.09521e-09
-2.39756e-08
1.06197e-09
-2.50002e-08
1.02464e-09
-2.59836e-08
9.83428e-10
-2.69222e-08
9.38547e-10
-2.78124e-08
8.90213e-10
-2.8651e-08
8.38636e-10
-2.94351e-08
7.84031e-10
-3.01617e-08
7.26613e-10
-3.08283e-08
6.66596e-10
-3.14325e-08
6.042e-10
-3.19721e-08
5.39636e-10
-3.24453e-08
4.7313e-10
-3.28502e-08
4.04903e-10
-3.31853e-08
3.35171e-10
-3.34495e-08
2.6417e-10
-3.36416e-08
1.92132e-10
-3.37609e-08
1.19287e-10
-3.38068e-08
4.58741e-11
-3.3779e-08
-2.78644e-11
-3.36773e-08
-1.01686e-10
-3.35019e-08
-1.75344e-10
-3.32533e-08
-2.48593e-10
-3.29321e-08
-3.2118e-10
-3.25393e-08
-3.92835e-10
-3.2076e-08
-4.63294e-10
-3.15437e-08
-5.32295e-10
-3.09442e-08
-5.9957e-10
-3.02793e-08
-6.64849e-10
-2.95515e-08
-7.2787e-10
-2.87631e-08
-7.88353e-10
-2.79171e-08
-8.46013e-10
-2.70165e-08
-9.00584e-10
-2.60647e-08
-9.51804e-10
-2.50653e-08
-9.99392e-10
-2.40222e-08
-1.04307e-09
-2.29397e-08
-1.08258e-09
-2.1822e-08
-1.11766e-09
-2.0674e-08
-1.14804e-09
-1.95005e-08
-1.17349e-09
-1.83067e-08
-1.19376e-09
-1.70981e-08
-1.20863e-09
-1.58802e-08
-1.21787e-09
-1.46589e-08
-1.22128e-09
-1.34403e-08
-1.21866e-09
-1.22304e-08
-1.20983e-09
-1.10358e-08
-1.19462e-09
-9.86291e-09
-1.1729e-09
-8.71836e-09
-1.14455e-09
-7.60889e-09
-1.10948e-09
-6.54128e-09
-1.06761e-09
-5.52236e-09
-1.01892e-09
-4.55895e-09
-9.63408e-10
-3.65782e-09
-9.0113e-10
-2.82563e-09
-8.32189e-10
-2.06887e-09
-7.56766e-10
-1.39373e-09
-6.75137e-10
-8.06032e-10
-5.87704e-10
-3.11006e-10
-4.9503e-10
8.69134e-11
-3.97917e-10
3.84427e-10
-2.97508e-10
5.79877e-10
-1.95448e-10
6.74043e-10
-9.41692e-11
6.71394e-10
2.64512e-12
5.82129e-10
8.92699e-11
4.25329e-10
1.56808e-10
2.34373e-10
1.90959e-10
6.60891e-11
1.68284e-10
6.60917e-11
1.66422e-10
-2.35574e-10
4.59137e-10
-4.61836e-10
7.40974e-10
-4.68771e-10
9.10772e-10
-3.16169e-10
8.98495e-10
-6.06993e-11
6.59762e-10
2.56961e-10
1.68829e-10
6.08993e-10
-5.86585e-10
9.76464e-10
-1.60948e-09
1.34641e-09
-2.89613e-09
1.70994e-09
-4.43813e-09
2.06085e-09
-6.22379e-09
2.39484e-09
-8.23901e-09
2.70889e-09
-1.04681e-08
3.00094e-09
-1.28941e-08
3.26959e-09
-1.54996e-08
3.51394e-09
-1.82664e-08
3.73348e-09
-2.11763e-08
3.92797e-09
-2.4211e-08
4.09741e-09
-2.73522e-08
4.24199e-09
-3.05819e-08
4.36198e-09
-3.38823e-08
4.45778e-09
-3.72359e-08
4.52989e-09
-4.06257e-08
4.57888e-09
-4.40352e-08
4.60536e-09
-4.74481e-08
4.60998e-09
-5.08488e-08
4.59345e-09
-5.42221e-08
4.55646e-09
-5.75536e-08
4.49977e-09
-6.08291e-08
4.42413e-09
-6.40353e-08
4.33031e-09
-6.71592e-08
4.21909e-09
-7.01885e-08
4.09127e-09
-7.31115e-08
3.94765e-09
-7.59171e-08
3.78904e-09
-7.85948e-08
3.61624e-09
-8.11346e-08
3.43006e-09
-8.35273e-08
3.23132e-09
-8.57642e-08
3.02086e-09
-8.7837e-08
2.79951e-09
-8.97385e-08
2.56809e-09
-9.14618e-08
2.32745e-09
-9.30006e-08
2.07846e-09
-9.43495e-08
1.82194e-09
-9.55033e-08
1.55878e-09
-9.6458e-08
1.28984e-09
-9.72099e-08
1.01601e-09
-9.77559e-08
7.382e-10
-9.80939e-08
4.57304e-10
-9.82223e-08
1.74238e-10
-9.81401e-08
-1.10051e-10
-9.78472e-08
-3.94615e-10
-9.7344e-08
-6.78498e-10
-9.66319e-08
-9.60721e-10
-9.57128e-08
-1.2403e-09
-9.45894e-08
-1.51623e-09
-9.32652e-08
-1.7875e-09
-9.17444e-08
-2.05308e-09
-9.0032e-08
-2.31196e-09
-8.81338e-08
-2.56308e-09
-8.60563e-08
-2.80539e-09
-8.38068e-08
-3.03785e-09
-8.13934e-08
-3.25941e-09
-7.8825e-08
-3.46902e-09
-7.61111e-08
-3.66563e-09
-7.32623e-08
-3.84822e-09
-7.02896e-08
-4.01576e-09
-6.7205e-08
-4.16722e-09
-6.4021e-08
-4.30162e-09
-6.0751e-08
-4.418e-09
-5.74091e-08
-4.51542e-09
-5.40099e-08
-4.59297e-09
-5.05687e-08
-4.64982e-09
-4.71014e-08
-4.68514e-09
-4.36245e-08
-4.69817e-09
-4.0155e-08
-4.68819e-09
-3.67103e-08
-4.65457e-09
-3.33081e-08
-4.59673e-09
-2.99668e-08
-4.51421e-09
-2.67048e-08
-4.40661e-09
-2.35406e-08
-4.27366e-09
-2.0493e-08
-4.11521e-09
-1.75806e-08
-3.93126e-09
-1.48221e-08
-3.72195e-09
-1.22356e-08
-3.48766e-09
-9.83876e-09
-3.229e-09
-7.64863e-09
-2.9469e-09
-5.68107e-09
-2.6427e-09
-3.95052e-09
-2.31825e-09
-2.46946e-09
-1.97609e-09
-1.24764e-09
-1.61973e-09
-2.91215e-10
-1.25394e-09
3.987e-10
-8.85358e-10
8.27848e-10
-5.23306e-10
1.0115e-09
-1.81e-10
9.7816e-10
1.22623e-10
7.74494e-10
3.6048e-10
4.71262e-10
4.94188e-10
1.68186e-10
4.71367e-10
2.34285e-10
1.82412e-10
-4.17977e-10
4.61619e-10
-7.41074e-10
6.69829e-10
-6.76995e-10
6.8622e-10
-3.32552e-10
4.23132e-10
2.02374e-10
-1.78984e-10
8.59092e-10
-1.15728e-09
1.58729e-09
-2.53158e-09
2.35078e-09
-4.30865e-09
3.12349e-09
-6.48537e-09
3.88667e-09
-9.05131e-09
4.62682e-09
-1.19906e-08
5.33413e-09
-1.52833e-08
6.00163e-09
-1.89067e-08
6.62427e-09
-2.28356e-08
7.19857e-09
-2.70439e-08
7.72217e-09
-3.1504e-08
8.19356e-09
-3.61879e-08
8.61192e-09
-4.10675e-08
8.97696e-09
-4.61143e-08
9.28879e-09
-5.13002e-08
9.54787e-09
-5.65973e-08
9.7549e-09
-6.19783e-08
9.9108e-09
-6.7416e-08
1.00167e-08
-7.28844e-08
1.00737e-08
-7.83577e-08
1.00833e-08
-8.38111e-08
1.00468e-08
-8.92204e-08
9.96581e-09
-9.45625e-08
9.84183e-09
-9.98148e-08
9.67649e-09
-1.04956e-07
9.47142e-09
-1.09965e-07
9.22831e-09
-1.14823e-07
8.94887e-09
-1.1951e-07
8.63483e-09
-1.24009e-07
8.28795e-09
-1.28303e-07
7.90997e-09
-1.32375e-07
7.50268e-09
-1.36212e-07
7.06788e-09
-1.39798e-07
6.60736e-09
-1.43122e-07
6.12294e-09
-1.4617e-07
5.61647e-09
-1.48932e-07
5.08979e-09
-1.51399e-07
4.54478e-09
-1.5356e-07
3.98331e-09
-1.55409e-07
3.40728e-09
-1.56937e-07
2.81863e-09
-1.58141e-07
2.21931e-09
-1.59014e-07
1.61128e-09
-1.59553e-07
9.96565e-10
-1.59756e-07
3.77171e-10
-1.59621e-07
-2.44844e-10
-1.59148e-07
-8.67391e-10
-1.58339e-07
-1.48837e-09
-1.57194e-07
-2.10563e-09
-1.55717e-07
-2.717e-09
-1.53913e-07
-3.32029e-09
-1.51787e-07
-3.91328e-09
-1.49346e-07
-4.49375e-09
-1.46599e-07
-5.05942e-09
-1.43554e-07
-5.60804e-09
-1.40222e-07
-6.13732e-09
-1.36615e-07
-6.64497e-09
-1.32746e-07
-7.1287e-09
-1.28628e-07
-7.58624e-09
-1.24279e-07
-8.01532e-09
-1.19713e-07
-8.41369e-09
-1.1495e-07
-8.77914e-09
-1.10008e-07
-9.10949e-09
-1.04907e-07
-9.40259e-09
-9.96683e-08
-9.65638e-09
-9.43149e-08
-9.86884e-09
-8.88698e-08
-1.00381e-08
-8.33574e-08
-1.01622e-08
-7.7803e-08
-1.02396e-08
-7.22326e-08
-1.02685e-08
-6.66732e-08
-1.02476e-08
-6.11523e-08
-1.01755e-08
-5.5698e-08
-1.0051e-08
-5.0339e-08
-9.87325e-09
-4.51041e-08
-9.6415e-09
-4.00225e-08
-9.35528e-09
-3.51233e-08
-9.01442e-09
-3.04354e-08
-8.61908e-09
-2.59876e-08
-8.16983e-09
-2.18075e-08
-7.66773e-09
-1.79221e-08
-7.11439e-09
-1.43568e-08
-6.51218e-09
-1.11352e-08
-5.86436e-09
-8.27804e-09
-5.17536e-09
-5.803e-09
-4.45113e-09
-3.7231e-09
-3.69963e-09
-2.04555e-09
-2.93148e-09
-7.69873e-10
-2.16103e-09
1.14478e-10
-1.40765e-09
6.31186e-10
-6.97701e-10
8.20949e-10
-6.71363e-11
7.46204e-10
4.3523e-10
4.96108e-10
7.44285e-10
1.91421e-10
7.7606e-10
4.2571e-10
1.44238e-10
-5.62201e-10
3.13717e-10
-9.10538e-10
3.31555e-10
-6.94838e-10
6.97955e-11
-7.07691e-11
-5.65873e-10
8.38048e-10
-1.64169e-09
1.93488e-09
-3.20059e-09
3.1462e-09
-5.26679e-09
4.41695e-09
-7.84945e-09
5.70615e-09
-1.0946e-08
6.98325e-09
-1.45447e-08
8.22551e-09
-1.86267e-08
9.41614e-09
-2.31678e-08
1.05427e-08
-2.81395e-08
1.1596e-08
-3.35104e-08
1.25695e-08
-3.9247e-08
1.34588e-08
-4.53141e-08
1.42606e-08
-5.16754e-08
1.49732e-08
-5.82941e-08
1.55957e-08
-6.51332e-08
1.61279e-08
-7.21556e-08
1.65703e-08
-7.93245e-08
1.69238e-08
-8.66036e-08
1.71899e-08
-9.39572e-08
1.73702e-08
-1.0135e-07
1.74666e-08
-1.08748e-07
1.74814e-08
-1.16118e-07
1.74169e-08
-1.23428e-07
1.72755e-08
-1.30646e-07
1.70599e-08
-1.37742e-07
1.67729e-08
-1.44688e-07
1.64171e-08
-1.51455e-07
1.59955e-08
-1.58018e-07
1.5511e-08
-1.64349e-07
1.49666e-08
-1.70426e-07
1.43651e-08
-1.76226e-07
1.37098e-08
-1.81727e-07
1.30036e-08
-1.86909e-07
1.22497e-08
-1.91753e-07
1.14511e-08
-1.96241e-07
1.06111e-08
-2.00357e-07
9.73281e-09
-2.04087e-07
8.81947e-09
-2.07416e-07
7.87432e-09
-2.10334e-07
6.90064e-09
-2.12828e-07
5.90175e-09
-2.14891e-07
4.881e-09
-2.16513e-07
3.84178e-09
-2.17689e-07
2.78754e-09
-2.18415e-07
1.72175e-09
-2.18685e-07
6.47959e-10
-2.185e-07
-4.30276e-10
-2.17858e-07
-1.50933e-09
-2.16761e-07
-2.58554e-09
-2.15211e-07
-3.65517e-09
-2.13214e-07
-4.71449e-09
-2.10774e-07
-5.75966e-09
-2.07901e-07
-6.78685e-09
-2.04602e-07
-7.79219e-09
-2.0089e-07
-8.77178e-09
-1.96776e-07
-9.72169e-09
-1.92276e-07
-1.0638e-08
-1.87404e-07
-1.15167e-08
-1.82179e-07
-1.23539e-08
-1.76619e-07
-1.31457e-08
-1.70747e-07
-1.38881e-08
-1.64583e-07
-1.45774e-08
-1.58152e-07
-1.52096e-08
-1.51481e-07
-1.57811e-08
-1.44595e-07
-1.62883e-08
-1.37524e-07
-1.67275e-08
-1.30297e-07
-1.70954e-08
-1.22947e-07
-1.73888e-08
-1.15504e-07
-1.76044e-08
-1.08004e-07
-1.77395e-08
-1.00482e-07
-1.77913e-08
-9.29719e-08
-1.77574e-08
-8.55118e-08
-1.76356e-08
-7.81386e-08
-1.74242e-08
-7.08902e-08
-1.71216e-08
-6.3805e-08
-1.67267e-08
-5.69212e-08
-1.62391e-08
-5.02771e-08
-1.56585e-08
-4.39107e-08
-1.49856e-08
-3.7859e-08
-1.42216e-08
-3.21581e-08
-1.33686e-08
-2.68425e-08
-1.243e-08
-2.19446e-08
-1.141e-08
-1.7494e-08
-1.03149e-08
-1.35168e-08
-9.15263e-09
-1.00341e-08
-7.9338e-09
-7.06143e-09
-6.6723e-09
-4.60657e-09
-5.38633e-09
-2.66783e-09
-4.09978e-09
-1.23145e-09
-2.84403e-09
-2.68718e-10
-1.66042e-09
2.67618e-10
-6.03465e-10
4.47489e-10
2.55364e-10
3.67957e-10
8.23819e-10
1.5897e-10
9.85044e-10
5.8468e-10
7.49039e-11
-6.37113e-10
6.77714e-11
-9.03407e-10
-1.89305e-10
-4.37769e-10
-8.21137e-10
5.61059e-10
-1.92106e-09
1.93798e-09
-3.55591e-09
3.56975e-09
-5.77e-09
5.36028e-09
-8.58872e-09
7.23569e-09
-1.20219e-08
9.13937e-09
-1.60668e-08
1.10281e-08
-2.071e-08
1.28688e-08
-2.59303e-08
1.46364e-08
-3.16998e-08
1.63122e-08
-3.79857e-08
1.78818e-08
-4.47512e-08
1.9335e-08
-5.19566e-08
2.06642e-08
-5.95602e-08
2.18643e-08
-6.75189e-08
2.29318e-08
-7.57883e-08
2.38651e-08
-8.43238e-08
2.46634e-08
-9.30807e-08
2.53271e-08
-1.02014e-07
2.58573e-08
-1.1108e-07
2.62557e-08
-1.20234e-07
2.65247e-08
-1.29435e-07
2.6667e-08
-1.38639e-07
2.66856e-08
-1.47806e-07
2.65841e-08
-1.56897e-07
2.6366e-08
-1.65872e-07
2.60352e-08
-1.74695e-07
2.55957e-08
-1.83329e-07
2.50517e-08
-1.91741e-07
2.44075e-08
-1.99898e-07
2.36674e-08
-2.07767e-07
2.28359e-08
-2.1532e-07
2.19176e-08
-2.22527e-07
2.09171e-08
-2.29362e-07
1.98391e-08
-2.35801e-07
1.86882e-08
-2.41819e-07
1.74692e-08
-2.47395e-07
1.61869e-08
-2.52508e-07
1.48462e-08
-2.57141e-07
1.34521e-08
-2.61276e-07
1.20094e-08
-2.64898e-07
1.05232e-08
-2.67995e-07
8.99855e-09
-2.70555e-07
7.44064e-09
-2.72568e-07
5.85463e-09
-2.74026e-07
4.24579e-09
-2.74923e-07
2.61943e-09
-2.75256e-07
9.80962e-10
-2.75023e-07
-6.64137e-10
-2.74222e-07
-2.31034e-09
-2.72855e-07
-3.95205e-09
-2.70927e-07
-5.58357e-09
-2.68442e-07
-7.19916e-09
-2.65409e-07
-8.79304e-09
-2.61836e-07
-1.03593e-08
-2.57736e-07
-1.18921e-08
-2.53122e-07
-1.33855e-08
-2.48011e-07
-1.48335e-08
-2.42418e-07
-1.62301e-08
-2.36366e-07
-1.75694e-08
-2.29875e-07
-1.88452e-08
-2.22968e-07
-2.00518e-08
-2.15673e-07
-2.11831e-08
-2.08017e-07
-2.22335e-08
-2.0003e-07
-2.3197e-08
-1.91743e-07
-2.40681e-08
-1.8319e-07
-2.48413e-08
-1.74406e-07
-2.55114e-08
-1.65428e-07
-2.60731e-08
-1.56296e-07
-2.65216e-08
-1.47048e-07
-2.68523e-08
-1.37726e-07
-2.70609e-08
-1.28374e-07
-2.71435e-08
-1.19035e-07
-2.70965e-08
-1.09754e-07
-2.69168e-08
-1.00576e-07
-2.66018e-08
-9.15483e-08
-2.61494e-08
-8.27166e-08
-2.55584e-08
-7.41278e-08
-2.48279e-08
-6.58279e-08
-2.39584e-08
-5.78626e-08
-2.29508e-08
-5.02766e-08
-2.18076e-08
-4.31129e-08
-2.05323e-08
-3.64125e-08
-1.91304e-08
-3.02135e-08
-1.7609e-08
-2.45507e-08
-1.59777e-08
-1.94542e-08
-1.42491e-08
-1.49484e-08
-1.24395e-08
-1.10509e-08
-1.05699e-08
-7.77022e-09
-8.66698e-09
-5.1045e-09
-6.7655e-09
-3.03874e-09
-4.90978e-09
-1.5423e-09
-3.15686e-09
-5.65847e-10
-1.57992e-09
-3.7849e-11
-2.72633e-10
1.39272e-10
6.46701e-10
9.43387e-11
1.02997e-09
6.79018e-10
-1.1984e-11
-6.25142e-10
-2.39275e-10
-6.76112e-10
-8.29979e-10
1.52944e-10
-1.89803e-09
1.62908e-09
-3.52998e-09
3.56997e-09
-5.78871e-09
5.82848e-09
-8.71614e-09
8.28773e-09
-1.23363e-08
1.08558e-08
-1.66576e-08
1.34608e-08
-2.16759e-08
1.60464e-08
-2.7376e-08
1.85688e-08
-3.37339e-08
2.09943e-08
-4.07185e-08
2.32967e-08
-4.82929e-08
2.54563e-08
-5.64159e-08
2.7458e-08
-6.50425e-08
2.92909e-08
-7.41255e-08
3.09472e-08
-8.36154e-08
3.24218e-08
-9.34617e-08
3.37114e-08
-1.03613e-07
3.48148e-08
-1.14018e-07
3.57318e-08
-1.24624e-07
3.64637e-08
-1.35381e-07
3.70125e-08
-1.46237e-07
3.73811e-08
-1.57143e-07
3.75731e-08
-1.6805e-07
3.75925e-08
-1.7891e-07
3.74439e-08
-1.89676e-07
3.71323e-08
-2.00304e-07
3.66628e-08
-2.10749e-07
3.6041e-08
-2.2097e-07
3.52726e-08
-2.30926e-07
3.43636e-08
-2.40579e-07
3.33199e-08
-2.49891e-07
3.21479e-08
-2.58827e-07
3.08539e-08
-2.67354e-07
2.94442e-08
-2.75441e-07
2.79255e-08
-2.83057e-07
2.63043e-08
-2.90175e-07
2.45873e-08
-2.9677e-07
2.27814e-08
-3.02817e-07
2.08933e-08
-3.08295e-07
1.89299e-08
-3.13183e-07
1.68983e-08
-3.17466e-07
1.48056e-08
-3.21126e-07
1.26588e-08
-3.24151e-07
1.04653e-08
-3.26528e-07
8.23232e-09
-3.2825e-07
5.96735e-09
-3.29308e-07
3.67789e-09
-3.29699e-07
1.37154e-09
-3.29419e-07
-9.43994e-10
-3.28469e-07
-3.2609e-09
-3.26849e-07
-5.57127e-09
-3.24566e-07
-7.86714e-09
-3.21625e-07
-1.01404e-08
-3.18035e-07
-1.23829e-08
-3.13808e-07
-1.45865e-08
-3.08957e-07
-1.67427e-08
-3.03499e-07
-1.88434e-08
-2.97453e-07
-2.08801e-08
-2.90838e-07
-2.28443e-08
-2.8368e-07
-2.47279e-08
-2.76003e-07
-2.65222e-08
-2.67835e-07
-2.82192e-08
-2.59208e-07
-2.98104e-08
-2.50154e-07
-3.12878e-08
-2.40707e-07
-3.26434e-08
-2.30906e-07
-3.38693e-08
-2.20789e-07
-3.4958e-08
-2.10399e-07
-3.59021e-08
-1.99777e-07
-3.66944e-08
-1.88971e-07
-3.73283e-08
-1.78025e-07
-3.77975e-08
-1.6699e-07
-3.80961e-08
-1.55915e-07
-3.82187e-08
-1.44851e-07
-3.81605e-08
-1.33851e-07
-3.79174e-08
-1.22966e-07
-3.7486e-08
-1.12252e-07
-3.68636e-08
-1.01762e-07
-3.60487e-08
-9.15492e-08
-3.50407e-08
-8.16673e-08
-3.38402e-08
-7.21689e-08
-3.24493e-08
-6.31048e-08
-3.08716e-08
-5.45244e-08
-2.91128e-08
-4.64741e-08
-2.71807e-08
-3.89973e-08
-2.50858e-08
-3.2133e-08
-2.2842e-08
-2.59151e-08
-2.0467e-08
-2.0371e-08
-1.79836e-08
-1.55204e-08
-1.54204e-08
-1.13736e-08
-1.28139e-08
-7.9294e-09
-1.02096e-08
-5.17371e-09
-7.66548e-09
-3.07666e-09
-5.25391e-09
-1.59042e-09
-3.06617e-09
-6.46399e-10
-1.21666e-09
-1.52303e-10
1.52606e-10
1.16286e-11
8.66037e-10
6.90651e-10
-1.08028e-10
-5.17083e-10
-5.81998e-10
-2.02144e-10
-1.54498e-09
1.11593e-09
-3.09488e-09
3.17899e-09
-5.30736e-09
5.78244e-09
-8.23769e-09
8.75881e-09
-1.19226e-08
1.19726e-08
-1.63821e-08
1.53154e-08
-2.16219e-08
1.87005e-08
-2.76348e-08
2.20593e-08
-3.4403e-08
2.5337e-08
-4.18995e-08
2.84908e-08
-5.009e-08
3.14872e-08
-5.89337e-08
3.43e-08
-6.83852e-08
3.69095e-08
-7.83951e-08
3.93007e-08
-8.89108e-08
4.14629e-08
-9.98777e-08
4.33887e-08
-1.1124e-07
4.50732e-08
-1.22939e-07
4.65143e-08
-1.34918e-07
4.77112e-08
-1.4712e-07
4.86651e-08
-1.59486e-07
4.93783e-08
-1.71959e-07
4.98542e-08
-1.84483e-07
5.00971e-08
-1.97002e-07
5.01123e-08
-2.09464e-07
4.99054e-08
-2.21814e-07
4.94828e-08
-2.34003e-07
4.88511e-08
-2.45979e-07
4.80176e-08
-2.57696e-07
4.69898e-08
-2.69108e-07
4.57752e-08
-2.8017e-07
4.4382e-08
-2.90841e-07
4.28183e-08
-3.01079e-07
4.10925e-08
-3.10848e-07
3.9213e-08
-3.20111e-07
3.71885e-08
-3.28835e-07
3.50278e-08
-3.36987e-07
3.27397e-08
-3.44539e-07
3.03333e-08
-3.51463e-07
2.78176e-08
-3.57735e-07
2.52018e-08
-3.63332e-07
2.24953e-08
-3.68234e-07
1.97076e-08
-3.72423e-07
1.6848e-08
-3.75884e-07
1.39264e-08
-3.78604e-07
1.09524e-08
-3.80573e-07
7.93594e-09
-3.81782e-07
4.88708e-09
-3.82227e-07
1.81595e-09
-3.81903e-07
-1.2672e-09
-3.80812e-07
-4.35198e-09
-3.78956e-07
-7.42787e-09
-3.76339e-07
-1.04842e-08
-3.72969e-07
-1.35103e-08
-3.68856e-07
-1.64953e-08
-3.64015e-07
-1.94282e-08
-3.58459e-07
-2.22981e-08
-3.52209e-07
-2.50938e-08
-3.45285e-07
-2.78043e-08
-3.3771e-07
-3.04184e-08
-3.29513e-07
-3.29251e-08
-3.20722e-07
-3.53132e-08
-3.11369e-07
-3.75718e-08
-3.0149e-07
-3.969e-08
-2.91121e-07
-4.1657e-08
-2.80302e-07
-4.34624e-08
-2.69075e-07
-4.50957e-08
-2.57486e-07
-4.65471e-08
-2.45582e-07
-4.78068e-08
-2.3341e-07
-4.88656e-08
-2.21024e-07
-4.97147e-08
-2.08476e-07
-5.0346e-08
-1.9582e-07
-5.07517e-08
-1.83114e-07
-5.0925e-08
-1.70415e-07
-5.08597e-08
-1.57781e-07
-5.05506e-08
-1.45274e-07
-4.99935e-08
-1.32952e-07
-4.91853e-08
-1.20877e-07
-4.81241e-08
-1.09108e-07
-4.68096e-08
-9.7705e-08
-4.5243e-08
-8.67268e-08
-4.34275e-08
-7.623e-08
-4.13684e-08
-6.62693e-08
-3.90735e-08
-5.68962e-08
-3.65537e-08
-4.81587e-08
-3.38234e-08
-4.00998e-08
-3.09009e-08
-3.27569e-08
-2.78099e-08
-2.61608e-08
-2.45798e-08
-2.03335e-08
-2.12477e-08
-1.52878e-08
-1.78596e-08
-1.10249e-08
-1.44725e-08
-7.53317e-09
-1.11572e-08
-4.78585e-09
-8.00124e-09
-2.73956e-09
-5.11246e-09
-1.33219e-09
-2.62403e-09
-4.81005e-10
-6.9858e-10
-8.0629e-11
4.65658e-10
6.10026e-10
-2.08096e-10
-3.09015e-10
-9.43427e-10
5.33213e-10
-2.30236e-09
2.47487e-09
-4.36395e-09
5.24055e-09
-7.19003e-09
8.60854e-09
-1.08257e-08
1.23945e-08
-1.53002e-08
1.6447e-08
-2.06276e-08
2.06428e-08
-2.6809e-08
2.48819e-08
-3.38333e-08
2.90835e-08
-4.1679e-08
3.31827e-08
-5.03157e-08
3.71276e-08
-5.97054e-08
4.08769e-08
-6.98037e-08
4.43983e-08
-8.0561e-08
4.76668e-08
-9.19234e-08
5.06632e-08
-1.03834e-07
5.33736e-08
-1.16233e-07
5.57879e-08
-1.2906e-07
5.78997e-08
-1.42251e-07
5.97054e-08
-1.55743e-07
6.12037e-08
-1.69474e-07
6.23955e-08
-1.83379e-07
6.32832e-08
-1.97395e-07
6.38709e-08
-2.11462e-07
6.41636e-08
-2.25517e-07
6.41674e-08
-2.39501e-07
6.38896e-08
-2.53356e-07
6.33377e-08
-2.67025e-07
6.25201e-08
-2.80453e-07
6.14458e-08
-2.93587e-07
6.0124e-08
-3.06377e-07
5.85646e-08
-3.18772e-07
5.67774e-08
-3.30727e-07
5.4773e-08
-3.42196e-07
5.25618e-08
-3.53138e-07
5.01546e-08
-3.63511e-07
4.75624e-08
-3.7328e-07
4.47964e-08
-3.82408e-07
4.18678e-08
-3.90863e-07
3.87882e-08
-3.98615e-07
3.55691e-08
-4.05635e-07
3.22223e-08
-4.119e-07
2.87598e-08
-4.17386e-07
2.51935e-08
-4.22073e-07
2.15358e-08
-4.25946e-07
1.77988e-08
-4.28988e-07
1.39951e-08
-4.3119e-07
1.01374e-08
-4.32541e-07
6.23853e-09
-4.33037e-07
2.31136e-09
-4.32673e-07
-1.63093e-09
-4.3145e-07
-5.57507e-09
-4.2937e-07
-9.50762e-09
-4.2644e-07
-1.3415e-08
-4.22666e-07
-1.72835e-08
-4.18062e-07
-2.10993e-08
-4.12642e-07
-2.48484e-08
-4.06423e-07
-2.85169e-08
-3.99427e-07
-3.20905e-08
-3.91676e-07
-3.55552e-08
-3.83197e-07
-3.88969e-08
-3.74021e-07
-4.21013e-08
-3.6418e-07
-4.51544e-08
-3.53709e-07
-4.80423e-08
-3.42648e-07
-5.07512e-08
-3.31038e-07
-5.32674e-08
-3.18923e-07
-5.55777e-08
-3.06349e-07
-5.76689e-08
-2.93368e-07
-5.95286e-08
-2.8003e-07
-6.11444e-08
-2.66391e-07
-6.25048e-08
-2.52507e-07
-6.35988e-08
-2.38437e-07
-6.44161e-08
-2.24241e-07
-6.49472e-08
-2.09983e-07
-6.51835e-08
-1.95725e-07
-6.51175e-08
-1.81533e-07
-6.47427e-08
-1.67472e-07
-6.40543e-08
-1.53609e-07
-6.30484e-08
-1.4001e-07
-6.17232e-08
-1.26741e-07
-6.00787e-08
-1.13867e-07
-5.81168e-08
-1.01452e-07
-5.5842e-08
-8.95593e-08
-5.32615e-08
-7.82471e-08
-5.03857e-08
-6.75721e-08
-4.72287e-08
-5.75864e-08
-4.3809e-08
-4.83373e-08
-4.01501e-08
-3.98657e-08
-3.62814e-08
-3.22058e-08
-3.22398e-08
-2.53829e-08
-2.80706e-08
-1.9413e-08
-2.38294e-08
-1.4301e-08
-1.95845e-08
-1.00392e-08
-1.54191e-08
-6.60603e-09
-1.14344e-08
-3.96493e-09
-7.75356e-09
-2.06287e-09
-4.52609e-09
-8.29612e-10
-1.93184e-09
-1.772e-10
-1.86755e-10
4.32826e-10
-3.09063e-10
4.94401e-14
-1.31251e-09
1.53667e-09
-3.08027e-09
4.24264e-09
-5.67131e-09
7.8316e-09
-9.13205e-09
1.20693e-08
-1.34956e-08
1.6758e-08
-1.87817e-08
2.17331e-08
-2.49972e-08
2.68583e-08
-3.2137e-08
3.20218e-08
-4.01851e-08
3.71316e-08
-4.91155e-08
4.21131e-08
-5.88936e-08
4.69057e-08
-6.94774e-08
5.14607e-08
-8.08185e-08
5.57394e-08
-9.28633e-08
5.97116e-08
-1.05554e-07
6.33537e-08
-1.18829e-07
6.66483e-08
-1.32623e-07
6.95827e-08
-1.46872e-07
7.21486e-08
-1.61508e-07
7.43408e-08
-1.76462e-07
7.61575e-08
-1.91665e-07
7.75991e-08
-2.0705e-07
7.86681e-08
-2.22548e-07
7.9369e-08
-2.38092e-07
7.97077e-08
-2.53616e-07
7.96913e-08
-2.69055e-07
7.93284e-08
-2.84345e-07
7.8628e-08
-2.99425e-07
7.76003e-08
-3.14236e-07
7.6256e-08
-3.28718e-07
7.46064e-08
-3.42817e-07
7.26634e-08
-3.56479e-07
7.04393e-08
-3.69652e-07
6.79468e-08
-3.82289e-07
6.51987e-08
-3.94343e-07
6.22083e-08
-4.0577e-07
5.89892e-08
-4.16529e-07
5.55552e-08
-4.26581e-07
5.19201e-08
-4.35891e-07
4.80982e-08
-4.44426e-07
4.41038e-08
-4.52155e-07
3.99515e-08
-4.59051e-07
3.5656e-08
-4.6509e-07
3.12323e-08
-4.7025e-07
2.66954e-08
-4.74511e-07
2.20607e-08
-4.7786e-07
1.73436e-08
-4.80282e-07
1.25598e-08
-4.81769e-07
7.72514e-09
-4.82313e-07
2.85577e-09
-4.81912e-07
-2.03209e-09
-4.80565e-07
-6.922e-09
-4.78275e-07
-1.17973e-08
-4.75049e-07
-1.66413e-08
-4.70896e-07
-2.14369e-08
-4.65828e-07
-2.61671e-08
-4.59862e-07
-3.08146e-08
-4.53017e-07
-3.5362e-08
-4.45315e-07
-3.97921e-08
-4.36783e-07
-4.40872e-08
-4.2745e-07
-4.823e-08
-4.17348e-07
-5.22031e-08
-4.06513e-07
-5.59892e-08
-3.94985e-07
-5.95709e-08
-3.82805e-07
-6.29315e-08
-3.70018e-07
-6.60541e-08
-3.56673e-07
-6.89224e-08
-3.42822e-07
-7.15204e-08
-3.28517e-07
-7.38327e-08
-3.13817e-07
-7.58444e-08
-2.98781e-07
-7.75413e-08
-2.8347e-07
-7.891e-08
-2.67948e-07
-7.9938e-08
-2.52281e-07
-8.06138e-08
-2.36538e-07
-8.0927e-08
-2.20786e-07
-8.08688e-08
-2.05098e-07
-8.04315e-08
-1.89543e-07
-7.96091e-08
-1.74194e-07
-7.83977e-08
-1.59122e-07
-7.67952e-08
-1.44398e-07
-7.48019e-08
-1.30094e-07
-7.24208e-08
-1.16279e-07
-6.96577e-08
-1.03018e-07
-6.6522e-08
-9.03771e-08
-6.30267e-08
-7.84162e-08
-5.91896e-08
-6.7192e-08
-5.50333e-08
-5.67555e-08
-5.05865e-08
-4.71518e-08
-4.58851e-08
-3.84187e-08
-4.09729e-08
-3.05856e-08
-3.59036e-08
-2.36727e-08
-3.07423e-08
-1.76894e-08
-2.55678e-08
-1.26336e-08
-2.04749e-08
-8.49058e-09
-1.55774e-08
-5.23211e-09
-1.1012e-08
-2.81619e-09
-6.94202e-09
-1.18685e-09
-3.56118e-09
-2.74942e-10
-1.09867e-09
1.57881e-10
-4.09124e-10
4.09176e-10
-1.68217e-09
2.8097e-09
-3.86399e-09
6.42447e-09
-6.99339e-09
1.0961e-08
-1.11005e-08
1.61764e-08
-1.62054e-08
2.18629e-08
-2.23171e-08
2.78448e-08
-2.94339e-08
3.39752e-08
-3.75436e-08
4.01314e-08
-4.66239e-08
4.62119e-08
-5.66436e-08
5.21328e-08
-6.75634e-08
5.78255e-08
-7.93369e-08
6.32342e-08
-9.19113e-08
6.83139e-08
-1.05229e-07
7.30291e-08
-1.19227e-07
7.73521e-08
-1.33841e-07
8.12619e-08
-1.49001e-07
8.47431e-08
-1.64638e-07
8.7785e-08
-1.80678e-07
9.03815e-08
-1.9705e-07
9.25294e-08
-2.1368e-07
9.4229e-08
-2.30495e-07
9.54828e-08
-2.47422e-07
9.62957e-08
-2.64388e-07
9.66743e-08
-2.81324e-07
9.66269e-08
-2.98159e-07
9.61633e-08
-3.14825e-07
9.52942e-08
-3.31256e-07
9.40316e-08
-3.47388e-07
9.2388e-08
-3.63159e-07
9.03769e-08
-3.78508e-07
8.80126e-08
-3.93378e-07
8.53094e-08
-4.07714e-07
8.22827e-08
-4.21464e-07
7.8948e-08
-4.34576e-07
7.53211e-08
-4.47005e-07
7.14183e-08
-4.58706e-07
6.72561e-08
-4.69638e-07
6.28515e-08
-4.79761e-07
5.82213e-08
-4.8904e-07
5.33831e-08
-4.97443e-07
4.83543e-08
-5.0494e-07
4.31528e-08
-5.11504e-07
3.77965e-08
-5.17112e-07
3.23038e-08
-5.21745e-07
2.6693e-08
-5.25384e-07
2.0983e-08
-5.28017e-07
1.51927e-08
-5.29633e-07
9.34118e-09
-5.30225e-07
3.44794e-09
-5.2979e-07
-2.46741e-09
-5.28327e-07
-8.38501e-09
-5.2584e-07
-1.42848e-08
-5.22334e-07
-2.01464e-08
-5.17822e-07
-2.59495e-08
-5.12316e-07
-3.16734e-08
-5.05833e-07
-3.72972e-08
-4.98395e-07
-4.28002e-08
-4.90025e-07
-4.81613e-08
-4.80753e-07
-5.33596e-08
-4.70609e-07
-5.83739e-08
-4.59629e-07
-6.31835e-08
-4.47851e-07
-6.77674e-08
-4.35317e-07
-7.2105e-08
-4.22072e-07
-7.6176e-08
-4.08166e-07
-7.99602e-08
-3.9365e-07
-8.34381e-08
-3.7858e-07
-8.65905e-08
-3.63014e-07
-8.9399e-08
-3.47013e-07
-9.18458e-08
-3.3064e-07
-9.39139e-08
-3.13963e-07
-9.55875e-08
-2.97049e-07
-9.68516e-08
-2.7997e-07
-9.76927e-08
-2.62798e-07
-9.80987e-08
-2.45608e-07
-9.80589e-08
-2.28475e-07
-9.75646e-08
-2.11475e-07
-9.6609e-08
-1.94686e-07
-9.51875e-08
-1.78183e-07
-9.32981e-08
-1.62043e-07
-9.09417e-08
-1.46342e-07
-8.8122e-08
-1.31153e-07
-8.48465e-08
-1.16548e-07
-8.11268e-08
-1.02596e-07
-7.69788e-08
-8.93617e-08
-7.24238e-08
-7.6906e-08
-6.7489e-08
-6.52842e-08
-6.22083e-08
-5.45457e-08
-5.66236e-08
-4.47325e-08
-5.07861e-08
-3.58787e-08
-4.47574e-08
-2.80094e-08
-3.86116e-08
-2.11397e-08
-3.24375e-08
-1.52742e-08
-2.63404e-08
-1.04061e-08
-2.04455e-08
-6.51706e-09
-1.49011e-08
-3.57712e-09
-9.88196e-09
-1.5455e-09
-5.5928e-09
-3.71996e-10
-2.27218e-09
-2.14117e-10
-5.07287e-10
9.16465e-10
-2.04802e-09
4.35042e-09
-4.6439e-09
9.02035e-09
-8.31418e-09
1.46313e-08
-1.30725e-08
2.09348e-08
-1.89253e-08
2.77156e-08
-2.58701e-08
3.47896e-08
-3.38957e-08
4.20008e-08
-4.29818e-08
4.92175e-08
-5.30992e-08
5.63293e-08
-6.42107e-08
6.32444e-08
-7.62717e-08
6.98864e-08
-8.92306e-08
7.61931e-08
-1.0303e-07
8.21136e-08
-1.17608e-07
8.76072e-08
-1.32898e-07
9.26421e-08
-1.4883e-07
9.71938e-08
-1.65331e-07
1.01244e-07
-1.82327e-07
1.0478e-07
-1.9974e-07
1.07795e-07
-2.17494e-07
1.10283e-07
-2.35511e-07
1.12246e-07
-2.53713e-07
1.13685e-07
-2.72024e-07
1.14606e-07
-2.90366e-07
1.15017e-07
-3.08665e-07
1.14926e-07
-3.26846e-07
1.14344e-07
-3.44837e-07
1.13285e-07
-3.62568e-07
1.11762e-07
-3.7997e-07
1.0979e-07
-3.96977e-07
1.07384e-07
-4.13525e-07
1.04561e-07
-4.29553e-07
1.01337e-07
-4.45002e-07
9.77315e-08
-4.59815e-07
9.37618e-08
-4.73941e-07
8.94467e-08
-4.87328e-07
8.48053e-08
-4.99929e-07
7.98573e-08
-5.117e-07
7.46225e-08
-5.226e-07
6.9121e-08
-5.3259e-07
6.33734e-08
-5.41636e-07
5.74003e-08
-5.49706e-07
5.1223e-08
-5.56773e-07
4.48626e-08
-5.6281e-07
3.83409e-08
-5.67796e-07
3.16797e-08
-5.71714e-07
2.49012e-08
-5.7455e-07
1.80278e-08
-5.76291e-07
1.10822e-08
-5.7693e-07
4.08735e-09
-5.76464e-07
-2.93341e-09
-5.74892e-07
-9.95661e-09
-5.72219e-07
-1.69585e-08
-5.6845e-07
-2.39151e-08
-5.63597e-07
-3.08022e-08
-5.57675e-07
-3.75953e-08
-5.50703e-07
-4.427e-08
-5.42701e-07
-5.08016e-08
-5.33697e-07
-5.71652e-08
-5.23721e-07
-6.33361e-08
-5.12805e-07
-6.92894e-08
-5.00988e-07
-7.50006e-08
-4.88311e-07
-8.0445e-08
-4.74818e-07
-8.55983e-08
-4.60557e-07
-9.04365e-08
-4.45581e-07
-9.4936e-08
-4.29946e-07
-9.90737e-08
-4.13709e-07
-1.02827e-07
-3.96933e-07
-1.06175e-07
-3.79683e-07
-1.09096e-07
-3.62027e-07
-1.1157e-07
-3.44035e-07
-1.13579e-07
-3.2578e-07
-1.15106e-07
-3.07339e-07
-1.16134e-07
-2.88787e-07
-1.1665e-07
-2.70204e-07
-1.16642e-07
-2.5167e-07
-1.16099e-07
-2.33266e-07
-1.15013e-07
-2.15073e-07
-1.1338e-07
-1.97173e-07
-1.11198e-07
-1.79648e-07
-1.08468e-07
-1.62576e-07
-1.05194e-07
-1.46036e-07
-1.01386e-07
-1.30105e-07
-9.70579e-08
-1.14856e-07
-9.22282e-08
-1.00357e-07
-8.6922e-08
-8.66756e-08
-8.11707e-08
-7.38702e-08
-7.50137e-08
-6.19949e-08
-6.84989e-08
-5.10967e-08
-6.16842e-08
-4.1215e-08
-5.46391e-08
-3.23806e-08
-4.74461e-08
-2.46151e-08
-4.0203e-08
-1.79306e-08
-3.30248e-08
-1.23293e-08
-2.60468e-08
-7.80343e-09
-1.9427e-08
-4.33582e-09
-1.33496e-08
-1.90103e-09
-8.02758e-09
-4.673e-10
-3.70591e-09
-6.81415e-10
-6.02989e-10
1.51949e-09
-2.40745e-09
6.15487e-09
-5.41396e-09
1.20269e-08
-9.62314e-09
1.88405e-08
-1.50325e-08
2.63442e-08
-2.16346e-08
3.43176e-08
-2.9415e-08
4.25701e-08
-3.83524e-08
5.09382e-08
-4.84176e-08
5.92827e-08
-5.95741e-08
6.74858e-08
-7.17778e-08
7.54481e-08
-8.49781e-08
8.30868e-08
-9.91183e-08
9.03333e-08
-1.14136e-07
9.71313e-08
-1.29965e-07
1.03436e-07
-1.46533e-07
1.0921e-07
-1.63766e-07
1.14427e-07
-1.81587e-07
1.19065e-07
-1.99918e-07
1.23111e-07
-2.18677e-07
1.26554e-07
-2.37783e-07
1.2939e-07
-2.57154e-07
1.31617e-07
-2.76709e-07
1.3324e-07
-2.96366e-07
1.34263e-07
-3.16045e-07
1.34695e-07
-3.35665e-07
1.34546e-07
-3.5515e-07
1.33829e-07
-3.74423e-07
1.32558e-07
-3.93409e-07
1.30749e-07
-4.12036e-07
1.28417e-07
-4.30235e-07
1.25583e-07
-4.47938e-07
1.22263e-07
-4.6508e-07
1.18479e-07
-4.81599e-07
1.1425e-07
-4.97435e-07
1.09599e-07
-5.12534e-07
1.04545e-07
-5.2684e-07
9.91121e-08
-5.40305e-07
9.33224e-08
-5.52882e-07
8.7199e-08
-5.64526e-07
8.07654e-08
-5.75198e-07
7.40454e-08
-5.84861e-07
6.70632e-08
-5.93482e-07
5.98432e-08
-6.01029e-07
5.24104e-08
-6.07478e-07
4.47898e-08
-6.12805e-07
3.7007e-08
-6.16992e-07
2.90877e-08
-6.20022e-07
2.10581e-08
-6.21885e-07
1.29447e-08
-6.22572e-07
4.77421e-09
-6.22079e-07
-3.42634e-09
-6.20406e-07
-1.16296e-08
-6.17556e-07
-1.98078e-08
-6.13538e-07
-2.79331e-08
-6.08363e-07
-3.59774e-08
-6.02046e-07
-4.39122e-08
-5.94607e-07
-5.17091e-08
-5.8607e-07
-5.93393e-08
-5.76461e-07
-6.6774e-08
-5.65812e-07