/*--------------------------------*- C++ -*----------------------------------*\
| =========                 |                                                 |
| \\      /  F ield         | OpenFOAM: The Open Source CFD Toolbox           |
|  \\    /   O peration     | Version:  2212                                  |
|   \\  /    A nd           | Website:  www.openfoam.com                      |
|    \\/     M anipulation  |                                                 |
\*---------------------------------------------------------------------------*/
FoamFile
{
    version     2.0;
    format      ascii;
    arch        "LSB;label=32;scalar=64";
    class       surfaceScalarField;
    location    "0.0575";
    object      phi;
}
// * * * * * * * * * * * * * * * * * * * * * * * * * * * * * * * * * * * * * //

dimensions      [0 3 -1 0 0 0 0];

oriented        oriented;

internalField   nonuniform List<scalar> 
19800
(
6.69581e-11
-6.7001e-11
2.24957e-10
-1.57987e-10
4.00123e-10
-1.75173e-10
5.35797e-10
-1.35655e-10
6.01227e-10
-6.54352e-11
5.79346e-10
2.18742e-11
4.6168e-10
1.17655e-10
2.45217e-10
2.1645e-10
-6.96045e-11
3.14823e-10
-4.80163e-10
4.10546e-10
-9.82349e-10
5.02191e-10
-1.57114e-09
5.88773e-10
-2.24084e-09
6.69694e-10
-2.98539e-09
7.44544e-10
-3.79847e-09
8.13069e-10
-4.6736e-09
8.75128e-10
-5.60425e-09
9.30658e-10
-6.5839e-09
9.79658e-10
-7.6061e-09
1.02219e-09
-8.66444e-09
1.05835e-09
-9.75267e-09
1.08823e-09
-1.08646e-08
1.11197e-09
-1.19943e-08
1.12973e-09
-1.3136e-08
1.14166e-09
-1.42839e-08
1.14794e-09
-1.54327e-08
1.14876e-09
-1.6577e-08
1.1443e-09
-1.77118e-08
1.13476e-09
-1.88321e-08
1.12031e-09
-1.99333e-08
1.10118e-09
-2.10108e-08
1.07757e-09
-2.20605e-08
1.04966e-09
-2.30781e-08
1.01764e-09
-2.40598e-08
9.81735e-10
-2.5002e-08
9.4215e-10
-2.59011e-08
8.99083e-10
-2.67538e-08
8.52728e-10
-2.75571e-08
8.03294e-10
-2.83081e-08
7.50991e-10
-2.90041e-08
6.96016e-10
-2.96427e-08
6.38573e-10
-3.02215e-08
5.78867e-10
-3.07386e-08
5.17106e-10
-3.11921e-08
4.53503e-10
-3.15804e-08
3.8826e-10
-3.1902e-08
3.21598e-10
-3.21557e-08
2.53737e-10
-3.23406e-08
1.84888e-10
-3.24559e-08
1.15269e-10
-3.2501e-08
4.51012e-11
-3.24756e-08
-2.53934e-11
-3.23796e-08
-9.59724e-11
-3.22132e-08
-1.66395e-10
-3.19768e-08
-2.36433e-10
-3.1671e-08
-3.05847e-10
-3.12966e-08
-3.74398e-10
-3.08547e-08
-4.4184e-10
-3.03468e-08
-5.07915e-10
-2.97745e-08
-5.7236e-10
-2.91395e-08
-6.34926e-10
-2.84442e-08
-6.9536e-10
-2.76908e-08
-7.53399e-10
-2.6882e-08
-8.08782e-10
-2.60207e-08
-8.61246e-10
-2.51102e-08
-9.10521e-10
-2.41539e-08
-9.56347e-10
-2.31554e-08
-9.98478e-10
-2.21187e-08
-1.03666e-09
-2.10481e-08
-1.07062e-09
-1.9948e-08
-1.10014e-09
-1.8823e-08
-1.12496e-09
-1.76782e-08
-1.14484e-09
-1.65186e-08
-1.15957e-09
-1.53496e-08
-1.16894e-09
-1.41769e-08
-1.17273e-09
-1.30062e-08
-1.17076e-09
-1.18433e-08
-1.16283e-09
-1.06945e-08
-1.1488e-09
-9.56601e-09
-1.12852e-09
-8.46415e-09
-1.10187e-09
-7.3954e-09
-1.06874e-09
-6.36632e-09
-1.02909e-09
-5.38346e-09
-9.82862e-10
-4.45341e-09
-9.30059e-10
-3.5827e-09
-8.70714e-10
-2.77777e-09
-8.04924e-10
-2.04491e-09
-7.32857e-10
-1.39015e-09
-6.54761e-10
-8.19149e-10
-5.71004e-10
-3.37033e-10
-4.82113e-10
5.18077e-11
-3.8884e-10
3.44066e-10
-2.92264e-10
5.37996e-10
-1.93934e-10
6.34166e-10
-9.61679e-11
6.36668e-10
-2.49745e-12
5.55044e-10
8.16242e-11
4.07397e-10
1.47642e-10
2.25592e-10
1.81806e-10
6.41531e-11
1.61447e-10
6.41532e-11
1.63637e-10
-2.30631e-10
4.42198e-10
-4.36553e-10
7.04603e-10
-4.37576e-10
8.57548e-10
-2.886e-10
8.3458e-10
-4.24532e-11
5.93565e-10
2.62893e-10
1.1015e-10
6.01083e-10
-6.27327e-10
9.53934e-10
-1.62151e-09
1.309e-09
-2.86868e-09
1.65772e-09
-4.36061e-09
1.99412e-09
-6.08588e-09
2.31408e-09
-8.03087e-09
2.61471e-09
-1.01804e-08
2.89405e-09
-1.25181e-08
3.1508e-09
-1.50271e-08
3.38413e-09
-1.769e-08
3.59355e-09
-2.04892e-08
3.77888e-09
-2.34072e-08
3.94013e-09
-2.64263e-08
4.07746e-09
-2.95293e-08
4.1912e-09
-3.26991e-08
4.28175e-09
-3.5919e-08
4.34961e-09
-3.91726e-08
4.39531e-09
-4.24442e-08
4.41948e-09
-4.57181e-08
4.42275e-09
-4.89796e-08
4.40579e-09
-5.22142e-08
4.36929e-09
-5.54078e-08
4.314e-09
-5.85473e-08
4.24065e-09
-6.16197e-08
4.14996e-09
-6.46128e-08
4.04271e-09
-6.75148e-08
3.91967e-09
-7.03147e-08
3.7816e-09
-7.30018e-08
3.62928e-09
-7.55662e-08
3.46347e-09
-7.79984e-08
3.28496e-09
-8.02896e-08
3.09452e-09
-8.24316e-08
2.89296e-09
-8.44166e-08
2.68106e-09
-8.62377e-08
2.45961e-09
-8.78882e-08
2.22943e-09
-8.93624e-08
1.9913e-09
-9.0655e-08
1.74605e-09
-9.17612e-08
1.49448e-09
-9.2677e-08
1.23744e-09
-9.3399e-08
9.75751e-10
-9.39244e-08
7.10273e-10
-9.4251e-08
4.41854e-10
-9.43773e-08
1.71367e-10
-9.43024e-08
-1.0031e-10
-9.4026e-08
-3.72284e-10
-9.35488e-08
-6.43638e-10
-9.28718e-08
-9.1345e-10
-9.19968e-08
-1.1808e-09
-9.09265e-08
-1.44473e-09
-8.9664e-08
-1.7043e-09
-8.82134e-08
-1.95854e-09
-8.65793e-08
-2.20646e-09
-8.47672e-08
-2.44707e-09
-8.27831e-08
-2.67938e-09
-8.06341e-08
-2.9024e-09
-7.83278e-08
-3.11512e-09
-7.58725e-08
-3.31653e-09
-7.32774e-08
-3.50565e-09
-7.05522e-08
-3.68148e-09
-6.77077e-08
-3.84302e-09
-6.4755e-08
-3.98932e-09
-6.17062e-08
-4.11943e-09
-5.85739e-08
-4.23241e-09
-5.53715e-08
-4.32735e-09
-5.2113e-08
-4.40339e-09
-4.88129e-08
-4.45968e-09
-4.54864e-08
-4.49543e-09
-4.21493e-08
-4.50987e-09
-3.88177e-08
-4.50233e-09
-3.55084e-08
-4.47216e-09
-3.22384e-08
-4.41879e-09
-2.90252e-08
-4.34173e-09
-2.58864e-08
-4.24059e-09
-2.28401e-08
-4.11509e-09
-1.99041e-08
-3.96505e-09
-1.70966e-08
-3.79043e-09
-1.44353e-08
-3.59134e-09
-1.19379e-08
-3.36812e-09
-9.6215e-09
-3.12131e-09
-7.50258e-09
-2.85177e-09
-5.5966e-09
-2.56073e-09
-3.91767e-09
-2.24994e-09
-2.47801e-09
-1.92177e-09
-1.28735e-09
-1.57951e-09
-3.51916e-10
-1.2277e-09
3.26805e-10
-8.72651e-10
7.53894e-10
-5.23251e-10
9.43534e-10
-1.92136e-10
9.22612e-10
1.02544e-10
7.35501e-10
3.3476e-10
4.49829e-10
4.67489e-10
1.61312e-10
4.49962e-10
2.2546e-10
1.76238e-10
-4.06876e-10
4.42343e-10
-7.02648e-10
6.33693e-10
-6.28945e-10
6.36934e-10
-2.91827e-10
3.69311e-10
2.2515e-10
-2.25447e-10
8.57641e-10
-1.18232e-09
1.55795e-09
-2.51985e-09
2.29146e-09
-4.24407e-09
3.03322e-09
-6.35165e-09
3.76529e-09
-8.83226e-09
4.47471e-09
-1.16704e-08
5.15218e-09
-1.48467e-08
5.791e-09
-1.83391e-08
6.38643e-09
-2.21234e-08
6.93517e-09
-2.61743e-08
7.435e-09
-3.04653e-08
7.88456e-09
-3.49695e-08
8.28309e-09
-3.96597e-08
8.63038e-09
-4.45088e-08
8.92656e-09
-4.94897e-08
9.17212e-09
-5.45757e-08
9.36776e-09
-5.97406e-08
9.51442e-09
-6.49584e-08
9.61318e-09
-7.02042e-08
9.66524e-09
-7.54533e-08
9.6719e-09
-8.06821e-08
9.63459e-09
-8.58676e-08
9.55475e-09
-9.09875e-08
9.4339e-09
-9.60204e-08
9.27361e-09
-1.00946e-07
9.07547e-09
-1.05744e-07
8.84112e-09
-1.10397e-07
8.57218e-09
-1.14886e-07
8.27034e-09
-1.19194e-07
7.93727e-09
-1.23305e-07
7.57467e-09
-1.27204e-07
7.18423e-09
-1.30877e-07
6.76766e-09
-1.34311e-07
6.32668e-09
-1.37493e-07
5.86304e-09
-1.40412e-07
5.37847e-09
-1.43057e-07
4.87474e-09
-1.45419e-07
4.35361e-09
-1.4749e-07
3.81688e-09
-1.49262e-07
3.26634e-09
-1.50728e-07
2.70382e-09
-1.51884e-07
2.13116e-09
-1.52724e-07
1.55023e-09
-1.53245e-07
9.62908e-10
-1.53445e-07
3.7111e-10
-1.53322e-07
-2.23221e-10
-1.52876e-07
-8.18122e-10
-1.52108e-07
-1.4116e-09
-1.5102e-07
-2.00163e-09
-1.49614e-07
-2.58617e-09
-1.47896e-07
-3.16316e-09
-1.4587e-07
-3.73049e-09
-1.43542e-07
-4.28604e-09
-1.40921e-07
-4.82769e-09
-1.38015e-07
-5.35327e-09
-1.34834e-07
-5.86061e-09
-1.31388e-07
-6.34754e-09
-1.27692e-07
-6.81187e-09
-1.23757e-07
-7.25144e-09
-1.19598e-07
-7.66407e-09
-1.15232e-07
-8.04761e-09
-1.10675e-07
-8.39995e-09
-1.05946e-07
-8.71897e-09
-1.01062e-07
-9.00262e-09
-9.60459e-08
-9.24891e-09
-9.09174e-08
-9.45591e-09
-8.5699e-08
-9.62172e-09
-8.04142e-08
-9.74456e-09
-7.50868e-08
-9.82276e-09
-6.9742e-08
-9.85472e-09
-6.44053e-08
-9.839e-09
-5.91032e-08
-9.77429e-09
-5.38625e-08
-9.65943e-09
-4.87108e-08
-9.49348e-09
-4.36757e-08
-9.27568e-09
-3.87853e-08
-9.00552e-09
-3.40676e-08
-8.68277e-09
-2.95505e-08
-8.30753e-09
-2.52616e-08
-7.88028e-09
-2.12277e-08
-7.40193e-09
-1.74751e-08
-6.87399e-09
-1.40282e-08
-6.29862e-09
-1.09101e-08
-5.67888e-09
-8.14109e-09
-5.01892e-09
-5.73853e-09
-4.32433e-09
-3.7154e-09
-3.60263e-09
-2.07915e-09
-2.86395e-09
-8.29878e-10
-2.12192e-09
4.1915e-11
-1.39504e-09
5.58331e-10
-7.0855e-10
7.57807e-10
-9.69281e-11
6.9972e-10
3.92853e-10
4.69251e-10
6.9796e-10
1.8219e-10
7.37012e-10
4.07651e-10
1.37995e-10
-5.44859e-10
2.96026e-10
-8.60655e-10
3.02634e-10
-6.35551e-10
3.64019e-11
-2.56016e-11
-5.91886e-10
8.53444e-10
-1.64484e-09
1.9106e-09
-3.16291e-09
3.07601e-09
-5.16862e-09
4.29717e-09
-7.67024e-09
5.53485e-09
-1.06648e-08
6.75985e-09
-1.41406e-08
7.9505e-09
-1.80791e-08
9.09074e-09
-2.24569e-08
1.01687e-08
-2.72463e-08
1.11759e-08
-3.24171e-08
1.2106e-08
-3.79368e-08
1.29547e-08
-4.37716e-08
1.37193e-08
-4.98866e-08
1.43981e-08
-5.62465e-08
1.49902e-08
-6.28156e-08
1.54957e-08
-6.95584e-08
1.59149e-08
-7.64396e-08
1.6249e-08
-8.34245e-08
1.64993e-08
-9.04789e-08
1.66675e-08
-9.75691e-08
1.67555e-08
-1.04663e-07
1.67654e-08
-1.11728e-07
1.66995e-08
-1.18733e-07
1.65604e-08
-1.2565e-07
1.63504e-08
-1.32448e-07
1.60722e-08
-1.39101e-07
1.57286e-08
-1.45583e-07
1.53223e-08
-1.51867e-07
1.48561e-08
-1.57929e-07
1.43329e-08
-1.63747e-07
1.37556e-08
-1.693e-07
1.3127e-08
-1.74566e-07
1.24501e-08
-1.79526e-07
1.17279e-08
-1.84163e-07
1.09634e-08
-1.88459e-07
1.01595e-08
-1.924e-07
9.31936e-09
-1.95971e-07
8.44593e-09
-1.9916e-07
7.54234e-09
-2.01955e-07
6.6117e-09
-2.04346e-07
5.65713e-09
-2.06324e-07
4.68182e-09
-2.07881e-07
3.68897e-09
-2.09013e-07
2.68183e-09
-2.09714e-07
1.66368e-09
-2.0998e-07
6.37854e-10
-2.09811e-07
-3.9228e-10
-2.09206e-07
-1.42329e-09
-2.08166e-07
-2.45172e-09
-2.06694e-07
-3.47407e-09
-2.04793e-07
-4.48679e-09
-2.0247e-07
-5.48626e-09
-1.99732e-07
-6.46888e-09
-1.96587e-07
-7.43098e-09
-1.93045e-07
-8.36883e-09
-1.8912e-07
-9.27872e-09
-1.84824e-07
-1.01569e-08
-1.80172e-07
-1.09997e-08
-1.7518e-07
-1.18032e-08
-1.69868e-07
-1.25637e-08
-1.64254e-07
-1.32776e-08
-1.58361e-07
-1.39411e-08
-1.5221e-07
-1.45506e-08
-1.45827e-07
-1.51024e-08
-1.39236e-07
-1.55931e-08
-1.32466e-07
-1.60192e-08
-1.25545e-07
-1.63775e-08
-1.18501e-07
-1.66648e-08
-1.11368e-07
-1.68781e-08
-1.04176e-07
-1.70144e-08
-9.69597e-08
-1.70712e-08
-8.97526e-08
-1.70461e-08
-8.25899e-08
-1.6937e-08
-7.55074e-08
-1.67419e-08
-6.85415e-08
-1.64594e-08
-6.17288e-08
-1.60884e-08
-5.51062e-08
-1.56281e-08
-4.87106e-08
-1.50784e-08
-4.25784e-08
-1.44397e-08
-3.67456e-08
-1.37132e-08
-3.12468e-08
-1.29007e-08
-2.61157e-08
-1.20051e-08
-2.13836e-08
-1.10307e-08
-1.70793e-08
-9.98315e-09
-1.32283e-08
-8.86991e-09
-9.85156e-09
-7.70106e-09
-6.96445e-09
-6.48975e-09
-4.57513e-09
-5.25328e-09
-2.68264e-09
-4.01441e-09
-1.27453e-09
-2.80315e-09
-3.23995e-10
-1.65908e-09
2.13601e-10
-6.34523e-10
4.04709e-10
2.01749e-10
3.41947e-10
7.60718e-10
1.4969e-10
9.29265e-10
5.57345e-10
6.95275e-11
-6.14399e-10
5.55708e-11
-8.46678e-10
-2.03868e-10
-3.76125e-10
-8.27506e-10
5.98048e-10
-1.90382e-09
1.92976e-09
-3.49594e-09
3.50272e-09
-5.64554e-09
5.22561e-09
-8.37629e-09
7.02791e-09
-1.1697e-08
8.85555e-09
-1.56043e-08
1.06671e-08
-2.0085e-08
1.24313e-08
-2.51183e-08
1.4124e-08
-3.0677e-08
1.57275e-08
-3.67293e-08
1.72282e-08
-4.32397e-08
1.86164e-08
-5.017e-08
1.9885e-08
-5.74799e-08
2.10293e-08
-6.51279e-08
2.20461e-08
-7.30714e-08
2.29338e-08
-8.12677e-08
2.36919e-08
-8.96738e-08
2.43209e-08
-9.82467e-08
2.48219e-08
-1.06944e-07
2.51968e-08
-1.15724e-07
2.54477e-08
-1.24546e-07
2.55774e-08
-1.3337e-07
2.55889e-08
-1.42156e-07
2.54856e-08
-1.50866e-07
2.52711e-08
-1.59465e-07
2.49491e-08
-1.67916e-07
2.45234e-08
-1.76186e-07
2.39981e-08
-1.84241e-07
2.33775e-08
-1.9205e-07
2.26656e-08
-1.99584e-07
2.18668e-08
-2.06814e-07
2.09854e-08
-2.13713e-07
2.00259e-08
-2.20256e-07
1.89928e-08
-2.26418e-07
1.78905e-08
-2.32179e-07
1.67236e-08
-2.37516e-07
1.54967e-08
-2.42411e-07
1.42143e-08
-2.46846e-07
1.28813e-08
-2.50806e-07
1.15022e-08
-2.54276e-07
1.00819e-08
-2.57244e-07
8.62508e-09
-2.59699e-07
7.13668e-09
-2.61631e-07
5.62159e-09
-2.63034e-07
4.08478e-09
-2.63902e-07
2.53126e-09
-2.6423e-07
9.66154e-10
-2.64017e-07
-6.05399e-10
-2.63262e-07
-2.17817e-09
-2.61967e-07
-3.74686e-09
-2.60135e-07
-5.30612e-09
-2.57771e-07
-6.85052e-09
-2.54883e-07
-8.37459e-09
-2.51479e-07
-9.87278e-09
-2.47571e-07
-1.13395e-08
-2.4317e-07
-1.27691e-08
-2.38293e-07
-1.4156e-08
-2.32956e-07
-1.54944e-08
-2.27177e-07
-1.67787e-08
-2.20977e-07
-1.80031e-08
-2.14378e-07
-1.91619e-08
-2.07406e-07
-2.02496e-08
-2.00087e-07
-2.12606e-08
-1.92448e-07
-2.21892e-08
-1.8452e-07
-2.30302e-08
-1.76335e-07
-2.37782e-08
-1.67926e-07
-2.44281e-08
-1.59329e-07
-2.4975e-08
-1.5058e-07
-2.54141e-08
-1.41717e-07
-2.57409e-08
-1.3278e-07
-2.59512e-08
-1.2381e-07
-2.60411e-08
-1.14849e-07
-2.60072e-08
-1.0594e-07
-2.58462e-08
-9.71263e-08
-2.55557e-08
-8.84523e-08
-2.51334e-08
-7.99626e-08
-2.4578e-08
-7.1702e-08
-2.38887e-08
-6.3715e-08
-2.30654e-08
-5.60455e-08
-2.21092e-08
-4.87366e-08
-2.1022e-08
-4.183e-08
-1.98073e-08
-3.53653e-08
-1.84699e-08
-2.93795e-08
-1.70165e-08
-2.39066e-08
-1.54561e-08
-1.8976e-08
-1.38006e-08
-1.46117e-08
-1.20653e-08
-1.08312e-08
-1.02702e-08
-7.64368e-09
-8.44085e-09
-5.04791e-09
-6.61019e-09
-3.03038e-09
-4.82067e-09
-1.56253e-09
-3.12694e-09
-5.97808e-10
-1.59924e-09
-6.83643e-11
-3.27694e-10
1.18743e-10
5.73607e-10
8.65339e-11
9.61477e-10
6.43879e-10
-1.52092e-11
-5.99192e-10
-2.42469e-10
-6.19406e-10
-8.23911e-10
2.0532e-10
-1.86795e-09
1.64208e-09
-3.45667e-09
3.51847e-09
-5.64934e-09
5.69541e-09
-8.48539e-09
8.06167e-09
-1.1987e-08
1.05295e-08
-1.61618e-08
1.30303e-08
-2.10049e-08
1.55103e-08
-2.65014e-08
1.79277e-08
-3.26276e-08
2.02503e-08
-3.93534e-08
2.24533e-08
-4.66431e-08
2.45179e-08
-5.44567e-08
2.643e-08
-6.2751e-08
2.81793e-08
-7.14803e-08
2.97586e-08
-8.05972e-08
3.1163e-08
-9.0053e-08
3.23897e-08
-9.97986e-08
3.34375e-08
-1.09784e-07
3.43066e-08
-1.19961e-07
3.49982e-08
-1.30278e-07
3.55145e-08
-1.40689e-07
3.58583e-08
-1.51145e-07
3.60331e-08
-1.61599e-07
3.6043e-08
-1.72006e-07
3.58925e-08
-1.82321e-07
3.55863e-08
-1.92501e-07
3.51295e-08
-2.02505e-07
3.45275e-08
-2.12293e-07
3.37859e-08
-2.21826e-07
3.29103e-08
-2.31067e-07
3.19066e-08
-2.39981e-07
3.07808e-08
-2.48535e-07
2.95391e-08
-2.56696e-07
2.81874e-08
-2.64436e-07
2.67322e-08
-2.71725e-07
2.51798e-08
-2.78538e-07
2.35364e-08
-2.8485e-07
2.18086e-08
-2.90638e-07
2.00028e-08
-2.95882e-07
1.81257e-08
-3.00564e-07
1.61839e-08
-3.04666e-07
1.41841e-08
-3.08174e-07
1.2133e-08
-3.11075e-07
1.00376e-08
-3.13358e-07
7.90463e-09
-3.15015e-07
5.74124e-09
-3.16038e-07
3.55449e-09
-3.16423e-07
1.35155e-09
-3.16168e-07
-8.60296e-10
-3.15273e-07
-3.07369e-09
-3.13739e-07
-5.28117e-09
-3.1157e-07
-7.47521e-09
-3.08772e-07
-9.64817e-09
-3.05354e-07
-1.17923e-08
-3.01327e-07
-1.38999e-08
-2.96703e-07
-1.59631e-08
-2.91499e-07
-1.79739e-08
-2.8573e-07
-1.99245e-08
-2.79418e-07
-2.18068e-08
-2.72583e-07
-2.36129e-08
-2.65252e-07
-2.53348e-08
-2.57449e-07
-2.69645e-08
-2.49205e-07
-2.84941e-08
-2.40549e-07
-2.9916e-08
-2.31516e-07
-3.12224e-08
-2.22141e-07
-3.24057e-08
-2.1246e-07
-3.34587e-08
-2.02514e-07
-3.43742e-08
-1.92344e-07
-3.51454e-08
-1.81992e-07
-3.57657e-08
-1.71504e-07
-3.6229e-08
-1.60926e-07
-3.65295e-08
-1.50305e-07
-3.6662e-08
-1.3969e-07
-3.66216e-08
-1.29132e-07
-3.64042e-08
-1.18681e-07
-3.60065e-08
-1.08389e-07
-3.54257e-08
-9.83073e-08
-3.466e-08
-8.84873e-08
-3.37087e-08
-7.89805e-08
-3.25722e-08
-6.98374e-08
-3.12522e-08
-6.11074e-08
-2.9752e-08
-5.28381e-08
-2.80767e-08
-4.50744e-08
-2.62335e-08
-3.78585e-08
-2.42324e-08
-3.12283e-08
-2.20862e-08
-2.52171e-08
-1.98118e-08
-1.98519e-08
-1.74306e-08
-1.51521e-08
-1.49699e-08
-1.11286e-08
-1.24644e-08
-7.78123e-09
-9.95759e-09
-5.09713e-09
-7.50478e-09
-3.0486e-09
-5.17545e-09
-1.59067e-09
-3.05717e-09
-6.58401e-10
-1.25997e-09
-1.64095e-10
7.92984e-11
6.27978e-12
7.91101e-10
6.50153e-10
-1.08175e-10
-4.91022e-10
-5.73532e-10
-1.54043e-10
-1.51349e-09
1.14528e-09
-3.02116e-09
3.14975e-09
-5.16815e-09
5.66545e-09
-8.0065e-09
8.53376e-09
-1.15705e-08
1.16257e-08
-1.58788e-08
1.48378e-08
-2.09359e-08
1.80874e-08
-2.67343e-08
2.13087e-08
-3.32565e-08
2.44498e-08
-4.0476e-08
2.74698e-08
-4.83593e-08
3.03366e-08
-5.68672e-08
3.30258e-08
-6.59557e-08
3.55184e-08
-7.55769e-08
3.78006e-08
-8.56806e-08
3.98622e-08
-9.62139e-08
4.16963e-08
-1.07123e-07
4.32986e-08
-1.18353e-07
4.46672e-08
-1.29848e-07
4.58016e-08
-1.41552e-07
4.6703e-08
-1.53412e-07
4.73738e-08
-1.65371e-07
4.78176e-08
-1.77376e-07
4.80385e-08
-1.89375e-07
4.80418e-08
-2.01316e-07
4.78329e-08
-2.13147e-07
4.74181e-08
-2.24822e-07
4.6804e-08
-2.36292e-07
4.59974e-08
-2.47511e-07
4.50056e-08
-2.58437e-07
4.38361e-08
-2.69027e-07
4.24965e-08
-2.79241e-07
4.09948e-08
-2.89041e-07
3.93389e-08
-2.98391e-07
3.75371e-08
-3.07256e-07
3.55975e-08
-3.15605e-07
3.35286e-08
-3.23407e-07
3.13388e-08
-3.30635e-07
2.90368e-08
-3.37263e-07
2.6631e-08
-3.43268e-07
2.41304e-08
-3.48628e-07
2.15438e-08
-3.53324e-07
1.888e-08
-3.57339e-07
1.61481e-08
-3.60659e-07
1.33573e-08
-3.63271e-07
1.05167e-08
-3.65165e-07
7.63569e-09
-3.66334e-07
4.72377e-09
-3.66773e-07
1.7905e-09
-3.66479e-07
-1.15446e-09
-3.65452e-07
-4.10129e-09
-3.63693e-07
-7.04006e-09
-3.61207e-07
-9.96074e-09
-3.58002e-07
-1.28532e-08
-3.54087e-07
-1.57071e-08
-3.49475e-07
-1.85122e-08
-3.4418e-07
-2.12581e-08
-3.3822e-07
-2.39342e-08
-3.31614e-07
-2.653e-08
-3.24386e-07
-2.90349e-08
-3.16561e-07
-3.14383e-08
-3.08166e-07
-3.37298e-08
-2.99232e-07
-3.58988e-08
-2.89791e-07
-3.79349e-08
-2.79879e-07
-3.98278e-08
-2.69534e-07
-4.15674e-08
-2.58796e-07
-4.31439e-08
-2.47707e-07
-4.45474e-08
-2.36312e-07
-4.57688e-08
-2.24659e-07
-4.6799e-08
-2.12795e-07
-4.76296e-08
-2.00772e-07
-4.82524e-08
-1.88641e-07
-4.86601e-08
-1.76457e-07
-4.88458e-08
-1.64275e-07
-4.88034e-08
-1.52152e-07
-4.85277e-08
-1.40144e-07
-4.80145e-08
-1.28309e-07
-4.72604e-08
-1.16706e-07
-4.62634e-08
-1.05392e-07
-4.5023e-08
-9.44238e-08
-4.35399e-08
-8.3859e-08
-4.1817e-08
-7.3752e-08
-3.98591e-08
-6.41555e-08
-3.76732e-08
-5.51195e-08
-3.52695e-08
-4.66905e-08
-3.26614e-08
-3.89105e-08
-2.98662e-08
-3.18162e-08
-2.69061e-08
-2.54376e-08
-2.38092e-08
-1.97968e-08
-2.06107e-08
-1.49069e-08
-1.73542e-08
-1.07701e-08
-1.40945e-08
-7.3759e-09
-1.0899e-08
-4.6998e-09
-7.85154e-09
-2.70113e-09
-5.05585e-09
-1.32127e-09
-2.63983e-09
-4.81862e-10
-7.60109e-10
-8.29118e-11
3.92142e-10
5.67236e-10
-2.04581e-10
-2.86446e-10
-9.21517e-10
5.62916e-10
-2.24218e-09
2.46593e-09
-4.2415e-09
5.14909e-09
-6.97793e-09
8.40188e-09
-1.04938e-08
1.20496e-08
-1.4816e-08
1.5948e-08
-1.99576e-08
1.99794e-08
-2.59186e-08
2.40485e-08
-3.2688e-08
2.80781e-08
-4.02444e-08
3.20062e-08
-4.85581e-08
3.57835e-08
-5.75923e-08
3.93708e-08
-6.73038e-08
4.27374e-08
-7.76449e-08
4.58595e-08
-8.85637e-08
4.87193e-08
-1.00005e-07
5.13036e-08
-1.11912e-07
5.36031e-08
-1.24225e-07
5.56119e-08
-1.36885e-07
5.73268e-08
-1.4983e-07
5.87468e-08
-1.63e-07
5.9873e-08
-1.76334e-07
6.0708e-08
-1.89772e-07
6.12558e-08
-2.03255e-07
6.15215e-08
-2.16725e-07
6.15112e-08
-2.30124e-07
6.12317e-08
-2.43396e-07
6.06906e-08
-2.56488e-07
5.98962e-08
-2.69348e-07
5.88569e-08
-2.81924e-07
5.75819e-08
-2.94169e-07
5.60806e-08
-3.06035e-07
5.43626e-08
-3.17478e-07
5.2438e-08
-3.28456e-07
5.03167e-08
-3.38928e-07
4.80092e-08
-3.48857e-07
4.55261e-08
-3.58206e-07
4.28778e-08
-3.66942e-07
4.00754e-08
-3.75035e-07
3.71295e-08
-3.82455e-07
3.40514e-08
-3.89177e-07
3.08522e-08
-3.95177e-07
2.75432e-08
-4.00432e-07
2.41357e-08
-4.04926e-07
2.06414e-08
-4.0864e-07
1.70719e-08
-4.11563e-07
1.3439e-08
-4.13682e-07
9.7547e-09
-4.14989e-07
6.03104e-09
-4.15479e-07
2.28028e-09
-4.15148e-07
-1.48519e-09
-4.13996e-07
-5.25285e-09
-4.12027e-07
-9.01002e-09
-4.09243e-07
-1.27439e-08
-4.05655e-07
-1.64414e-08
-4.01273e-07
-2.00897e-08
-3.96109e-07
-2.36753e-08
-3.90182e-07
-2.71852e-08
-3.83511e-07
-3.06058e-08
-3.76117e-07
-3.39238e-08
-3.68026e-07
-3.71258e-08
-3.59266e-07
-4.01982e-08
-3.49868e-07
-4.31277e-08
-3.39866e-07
-4.59009e-08
-3.29296e-07
-4.85047e-08
-3.18198e-07
-5.09259e-08
-3.06614e-07
-5.31519e-08
-2.94588e-07
-5.51701e-08
-2.82167e-07
-5.69682e-08
-2.69401e-07
-5.85346e-08
-2.56342e-07
-5.9858e-08
-2.43044e-07
-6.09276e-08
-2.29563e-07
-6.17334e-08
-2.15957e-07
-6.22661e-08
-2.02285e-07
-6.25173e-08
-1.88609e-07
-6.24795e-08
-1.74991e-07
-6.21462e-08
-1.61493e-07
-6.15124e-08
-1.48179e-07
-6.05742e-08
-1.35113e-07
-5.93294e-08
-1.22358e-07
-5.77776e-08
-1.09978e-07
-5.59205e-08
-9.8033e-08
-5.37618e-08
-8.6584e-08
-5.1308e-08
-7.56883e-08
-4.85689e-08
-6.54005e-08
-4.55574e-08
-5.57711e-08
-4.22908e-08
-4.6846e-08
-3.87912e-08
-3.86654e-08
-3.50867e-08
-3.12627e-08
-3.12119e-08
-2.46634e-08
-2.72101e-08
-1.88834e-08
-2.31342e-08
-1.39285e-08
-1.90494e-08
-9.79227e-09
-1.50352e-08
-6.45515e-09
-1.11887e-08
-3.883e-09
-7.628e-09
-2.02607e-09
-4.49676e-09
-8.18117e-10
-1.96806e-09
-1.7605e-10
-2.49934e-10
3.91188e-10
-3.01579e-10
1.51332e-11
-1.27609e-09
1.53741e-09
-2.98929e-09
4.17913e-09
-5.49687e-09
7.65669e-09
-8.84246e-09
1.17475e-08
-1.30568e-08
1.62639e-08
-1.8158e-08
2.10492e-08
-2.41519e-08
2.59733e-08
-3.10328e-08
3.09293e-08
-3.87846e-08
3.58298e-08
-4.73818e-08
4.06034e-08
-5.67907e-08
4.51924e-08
-6.69705e-08
4.95506e-08
-7.78745e-08
5.36413e-08
-8.94508e-08
5.74357e-08
-1.01643e-07
6.09119e-08
-1.14393e-07
6.40534e-08
-1.27638e-07
6.68484e-08
-1.41316e-07
6.92892e-08
-1.5536e-07
7.13713e-08
-1.69706e-07
7.30931e-08
-1.84289e-07
7.44553e-08
-1.99041e-07
7.54607e-08
-2.13899e-07
7.61138e-08
-2.28798e-07
7.64205e-08
-2.43675e-07
7.63878e-08
-2.58468e-07
7.60241e-08
-2.73115e-07
7.53382e-08
-2.87559e-07
7.43401e-08
-3.01742e-07
7.30402e-08
-3.1561e-07
7.14495e-08
-3.29109e-07
6.95793e-08
-3.42188e-07
6.74417e-08
-3.54798e-07
6.50486e-08
-3.66894e-07
6.24126e-08
-3.78431e-07
5.95465e-08
-3.89368e-07
5.6463e-08
-3.99666e-07
5.31755e-08
-4.09288e-07
4.96972e-08
-4.182e-07
4.60415e-08
-4.26371e-07
4.22223e-08
-4.33772e-07
3.82532e-08
-4.40377e-07
3.41483e-08
-4.46163e-07
2.99217e-08
-4.51109e-07
2.55877e-08
-4.55198e-07
2.11608e-08
-4.58415e-07
1.66556e-08
-4.60747e-07
1.20868e-08
-4.62185e-07
7.46961e-09
-4.62724e-07
2.81902e-09
-4.6236e-07
-1.84959e-09
-4.61092e-07
-6.52069e-09
-4.58923e-07
-1.11786e-08
-4.5586e-07
-1.58074e-08
-4.5191e-07
-2.03911e-08
-4.47086e-07
-2.49136e-08
-4.41403e-07
-2.93585e-08
-4.34879e-07
-3.37093e-08
-4.27535e-07
-3.79497e-08
-4.19396e-07
-4.2063e-08
-4.10489e-07
-4.60326e-08
-4.00845e-07
-4.9842e-08
-3.90498e-07
-5.34747e-08
-3.79485e-07
-5.69142e-08
-3.67845e-07
-6.01442e-08
-3.55622e-07
-6.31489e-08
-3.42862e-07
-6.59124e-08
-3.29613e-07
-6.84194e-08
-3.15926e-07
-7.0655e-08
-3.01856e-07
-7.26048e-08
-2.87459e-07
-7.42551e-08
-2.72793e-07
-7.55927e-08
-2.57921e-07
-7.66055e-08
-2.42905e-07
-7.72823e-08
-2.2781e-07
-7.76127e-08
-2.12701e-07
-7.7588e-08
-1.97647e-07
-7.72005e-08
-1.82715e-07
-7.64441e-08
-1.67975e-07
-7.53145e-08
-1.53495e-07
-7.38095e-08
-1.39344e-07
-7.19288e-08
-1.25589e-07
-6.96749e-08
-1.12298e-07
-6.70528e-08
-9.95351e-08
-6.40712e-08
-8.73621e-08
-6.07419e-08
-7.58378e-08
-5.70816e-08
-6.50172e-08
-5.31114e-08
-5.495e-08
-4.88584e-08
-4.56802e-08
-4.43565e-08
-3.72449e-08
-3.96472e-08
-2.96733e-08
-3.47817e-08
-2.29856e-08
-2.98219e-08
-1.71918e-08
-2.48431e-08
-1.22911e-08
-1.99359e-08
-8.27031e-09
-1.52095e-08
-5.10353e-09
-1.07948e-08
-2.75162e-09
-6.84867e-09
-1.16216e-09
-3.55752e-09
-2.70152e-10
-1.14194e-09
1.2104e-10
-3.9754e-10
4.12668e-10
-1.63067e-09
2.77056e-09
-3.74109e-09
6.28952e-09
-6.76512e-09
1.06807e-08
-1.07308e-08
1.57131e-08
-1.56563e-08
2.11895e-08
-2.15497e-08
2.69425e-08
-2.84083e-08
3.28319e-08
-3.62197e-08
3.87407e-08
-4.49619e-08
4.45721e-08
-5.46044e-08
5.02459e-08
-6.51089e-08
5.56969e-08
-7.64302e-08
6.0872e-08
-8.85176e-08
6.57287e-08
-1.01315e-07
7.02332e-08
-1.14763e-07
7.43594e-08
-1.28797e-07
7.80877e-08
-1.43352e-07
8.14036e-08
-1.58361e-07
8.42975e-08
-1.73753e-07
8.67636e-08
-1.89459e-07
8.87995e-08
-2.0541e-07
9.04055e-08
-2.21533e-07
9.15846e-08
-2.37761e-07
9.23417e-08
-2.54024e-07
9.26834e-08
-2.70254e-07
9.26179e-08
-2.86385e-07
9.21548e-08
-3.02352e-07
9.13047e-08
-3.18091e-07
9.00791e-08
-3.33541e-07
8.84904e-08
-3.48643e-07
8.65516e-08
-3.6334e-07
8.42762e-08
-3.77577e-07
8.16785e-08
-3.91301e-07
7.8773e-08
-4.04463e-07
7.55746e-08
-4.17015e-07
7.20986e-08
-4.28913e-07
6.83606e-08
-4.40114e-07
6.43762e-08
-4.50578e-07
6.01617e-08
-4.6027e-07
5.57332e-08
-4.69155e-07
5.11072e-08
-4.77202e-07
4.63005e-08
-4.84383e-07
4.13298e-08
-4.90674e-07
3.62123e-08
-4.96051e-07
3.09652e-08
-5.00497e-07
2.56061e-08
-5.03994e-07
2.01526e-08
-5.06529e-07
1.46225e-08
-5.08094e-07
9.03407e-09
-5.0868e-07
3.40554e-09
-5.08285e-07
-2.24454e-09
-5.06909e-07
-7.89743e-09
-5.04553e-07
-1.35342e-08
-5.01225e-07
-1.91356e-08
-4.96934e-07
-2.46824e-08
-4.91692e-07
-3.01551e-08
-4.85517e-07
-3.55339e-08
-4.78427e-07
-4.07991e-08
-4.70446e-07
-4.59308e-08
-4.616e-07
-5.0909e-08
-4.51919e-07
-5.57139e-08
-4.41435e-07
-6.03253e-08
-4.30186e-07
-6.47236e-08
-4.18212e-07
-6.88889e-08
-4.05554e-07
-7.28018e-08
-3.9226e-07
-7.6443e-08
-3.78379e-07
-7.97937e-08
-3.63962e-07
-8.28355e-08
-3.49067e-07
-8.55506e-08
-3.3375e-07
-8.79218e-08
-3.18072e-07
-8.99326e-08
-3.02098e-07
-9.15675e-08
-2.85891e-07
-9.28121e-08
-2.6952e-07
-9.3653e-08
-2.53055e-07
-9.40782e-08
-2.36566e-07
-9.40772e-08
-2.20125e-07
-9.36411e-08
-2.03806e-07
-9.27631e-08
-1.87682e-07
-9.14382e-08
-1.71828e-07
-8.96641e-08
-1.56316e-07
-8.74409e-08
-1.41219e-07
-8.47719e-08
-1.26608e-07
-8.16637e-08
-1.12552e-07
-7.81266e-08
-9.91186e-08
-7.41756e-08
-8.63698e-08
-6.98304e-08
-7.43647e-08
-6.51165e-08
-6.31573e-08
-6.00658e-08
-5.27957e-08
-5.47181e-08
-4.33212e-08
-4.91218e-08
-3.47673e-08
-4.33355e-08
-2.71592e-08
-3.743e-08
-2.05124e-08
-3.14899e-08
-1.48324e-08
-2.56159e-08
-1.01137e-08
-1.99281e-08
-6.34e-09
-1.45685e-08
-3.48375e-09
-9.70492e-09
-1.50716e-09
-5.53413e-09
-3.63473e-10
-2.28562e-09
-2.42435e-10
-4.91551e-10
9.04219e-10
-1.98127e-09
4.26029e-09
-4.48867e-09
8.79691e-09
-8.03132e-09
1.42234e-08
-1.26215e-08
2.03033e-08
-1.82644e-08
2.68324e-08
-2.4957e-08
3.3635e-08
-3.26875e-08
4.05624e-08
-4.14358e-08
4.7489e-08
-5.11733e-08
5.43095e-08
-6.18636e-08
6.09362e-08
-7.34633e-08
6.72966e-08
-8.59225e-08
7.33312e-08
-9.91859e-08
7.89921e-08
-1.13193e-07
8.42406e-08
-1.27881e-07
8.90467e-08
-1.4318e-07
9.33874e-08
-1.59022e-07
9.72458e-08
-1.75335e-07
1.0061e-07
-1.92045e-07
1.03473e-07
-2.09078e-07
1.05832e-07
-2.26359e-07
1.07687e-07
-2.43815e-07
1.0904e-07
-2.61371e-07
1.09897e-07
-2.78954e-07
1.10266e-07
-2.96491e-07
1.10156e-07
-3.13914e-07
1.09577e-07
-3.31151e-07
1.08542e-07
-3.48137e-07
1.07065e-07
-3.64805e-07
1.05159e-07
-3.81093e-07
1.0284e-07
-3.9694e-07
1.00123e-07
-4.12288e-07
9.70259e-08
-4.2708e-07
9.35649e-08
-4.41263e-07
8.97577e-08
-4.54786e-07
8.56224e-08
-4.67603e-07
8.11771e-08
-4.79667e-07
7.64407e-08
-4.90938e-07
7.14319e-08
-5.01375e-07
6.61701e-08
-5.10942e-07
6.06747e-08
-5.19607e-07
5.49654e-08
-5.27339e-07
4.90622e-08
-5.34112e-07
4.29853e-08
-5.39902e-07
3.67552e-08
-5.44689e-07
3.03926e-08
-5.48455e-07
2.39184e-08
-5.51186e-07
1.73538e-08
-5.52872e-07
1.07202e-08
-5.53506e-07
4.03942e-09
-5.53084e-07
-2.66674e-09
-5.51605e-07
-9.37604e-09
-5.49073e-07
-1.6066e-08
-5.45495e-07
-2.27141e-08
-5.4088e-07
-2.92973e-08
-5.35242e-07
-3.57926e-08
-5.286e-07
-4.21768e-08
-5.20972e-07
-4.84264e-08
-5.12385e-07
-5.4518e-08
-5.02866e-07
-6.0428e-08
-4.92447e-07
-6.61328e-08
-4.81164e-07
-7.16089e-08
-4.69054e-07
-7.6833e-08
-4.56161e-07
-8.17817e-08
-4.42531e-07
-8.64321e-08
-4.28212e-07
-9.07616e-08
-4.13258e-07
-9.4748e-08
-3.97724e-07
-9.83697e-08
-3.81669e-07
-1.01606e-07
-3.65154e-07
-1.04436e-07
-3.48246e-07
-1.06841e-07
-3.3101e-07
-1.08803e-07
-3.13517e-07
-1.10305e-07
-2.95838e-07
-1.11332e-07
-2.78047e-07
-1.11869e-07
-2.60221e-07
-1.11904e-07
-2.42434e-07
-1.11427e-07
-2.24766e-07
-1.10431e-07
-2.07294e-07
-1.0891e-07
-1.90097e-07
-1.06861e-07
-1.73252e-07
-1.04286e-07
-1.56837e-07
-1.01187e-07
-1.40927e-07
-9.75735e-08
-1.25596e-07
-9.34578e-08
-1.10915e-07
-8.88573e-08
-9.69497e-08
-8.37952e-08
-8.37651e-08
-7.83012e-08
-7.14187e-08
-7.24122e-08
-5.99632e-08
-6.61736e-08
-4.94446e-08
-5.96404e-08
-3.99016e-08
-5.28786e-08
-3.13647e-08
-4.59669e-08
-2.38558e-08
-3.89987e-08
-1.73877e-08
-3.20841e-08
-1.19635e-08
-2.53523e-08
-7.5771e-09
-1.89549e-08
-4.21325e-09
-1.30688e-08
-1.8489e-09
-7.89847e-09
-4.55035e-10
-3.67948e-09
-6.97475e-10
-5.83165e-10
1.48737e-09
-2.32556e-09
6.0027e-09
-5.22651e-09
1.16979e-08
-9.28585e-09
1.82827e-08
-1.45004e-08
2.55179e-08
-2.0862e-08
3.3194e-08
-2.83562e-08
4.11293e-08
-3.69617e-08
4.91679e-08
-4.66498e-08
5.71772e-08
-5.73847e-08
6.50444e-08
-6.91236e-08
7.26751e-08
-8.18174e-08
7.99904e-08
-9.54111e-08
8.69249e-08
-1.09844e-07
9.34254e-08
-1.25053e-07
9.94489e-08
-1.40968e-07
1.04962e-07
-1.57517e-07
1.09937e-07
-1.74628e-07
1.14356e-07
-1.92223e-07
1.18205e-07
-2.10225e-07
1.21476e-07
-2.28557e-07
1.24164e-07
-2.47139e-07
1.26269e-07
-2.65894e-07
1.27795e-07
-2.84743e-07
1.28746e-07
-3.03609e-07
1.29133e-07
-3.22417e-07
1.28963e-07
-3.41091e-07
1.28251e-07
-3.5956e-07
1.27011e-07
-3.77751e-07
1.25256e-07
-3.95596e-07
1.23004e-07
-4.13029e-07
1.20272e-07
-4.29984e-07
1.17079e-07
-4.46401e-07
1.13443e-07
-4.62221e-07
1.09384e-07
-4.77386e-07
1.04923e-07
-4.91844e-07
1.0008e-07
-5.05544e-07
9.48771e-08
-5.18439e-07
8.9335e-08
-5.30483e-07
8.34761e-08
-5.41635e-07
7.73227e-08
-5.51858e-07
7.08975e-08
-5.61116e-07
6.42234e-08
-5.69378e-07
5.73237e-08
-5.76614e-07
5.02219e-08
-5.82801e-07
4.29418e-08
-5.87916e-07
3.55076e-08
-5.91941e-07
2.79435e-08
-5.94861e-07
2.02744e-08
-5.96666e-07
1.25251e-08
-5.97348e-07
4.72087e-09
-5.96902e-07
-3.11266e-09
-5.95328e-07
-1.09497e-08
-5.9263e-07
-1.87641e-08
-5.88815e-07
-2.65296e-08
-5.83892e-07
-3.42194e-08
-5.77878e-07
-4.18069e-08
-5.7079e-07
-4.92649e-08
-5.6265e-07
-5.65662e-08
-5.53485e-07