/*--------------------------------*- C++ -*----------------------------------*\
| =========                 |                                                 |
| \\      /  F ield         | OpenFOAM: The Open Source CFD Toolbox           |
|  \\    /   O peration     | Version:  2212                                  |
|   \\  /    A nd           | Website:  www.openfoam.com                      |
|    \\/     M anipulation  |                                                 |
\*---------------------------------------------------------------------------*/
FoamFile
{
    version     2.0;
    format      ascii;
    arch        "LSB;label=32;scalar=64";
    class       volVectorField;
    location    "0.0575";
    object      U;
}
// * * * * * * * * * * * * * * * * * * * * * * * * * * * * * * * * * * * * * //

dimensions      [0 1 -1 0 0 0 0];

internalField   nonuniform List<vector> 
10000
(
(3.21673e-06 -2.54004e-06 0)
(1.40112e-05 -6.82366e-06 0)
(3.17e-05 -8.18654e-06 0)
(4.79596e-05 -7.04817e-06 0)
(5.85998e-05 -4.69202e-06 0)
(6.10833e-05 -1.74243e-06 0)
(5.42587e-05 1.44849e-06 0)
(3.76043e-05 4.68432e-06 0)
(1.10254e-05 7.85479e-06 0)
(-2.53071e-05 1.08966e-05 0)
(-7.10394e-05 1.3773e-05 0)
(-0.000125703 1.64621e-05 0)
(-0.000188759 1.89544e-05 0)
(-0.000259613 2.12435e-05 0)
(-0.000337642 2.33257e-05 0)
(-0.000422202 2.52004e-05 0)
(-0.000512644 2.68686e-05 0)
(-0.000608312 2.8333e-05 0)
(-0.000708557 2.95997e-05 0)
(-0.000812734 3.06722e-05 0)
(-0.000920211 3.15549e-05 0)
(-0.00103037 3.22545e-05 0)
(-0.00114259 3.27755e-05 0)
(-0.0012563 3.31235e-05 0)
(-0.00137091 3.33056e-05 0)
(-0.00148588 3.33274e-05 0)
(-0.00160065 3.31944e-05 0)
(-0.00171473 3.29133e-05 0)
(-0.0018276 3.24901e-05 0)
(-0.00193878 3.19309e-05 0)
(-0.00204783 3.12419e-05 0)
(-0.00215429 3.04287e-05 0)
(-0.00225775 2.9497e-05 0)
(-0.00235781 2.84532e-05 0)
(-0.00245409 2.73038e-05 0)
(-0.00254624 2.60544e-05 0)
(-0.00263391 2.47104e-05 0)
(-0.00271678 2.3278e-05 0)
(-0.00279456 2.17633e-05 0)
(-0.00286697 2.01717e-05 0)
(-0.00293376 1.85087e-05 0)
(-0.00299469 1.67809e-05 0)
(-0.00304953 1.49945e-05 0)
(-0.0030981 1.31552e-05 0)
(-0.00314023 1.12681e-05 0)
(-0.00317575 9.33921e-06 0)
(-0.00320455 7.37573e-06 0)
(-0.0032265 5.38408e-06 0)
(-0.00324152 3.37028e-06 0)
(-0.00324955 1.3399e-06 0)
(-0.00325054 -7.01225e-07 0)
(-0.00324447 -2.74572e-06 0)
(-0.00323135 -4.78595e-06 0)
(-0.0032112 -6.81521e-06 0)
(-0.00318406 -8.82701e-06 0)
(-0.00315003 -1.0815e-05 0)
(-0.00310918 -1.27724e-05 0)
(-0.00306166 -1.46915e-05 0)
(-0.0030076 -1.65641e-05 0)
(-0.00294719 -1.83828e-05 0)
(-0.00288062 -2.01405e-05 0)
(-0.00280812 -2.18297e-05 0)
(-0.00272994 -2.34431e-05 0)
(-0.00264637 -2.49728e-05 0)
(-0.0025577 -2.64106e-05 0)
(-0.00246427 -2.77487e-05 0)
(-0.00236643 -2.89798e-05 0)
(-0.00226458 -3.00963e-05 0)
(-0.00215911 -3.10908e-05 0)
(-0.00205046 -3.19559e-05 0)
(-0.00193909 -3.26845e-05 0)
(-0.00182548 -3.32691e-05 0)
(-0.00171013 -3.37027e-05 0)
(-0.00159357 -3.39788e-05 0)
(-0.00147635 -3.40913e-05 0)
(-0.00135903 -3.40337e-05 0)
(-0.00124221 -3.38001e-05 0)
(-0.00112648 -3.33852e-05 0)
(-0.00101246 -3.27841e-05 0)
(-0.000900792 -3.1992e-05 0)
(-0.000792107 -3.1005e-05 0)
(-0.00068706 -2.98202e-05 0)
(-0.000586307 -2.84352e-05 0)
(-0.000490507 -2.68477e-05 0)
(-0.000400317 -2.50566e-05 0)
(-0.000316387 -2.3062e-05 0)
(-0.000239356 -2.08657e-05 0)
(-0.000169843 -1.84712e-05 0)
(-0.000108434 -1.58847e-05 0)
(-5.56757e-05 -1.31166e-05 0)
(-1.2049e-05 -1.0183e-05 0)
(2.20509e-05 -7.10945e-06 0)
(4.63569e-05 -3.93618e-06 0)
(6.0789e-05 -7.30396e-07 0)
(6.555e-05 2.39377e-06 0)
(6.12749e-05 5.23874e-06 0)
(4.92434e-05 7.46328e-06 0)
(3.1821e-05 8.45766e-06 0)
(1.37563e-05 7.18276e-06 0)
(2.68596e-06 2.68688e-06 0)
(7.71749e-06 -1.42101e-05 0)
(2.97992e-05 -2.87596e-05 0)
(5.87746e-05 -3.08017e-05 0)
(8.16075e-05 -2.32271e-05 0)
(8.94167e-05 -9.84953e-06 0)
(7.69914e-05 6.871e-06 0)
(4.12019e-05 2.53254e-05 0)
(-1.9661e-05 4.44633e-05 0)
(-0.000106249 6.3602e-05 0)
(-0.000218453 8.22896e-05 0)
(-0.000355638 0.000100229 0)
(-0.000516797 0.000117216 0)
(-0.000700656 0.000133119 0)
(-0.000905759 0.000147849 0)
(-0.00113052 0.000161351 0)
(-0.00137328 0.000173591 0)
(-0.0016323 0.000184554 0)
(-0.00190584 0.000194238 0)
(-0.00219212 0.000202648 0)
(-0.0024894 0.000209802 0)
(-0.00279593 0.000215719 0)
(-0.00310998 0.000220423 0)
(-0.00342987 0.000223946 0)
(-0.00375395 0.000226317 0)
(-0.00408059 0.00022757 0)
(-0.00440824 0.00022774 0)
(-0.00473538 0.000226865 0)
(-0.00506053 0.000224981 0)
(-0.00538227 0.000222127 0)
(-0.00569926 0.000218341 0)
(-0.00601016 0.000213665 0)
(-0.00631373 0.000208136 0)
(-0.00660877 0.000201794 0)
(-0.00689413 0.00019468 0)
(-0.00716873 0.000186834 0)
(-0.00743155 0.000178296 0)
(-0.0076816 0.000169106 0)
(-0.00791799 0.000159304 0)
(-0.00813984 0.000148931 0)
(-0.00834638 0.000138027 0)
(-0.00853685 0.000126633 0)
(-0.00871058 0.000114791 0)
(-0.00886696 0.000102541 0)
(-0.00900542 8.99246e-05 0)
(-0.00912546 7.69832e-05 0)
(-0.00922666 6.37596e-05 0)
(-0.00930863 5.02974e-05 0)
(-0.00937106 3.66399e-05 0)
(-0.0094137 2.28301e-05 0)
(-0.00943638 8.9122e-06 0)
(-0.00943896 -5.06908e-06 0)
(-0.00942139 -1.90673e-05 0)
(-0.00938369 -3.30347e-05 0)
(-0.00932594 -4.69245e-05 0)
(-0.00924829 -6.06897e-05 0)
(-0.00915095 -7.42822e-05 0)
(-0.00903422 -8.76529e-05 0)
(-0.00889846 -0.000100752 0)
(-0.0087441 -0.000113527 0)
(-0.00857165 -0.000125929 0)
(-0.00838167 -0.000137906 0)
(-0.00817484 -0.000149407 0)
(-0.00795188 -0.00016038 0)
(-0.00771358 -0.000170773 0)
(-0.00746082 -0.000180533 0)
(-0.00719456 -0.00018961 0)
(-0.00691581 -0.000197952 0)
(-0.00662566 -0.000205509 0)
(-0.00632528 -0.000212232 0)
(-0.0060159 -0.000218072 0)
(-0.00569883 -0.00022298 0)
(-0.00537543 -0.000226912 0)
(-0.00504713 -0.000229822 0)
(-0.00471542 -0.000231669 0)
(-0.00438185 -0.000232412 0)
(-0.00404801 -0.000232015 0)
(-0.00371555 -0.000230441 0)
(-0.00338616 -0.000227661 0)
(-0.00306157 -0.000223645 0)
(-0.00274353 -0.000218372 0)
(-0.00243384 -0.000211823 0)
(-0.00213428 -0.000203986 0)
(-0.00184667 -0.000194856 0)
(-0.00157279 -0.000184432 0)
(-0.00131444 -0.000172725 0)
(-0.00107334 -0.000159758 0)
(-0.000851186 -0.000145566 0)
(-0.000649585 -0.000130204 0)
(-0.000470023 -0.00011375 0)
(-0.000313833 -9.63161e-05 0)
(-0.00018213 -7.80601e-05 0)
(-7.57379e-05 -5.92056e-05 0)
(4.9198e-06 -4.00732e-05 0)
(5.99724e-05 -2.11316e-05 0)
(9.0318e-05 -3.07697e-06 0)
(9.79242e-05 1.30414e-05 0)
(8.61682e-05 2.5639e-05 0)
(6.03771e-05 3.23139e-05 0)
(2.95624e-05 2.9565e-05 0)
(7.17134e-06 1.37441e-05 0)
(8.48088e-06 -3.19778e-05 0)
(3.12812e-05 -5.82731e-05 0)
(5.6901e-05 -5.62732e-05 0)
(6.92618e-05 -3.40647e-05 0)
(5.77525e-05 1.63918e-06 0)
(1.57128e-05 4.57925e-05 0)
(-6.12275e-05 9.47654e-05 0)
(-0.00017565 0.000145988 0)
(-0.000328705 0.000197664 0)
(-0.000520463 0.000248532 0)
(-0.000750189 0.000297701 0)
(-0.00101655 0.000344546 0)
(-0.00131778 0.000388625 0)
(-0.00165178 0.000429633 0)
(-0.00201623 0.000467364 0)
(-0.00240863 0.000501684 0)
(-0.00282638 0.000532513 0)
(-0.00326681 0.000559814 0)
(-0.0037272 0.000583583 0)
(-0.00420484 0.000603837 0)
(-0.004697 0.000620621 0)
(-0.005201 0.000633989 0)
(-0.00571419 0.00064401 0)
(-0.00623395 0.000650763 0)
(-0.00675775 0.000654336 0)
(-0.00728309 0.00065482 0)
(-0.00780757 0.000652314 0)
(-0.00832884 0.000646919 0)
(-0.00884465 0.000638742 0)
(-0.00935281 0.00062789 0)
(-0.00985123 0.000614473 0)
(-0.0103379 0.000598603 0)
(-0.0108109 0.000580392 0)
(-0.0112684 0.000559954 0)
(-0.0117086 0.000537403 0)
(-0.01213 0.000512855 0)
(-0.0125309 0.000486423 0)
(-0.0129098 0.000458224 0)
(-0.0132655 0.000428375 0)
(-0.0135966 0.000396993 0)
(-0.0139019 0.000364197 0)
(-0.0141804 0.000330104 0)
(-0.014431 0.000294836 0)
(-0.0146528 0.00025851 0)
(-0.0148451 0.00022125 0)
(-0.0150072 0.000183179 0)
(-0.0151384 0.00014442 0)
(-0.0152383 0.000105101 0)
(-0.0153064 6.53466e-05 0)
(-0.0153425 2.5287e-05 0)
(-0.0153463 -1.4947e-05 0)
(-0.0153179 -5.52227e-05 0)
(-0.0152572 -9.5405e-05 0)
(-0.0151643 -0.000135357 0)
(-0.0150395 -0.000174942 0)
(-0.0148832 -0.000214019 0)
(-0.0146958 -0.000252447 0)
(-0.014478 -0.000290081 0)
(-0.0142303 -0.000326778 0)
(-0.0139537 -0.00036239 0)
(-0.0136491 -0.000396772 0)
(-0.0133175 -0.000429774 0)
(-0.0129601 -0.000461249 0)
(-0.0125782 -0.000491049 0)
(-0.0121731 -0.000519026 0)
(-0.0117465 -0.000545034 0)
(-0.0112999 -0.000568927 0)
(-0.0108351 -0.000590563 0)
(-0.010354 -0.000609802 0)
(-0.00985846 -0.000626506 0)
(-0.00935067 -0.000640542 0)
(-0.00883277 -0.000651781 0)
(-0.00830702 -0.000660101 0)
(-0.0077758 -0.000665384 0)
(-0.00724156 -0.000667522 0)
(-0.00670684 -0.000666411 0)
(-0.00617424 -0.000661961 0)
(-0.00564643 -0.000654089 0)
(-0.00512613 -0.000642726 0)
(-0.0046161 -0.000627816 0)
(-0.00411913 -0.000609318 0)
(-0.00363803 -0.000587212 0)
(-0.00317561 -0.000561495 0)
(-0.00273463 -0.000532191 0)
(-0.00231784 -0.000499354 0)
(-0.00192789 -0.000463072 0)
(-0.00156733 -0.000423481 0)
(-0.00123855 -0.000380774 0)
(-0.000943731 -0.000335218 0)
(-0.000684783 -0.00028718 0)
(-0.000463248 -0.00023716 0)
(-0.000280186 -0.00018584 0)
(-0.000136023 -0.000134162 0)
(-3.03525e-05 -8.34287e-05 0)
(3.83289e-05 -3.5461e-05 0)
(7.29598e-05 7.18311e-06 0)
(7.82399e-05 4.09245e-05 0)
(6.10825e-05 6.08382e-05 0)
(3.24197e-05 6.04015e-05 0)
(8.4614e-06 3.18033e-05 0)
(7.27062e-06 -4.88369e-05 0)
(2.37684e-05 -8.16194e-05 0)
(3.50932e-05 -6.88345e-05 0)
(2.49021e-05 -2.36892e-05 0)
(-1.79438e-05 4.38281e-05 0)
(-0.00010077 0.000125945 0)
(-0.000228559 0.000216786 0)
(-0.000404377 0.000312016 0)
(-0.000629684 0.000408451 0)
(-0.000904678 0.000503769 0)
(-0.00122857 0.000596273 0)
(-0.00159981 0.000684725 0)
(-0.00201625 0.00076823 0)
(-0.00247533 0.000846142 0)
(-0.00297412 0.000918009 0)
(-0.00350947 0.000983525 0)
(-0.00407804 0.00104249 0)
(-0.0046764 0.00109479 0)
(-0.00530103 0.0011404 0)
(-0.00594836 0.0011793 0)
(-0.00661483 0.00121157 0)
(-0.0072969 0.00123729 0)
(-0.00799107 0.00125656 0)
(-0.00869387 0.00126954 0)
(-0.00940192 0.00127637 0)
(-0.0101119 0.00127722 0)
(-0.0108206 0.00127227 0)
(-0.0115249 0.00126172 0)
(-0.0122217 0.00124576 0)
(-0.0129082 0.00122459 0)
(-0.0135814 0.00119843 0)
(-0.0142388 0.00116749 0)
(-0.0148777 0.00113198 0)
(-0.0154956 0.00109212 0)
(-0.0160902 0.00104814 0)
(-0.0166592 0.00100026 0)
(-0.0172006 0.000948694 0)
(-0.0177124 0.000893679 0)
(-0.0181927 0.000835439 0)
(-0.0186397 0.000774204 0)
(-0.019052 0.000710204 0)
(-0.0194279 0.000643672 0)
(-0.0197662 0.000574841 0)
(-0.0200657 0.000503948 0)
(-0.0203252 0.000431233 0)
(-0.0205438 0.000356936 0)
(-0.0207208 0.0002813 0)
(-0.0208554 0.000204573 0)
(-0.0209471 0.000127004 0)
(-0.0209955 4.88465e-05 0)
(-0.0210004 -2.96432e-05 0)
(-0.0209617 -0.000108204 0)
(-0.0208794 -0.000186574 0)
(-0.0207537 -0.000264486 0)
(-0.0205849 -0.000341668 0)
(-0.0203736 -0.000417849 0)
(-0.0201203 -0.00049275 0)
(-0.0198259 -0.000566092 0)
(-0.0194913 -0.000637592 0)
(-0.0191177 -0.000706967 0)
(-0.0187062 -0.000773931 0)
(-0.0182584 -0.000838195 0)
(-0.0177758 -0.000899474 0)
(-0.0172602 -0.00095748 0)
(-0.0167134 -0.00101193 0)
(-0.0161375 -0.00106253 0)
(-0.0155347 -0.00110902 0)
(-0.0149073 -0.00115111 0)
(-0.014258 -0.00118853 0)
(-0.0135893 -0.00122102 0)
(-0.0129039 -0.00124833 0)
(-0.0122049 -0.00127021 0)
(-0.0114953 -0.00128643 0)
(-0.0107782 -0.00129677 0)
(-0.010057 -0.00130101 0)
(-0.00933496 -0.00129898 0)
(-0.00861559 -0.0012905 0)
(-0.00790243 -0.00127543 0)
(-0.0071991 -0.00125365 0)
(-0.00650926 -0.00122505 0)
(-0.00583658 -0.00118958 0)
(-0.00518477 -0.00114722 0)
(-0.00455748 -0.00109799 0)
(-0.00395835 -0.00104195 0)
(-0.00339092 -0.000979246 0)
(-0.00285862 -0.00091008 0)
(-0.00236471 -0.000834754 0)
(-0.00191222 -0.000753685 0)
(-0.00150388 -0.000667434 0)
(-0.00114205 -0.000576756 0)
(-0.00082856 -0.000482655 0)
(-0.000564645 -0.000386467 0)
(-0.000350714 -0.000289977 0)
(-0.000186162 -0.000195576 0)
(-6.90983e-05 -0.000106475 0)
(3.96766e-06 -2.6996e-05 0)
(3.84211e-05 3.70789e-05 0)
(4.19323e-05 7.81496e-05 0)
(2.60638e-05 8.64621e-05 0)
(7.52819e-06 4.9324e-05 0)
(4.93647e-06 -5.97115e-05 0)
(1.06942e-05 -9.01006e-05 0)
(1.64511e-07 -5.79028e-05 0)
(-4.13354e-05 1.89169e-05 0)
(-0.000124454 0.000127168 0)
(-0.000256601 0.000256436 0)
(-0.000442892 0.000398631 0)
(-0.000686519 0.000547593 0)
(-0.000989032 0.00069866 0)
(-0.00135064 0.000848314 0)
(-0.00177047 0.000993919 0)
(-0.00224677 0.0011335 0)
(-0.0027771 0.00126558 0)
(-0.00335849 0.00138909 0)
(-0.00398755 0.00150323 0)
(-0.00466055 0.00160747 0)
(-0.00537358 0.00170142 0)
(-0.00612252 0.00178487 0)
(-0.00690316 0.00185769 0)
(-0.00771122 0.00191987 0)
(-0.0085424 0.00197146 0)
(-0.00939241 0.00201257 0)
(-0.010257 0.00204335 0)
(-0.0111319 0.00206402 0)
(-0.012013 0.00207478 0)
(-0.0128962 0.00207592 0)
(-0.0137777 0.00206769 0)
(-0.0146535 0.00205041 0)
(-0.0155198 0.00202438 0)
(-0.0163732 0.00198991 0)
(-0.01721 0.00194735 0)
(-0.0180271 0.00189703 0)
(-0.0188211 0.0018393 0)
(-0.019589 0.00177452 0)
(-0.0203278 0.00170303 0)
(-0.0210349 0.00162519 0)
(-0.0217076 0.00154138 0)
(-0.0223435 0.00145195 0)
(-0.0229401 0.00135728 0)
(-0.0234955 0.00125774 0)
(-0.0240076 0.00115371 0)
(-0.0244745 0.00104555 0)
(-0.0248946 0.00093366 0)
(-0.0252665 0.00081842 0)
(-0.0255887 0.000700219 0)
(-0.02586 0.00057945 0)
(-0.0260796 0.000456512 0)
(-0.0262466 0.000331807 0)
(-0.0263602 0.000205742 0)
(-0.0264201 7.87304e-05 0)
(-0.0264259 -4.88097e-05 0)
(-0.0263775 -0.000176455 0)
(-0.0262749 -0.000303775 0)
(-0.0261184 -0.000430337 0)
(-0.0259085 -0.0005557 0)
(-0.0256457 -0.00067942 0)
(-0.0253308 -0.000801045 0)
(-0.0249649 -0.000920124 0)
(-0.0245491 -0.0010362 0)
(-0.0240848 -0.0011488 0)
(-0.0235737 -0.00125748 0)
(-0.0230173 -0.00136177 0)
(-0.0224179 -0.0014612 0)
(-0.0217774 -0.0015553 0)
(-0.0210982 -0.00164363 0)
(-0.020383 -0.00172572 0)
(-0.0196343 -0.00180113 0)
(-0.0188552 -0.00186941 0)
(-0.0180488 -0.00193013 0)
(-0.0172182 -0.00198286 0)
(-0.016367 -0.00202721 0)
(-0.0154988 -0.00206279 0)
(-0.0146172 -0.00208922 0)
(-0.0137262 -0.00210615 0)
(-0.0128298 -0.00211327 0)
(-0.0119322 -0.00211029 0)
(-0.0110377 -0.00209693 0)
(-0.0101504 -0.00207298 0)
(-0.00927491 -0.00203827 0)
(-0.00841561 -0.00199265 0)
(-0.00757699 -0.00193607 0)
(-0.00676351 -0.00186849 0)
(-0.0059796 -0.00178999 0)
(-0.00522963 -0.00170072 0)
(-0.00451784 -0.00160092 0)
(-0.00384832 -0.00149099 0)
(-0.00322492 -0.00137144 0)
(-0.0026512 -0.001243 0)
(-0.00213035 -0.00110662 0)
(-0.00166509 -0.000963544 0)
(-0.00125752 -0.000815404 0)
(-0.00090901 -0.000664324 0)
(-0.000620018 -0.000513071 0)
(-0.000389866 -0.000365254 0)
(-0.000216516 -0.000225578 0)
(-9.62831e-05 -0.000100182 0)
(-2.35773e-05 2.96523e-06 0)
(9.44949e-06 7.36595e-05 0)
(1.40041e-05 9.89909e-05 0)
(5.41391e-06 6.16817e-05 0)
(2.0746e-06 -6.27071e-05 0)
(-5.57149e-06 -7.88076e-05 0)
(-4.3012e-05 -1.69632e-05 0)
(-0.000121976 0.000101014 0)
(-0.000251867 0.000259069 0)
(-0.000439722 0.000444358 0)
(-0.000690405 0.000646704 0)
(-0.00100693 0.000858172 0)
(-0.00139073 0.00107261 0)
(-0.00184188 0.00128525 0)
(-0.00235934 0.00149245 0)
(-0.00294114 0.00169141 0)
(-0.00358457 0.00188001 0)
(-0.00428629 0.00205664 0)
(-0.00504249 0.00222013 0)
(-0.00584899 0.00236962 0)
(-0.00670133 0.00250451 0)
(-0.00759483 0.00262443 0)
(-0.00852469 0.00272915 0)
(-0.009486 0.0028186 0)
(-0.0104738 0.00289281 0)
(-0.0114831 0.00295191 0)
(-0.012509 0.00299609 0)
(-0.0135466 0.00302561 0)
(-0.0145911 0.00304078 0)
(-0.0156378 0.00304196 0)
(-0.016682 0.00302953 0)
(-0.0177191 0.0030039 0)
(-0.018745 0.00296553 0)
(-0.0197552 0.00291486 0)
(-0.0207458 0.00285237 0)
(-0.0217128 0.00277855 0)
(-0.0226524 0.00269389 0)
(-0.023561 0.00259892 0)
(-0.0244352 0.00249414 0)
(-0.0252717 0.00238007 0)
(-0.0260675 0.00225725 0)
(-0.0268196 0.00212622 0)
(-0.0275253 0.0019875 0)
(-0.0281821 0.00184165 0)
(-0.0287877 0.00168922 0)
(-0.0293398 0.00153076 0)
(-0.0298366 0.00136683 0)
(-0.0302762 0.001198 0)
(-0.030657 0.00102484 0)
(-0.0309778 0.000847919 0)
(-0.0312372 0.000667833 0)
(-0.0314344 0.000485169 0)
(-0.0315685 0.000300526 0)
(-0.031639 0.00011451 0)
(-0.0316456 -7.22663e-05 0)
(-0.031588 -0.000259181 0)
(-0.0314665 -0.000445605 0)
(-0.0312812 -0.0006309 0)
(-0.0310326 -0.000814423 0)
(-0.0307216 -0.000995523 0)
(-0.0303491 -0.00117354 0)
(-0.0299162 -0.00134781 0)
(-0.0294244 -0.00151767 0)
(-0.0288752 -0.00168244 0)
(-0.0282707 -0.00184145 0)
(-0.0276128 -0.00199402 0)
(-0.0269038 -0.00213948 0)
(-0.0261464 -0.00227714 0)
(-0.0253433 -0.00240636 0)
(-0.0244975 -0.00252645 0)
(-0.0236123 -0.00263678 0)
(-0.0226909 -0.0027367 0)
(-0.0217372 -0.00282559 0)
(-0.0207548 -0.00290283 0)
(-0.019748 -0.00296785 0)
(-0.0187208 -0.0030201 0)
(-0.0176776 -0.00305903 0)
(-0.0166231 -0.00308415 0)
(-0.015562 -0.00309502 0)
(-0.014499 -0.00309122 0)
(-0.0134391 -0.00307239 0)
(-0.0123874 -0.00303823 0)
(-0.011349 -0.00298849 0)
(-0.010329 -0.00292303 0)
(-0.00933258 -0.00284174 0)
(-0.00836497 -0.00274467 0)
(-0.00743123 -0.00263192 0)
(-0.00653638 -0.00250376 0)
(-0.00568525 -0.00236061 0)
(-0.00488251 -0.00220306 0)
(-0.00413254 -0.00203193 0)
(-0.00343934 -0.0018483 0)
(-0.00280653 -0.00165359 0)
(-0.00223712 -0.00144963 0)
(-0.00173349 -0.00123877 0)
(-0.00129719 -0.00102399 0)
(-0.000928795 -0.000809137 0)
(-0.000627713 -0.000599079 0)
(-0.000391974 -0.000400037 0)
(-0.000218006 -0.000219927 0)
(-0.000100391 -6.88014e-05 0)
(-3.15537e-05 4.07218e-05 0)
(-1.39588e-06 9.28823e-05 0)
(2.72198e-06 6.6626e-05 0)
(-1.00045e-06 -5.66903e-05 0)
(-2.35376e-05 -4.46355e-05 0)
(-9.10648e-05 5.83983e-05 0)
(-0.000211619 0.000227729 0)
(-0.000392833 0.000444908 0)
(-0.000641023 0.000694963 0)
(-0.000960495 0.000965825 0)
(-0.00135383 0.00124789 0)
(-0.00182214 0.00153358 0)
(-0.00236524 0.00181689 0)
(-0.00298182 0.00209314 0)
(-0.00366965 0.00235868 0)
(-0.00442571 0.00261066 0)
(-0.00524631 0.00284693 0)
(-0.00612727 0.00306585 0)
(-0.00706399 0.00326621 0)
(-0.00805152 0.00344716 0)
(-0.00908469 0.00360812 0)
(-0.0101582 0.00374873 0)
(-0.0112665 0.00386884 0)
(-0.0124041 0.00396844 0)
(-0.0135655 0.00404767 0)
(-0.014745 0.00410674 0)
(-0.0159373 0.00414598 0)
(-0.0171369 0.00416577 0)
(-0.0183384 0.00416658 0)
(-0.0195366 0.0041489 0)
(-0.0207265 0.00411328 0)
(-0.021903 0.00406031 0)
(-0.0230614 0.00399058 0)
(-0.024197 0.00390474 0)
(-0.0253053 0.00380345 0)
(-0.0263821 0.00368737 0)
(-0.0274233 0.00355719 0)
(-0.0284249 0.00341362 0)
(-0.0293832 0.00325737 0)
(-0.0302948 0.00308915 0)
(-0.0311563 0.00290969 0)
(-0.0319646 0.00271974 0)
(-0.0327168 0.00252003 0)
(-0.0334102 0.00231131 0)
(-0.0340424 0.00209436 0)
(-0.0346111 0.00186993 0)
(-0.0351144 0.0016388 0)
(-0.0355503 0.00140175 0)
(-0.0359174 0.00115958 0)
(-0.0362142 0.000913085 0)
(-0.0364398 0.000663075 0)
(-0.0365931 0.000410371 0)
(-0.0366736 0.000155805 0)
(-0.0366809 -9.97836e-05 0)
(-0.0366148 -0.000355543 0)
(-0.0364754 -0.000610613 0)
(-0.036263 -0.00086412 0)
(-0.0359783 -0.00111518 0)
(-0.035622 -0.00136291 0)
(-0.0351953 -0.00160641 0)
(-0.0346996 -0.00184477 0)
(-0.0341364 -0.00207708 0)
(-0.0335075 -0.00230241 0)
(-0.0328153 -0.00251986 0)
(-0.0320619 -0.0027285 0)
(-0.0312502 -0.00292741 0)
(-0.0303829 -0.00311568 0)
(-0.0294633 -0.0032924 0)
(-0.0284948 -0.00345667 0)
(-0.027481 -0.00360762 0)
(-0.0264258 -0.00374436 0)
(-0.0253333 -0.00386607 0)
(-0.024208 -0.00397192 0)
(-0.0230544 -0.00406113 0)
(-0.0218773 -0.00413296 0)
(-0.0206817 -0.00418668 0)
(-0.0194726 -0.00422166 0)
(-0.0182556 -0.00423728 0)
(-0.0170359 -0.004233 0)
(-0.0158192 -0.00420837 0)
(-0.0146112 -0.00416299 0)
(-0.0134176 -0.00409656 0)
(-0.0122443 -0.0040089 0)
(-0.011097 -0.00389993 0)
(-0.00998144 -0.00376971 0)
(-0.00890342 -0.00361847 0)
(-0.00786849 -0.00344659 0)
(-0.00688203 -0.00325469 0)
(-0.0059492 -0.00304362 0)
(-0.00507485 -0.00281454 0)
(-0.00426342 -0.00256895 0)
(-0.00351887 -0.00230879 0)
(-0.00284457 -0.00203654 0)
(-0.00224315 -0.0017553 0)
(-0.00171643 -0.00146899 0)
(-0.00126518 -0.00118253 0)
(-0.000889057 -0.000902063 0)
(-0.000586346 -0.000635279 0)
(-0.000353846 -0.000391774 0)
(-0.000186609 -0.000183503 0)
(-7.76911e-05 -2.52231e-05 0)
(-1.86224e-05 6.49029e-05 0)
(-2.18213e-07 6.2961e-05 0)
(-4.12036e-06 -4.11212e-05 0)
(-4.22767e-05 1.42386e-05 0)
(-0.000141727 0.000171013 0)
(-0.000306463 0.000402533 0)
(-0.000542028 0.000688453 0)
(-0.000853758 0.00101202 0)
(-0.00124517 0.00135951 0)
(-0.00171821 0.00171983 0)
(-0.00227349 0.00208403 0)
(-0.00291042 0.00244495 0)
(-0.00362735 0.00279689 0)
(-0.00442169 0.00313532 0)
(-0.00529008 0.00345669 0)
(-0.00622851 0.00375823 0)
(-0.00723239 0.00403783 0)
(-0.00829672 0.00429388 0)
(-0.00941613 0.00452524 0)
(-0.010585 0.0047311 0)
(-0.0117975 0.00491096 0)
(-0.0130476 0.00506455 0)
(-0.0143294 0.00519181 0)
(-0.0156367 0.00529287 0)
(-0.0169634 0.00536797 0)
(-0.0183035 0.00541748 0)
(-0.019651 0.00544187 0)
(-0.0210001 0.00544171 0)
(-0.0223449 0.00541762 0)
(-0.0236798 0.00537028 0)
(-0.0249994 0.00530043 0)
(-0.0262983 0.00520883 0)
(-0.0275713 0.00509632 0)
(-0.0288135 0.00496371 0)
(-0.0300202 0.00481188 0)
(-0.0311867 0.00464171 0)
(-0.0323088 0.00445411 0)
(-0.0333823 0.00425 0)
(-0.0344032 0.00403031 0)
(-0.035368 0.00379599 0)
(-0.0362731 0.00354799 0)
(-0.0371153 0.00328729 0)
(-0.0378916 0.00301486 0)
(-0.0385994 0.0027317 0)
(-0.039236 0.0024388 0)
(-0.0397993 0.00213718 0)
(-0.0402871 0.00182785 0)
(-0.0406979 0.00151186 0)
(-0.0410301 0.00119024 0)
(-0.0412824 0.00086406 0)
(-0.0414539 0.000534385 0)
(-0.0415438 0.0002023 0)
(-0.0415518 -0.000131098 0)
(-0.0414777 -0.000464699 0)
(-0.0413215 -0.00079738 0)
(-0.0410837 -0.001128 0)
(-0.0407649 -0.00145542 0)
(-0.040366 -0.00177848 0)
(-0.0398884 -0.002096 0)
(-0.0393334 -0.00240681 0)
(-0.038703 -0.00270971 0)
(-0.0379991 -0.00300353 0)
(-0.0372242 -0.00328706 0)
(-0.0363809 -0.00355911 0)
(-0.0354722 -0.00381849 0)
(-0.0345013 -0.00406402 0)
(-0.0334718 -0.00429452 0)
(-0.0323874 -0.00450882 0)
(-0.0312522 -0.0047058 0)
(-0.0300705 -0.00488433 0)
(-0.0288469 -0.00504333 0)
(-0.0275863 -0.00518175 0)
(-0.0262938 -0.00529859 0)
(-0.0249746 -0.00539287 0)
(-0.0236342 -0.00546372 0)
(-0.0222784 -0.00551028 0)
(-0.020913 -0.00553179 0)
(-0.0195441 -0.00552759 0)
(-0.0181778 -0.0054971 0)
(-0.0168204 -0.00543983 0)
(-0.0154782 -0.00535544 0)
(-0.0141576 -0.00524372 0)
(-0.012865 -0.0051046 0)
(-0.0116067 -0.00493822 0)
(-0.0103889 -0.00474489 0)
(-0.00921778 -0.00452518 0)
(-0.00809915 -0.00427993 0)
(-0.00703866 -0.00401027 0)
(-0.00604158 -0.00371774 0)
(-0.00511278 -0.0034043 0)
(-0.00425658 -0.00307247 0)
(-0.00347668 -0.00272537 0)
(-0.00277605 -0.00236693 0)
(-0.00215681 -0.00200198 0)
(-0.00162007 -0.00163651 0)
(-0.00116582 -0.00127791 0)
(-0.000792818 -0.00093525 0)
(-0.000498417 -0.000619654 0)
(-0.000278381 -0.000344763 0)
(-0.000126653 -0.000127146 0)
(-3.67193e-05 1.31175e-05 0)
(-3.22571e-06 5.00918e-05 0)
(-7.19589e-06 -1.58265e-05 0)
(-6.1224e-05 9.87165e-05 0)
(-0.000193502 0.000322502 0)
(-0.000403883 0.000627577 0)
(-0.000695658 0.000992179 0)
(-0.00107301 0.00139812 0)
(-0.0015385 0.00183027 0)
(-0.00209326 0.00227621 0)
(-0.00273728 0.0027258 0)
(-0.00346943 0.00317077 0)
(-0.00428763 0.00360444 0)
(-0.00518887 0.00402144 0)
(-0.00616941 0.00441751 0)
(-0.00722483 0.00478927 0)
(-0.00835019 0.00513409 0)
(-0.00954007 0.00544998 0)
(-0.0107887 0.00573547 0)
(-0.01209 0.0059895 0)
(-0.0134377 0.0062114 0)
(-0.0148255 0.00640078 0)
(-0.0162466 0.00655752 0)
(-0.0176947 0.0066817 0)
(-0.0191631 0.00677361 0)
(-0.0206452 0.00683365 0)
(-0.0221347 0.00686239 0)
(-0.023625 0.00686048 0)
(-0.02511 0.00682867 0)
(-0.0265835 0.0067678 0)
(-0.0280395 0.00667877 0)
(-0.0294723 0.00656251 0)
(-0.0308762 0.00642003 0)
(-0.0322458 0.00625238 0)
(-0.0335759 0.00606061 0)
(-0.0348616 0.00584584 0)
(-0.036098 0.0056092 0)
(-0.0372808 0.00535182 0)
(-0.0384055 0.00507487 0)
(-0.0394681 0.00477955 0)
(-0.040465 0.00446705 0)
(-0.0413925 0.00413859 0)
(-0.0422474 0.0037954 0)
(-0.0430267 0.00343873 0)
(-0.0437276 0.00306982 0)
(-0.0443477 0.00268996 0)
(-0.0448848 0.00230042 0)
(-0.045337 0.00190252 0)
(-0.0457026 0.00149756 0)
(-0.0459803 0.00108688 0)
(-0.046169 0.000671828 0)
(-0.046268 0.000253765 0)
(-0.0462767 -0.000165929 0)
(-0.0461951 -0.000585857 0)
(-0.0460232 -0.00100461 0)
(-0.0457614 -0.00142075 0)
(-0.0454105 -0.00183284 0)
(-0.0449715 -0.00223943 0)
(-0.0444457 -0.00263904 0)
(-0.0438348 -0.0030302 0)
(-0.0431409 -0.00341142 0)
(-0.0423661 -0.0037812 0)
(-0.041513 -0.00413805 0)
(-0.0405847 -0.00448048 0)
(-0.0395843 -0.00480699 0)
(-0.0385153 -0.00511611 0)
(-0.0373816 -0.00540637 0)
(-0.0361874 -0.00567631 0)
(-0.034937 -0.00592453 0)
(-0.0336353 -0.00614963 0)
(-0.0322872 -0.00635026 0)
(-0.0308979 -0.00652511 0)
(-0.0294731 -0.00667295 0)
(-0.0280185 -0.00679258 0)
(-0.0265401 -0.00688291 0)
(-0.0250441 -0.00694289 0)
(-0.0235369 -0.00697161 0)
(-0.0220251 -0.00696824 0)
(-0.0205152 -0.00693209 0)
(-0.0190142 -0.00686259 0)
(-0.0175289 -0.00675934 0)
(-0.0160662 -0.00662212 0)
(-0.0146329 -0.00645089 0)
(-0.0132359 -0.00624584 0)
(-0.011882 -0.00600743 0)
(-0.0105777 -0.00573641 0)
(-0.00932941 -0.00543384 0)
(-0.00814312 -0.00510121 0)
(-0.00702457 -0.00474044 0)
(-0.00597901 -0.00435398 0)
(-0.00501114 -0.00394492 0)
(-0.00412506 -0.00351709 0)
(-0.00332409 -0.00307519 0)
(-0.00261074 -0.00262499 0)
(-0.00198654 -0.00217351 0)
(-0.00145199 -0.0017293 0)
(-0.00100639 -0.0013027 0)
(-0.000647855 -0.000906191 0)
(-0.000373023 -0.000554872 0)
(-0.000176898 -0.000266787 0)
(-5.50948e-05 -6.34728e-05 0)
(-6.20413e-06 2.78043e-05 0)
(-1.01852e-05 1.91477e-05 0)
(-8.00402e-05 0.0002091 0)
(-0.000245421 0.000513624 0)
(-0.000502103 0.000904032 0)
(-0.000851069 0.00135755 0)
(-0.00129525 0.00185488 0)
(-0.00183613 0.00237975 0)
(-0.00247392 0.0029186 0)
(-0.00320786 0.00346021 0)
(-0.0040362 0.00399531 0)
(-0.0049563 0.00451634 0)
(-0.0059647 0.00501712 0)
(-0.00705719 0.00549267 0)
(-0.00822897 0.00593904 0)
(-0.00947466 0.00635309 0)
(-0.0107884 0.00673242 0)
(-0.0121642 0.00707521 0)
(-0.0135953 0.00738017 0)
(-0.0150752 0.00764643 0)
(-0.016597 0.00787346 0)
(-0.0181537 0.00806108 0)
(-0.0197382 0.00820934 0)
(-0.0213437 0.00831852 0)
(-0.022963 0.00838909 0)
(-0.0245893 0.00842168 0)
(-0.0262156 0.00841706 0)
(-0.0278353 0.00837611 0)
(-0.0294417 0.00829981 0)
(-0.0310286 0.00818923 0)
(-0.0325895 0.0080455 0)
(-0.0341186 0.00786983 0)
(-0.0356099 0.00766346 0)
(-0.037058 0.00742769 0)
(-0.0384573 0.00716385 0)
(-0.0398029 0.0068733 0)
(-0.0410897 0.00655745 0)
(-0.0423133 0.00621771 0)
(-0.0434692 0.00585553 0)
(-0.0445534 0.00547236 0)
(-0.0455621 0.0050697 0)
(-0.0464917 0.00464904 0)
(-0.0473391 0.00421191 0)
(-0.0481012 0.00375984 0)
(-0.0487754 0.00329438 0)
(-0.0493593 0.00281712 0)
(-0.0498509 0.00232964 0)
(-0.0502484 0.00183355 0)
(-0.0505503 0.00133049 0)
(-0.0507555 0.0008221 0)
(-0.0508632 0.000310048 0)
(-0.0508728 -0.000203976 0)
(-0.0507842 -0.000718265 0)
(-0.0505975 -0.00123109 0)
(-0.0503131 -0.00174071 0)
(-0.0499318 -0.00224536 0)
(-0.0494548 -0.00274326 0)
(-0.0488835 -0.00323262 0)
(-0.0482197 -0.00371164 0)
(-0.0474656 -0.00417849 0)
(-0.0466235 -0.00463136 0)
(-0.0456964 -0.00506843 0)
(-0.0446873 -0.00548788 0)
(-0.0435997 -0.0058879 0)
(-0.0424375 -0.00626667 0)
(-0.0412048 -0.00662243 0)
(-0.039906 -0.00695342 0)
(-0.0385459 -0.0072579 0)
(-0.0371297 -0.00753421 0)
(-0.0356627 -0.0077807 0)
(-0.0341506 -0.0079958 0)
(-0.0325993 -0.00817801 0)
(-0.0310151 -0.0083259 0)
(-0.0294044 -0.00843814 0)
(-0.0277738 -0.00851351 0)
(-0.0261303 -0.00855089 0)
(-0.0244807 -0.00854931 0)
(-0.0228324 -0.00850796 0)
(-0.0211926 -0.00842618 0)
(-0.0195686 -0.00830352 0)
(-0.0179679 -0.00813974 0)
(-0.0163977 -0.00793485 0)
(-0.0148655 -0.00768911 0)
(-0.0133783 -0.00740312 0)
(-0.0119433 -0.00707782 0)
(-0.0105672 -0.00671455 0)
(-0.00925659 -0.00631512 0)
(-0.00801748 -0.00588187 0)
(-0.00685558 -0.00541775 0)
(-0.00577601 -0.00492644 0)
(-0.00478327 -0.00441244 0)
(-0.00388111 -0.00388125 0)
(-0.0030725 -0.00333952 0)
(-0.00235948 -0.00279525 0)
(-0.00174313 -0.00225805 0)
(-0.00122347 -0.0017394 0)
(-0.000799445 -0.001253 0)
(-0.000468708 -0.000815124 0)
(-0.000227425 -0.000445011 0)
(-7.33911e-05 -0.000165243 0)
(-9.1048e-06 -3.88934e-06 0)
(-1.30694e-05 6.36395e-05 0)
(-9.85316e-05 0.000345306 0)
(-0.000296879 0.000744552 0)
(-0.00059995 0.00123236 0)
(-0.00100645 0.0017853 0)
(-0.00151801 0.00238321 0)
(-0.00213496 0.00300893 0)
(-0.00285653 0.00364794 0)
(-0.00368108 0.00428808 0)
(-0.00460619 0.00491921 0)
(-0.00562858 0.00553294 0)
(-0.00674424 0.00612234 0)
(-0.00794851 0.00668179 0)
(-0.00923609 0.00720675 0)
(-0.0106012 0.00769359 0)
(-0.0120376 0.0081395 0)
(-0.0135386 0.00854235 0)
(-0.0150975 0.00890056 0)
(-0.0167071 0.00921308 0)
(-0.01836 0.00947926 0)
(-0.020049 0.00969881 0)
(-0.0217666 0.00987176 0)
(-0.0235053 0.00999839 0)
(-0.0252577 0.0100792 0)
(-0.0270164 0.010115 0)
(-0.0287743 0.0101065 0)
(-0.030524 0.0100548 0)
(-0.0322587 0.00996111 0)
(-0.0339715 0.00982658 0)
(-0.0356558 0.00965255 0)
(-0.0373052 0.00944046 0)
(-0.0389134 0.00919176 0)
(-0.0404746 0.008908 0)
(-0.0419829 0.00859074 0)
(-0.043433 0.0082416 0)
(-0.0448195 0.00786226 0)
(-0.0461377 0.00745438 0)
(-0.0473828 0.0070197 0)
(-0.0485506 0.00655996 0)
(-0.0496369 0.00607692 0)
(-0.050638 0.00557239 0)
(-0.0515504 0.00504818 0)
(-0.0523709 0.00450612 0)
(-0.0530968 0.00394807 0)
(-0.0537255 0.00337593 0)
(-0.0542548 0.00279158 0)
(-0.0546828 0.00219696 0)
(-0.055008 0.00159402 0)
(-0.0552291 0.000984723 0)
(-0.0553452 0.000371071 0)
(-0.0553559 -0.000244919 0)
(-0.0552608 -0.000861205 0)
(-0.0550602 -0.00147572 0)
(-0.0547544 -0.00208639 0)
(-0.0543445 -0.0026911 0)
(-0.0538314 -0.00328772 0)
(-0.0532169 -0.00387413 0)
(-0.0525029 -0.00444815 0)
(-0.0516915 -0.00500764 0)
(-0.0507854 -0.00555041 0)
(-0.0497877 -0.0060743 0)
(-0.0487017 -0.00657715 0)
(-0.047531 -0.00705678 0)
(-0.0462798 -0.00751107 0)