/*--------------------------------*- C++ -*----------------------------------*\
| =========                 |                                                 |
| \\      /  F ield         | OpenFOAM: The Open Source CFD Toolbox           |
|  \\    /   O peration     | Version:  2212                                  |
|   \\  /    A nd           | Website:  www.openfoam.com                      |
|    \\/     M anipulation  |                                                 |
\*---------------------------------------------------------------------------*/
FoamFile
{
    version     2.0;
    format      ascii;
    arch        "LSB;label=32;scalar=64";
    class       surfaceScalarField;
    location    "0.077";
    object      phi_0;
}
// * * * * * * * * * * * * * * * * * * * * * * * * * * * * * * * * * * * * * //

dimensions      [0 3 -1 0 0 0 0];

oriented        oriented;

internalField   nonuniform List<scalar> 
19800
(
6.96853e-11
-6.96157e-11
2.38825e-10
-1.69161e-10
4.24845e-10
-1.86011e-10
5.7063e-10
-1.45809e-10
6.4348e-10
-7.28341e-11
6.25238e-10
1.82237e-11
5.06884e-10
1.18366e-10
2.85052e-10
2.21823e-10
-3.9934e-11
3.24992e-10
-4.65441e-10
4.25506e-10
-9.87297e-10
5.21841e-10
-1.60028e-09
6.12979e-10
-2.29849e-09
6.98222e-10
-3.07563e-09
7.77133e-10
-3.92508e-09
8.4945e-10
-4.84009e-09
9.15013e-10
-5.81384e-09
9.7375e-10
-6.83949e-09
1.02566e-09
-7.91026e-09
1.07078e-09
-9.01945e-09
1.1092e-09
-1.01605e-08
1.14103e-09
-1.13269e-08
1.1664e-09
-1.25123e-08
1.18547e-09
-1.37108e-08
1.19842e-09
-1.49162e-08
1.20541e-09
-1.61228e-08
1.20663e-09
-1.73251e-08
1.20229e-09
-1.85177e-08
1.19258e-09
-1.96954e-08
1.1777e-09
-2.08532e-08
1.15786e-09
-2.19865e-08
1.13325e-09
-2.30906e-08
1.1041e-09
-2.41612e-08
1.0706e-09
-2.51941e-08
1.03298e-09
-2.61856e-08
9.91449e-10
-2.71318e-08
9.46216e-10
-2.80293e-08
8.97497e-10
-2.88748e-08
8.45504e-10
-2.96653e-08
7.90451e-10
-3.03978e-08
7.32554e-10
-3.10699e-08
6.7203e-10
-3.1679e-08
6.09103e-10
-3.22229e-08
5.43989e-10
-3.26999e-08
4.76914e-10
-3.31079e-08
4.081e-10
-3.34457e-08
3.37767e-10
-3.37118e-08
2.6615e-10
-3.39053e-08
1.93485e-10
-3.40253e-08
1.20002e-10
-3.40713e-08
4.59502e-11
-3.40429e-08
-2.84256e-11
-3.394e-08
-1.02891e-10
-3.37628e-08
-1.77189e-10
-3.35117e-08
-2.51062e-10
-3.31875e-08
-3.24264e-10
-3.27909e-08
-3.96532e-10
-3.23234e-08
-4.67587e-10
-3.17862e-08
-5.37168e-10
-3.11812e-08
-6.05013e-10
-3.05104e-08
-6.70836e-10
-2.9776e-08
-7.34362e-10
-2.89807e-08
-7.95325e-10
-2.81272e-08
-8.53451e-10
-2.72188e-08
-9.08451e-10
-2.62587e-08
-9.6005e-10
-2.52507e-08
-1.00798e-09
-2.41988e-08
-1.05197e-09
-2.3107e-08
-1.09175e-09
-2.198e-08
-1.12704e-09
-2.08223e-08
-1.15761e-09
-1.96391e-08
-1.1832e-09
-1.84356e-08
-1.20356e-09
-1.72171e-08
-1.21846e-09
-1.59894e-08
-1.22769e-09
-1.47584e-08
-1.23103e-09
-1.35301e-08
-1.22829e-09
-1.23108e-08
-1.21929e-09
-1.11069e-08
-1.20386e-09
-9.92507e-09
-1.18186e-09
-8.7719e-09
-1.15318e-09
-7.65418e-09
-1.11771e-09
-6.57878e-09
-1.0754e-09
-5.55256e-09
-1.02622e-09
-4.58239e-09
-9.70172e-10
-3.67508e-09
-9.07308e-10
-2.83733e-09
-8.37744e-10
-2.07568e-09
-7.61664e-10
-1.39634e-09
-6.79345e-10
-8.05145e-10
-5.91191e-10
-3.07363e-10
-4.97776e-10
9.25459e-11
-3.9991e-10
3.91282e-10
-2.98743e-10
5.87209e-10
-1.9593e-10
6.81148e-10
-9.39349e-11
6.77634e-10
3.51616e-12
5.86984e-10
9.06442e-11
4.2849e-10
1.58487e-10
2.35858e-10
1.92631e-10
6.63802e-11
1.69482e-10
6.63792e-11
1.69348e-10
-2.38996e-10
4.64936e-10
-4.64724e-10
7.47947e-10
-4.69015e-10
9.18036e-10
-3.15907e-10
9.05443e-10
-6.02476e-11
6.65396e-10
2.583e-10
1.71775e-10
6.11982e-10
-5.88058e-10
9.81677e-10
-1.61726e-09
1.35421e-09
-2.91226e-09
1.72051e-09
-4.46467e-09
2.07426e-09
-6.26276e-09
2.41106e-09
-8.29238e-09
2.72783e-09
-1.05377e-08
3.02247e-09
-1.29818e-08
3.29353e-09
-1.56069e-08
3.54011e-09
-1.83948e-08
3.76169e-09
-2.13272e-08
3.95802e-09
-2.43855e-08
4.1291e-09
-2.75514e-08
4.27509e-09
-3.08067e-08
4.39628e-09
-3.41334e-08
4.49308e-09
-3.75139e-08
4.56599e-09
-4.0931e-08
4.61557e-09
-4.4368e-08
4.64243e-09
-4.78086e-08
4.64725e-09
-5.12371e-08
4.63071e-09
-5.4638e-08
4.59355e-09
-5.79968e-08
4.53651e-09
-6.12993e-08
4.46035e-09
-6.45319e-08
4.36585e-09
-6.76817e-08
4.2538e-09
-7.07361e-08
4.125e-09
-7.36833e-08
3.98025e-09
-7.65122e-08
3.82036e-09
-7.92121e-08
3.64614e-09
-8.17731e-08
3.45843e-09
-8.41856e-08
3.25805e-09
-8.6441e-08
3.04583e-09
-8.8531e-08
2.8226e-09
-9.04482e-08
2.58921e-09
-9.21856e-08
2.34651e-09
-9.3737e-08
2.09535e-09
-9.50967e-08
1.8366e-09
-9.62597e-08
1.57114e-09
-9.72218e-08
1.29986e-09
-9.79793e-08
1.02364e-09
-9.85292e-08
7.43389e-10
-9.88692e-08
4.60025e-10
-9.89977e-08
1.74476e-10
-9.89138e-08
-1.12298e-10
-9.86174e-08
-3.9934e-10
-9.81089e-08
-6.85689e-10
-9.73896e-08
-9.70355e-10
-9.64615e-08
-1.25233e-09
-9.53275e-08
-1.53062e-09
-9.39909e-08
-1.8042e-09
-9.2456e-08
-2.07202e-09
-9.07279e-08
-2.33305e-09
-8.88125e-08
-2.58624e-09
-8.67164e-08
-2.83054e-09
-8.44468e-08
-3.06487e-09
-8.20121e-08
-3.28818e-09
-7.94211e-08
-3.49941e-09
-7.66837e-08
-3.69752e-09
-7.38102e-08
-3.88144e-09
-7.0812e-08
-4.05016e-09
-6.77011e-08
-4.20265e-09
-6.44902e-08
-4.33792e-09
-6.11928e-08
-4.45499e-09
-5.78231e-08
-4.55292e-09
-5.43958e-08
-4.63082e-09
-5.09265e-08
-4.68782e-09
-4.74311e-08
-4.72308e-09
-4.39263e-08
-4.73585e-09
-4.04291e-08
-4.72542e-09
-3.69573e-08
-4.69115e-09
-3.35287e-08
-4.63246e-09
-3.01616e-08
-4.54888e-09
-2.68748e-08
-4.44002e-09
-2.36869e-08
-4.30562e-09
-2.06168e-08
-4.14552e-09
-1.76833e-08
-3.95972e-09
-1.4905e-08
-3.74839e-09
-1.23004e-08
-3.51192e-09
-9.88725e-09
-3.25093e-09
-7.68255e-09
-2.96636e-09
-5.70232e-09
-2.65957e-09
-3.96107e-09
-2.33244e-09
-2.47132e-09
-1.98754e-09
-1.24285e-09
-1.62838e-09
-2.8179e-10
-1.2598e-09
4.10798e-10
-8.88511e-10
8.40772e-10
-5.23909e-10
1.02361e-09
-1.79334e-10
9.88132e-10
1.26116e-10
7.81478e-10
3.65143e-10
4.75053e-10
4.99064e-10
1.6937e-10
4.75162e-10
2.35746e-10
1.86923e-10
-4.25913e-10
4.71271e-10
-7.49081e-10
6.82564e-10
-6.80309e-10
7.00002e-10
-3.33348e-10
4.35894e-10
2.03847e-10
-1.6959e-10
8.63791e-10
-1.15392e-09
1.59631e-09
-2.53719e-09
2.36494e-09
-4.32632e-09
3.14332e-09
-6.51827e-09
3.91245e-09
-9.10259e-09
4.6586e-09
-1.20634e-08
5.37183e-09
-1.53806e-08
6.04503e-09
-1.90312e-08
6.67311e-09
-2.29902e-08
7.2525e-09
-2.72309e-08
7.78083e-09
-3.17257e-08
8.25654e-09
-3.64465e-08
8.67879e-09
-4.13647e-08
9.04729e-09
-4.64517e-08
9.36214e-09
-5.16792e-08
9.62379e-09
-5.70191e-08
9.83294e-09
-6.24436e-08
9.99052e-09
-6.79257e-08
1.00976e-08
-7.34388e-08
1.01555e-08
-7.8957e-08
1.01655e-08
-8.44554e-08
1.0129e-08
-8.99094e-08
1.00476e-08
-9.52958e-08
9.92288e-09
-1.00592e-07
9.75638e-09
-1.05776e-07
9.5498e-09
-1.10827e-07
9.30484e-09
-1.15725e-07
9.02322e-09
-1.20451e-07
8.70667e-09
-1.24988e-07
8.35695e-09
-1.29318e-07
7.97586e-09
-1.33424e-07
7.56517e-09
-1.37293e-07
7.1267e-09
-1.4091e-07
6.66226e-09
-1.44261e-07
6.1737e-09
-1.47334e-07
5.66287e-09
-1.50119e-07
5.13163e-09
-1.52606e-07
4.58186e-09
-1.54785e-07
4.01547e-09
-1.56648e-07
3.43438e-09
-1.58189e-07
2.84056e-09
-1.59401e-07
2.23596e-09
-1.6028e-07
1.62258e-09
-1.60823e-07
1.00244e-09
-1.61026e-07
3.77602e-10
-1.60888e-07
-2.49877e-10
-1.6041e-07
-8.77876e-10
-1.59591e-07
-1.50426e-09
-1.58435e-07
-2.12687e-09
-1.56943e-07
-2.74352e-09
-1.55122e-07
-3.35198e-09
-1.52976e-07
-3.95002e-09
-1.50513e-07
-4.53538e-09
-1.4774e-07
-5.10579e-09
-1.44667e-07
-5.65894e-09
-1.41305e-07
-6.19253e-09
-1.37666e-07
-6.70427e-09
-1.33762e-07
-7.19183e-09
-1.29609e-07
-7.65292e-09
-1.25221e-07
-8.08524e-09
-1.20616e-07
-8.48655e-09
-1.15812e-07
-8.8546e-09
-1.10827e-07
-9.18719e-09
-1.05683e-07
-9.48218e-09
-1.004e-07
-9.73748e-09
-9.50022e-08
-9.95108e-09
-8.9512e-08
-1.0121e-08
-8.39543e-08
-1.02455e-08
-7.83547e-08
-1.03227e-08
-7.27394e-08
-1.03512e-08
-6.71355e-08
-1.03293e-08
-6.15709e-08
-1.02557e-08
-5.6074e-08
-1.01294e-08
-5.06735e-08
-9.9494e-09
-4.53985e-08
-9.71495e-09
-4.02785e-08
-9.4256e-09
-3.53428e-08
-9.0812e-09
-3.06206e-08
-8.68194e-09
-2.61407e-08
-8.22838e-09
-2.1931e-08
-7.72161e-09
-1.80186e-08
-7.16329e-09
-1.44292e-08
-6.5558e-09
-1.11863e-08
-5.90246e-09
-8.31096e-09
-5.20775e-09
-5.82083e-09
-4.47767e-09
-3.72896e-09
-3.72025e-09
-2.04253e-09
-2.94624e-09
-7.60942e-10
-2.1701e-09
1.26519e-10
-1.41137e-09
6.43845e-10
-6.96661e-10
8.32172e-10
-6.22126e-11
7.54545e-10
4.42771e-10
5.00924e-10
7.52681e-10
1.93062e-10
7.83017e-10
4.28811e-10
1.4812e-10
-5.7405e-10
3.22449e-10
-9.23415e-10
3.43174e-10
-7.01031e-10
8.16158e-11
-7.17903e-11
-5.56893e-10
8.42365e-10
-1.63896e-09
1.94586e-09
-3.20785e-09
3.16523e-09
-5.28803e-09
4.44511e-09
-7.88879e-09
5.74409e-09
-1.10076e-08
7.03129e-09
-1.46327e-08
8.2837e-09
-1.87452e-08
9.48427e-09
-2.33205e-08
1.06204e-08
-2.83303e-08
1.16828e-08
-3.37427e-08
1.2665e-08
-3.95241e-08
1.35622e-08
-4.56389e-08
1.43713e-08
-5.20506e-08
1.50905e-08
-5.87222e-08
1.57188e-08
-6.56162e-08
1.62562e-08
-7.26953e-08
1.67029e-08
-7.99225e-08
1.70601e-08
-8.72609e-08
1.7329e-08
-9.46747e-08
1.75114e-08
-1.02128e-07
1.76093e-08
-1.09588e-07
1.76247e-08
-1.17019e-07
1.75602e-08
-1.24389e-07
1.74181e-08
-1.31668e-07
1.72012e-08
-1.38823e-07
1.69121e-08
-1.45827e-07
1.65537e-08
-1.52651e-07
1.61289e-08
-1.59269e-07
1.56405e-08
-1.65654e-07
1.50916e-08
-1.71782e-07
1.44853e-08
-1.77631e-07
1.38245e-08
-1.83178e-07
1.31123e-08
-1.88403e-07
1.2352e-08
-1.93287e-07
1.15466e-08
-1.97813e-07
1.06993e-08
-2.01963e-07
9.81343e-09
-2.05724e-07
8.89212e-09
-2.09081e-07
7.93869e-09
-2.12022e-07
6.95645e-09
-2.14536e-07
5.94876e-09
-2.16615e-07
4.91899e-09
-2.18249e-07
3.87059e-09
-2.19434e-07
2.80703e-09
-2.20163e-07
1.73183e-09
-2.20434e-07
6.48558e-10
-2.20245e-07
-4.39165e-10
-2.19595e-07
-1.52769e-09
-2.18486e-07
-2.6133e-09
-2.1692e-07
-3.69223e-09
-2.14903e-07
-4.76069e-09
-2.1244e-07
-5.81485e-09
-2.0954e-07
-6.8508e-09
-2.0621e-07
-7.86464e-09
-2.02464e-07
-8.85242e-09
-1.98312e-07
-9.8102e-09
-1.93771e-07
-1.0734e-08
-1.88856e-07
-1.16198e-08
-1.83584e-07
-1.24636e-08
-1.77975e-07
-1.32615e-08
-1.72051e-07
-1.40096e-08
-1.65833e-07
-1.47039e-08
-1.59347e-07
-1.53407e-08
-1.52618e-07
-1.59161e-08
-1.45674e-07
-1.64265e-08
-1.38543e-07
-1.68684e-08
-1.31256e-07
-1.72382e-08
-1.23844e-07
-1.75328e-08
-1.16341e-07
-1.7749e-08
-1.0878e-07
-1.78839e-08
-1.01196e-07
-1.79348e-08
-9.36258e-08
-1.78993e-08
-8.61063e-08
-1.77752e-08
-7.86751e-08
-1.75606e-08
-7.13704e-08
-1.72541e-08
-6.42307e-08
-1.68547e-08
-5.72946e-08
-1.63617e-08
-5.06007e-08
-1.57751e-08
-4.41871e-08
-1.50955e-08
-3.80913e-08
-1.43242e-08
-3.23495e-08
-1.34634e-08
-2.69966e-08
-1.25162e-08
-2.2065e-08
-1.14874e-08
-1.75845e-08
-1.03829e-08
-1.35813e-08
-9.21097e-09
-1.00767e-08
-7.98226e-09
-7.08616e-09
-6.71081e-09
-4.61742e-09
-5.41498e-09
-2.66864e-09
-4.11888e-09
-1.22585e-09
-2.85416e-09
-2.59973e-10
-1.66254e-09
2.76755e-10
-5.98941e-10
4.54943e-10
2.6458e-10
3.72539e-10
8.3508e-10
1.60608e-10
9.94944e-10
5.89424e-10
7.74146e-11
-6.51451e-10
7.34116e-11
-9.19412e-10
-1.82493e-10
-4.4513e-10
-8.16287e-10
5.62007e-10
-1.92199e-09
1.94806e-09
-3.56688e-09
3.59076e-09
-5.79561e-09
5.39396e-09
-8.63385e-09
7.28336e-09
-1.20916e-08
9.20183e-09
-1.6166e-08
1.11056e-08
-2.08437e-08
1.29615e-08
-2.61034e-08
1.47439e-08
-3.1917e-08
1.6434e-08
-3.82514e-08
1.80172e-08
-4.50695e-08
1.94832e-08
-5.23316e-08
2.08242e-08
-5.99954e-08
2.20352e-08
-6.80175e-08
2.31126e-08
-7.63533e-08
2.40546e-08
-8.49577e-08
2.48606e-08
-9.37856e-08
2.55308e-08
-1.02792e-07
2.60664e-08
-1.11932e-07
2.64691e-08
-1.21162e-07
2.67413e-08
-1.30438e-07
2.68856e-08
-1.39719e-07
2.69053e-08
-1.48962e-07
2.68037e-08
-1.58129e-07
2.65844e-08
-1.67179e-07
2.62515e-08
-1.76076e-07
2.58089e-08
-1.84783e-07
2.52608e-08
-1.93265e-07
2.46116e-08
-2.01491e-07
2.38656e-08
-2.09426e-07
2.30274e-08
-2.17042e-07
2.21015e-08
-2.24311e-07
2.10926e-08
-2.31204e-07
2.00054e-08
-2.37696e-07
1.88446e-08
-2.43765e-07
1.76151e-08
-2.49387e-07
1.63218e-08
-2.54543e-07
1.49694e-08
-2.59214e-07
1.3563e-08
-2.63383e-07
1.21076e-08
-2.67035e-07
1.06083e-08
-2.70156e-07
9.07025e-09
-2.72736e-07
7.49855e-09
-2.74764e-07
5.89848e-09
-2.76232e-07
4.27538e-09
-2.77135e-07
2.63463e-09
-2.77468e-07
9.8169e-10
-2.77229e-07
-6.77918e-10
-2.76419e-07
-2.33859e-09
-2.75037e-07
-3.99465e-09
-2.73089e-07
-5.64038e-09
-2.7058e-07
-7.26997e-09
-2.67517e-07
-8.87755e-09
-2.63911e-07
-1.04572e-08
-2.59772e-07
-1.2003e-08
-2.55116e-07
-1.35089e-08
-2.49957e-07
-1.49689e-08
-2.44314e-07
-1.63769e-08
-2.38207e-07
-1.77269e-08
-2.31658e-07
-1.90129e-08
-2.2469e-07
-2.02288e-08
-2.17331e-07
-2.13688e-08
-2.09608e-07
-2.24268e-08
-2.01552e-07
-2.33973e-08
-1.93193e-07
-2.42743e-08
-1.84567e-07
-2.50526e-08
-1.75709e-07
-2.57266e-08
-1.66656e-07
-2.62913e-08
-1.57447e-07
-2.67418e-08
-1.48123e-07
-2.70734e-08
-1.38725e-07
-2.72818e-08
-1.29297e-07
-2.73631e-08
-1.19882e-07
-2.73136e-08
-1.10527e-07
-2.71304e-08
-1.01277e-07
-2.68107e-08
-9.21786e-08
-2.63525e-08
-8.32787e-08
-2.57546e-08
-7.46242e-08
-2.50162e-08
-6.62617e-08
-2.41376e-08
-5.82371e-08
-2.31201e-08
-5.05954e-08
-2.19659e-08
-4.33798e-08
-2.06789e-08
-3.66317e-08
-1.92643e-08
-3.03895e-08
-1.77296e-08
-2.46881e-08
-1.60844e-08
-1.95576e-08
-1.43414e-08
-1.50228e-08
-1.25171e-08
-1.11009e-08
-1.06326e-08
-7.80078e-09
-8.71514e-09
-5.12018e-09
-6.79948e-09
-3.0439e-09
-4.93044e-09
-1.54092e-09
-3.16552e-09
-5.61356e-10
-1.5785e-09
-3.29844e-11
-2.63795e-10
1.42699e-10
6.59398e-10
9.56722e-11
1.04197e-09
6.85097e-10
-1.08717e-11
-6.40615e-10
-2.37267e-10
-6.93001e-10
-8.29418e-10
1.47023e-10
-1.90254e-09
1.63514e-09
-3.54408e-09
3.58961e-09
-5.81739e-09
5.86406e-09
-8.76479e-09
8.34137e-09
-1.24105e-08
1.09291e-08
-1.67632e-08
1.35546e-08
-2.18186e-08
1.61611e-08
-2.75615e-08
1.87044e-08
-3.39678e-08
2.11502e-08
-4.10061e-08
2.34723e-08
-4.86394e-08
2.56505e-08
-5.68261e-08
2.76698e-08
-6.55209e-08
2.95191e-08
-7.46761e-08
3.11904e-08
-8.4242e-08
3.26785e-08
-9.41676e-08
3.39802e-08
-1.04401e-07
3.50942e-08
-1.14891e-07
3.60202e-08
-1.25584e-07
3.67596e-08
-1.36429e-07
3.73143e-08
-1.47375e-07
3.76872e-08
-1.58371e-07
3.7882e-08
-1.69369e-07
3.79028e-08
-1.80319e-07
3.7754e-08
-1.91175e-07
3.74407e-08
-2.01892e-07
3.69682e-08
-2.12425e-07
3.63419e-08
-2.22732e-07
3.55677e-08
-2.32772e-07
3.46516e-08
-2.42506e-07
3.35995e-08
-2.51897e-07
3.24179e-08
-2.60908e-07
3.11131e-08
-2.69507e-07
2.96916e-08
-2.77662e-07
2.816e-08
-2.85342e-07
2.65249e-08
-2.9252e-07
2.47931e-08
-2.9917e-07
2.29714e-08
-3.05267e-07
2.10668e-08
-3.1079e-07
1.90862e-08
-3.15719e-07
1.70367e-08
-3.20036e-07
1.49254e-08
-3.23726e-07
1.27596e-08
-3.26774e-07
1.05467e-08
-3.29169e-07
8.29389e-09
-3.30903e-07
6.00882e-09
-3.31967e-07
3.69906e-09
-3.32358e-07
1.37231e-09
-3.32072e-07
-9.63655e-10
-3.3111e-07
-3.30094e-09
-3.29473e-07
-5.63155e-09
-3.27166e-07
-7.94743e-09
-3.24195e-07
-1.02404e-08
-3.20571e-07
-1.25022e-08
-3.16303e-07
-1.47246e-08
-3.11407e-07
-1.68991e-08
-3.05899e-07
-1.90174e-08
-2.99797e-07
-2.10709e-08
-2.93122e-07
-2.30513e-08
-2.85899e-07
-2.495e-08
-2.78153e-07
-2.67586e-08
-2.69913e-07
-2.84687e-08
-2.6121e-07
-3.0072e-08
-2.52077e-07
-3.15604e-08
-2.42548e-07
-3.29256e-08
-2.32663e-07
-3.416e-08
-2.22459e-07
-3.52557e-08
-2.11981e-07
-3.62054e-08
-2.0127e-07
-3.70021e-08
-1.90373e-07
-3.76388e-08
-1.79337e-07
-3.81093e-08
-1.68211e-07
-3.84076e-08
-1.57046e-07
-3.85284e-08
-1.45893e-07
-3.84669e-08
-1.34804e-07
-3.82189e-08
-1.23834e-07
-3.7781e-08
-1.13036e-07
-3.71507e-08
-1.02464e-07
-3.63263e-08
-9.21728e-08
-3.53073e-08
-8.22161e-08
-3.40944e-08
-7.26465e-08
-3.26897e-08
-6.35154e-08
-3.1097e-08
-5.48724e-08
-2.93219e-08
-4.67644e-08
-2.73724e-08
-3.92348e-08
-2.52591e-08
-3.23231e-08
-2.29962e-08
-2.60631e-08
-2.06014e-08
-2.04824e-08
-1.80978e-08
-1.56007e-08
-1.55143e-08
-1.14282e-08
-1.28876e-08
-7.9638e-09
-1.02639e-08
-5.19284e-09
-7.70139e-09
-3.08518e-09
-5.27318e-09
-1.59244e-09
-3.07125e-09
-6.45332e-10
-1.2109e-09
-1.50658e-10
1.64727e-10
1.2468e-11
8.78848e-10
6.97561e-10
-1.08145e-10
-5.32453e-10
-5.83659e-10
-2.17478e-10
-1.55118e-09
1.11453e-09
-3.1099e-09
3.19387e-09
-5.3364e-09
5.81609e-09
-8.28645e-09
8.81413e-09
-1.19971e-08
1.20521e-08
-1.64888e-08
1.54207e-08
-2.17671e-08
1.88329e-08
-2.7825e-08
2.22189e-08
-3.46445e-08
2.55238e-08
-4.21985e-08
2.87042e-08
-5.04524e-08
3.17262e-08
-5.93652e-08
3.45634e-08
-6.88912e-08
3.71958e-08
-7.89804e-08
3.96083e-08
-8.95801e-08
4.179e-08
-1.00635e-07
4.37335e-08
-1.12089e-07
4.54338e-08
-1.23883e-07
4.68886e-08
-1.3596e-07
4.80973e-08
-1.48262e-07
4.90609e-08
-1.60729e-07
4.97818e-08
-1.73305e-07
5.02633e-08
-1.85933e-07
5.05099e-08
-1.98557e-07
5.05267e-08
-2.11122e-07
5.03194e-08
-2.23576e-07
4.98945e-08
-2.35867e-07
4.92587e-08
-2.47944e-07
4.84191e-08
-2.59759e-07
4.73834e-08
-2.71267e-07
4.61594e-08
-2.82423e-07
4.47549e-08
-2.93183e-07
4.31784e-08
-3.03508e-07
4.14381e-08
-3.13359e-07
3.95428e-08
-3.227e-07
3.7501e-08
-3.31497e-07
3.53217e-08
-3.39718e-07
3.30138e-08
-3.47333e-07
3.05864e-08
-3.54315e-07
2.80486e-08
-3.60638e-07
2.54099e-08
-3.66281e-07
2.26795e-08
-3.71223e-07
1.9867e-08
-3.75445e-07
1.69821e-08
-3.78933e-07
1.40345e-08
-3.81673e-07
1.10341e-08
-3.83655e-07
7.9909e-09
-3.84871e-07
4.915e-09
-3.85316e-07
1.81667e-09
-3.84986e-07
-1.29371e-09
-3.83881e-07
-4.40563e-09
-3.82004e-07
-7.50847e-09
-3.7936e-07
-1.05915e-08
-3.75957e-07
-1.36438e-08
-3.71804e-07
-1.66545e-08
-3.66916e-07
-1.96125e-08
-3.61309e-07
-2.25066e-08
-3.55001e-07
-2.53258e-08
-3.48013e-07
-2.80588e-08
-3.4037e-07
-3.06943e-08
-3.32098e-07
-3.32212e-08
-3.23229e-07
-3.56282e-08
-3.13793e-07
-3.79044e-08
-3.03826e-07
-4.00387e-08
-2.93367e-07
-4.20202e-08
-2.82454e-07
-4.38385e-08
-2.71131e-07
-4.54831e-08
-2.59442e-07
-4.69439e-08
-2.47437e-07
-4.82112e-08
-2.35163e-07
-4.92757e-08
-2.22673e-07
-5.01286e-08
-2.10021e-07
-5.07616e-08
-1.97261e-07
-5.11672e-08
-1.84452e-07
-5.13382e-08
-1.7165e-07
-5.12687e-08
-1.58915e-07
-5.09533e-08
-1.46309e-07
-5.03878e-08
-1.3389e-07
-4.95692e-08
-1.21721e-07
-4.84956e-08
-1.09861e-07
-4.71668e-08
-9.83719e-08
-4.5584e-08
-8.73111e-08
-4.37505e-08
-7.67363e-08
-4.16717e-08
-6.67026e-08
-3.93556e-08
-5.72618e-08
-3.68132e-08
-4.84621e-08
-3.40589e-08
-4.03468e-08
-3.11114e-08
-3.29536e-08
-2.79946e-08
-2.63131e-08
-2.47383e-08
-2.04477e-08
-2.13797e-08
-1.53699e-08
-1.79654e-08
-1.10809e-08
-1.45529e-08
-7.5686e-09
-1.12137e-08
-4.80609e-09
-8.03569e-09
-2.7494e-09
-5.12794e-09
-1.33575e-09
-2.62456e-09
-4.81554e-10
-6.89466e-10
-8.04019e-11
4.77692e-10
6.17155e-10
-2.0931e-10
-3.23167e-10
-9.48637e-10
5.21871e-10
-2.31547e-09
2.48136e-09
-4.39001e-09
5.26842e-09
-7.23497e-09
8.66107e-09
-1.0896e-08
1.24751e-08
-1.54024e-08
1.65585e-08
-2.07689e-08
2.07872e-08
-2.69963e-08
2.50602e-08
-3.40736e-08
2.92962e-08
-4.19792e-08
3.34295e-08
-5.06826e-08
3.74076e-08
-6.01453e-08
4.11889e-08
-7.03228e-08
4.47409e-08
-8.11651e-08
4.8038e-08
-9.26179e-08
5.10611e-08
-1.04624e-07
5.37959e-08
-1.17123e-07
5.62324e-08
-1.30053e-07
5.8364e-08
-1.43351e-07
6.01869e-08
-1.56954e-07
6.16999e-08
-1.70797e-07
6.29038e-08
-1.84816e-07
6.38012e-08
-1.98949e-07
6.43958e-08
-2.13132e-07
6.46929e-08
-2.27304e-07
6.46987e-08
-2.41404e-07
6.44202e-08
-2.55375e-07
6.38652e-08
-2.69159e-07
6.30421e-08
-2.82699e-07
6.196e-08
-2.95944e-07
6.06281e-08
-3.08841e-07
5.90563e-08
-3.21341e-07
5.72547e-08
-3.33396e-07
5.52338e-08
-3.44962e-07
5.3004e-08
-3.55996e-07
5.05765e-08
-3.66457e-07
4.79621e-08
-3.76307e-07
4.51723e-08
-3.85512e-07
4.22183e-08
-3.94037e-07
3.91117e-08
-4.01853e-07
3.58644e-08
-4.08931e-07
3.24882e-08
-4.15247e-07
2.89951e-08
-4.20777e-07
2.53972e-08
-4.25502e-07
2.17069e-08
-4.29404e-07
1.79368e-08
-4.32469e-07
1.40993e-08
-4.34686e-07
1.02074e-08
-4.36045e-07
6.27386e-09
-4.3654e-07
2.31192e-09
-4.36169e-07
-1.66518e-09
-4.3493e-07
-5.64403e-09
-4.32828e-07
-9.61104e-09
-4.29867e-07
-1.35525e-08
-4.26056e-07
-1.74545e-08
-4.21407e-07
-2.13032e-08
-4.15935e-07
-2.50843e-08
-4.09658e-07
-2.87838e-08
-4.02596e-07
-3.23874e-08
-3.94774e-07
-3.58808e-08
-3.86219e-07
-3.92498e-08
-3.7696e-07
-4.248e-08
-3.67031e-07
-4.55574e-08
-3.56468e-07
-4.84677e-08
-3.45309e-07
-5.11972e-08
-3.33597e-07
-5.3732e-08
-3.21377e-07
-5.60588e-08
-3.08696e-07
-5.81645e-08
-2.95603e-07
-6.00362e-08
-2.82152e-07
-6.16619e-08
-2.68398e-07
-6.30297e-08
-2.54398e-07
-6.41286e-08
-2.40212e-07
-6.49483e-08
-2.259e-07
-6.54793e-08
-2.11525e-07
-6.57129e-08
-1.97152e-07
-6.56416e-08
-1.82846e-07
-6.5259e-08
-1.68674e-07
-6.45601e-08
-1.54702e-07
-6.35412e-08
-1.40997e-07
-6.22006e-08
-1.27626e-07
-6.05381e-08
-1.14654e-07
-5.85559e-08
-1.02146e-07
-5.62586e-08
-9.01639e-08
-5.36535e-08
-7.87684e-08
-5.07511e-08
-6.80158e-08
-4.75657e-08
-5.79586e-08
-4.41161e-08
-4.86443e-08
-4.04258e-08
-4.01139e-08
-3.65249e-08
-3.24018e-08
-3.24504e-08
-2.55335e-08
-2.82481e-08
-1.95248e-08
-2.39741e-08
-1.43804e-08
-1.96973e-08
-1.00925e-08
-1.55015e-08
-6.63923e-09
-1.1489e-08
-3.98346e-09
-7.78371e-09
-2.07159e-09
-4.53643e-09
-8.32609e-10
-1.92845e-09
-1.77651e-10
-1.77273e-10
4.39504e-10
-3.11269e-10
-1.18905e-11
-1.32113e-09
1.53175e-09
-3.10027e-09
4.26048e-09
-5.70865e-09
7.87679e-09
-9.1934e-09
1.21458e-08
-1.35881e-08
1.68698e-08
-1.89127e-08
2.18832e-08
-2.51743e-08
2.70488e-08
-3.23678e-08
3.22538e-08
-4.04771e-08
3.74055e-08
-4.94761e-08
4.24284e-08
-5.933e-08
4.72614e-08
-6.99964e-08
5.18554e-08
-8.14267e-08
5.61712e-08
-9.35668e-08
6.01781e-08
-1.06358e-07
6.38526e-08
-1.19739e-07
6.71769e-08
-1.33645e-07
7.01383e-08
-1.48009e-07
7.27281e-08
-1.62764e-07
7.49412e-08
-1.7784e-07
7.67757e-08
-1.93168e-07
7.8232e-08
-2.08679e-07
7.93125e-08
-2.24305e-07
8.00218e-08
-2.39978e-07
8.03656e-08
-2.5563e-07
8.03514e-08
-2.71198e-07
7.99875e-08
-2.86616e-07
7.92831e-08
-3.01822e-07
7.82484e-08
-3.16756e-07
7.68942e-08
-3.3136e-07
7.5232e-08
-3.45577e-07
7.32736e-08
-3.59354e-07
7.10314e-08
-3.72638e-07
6.85182e-08
-3.85381e-07
6.57471e-08
-3.97536e-07
6.27314e-08
-4.09059e-07
5.94848e-08
-4.19908e-07
5.60211e-08
-4.30044e-07
5.23544e-08
-4.39431e-07
4.84991e-08
-4.48037e-07
4.44697e-08
-4.55829e-07
4.02808e-08
-4.62781e-07
3.59473e-08
-4.68868e-07
3.14844e-08
-4.74069e-07
2.69072e-08
-4.78363e-07
2.22313e-08
-4.81736e-07
1.74723e-08
-4.84175e-07
1.2646e-08
-4.85669e-07
7.7685e-09
-4.86214e-07
2.85603e-09
-4.85804e-07
-2.07497e-09
-4.8444e-07
-7.00789e-09
-4.82125e-07
-1.19259e-08
-4.78865e-07
-1.68121e-08
-4.74671e-07
-2.16492e-08
-4.69554e-07
-2.64201e-08
-4.63531e-07
-3.11072e-08
-4.56622e-07
-3.56932e-08
-4.48849e-07
-4.01603e-08
-4.40239e-07
-4.4491e-08
-4.30821e-07
-4.86677e-08
-4.20628e-07
-5.26728e-08
-4.09697e-07
-5.64888e-08
-3.98066e-07
-6.00984e-08
-3.85779e-07
-6.34845e-08
-3.7288e-07
-6.66302e-08
-3.5942e-07
-6.9519e-08
-3.4545e-07
-7.21349e-08
-3.31024e-07
-7.44623e-08
-3.16199e-07
-7.64862e-08
-3.01037e-07
-7.81924e-08
-2.85598e-07
-7.95673e-08
-2.69948e-07
-8.05985e-08
-2.54153e-07
-8.12743e-08
-2.38281e-07
-8.15845e-08
-2.22403e-07
-8.15199e-08
-2.06589e-07
-8.10731e-08
-1.90911e-07
-8.02382e-08
-1.75441e-07
-7.90111e-08
-1.60251e-07
-7.73898e-08
-1.45415e-07
-7.53748e-08
-1.31002e-07
-7.2969e-08
-1.17082e-07
-7.01786e-08
-1.03722e-07
-6.7013e-08
-9.09879e-08
-6.34854e-08
-7.89399e-08
-5.96138e-08
-6.76348e-08
-5.54211e-08
-5.71243e-08
-5.09364e-08
-4.74534e-08
-4.61958e-08
-3.86602e-08
-4.12436e-08
-3.07743e-08
-3.6134e-08
-2.38156e-08
-3.09328e-08
-1.77936e-08
-2.57193e-08
-1.27059e-08
-2.05892e-08
-8.53752e-09
-1.56573e-08
-5.25987e-09
-1.10614e-08
-2.83038e-09
-6.96592e-09
-1.19244e-09
-3.56639e-09
-2.76099e-10
-1.09362e-09
1.63407e-10
-4.12228e-10
4.00321e-10
-1.69407e-09
2.8136e-09
-3.8908e-09
6.45722e-09
-7.04203e-09
1.1028e-08
-1.11785e-08
1.62823e-08
-1.63205e-08
2.20118e-08
-2.24774e-08
2.80401e-08
-2.96475e-08
3.42189e-08
-3.78186e-08
4.04249e-08
-4.69683e-08
4.65552e-08
-5.70653e-08
5.25254e-08
-6.807e-08
5.82661e-08
-7.99356e-08
6.37209e-08
-9.2609e-08
6.88446e-08
-1.06032e-07
7.36011e-08
-1.20142e-07
7.79625e-08
-1.34872e-07
8.19075e-08
-1.50155e-07
8.54205e-08
-1.65917e-07
8.84908e-08
-1.82088e-07
9.1112e-08
-1.98593e-07
9.3281e-08
-2.15359e-07
9.49978e-08
-2.32312e-07
9.62651e-08
-2.49378e-07
9.70877e-08
-2.66484e-07
9.74723e-08
-2.8356e-07
9.74272e-08
-3.00535e-07
9.69621e-08
-3.1734e-07
9.60879e-08
-3.33908e-07
9.48166e-08
-3.50175e-07
9.31609e-08
-3.66077e-07
9.11343e-08
-3.81554e-07
8.87511e-08
-3.96549e-07
8.6026e-08
-4.11005e-07
8.29742e-08
-4.24869e-07
7.96115e-08
-4.38092e-07
7.59538e-08
-4.50625e-07
7.20176e-08
-4.62423e-07
6.78195e-08
-4.73445e-07
6.33766e-08
-4.83652e-07
5.8706e-08
-4.93008e-07
5.38253e-08
-5.01479e-07
4.87522e-08
-5.09036e-07
4.35046e-08
-5.15653e-07
3.81009e-08
-5.21305e-07
3.25595e-08
-5.25973e-07
2.68989e-08
-5.29639e-07
2.11382e-08
-5.32289e-07
1.52965e-08
-5.33914e-07
9.39311e-09
-5.34506e-07
3.44776e-09
-5.34061e-07
-2.51975e-09
-5.32579e-07
-8.48934e-09
-5.30065e-07
-1.44407e-08
-5.26523e-07
-2.03534e-08
-5.21966e-07
-2.62066e-08
-5.16406e-07
-3.19797e-08
-5.09862e-07
-3.76515e-08
-5.02354e-07
-4.32009e-08
-4.93908e-07
-4.86069e-08
-4.84551e-07
-5.38481e-08
-4.74315e-07
-5.89034e-08
-4.63236e-07
-6.37516e-08
-4.51353e-07
-6.83718e-08
-4.38708e-07
-7.2743e-08
-4.25348e-07
-7.68449e-08
-4.11321e-07
-8.06571e-08
-3.9668e-07
-8.41598e-08
-3.81481e-07
-8.7334e-08
-3.65783e-07
-9.01608e-08
-3.49646e-07
-9.26225e-08
-3.33137e-07
-9.4702e-08
-3.16321e-07
-9.63832e-08
-2.99268e-07
-9.76514e-08
-2.82049e-07
-9.84928e-08
-2.64739e-07
-9.88953e-08
-2.4741e-07
-9.88482e-08
-2.30141e-07
-9.83429e-08
-2.13006e-07
-9.73724e-08
-1.96085e-07
-9.59324e-08
-1.79454e-07
-9.40209e-08
-1.6319e-07
-9.16387e-08
-1.47369e-07
-8.87899e-08
-1.32066e-07
-8.5482e-08
-1.17352e-07
-8.17268e-08
-1.03297e-07
-7.75405e-08
-8.99659e-08
-7.29447e-08
-7.74203e-08
-6.79667e-08
-6.57158e-08
-6.2641e-08
-5.49017e-08
-5.70098e-08
-4.50205e-08
-5.11248e-08
-3.61063e-08
-4.50482e-08
-2.81842e-08
-3.88549e-08
-2.12693e-08
-3.26342e-08
-1.5366e-08
-2.64925e-08
-1.04672e-08
-2.05561e-08
-6.55432e-09
-1.49743e-08
-3.59694e-09
-9.9233e-09
-1.55374e-09
-5.60959e-09
-3.73868e-10
-2.27349e-09
-2.10463e-10
-5.1125e-10
9.11557e-10
-2.06309e-09
4.36543e-09
-4.67739e-09
9.07152e-09
-8.37399e-09
1.47246e-08
-1.3167e-08
2.10753e-08
-1.9063e-08
2.79078e-08
-2.60597e-08
3.50368e-08
-3.41459e-08
4.23051e-08
-4.33011e-08
4.95801e-08
-5.34962e-08
5.67503e-08
-6.46936e-08
6.37228e-08
-7.68483e-08
7.04208e-08
-8.99086e-08
7.67813e-08
-1.03817e-07
8.27528e-08
-1.1851e-07
8.82945e-08
-1.33922e-07
9.3374e-08
-1.49981e-07
9.79666e-08
-1.66614e-07
1.02054e-07
-1.83746e-07
1.05623e-07
-2.013e-07
1.08666e-07
-2.19199e-07
1.11179e-07
-2.37362e-07
1.13162e-07
-2.55713e-07
1.14616e-07
-2.74174e-07
1.15548e-07
-2.92667e-07
1.15965e-07
-3.11117e-07
1.15877e-07
-3.29448e-07
1.15293e-07
-3.47588e-07
1.14228e-07
-3.65466e-07
1.12694e-07
-3.83013e-07
1.10707e-07
-4.00161e-07
1.08283e-07
-4.16847e-07
1.05437e-07
-4.33008e-07
1.02187e-07
-4.48586e-07
9.85517e-08
-4.63523e-07
9.45486e-08
-4.77766e-07
9.01969e-08
-4.91264e-07
8.55158e-08
-5.0397e-07
8.05251e-08
-5.15838e-07
7.52448e-08
-5.26827e-07
6.96952e-08
-5.36899e-07
6.38972e-08
-5.46018e-07
5.78715e-08
-5.54153e-07
5.16396e-08
-5.61275e-07
4.5223e-08
-5.67359e-07
3.86435e-08
-5.72384e-07
3.19232e-08
-5.7633e-07
2.50845e-08
-5.79184e-07
1.81502e-08
-5.80934e-07
1.11431e-08
-5.81573e-07
4.08657e-09
-5.81096e-07
-2.99599e-09
-5.79505e-07
-1.00808e-08
-5.76802e-07
-1.71438e-08
-5.72994e-07
-2.41608e-08
-5.68093e-07
-3.11074e-08
-5.62114e-07
-3.79588e-08
-5.55076e-07
-4.46903e-08
-5.47e-07
-5.12769e-08
-5.37913e-07
-5.76936e-08
-5.27846e-07
-6.39154e-08
-5.16832e-07
-6.99173e-08
-5.04909e-07
-7.56743e-08
-4.92119e-07
-8.11616e-08
-4.78507e-07
-8.63548e-08
-4.64123e-07
-9.12297e-08
-4.49017e-07
-9.57624e-08
-4.33248e-07
-9.99297e-08
-4.16872e-07
-1.03709e-07
-3.99955e-07
-1.07079e-07
-3.8256e-07
-1.10017e-07
-3.64757e-07
-1.12505e-07
-3.46616e-07
-1.14524e-07
-3.28212e-07
-1.16056e-07
-3.0962e-07
-1.17085e-07
-2.90919e-07
-1.17597e-07
-2.72187e-07
-1.1758e-07
-2.53506e-07
-1.17024e-07
-2.34957e-07
-1.15921e-07
-2.16622e-07
-1.14267e-07
-1.98584e-07
-1.12059e-07
-1.80923e-07
-1.09299e-07
-1.63722e-07
-1.05991e-07
-1.47058e-07
-1.02146e-07
-1.31008e-07
-9.77767e-08
-1.15646e-07
-9.29025e-08
-1.01042e-07
-8.75487e-08
-8.72614e-08
-8.17472e-08
-7.43646e-08
-7.55378e-08
-6.24055e-08
-6.89688e-08
-5.14315e-08
-6.20988e-08
-4.14819e-08
-5.49978e-08
-3.25876e-08
-4.77492e-08
-2.47704e-08
-4.04515e-08
-1.80421e-08
-3.32208e-08
-1.24047e-08
-2.61935e-08
-7.85027e-09
-1.95287e-08
-4.3613e-09
-1.34123e-08
-1.91192e-09
-8.05897e-09
-4.69883e-10
-3.71554e-09
-6.8035e-10
-6.07768e-10
1.51933e-09
-2.42558e-09
6.18325e-09
-5.45396e-09
1.20999e-08
-9.69392e-09
1.89646e-08
-1.51433e-08
2.65246e-08
-2.17945e-08
3.4559e-08
-2.96335e-08
4.28758e-08
-3.86387e-08
5.13103e-08
-4.87808e-08
5.97222e-08
-6.0023e-08
6.79924e-08
-7.23211e-08
7.60209e-08
-8.5624e-08
8.37238e-08
-9.98747e-08
9.10319e-08
-1.1501e-07
9.78885e-08
-1.30964e-07
1.04248e-07
-1.47663e-07
1.10073e-07
-1.65033e-07
1.15337e-07
-1.82997e-07
1.20018e-07
-2.01474e-07
1.241e-07
-2.20384e-07
1.27576e-07
-2.39645e-07
1.3044e-07
-2.59173e-07
1.3269e-07
-2.78887e-07
1.3433e-07
-2.98704e-07
1.35366e-07
-3.18544e-07
1.35805e-07
-3.38325e-07
1.35658e-07
-3.5797e-07
1.34938e-07
-3.77401e-07
1.33659e-07
-3.96544e-07
1.31837e-07
-4.15325e-07
1.29489e-07
-4.33675e-07
1.26632e-07
-4.51524e-07
1.23286e-07
-4.68807e-07
1.19471e-07
-4.85463e-07
1.15207e-07
-5.01431e-07
1.10516e-07
-5.16654e-07
1.0542e-07
-5.31079e-07
9.99405e-08
-5.44654e-07
9.41009e-08
-5.57334e-07
8.79244e-08
-5.69074e-07
8.14347e-08
-5.79832e-07
7.46558e-08
-5.89573e-07
6.76121e-08
-5.98262e-07
6.03285e-08
-6.05869e-07
5.28299e-08
-6.12367e-07
4.51419e-08
-6.17734e-07
3.72902e-08
-6.2195e-07
2.93008e-08
-6.25e-07
2.12002e-08
-6.26872e-07
1.30152e-08
-6.27559e-07
4.77267e-09
-6.27055e-07
-3.49992e-09
-6.2536e-07
-1.17749e-08
-6.2248e-07
-2.00244e-08
-6.18421e-07
-2.82202e-08
-6.13194e-07
-3.63337e-08
-6.06817e-07
-4.43364e-08
-5.99307e-07
-5.21995e-08
-5.9069e-07