/*--------------------------------*- C++ -*----------------------------------*\
| =========                 |                                                 |
| \\      /  F ield         | OpenFOAM: The Open Source CFD Toolbox           |
|  \\    /   O peration     | Version:  2212                                  |
|   \\  /    A nd           | Website:  www.openfoam.com                      |
|    \\/     M anipulation  |                                                 |
\*---------------------------------------------------------------------------*/
FoamFile
{
    version     2.0;
    format      ascii;
    arch        "LSB;label=32;scalar=64";
    class       volScalarField;
    location    "0.096";
    object      p;
}
// * * * * * * * * * * * * * * * * * * * * * * * * * * * * * * * * * * * * * //

dimensions      [0 2 -2 0 0 0 0];

internalField   nonuniform List<scalar> 
10000
(
-2.84456e-07
9.35967e-05
-0.000127549
-0.000708519
-0.00160041
-0.00274767
-0.00409394
-0.00558515
-0.00717231
-0.00881211
-0.0104665
-0.0121023
-0.0136907
-0.0152064
-0.016628
-0.0179366
-0.0191163
-0.0201536
-0.0210369
-0.0217569
-0.022306
-0.0226779
-0.0228681
-0.0228732
-0.0226911
-0.0223209
-0.0217627
-0.0210176
-0.0200875
-0.0189751
-0.0176839
-0.016218
-0.0145824
-0.0127825
-0.0108243
-0.00871437
-0.00645985
-0.00406821
-0.00154742
0.0010942
0.00384789
0.00670455
0.00965479
0.0126889
0.0157968
0.0189685
0.0221935
0.0254612
0.0287607
0.0320809
0.0354109
0.0387395
0.0420553
0.0453471
0.0486037
0.0518138
0.054966
0.0580494
0.0610527
0.0639653
0.0667766
0.0694762
0.0720543
0.0745013
0.0768081
0.0789658
0.0809662
0.0828017
0.0844653
0.0859509
0.087253
0.0883669
0.0892887
0.0900156
0.0905456
0.0908782
0.0910137
0.0909536
0.0907011
0.0902604
0.0896376
0.08884
0.0878772
0.0867601
0.0855022
0.0841186
0.0826272
0.0810482
0.0794052
0.0777247
0.0760366
0.0743751
0.0727786
0.0712903
0.0699584
0.0688351
0.0679737
0.0674249
0.0672311
0.0673401
-9.40482e-05
2.88625e-07
-0.000214412
-0.00073331
-0.00150615
-0.00249388
-0.00365527
-0.00494757
-0.00633016
-0.00776579
-0.00922084
-0.0106653
-0.0120724
-0.0134187
-0.0146835
-0.015849
-0.0168997
-0.0178222
-0.0186053
-0.0192395
-0.0197171
-0.0200318
-0.0201787
-0.0201541
-0.0199556
-0.0195821
-0.0190331
-0.0183094
-0.0174125
-0.0163445
-0.0151087
-0.0137086
-0.0121488
-0.0104341
-0.00857007
-0.00656293
-0.00441919
-0.00214585
0.000249592
0.0027593
0.00537502
0.00808815
0.0108899
0.0137709
0.0167219
0.0197332
0.0227948
0.0258967
0.0290286
0.03218
0.0353405
0.0384993
0.041646
0.0447697
0.0478599
0.0509057
0.0538966
0.056822
0.0596716
0.062435
0.0651025
0.0676644
0.0701114
0.0724344
0.074625
0.0766749
0.0785766
0.080323
0.0819078
0.0833253
0.0845706
0.0856396
0.0865287
0.0872357
0.0877591
0.0880985
0.0882548
0.0882299
0.0880269
0.0876505
0.0871067
0.086403
0.0855487
0.0845548
0.0834341
0.0822016
0.0808741
0.0794712
0.0780149
0.0765297
0.0750435
0.0735868
0.0721937
0.0709011
0.0697489
0.068778
0.0680273
0.0675325
0.0673395
0.067449
0.000126738
0.000215775
1.32809e-06
-0.000485692
-0.00119088
-0.00208175
-0.00312484
-0.00428457
-0.00552641
-0.00681793
-0.0081293
-0.00943338
-0.0107057
-0.0119245
-0.0130702
-0.014126
-0.0150769
-0.0159103
-0.016615
-0.0171819
-0.0176032
-0.0178725
-0.017985
-0.0179367
-0.0177253
-0.0173491
-0.0168076
-0.0161012
-0.0152312
-0.0141993
-0.0130084
-0.0116618
-0.0101635
-0.00851822
-0.00673104
-0.0048077
-0.00275436
-0.000577611
0.00171545
0.00411736
0.00662029
0.00921608
0.0118963
0.0146522
0.0174748
0.0203548
0.0232829
0.0262494
0.0292443
0.0322578
0.0352797
0.0383001
0.0413086
0.0442952
0.0472497
0.0501617
0.0530212
0.0558181
0.0585425
0.0611847
0.0637355
0.0661856
0.0685262
0.0707489
0.0728454
0.0748082
0.0766301
0.0783046
0.0798258
0.0811885
0.0823881
0.0834208
0.0842837
0.0849746
0.0854924
0.0858372
0.0860098
0.0860124
0.0858483
0.0855222
0.0850401
0.0844094
0.0836393
0.0827403
0.081725
0.0806075
0.079404
0.078133
0.0768149
0.0754728
0.0741318
0.0728197
0.0715666
0.0704047
0.0693679
0.0684904
0.0678037
0.0673379
0.0671456
0.067256
0.000706621
0.000735515
0.000489256
1.47444e-06
-0.000677606
-0.0015186
-0.00249236
-0.00356813
-0.00471597
-0.00590746
-0.00711605
-0.00831727
-0.00948887
-0.0106107
-0.0116648
-0.0126352
-0.0135078
-0.0142704
-0.0149126
-0.0154254
-0.0158013
-0.0160339
-0.0161184
-0.0160511
-0.0158292
-0.0154512
-0.0149163
-0.0142248
-0.0133775
-0.0123763
-0.0112235
-0.00992226
-0.00847631
-0.00688996
-0.00516808
-0.00331601
-0.00133959
0.000754889
0.00296074
0.0052708
0.00767761
0.0101734
0.01275
0.0153992
0.0181123
0.0208806
0.0236948
0.0265458
0.0294242
0.0323202
0.0352243
0.0381268
0.0410179
0.0438879
0.046727
0.0495255
0.0522735
0.0549614
0.0575799
0.0601197
0.0625717
0.0649274
0.0671783
0.0693163
0.0713336
0.0732231
0.074978
0.0765921
0.0780599
0.0793765
0.0805377
0.08154
0.0823807
0.0830579
0.0835707
0.0839194
0.0841049
0.0841294
0.0839963
0.0837104
0.0832775
0.0827048
0.0820011
0.0811768
0.0802436
0.079215
0.0781063
0.0769348
0.0757196
0.0744819
0.0732447
0.0720329
0.0708735
0.0697947
0.068826
0.0679972
0.067336
0.0668701
0.06665
0.0667094
0.00159853
0.00151092
0.00119663
0.000679896
-1.58608e-06
-0.000821655
-0.00175467
-0.00277425
-0.00385444
-0.00497048
-0.00609892
-0.0072179
-0.0083073
-0.00934881
-0.0103259
-0.0112237
-0.0120292
-0.0127308
-0.0133188
-0.0137843
-0.0141204
-0.0143208
-0.0143809
-0.014297
-0.0140663
-0.0136872
-0.0131589
-0.0124815
-0.0116557
-0.010683
-0.00956571
-0.00830669
-0.00690943
-0.00537794
-0.0037168
-0.00193106
-2.62262e-05
0.00199167
0.00411626
0.00634078
0.00865804
0.0110606
0.0135408
0.0160906
0.0187018
0.0213659
0.0240742
0.0268178
0.0295875
0.0323743
0.0351688
0.0379618
0.0407438
0.0435056
0.0462377
0.0489307
0.0515753
0.0541624
0.0566827
0.0591276
0.0614885
0.0637569
0.0659249
0.0679848
0.0699292
0.0717511
0.0734442
0.0750027
0.0764214
0.0776956
0.0788214
0.0797955
0.0806155
0.0812797
0.0817874
0.0821389
0.0823352
0.0823787
0.0822726
0.0820215
0.0816312
0.0811087
0.0804622
0.0797017
0.0788382
0.0778846
0.0768551
0.0757657
0.0746341
0.0734796
0.0723232
0.0711871
0.0700951
0.0690721
0.0681438
0.0673359
0.0666732
0.0661805
0.0658976
0.0658504
0.00275015
0.00250563
0.00209321
0.00152222
0.000813006
-1.16398e-05
-0.00092917
-0.00191717
-0.00295341
-0.00401639
-0.00508554
-0.00614149
-0.00716623
-0.00814325
-0.0090575
-0.0098954
-0.0106449
-0.0112952
-0.011837
-0.0122623
-0.0125643
-0.0127373
-0.0127766
-0.0126787
-0.012441
-0.0120617
-0.0115401
-0.0108761
-0.0100703
-0.00912425
-0.00803989
-0.00681993
-0.00546767
-0.00398686
-0.0023818
-0.000657306
0.00118141
0.00312862
0.00517816
0.00732364
0.00955821
0.0118747
0.0142658
0.0167239
0.019241
0.0218089
0.0244194
0.0270639
0.0297335
0.0324195
0.035113
0.0378051
0.0404867
0.0431488
0.0457824
0.0483786
0.0509282
0.0534226
0.055853
0.0582109
0.0604882
0.0626768
0.064769
0.0667574
0.068635
0.0703952
0.072032
0.0735397
0.0749135
0.0761489
0.0772423
0.0781905
0.0789914
0.0796433
0.0801457
0.0804989
0.080704
0.0807632
0.0806798
0.0804583
0.080104
0.0796238
0.0790253
0.078318
0.0775123
0.0766201
0.0756547
0.0746307
0.0735645
0.0724736
0.0713766
0.0702936
0.0692455
0.068254
0.0673414
0.0665297
0.0658409
0.065297
0.0649217
0.0647272
0.00410929
0.00368161
0.00314832
0.0025018
0.00174287
0.000891208
-3.3385e-05
-0.00101206
-0.00202595
-0.00305653
-0.00408589
-0.00509699
-0.00607385
-0.00700168
-0.00786692
-0.00865728
-0.00936167
-0.00997024
-0.0104743
-0.0108665
-0.0111404
-0.0112907
-0.0113129
-0.0112038
-0.0109609
-0.0105824
-0.0100676
-0.00941642
-0.00862938
-0.00770783
-0.00665373
-0.00546957
-0.00415844
-0.00272394
-0.0011701
0.000498504
0.00227685
0.00415951
0.0061406
0.00821394
0.010373
0.012611
0.0149208
0.0172951
0.0197264
0.0222067
0.0247281
0.0272822
0.0298606
0.0324549
0.0350565
0.0376567
0.040247
0.0428186
0.0453628
0.047871
0.0503346
0.052745
0.0550939
0.0573731
0.0595749
0.0616913
0.0637151
0.065639
0.0674565
0.0691611
0.070747
0.0722091
0.0735424
0.0747427
0.0758067
0.0767314
0.0775147
0.078155
0.0786519
0.0790056
0.0792174
0.0792892
0.0792243
0.0790269
0.0787021
0.0782562
0.0776966
0.077032
0.0762723
0.0754282
0.0745122
0.0735377
0.0725195
0.0714734
0.0704161
0.0693653
0.0683393
0.0673572
0.066438
0.0656005
0.0648641
0.0642481
0.0637578
0.0633892
0.00562681
0.00500006
0.00432959
0.00359077
0.00276423
0.00186688
0.000916287
-7.19998e-05
-0.00108215
-0.00209831
-0.00310498
-0.00408733
-0.0050313
-0.00592376
-0.00675258
-0.00750671
-0.00817613
-0.00875186
-0.009226
-0.00959169
-0.00984305
-0.00997517
-0.00998401
-0.00986642
-0.00962005
-0.00924336
-0.00873557
-0.00809659
-0.00732704
-0.00642816
-0.00540182
-0.0042504
-0.00297679
-0.00158443
-7.71836e-05
0.00154058
0.00326407
0.00508804
0.0070069
0.00901471
0.0111052
0.0132718
0.0155078
0.0178061
0.0201595
0.0225603
0.0250008
0.0274729
0.0299687
0.0324799
0.0349982
0.0375154
0.0400231
0.0425129
0.0449764
0.0474053
0.0497912
0.0521259
0.0544015
0.05661
0.0587438
0.0607954
0.0627578
0.0646239
0.0663875
0.0680423
0.0695827
0.0710038
0.0723007
0.0734697
0.0745072
0.0754106
0.0761777
0.0768071
0.0772983
0.0776515
0.0778679
0.0779494
0.077899
0.0777206
0.077419
0.0770002
0.0764711
0.0758396
0.0751149
0.0743069
0.0734271
0.0724876
0.0715018
0.0704838
0.0694486
0.0684117
0.0673893
0.0663976
0.065453
0.0645712
0.0637695
0.0630647
0.0624427
0.0618834
0.00725893
0.00642455
0.00560597
0.00476216
0.0038539
0.00289574
0.00190339
0.000889559
-0.000132676
-0.00114988
-0.00214879
-0.00311655
-0.00404091
-0.00491032
-0.00571407
-0.00644226
-0.00708592
-0.00763697
-0.00808828
-0.00843364
-0.00866768
-0.00878595
-0.00878475
-0.00866118
-0.0084131
-0.00803912
-0.00753854
-0.00691134
-0.00615815
-0.00528018
-0.00427925
-0.00315763
-0.00191813
-0.000563989
0.000901069
0.00247281
0.00414666
0.00591758
0.00778016
0.00972873
0.0117572
0.0138594
0.0160287
0.0182584
0.0205414
0.0228705
0.025238
0.0276363
0.0300575
0.0324939
0.0349373
0.0373798
0.0398132
0.0422296
0.0446207
0.0469784
0.0492948
0.0515619
0.0537719
0.0559172
0.0579904
0.0599842
0.0618918
0.0637066
0.0654222
0.0670327
0.0685327
0.0699173
0.0711819
0.0723229
0.0733368
0.074221
0.0749733
0.0755924
0.0760778
0.0764296
0.0766488
0.0767372
0.0766976
0.0765335
0.0762496
0.0758512
0.0753447
0.0747375
0.0740379
0.0732552
0.0723996
0.0714821
0.0705149
0.0695104
0.068482
0.0674432
0.0664082
0.0653909
0.064405
0.0634638
0.0625826
0.0617761
0.0610113
0.0602521
0.0089677
0.00792209
0.00694863
0.00599057
0.00498966
0.00395856
0.00291157
0.00185887
0.000811125
-0.00022042
-0.0012245
-0.00219008
-0.00310656
-0.00396393
-0.00475275
-0.00546429
-0.00609059
-0.00662445
-0.00705951
-0.0073902
-0.00761175
-0.00772013
-0.00771202
-0.00758482
-0.00733662
-0.00696621
-0.00647302
-0.00585713
-0.0051192
-0.00426047
-0.00328269
-0.00218809
-0.00097937
0.000340326
0.00176741
0.00329779
0.00492704
0.00665032
0.00846241
0.0103578
0.0123307
0.0143751
0.0164847
0.0186528
0.0208728
0.0231375
0.0254397
0.0277719
0.0301266
0.0324961
0.0348727
0.0372485
0.0396158
0.0419668
0.0442935
0.0465881
0.0488428
0.0510499
0.0532018
0.0552912
0.0573108
0.0592536
0.061113
0.0628825
0.0645559
0.0661275
0.0675919
0.0689445
0.0701808
0.071297
0.07229
0.0731571
0.073896
0.0745056
0.0749851
0.0753347
0.0755551
0.075648
0.0756157
0.0754618
0.0751903
0.0748062
0.0743154
0.0737245
0.0730412
0.0722738
0.0714317
0.0705247
0.0695637
0.0685599
0.0675248
0.0664705
0.0654091
0.0643526
0.0633124
0.0622993
0.0613275
0.0604099
0.0594952
0.0585319
0.0107203
0.00946324
0.0083311
0.00725238
0.0061506
0.00503705
0.00392497
0.00282236
0.00173777
0.000680545
-0.000339846
-0.00131405
-0.002233
-0.00308803
-0.00387096
-0.00457417
-0.00519066
-0.00571412
-0.0061389
-0.00646012
-0.00667358
-0.00677571
-0.00676357
-0.00663486
-0.00638798
-0.00602191
-0.00553623
-0.00493114
-0.00420739
-0.00336623
-0.00240942
-0.0013391
-0.000157954
0.00113094
0.00252413
0.00401765
0.00560719
0.00728806
0.00905521
0.0109033
0.0128268
0.0148199
0.0168763
0.0189899
0.0211539
0.0233616
0.0256059
0.0278796
0.0301754
0.0324857
0.0348032
0.0371203
0.0394293
0.0417227
0.0439928
0.0462319
0.0484325
0.050587
0.0526882
0.0547286
0.0567015
0.0586
0.0604174
0.0621476
0.0637844
0.0653222
0.0667559
0.0680808
0.0692925
0.0703874
0.0713621
0.0722141
0.0729413
0.0735421
0.0740159
0.0743625
0.0745827
0.0746778
0.0746501
0.0745025
0.0742388
0.0738635
0.0733819
0.0728001
0.072125
0.0713642
0.070526
0.0696193
0.0686537
0.0676391
0.0665858
0.0655042
0.0644047
0.0632976
0.0621923
0.0610976
0.0600267
0.0589913
0.0579224
0.0567543
0.0124886
0.0110219
0.00972952
0.00852584
0.00731711
0.00611376
0.00492825
0.0037667
0.00263585
0.00154336
0.000497085
-0.000495097
-0.0014255
-0.00228672
-0.00307175
-0.00377401
-0.00438744
-0.00490656
-0.00532646
-0.00564291
-0.00585225
-0.00595138
-0.00593778
-0.00580951
-0.00556521
-0.0052041
-0.00472596
-0.00413114
-0.00342045
-0.0025952
-0.00165717
-0.000608499
0.0005482
0.00180988
0.00317315
0.00463416
0.00618872
0.00783227
0.00955989
0.0113665
0.0132466
0.0151945
0.0172044
0.01927
0.021385
0.0235427
0.0257363
0.0279588
0.0302031
0.0324618
0.0347278
0.0369937
0.039252
0.0414955
0.0437164
0.0459076
0.0480614
0.0501706
0.0522279
0.0542264
0.0561593
0.0580197
0.0598014
0.061498
0.0631036
0.0646128
0.0660204
0.0673219
0.0685129
0.0695896
0.0705488
0.0713879
0.0721047
0.0726977
0.073166
0.0735093
0.0737282
0.0738237
0.0737978
0.0736532
0.0733931
0.0730217
0.0725436
0.0719645
0.0712905
0.0705285
0.0696857
0.0687702
0.0677906
0.0667555
0.065674
0.064555
0.0634076
0.0622404
0.0610612
0.059877
0.0587006
0.0575427
0.0563177
0.0549462
0.014248
0.012575
0.0111223
0.00979105
0.00847111
0.00717234
0.00590678
0.00467897
0.00349404
0.00235822
0.00127796
0.000259798
-0.000689822
-0.00156467
-0.00235882
-0.00306665
-0.00368299
-0.00420316
-0.00462298
-0.00493882
-0.00514757
-0.00524662
-0.00523384
-0.00510764
-0.00486698
-0.00451133
-0.00404066
-0.00345545
-0.00275668
-0.00194568
-0.00102425
5.41734e-06
0.00114071
0.00237866
0.00371591
0.00514869
0.00667288
0.00828404
0.00997741
0.011748
0.0135905
0.0154995
0.017469
0.0194933
0.0215659
0.0236806
0.0258305
0.0280089
0.0302089
0.0324233
0.0346452
0.0368673
0.0390823
0.0412832
0.0434624
0.0456128
0.047727
0.0497979
0.0518183
0.0537816
0.0556809
0.0575096
0.0592614
0.0609301
0.06251
0.0639956
0.0653818
0.066664
0.0678379
0.0688997
0.0698462
0.0706747
0.0713828
0.071969
0.0724322
0.072772
0.0729887
0.0730831
0.0730568
0.0729122
0.0726522
0.0722804
0.0718009
0.0712188
0.0705396
0.0697693
0.0689145
0.0679824
0.0669805
0.0659164
0.0647981
0.0636332
0.0624295
0.0611944
0.0599342
0.0586546
0.0573679
0.0560846
0.0547029
0.0531308
0.0159775
0.0141021
0.0124901
0.0110299
0.00959578
0.00819739
0.00684661
0.00554666
0.00430127
0.0031154
0.00199432
0.000943367
-3.21424e-05
-0.000927045
-0.00173638
-0.00245547
-0.00307997
-0.00360593
-0.00402989
-0.00434881
-0.00456007
-0.00466154
-0.00465156
-0.00452887
-0.00429268
-0.00394278
-0.00347937
-0.00290307
-0.00221494
-0.00141645
-0.00050947
0.000503798
0.00162075
0.0028384
0.00415343
0.00556213
0.00706048
0.00864412
0.0103084
0.0120485
0.0138591
0.0157349
0.0176704
0.0196596
0.0216965
0.0237747
0.0258878
0.0280291
0.0301919
0.0323692
0.034554
0.0367395
0.0389186
0.041084
0.0432287
0.0453454
0.047427
0.0494664
0.0514568
0.0533913
0.0552634
0.0570665
0.0587943
0.0604408
0.0620003
0.0634672
0.0648365
0.0661036
0.0672642
0.0683145
0.0692511
0.0700712
0.0707725
0.071353
0.0718118
0.0721481
0.0723621
0.0724542
0.0724257
0.0722787
0.0720156
0.0716396
0.0711543
0.0705643
0.0698743
0.0690898
0.0682166
0.067261
0.0662297
0.0651294
0.0639668
0.0627488
0.0614819
0.0601724
0.0588256
0.0574459
0.0560456
0.0546349
0.053097
0.0513277
0.0176587
0.0155851
0.0138153
0.0122257
0.0106756
0.00917455
0.00773456
0.00635775
0.00504671
0.00380527
0.00263765
0.00154817
0.000541105
-0.000379371
-0.00120916
-0.00194443
-0.00258163
-0.00311754
-0.00354928
-0.0038744
-0.00409087
-0.00419696
-0.00419139
-0.0040733
-0.00384224
-0.00349824
-0.00304169
-0.00247343
-0.00179465
-0.00100691
-0.00011215
0.00088737
0.001989
0.00318975
0.00448633
0.00587508
0.00735203
0.00891291
0.0105531
0.012268
0.0140523
0.0159009
0.0178083
0.0197687
0.0217761
0.0238245
0.0259075
0.0280186
0.030151
0.032298
0.034453
0.036609
0.0387591
0.0408962
0.0430133
0.0451032
0.047159
0.0491738
0.0511407
0.0530529
0.054904
0.0566875
0.0583972
0.0600271
0.0615713
0.0630245
0.0643816
0.0656378
0.0667889
0.067831
0.0687606
0.0695748
0.070271
0.0708475
0.0713027
0.0716359
0.0718468
0.0719357
0.0719037
0.0717522
0.0714834
0.0711
0.0706052
0.0700029
0.0692975
0.0684936
0.0675964
0.0666114
0.0655446
0.0644018
0.0631888
0.0619115
0.0605756
0.0591867
0.0577487
0.0562653
0.0547489
0.0532097
0.0515168
0.0495541
0.0192754
0.0170079
0.0150823
0.0133634
0.0116961
0.0100903
0.00855809
0.0071007
0.00571981
0.00441831
0.00319946
0.0020666
0.00102317
7.25081e-05
-0.000782216
-0.00153792
-0.00219172
-0.00274108
-0.00318375
-0.00351781
-0.00374169
-0.00385418
-0.00385436
-0.00374174
-0.00351618
-0.00317797
-0.00272776
-0.00216655
-0.00149569
-0.000716836
0.000167965
0.00115637
0.00224569
0.00343295
0.00471485
0.00608773
0.00754766
0.00909045
0.0107116
0.0124065
0.01417
0.0159971
0.0178823
0.01982
0.0218043
0.0238293
0.0258887
0.0279761
0.030085
0.0322087
0.0343406
0.0364741
0.0386021
0.0407177
0.0428141
0.0448841
0.0469209
0.0489177
0.0508676
0.0527639
0.0546003
0.0563702
0.0580675
0.0596862
0.0612204
0.0626648
0.0640142
0.0652638
0.0664093
0.0674466
0.0683722
0.0691831
0.0698765
0.0704504
0.0709032
0.0712338
0.0714418
0.071527
0.0714903
0.0713327
0.0710562
0.0706628
0.0701554
0.0695373
0.0688123
0.0679845
0.0670586
0.0660392
0.0649317
0.063741
0.0624723
0.0611307
0.0597212
0.0582484
0.0567157
0.0551258
0.0534916
0.0518237
0.0499771
0.0478247
0.0208132
0.018356
0.0162767
0.014429
0.0126441
0.010932
0.00930535
0.00776455
0.00631048
0.0049452
0.00367121
0.00249104
0.00140724
0.000422392
-0.000461013
-0.00124067
-0.0019144
-0.00248019
-0.00293638
-0.0032816
-0.00351477
-0.00363508
-0.003642
-0.0035354
-0.00331549
-0.00298282
-0.00253824
-0.00198294
-0.00131843
-0.000546518
0.000330633
0.00131062
0.00239072
0.0035679
0.00483884
0.00619987
0.00764714
0.00917651
0.0107835
0.0124636
0.0142117
0.0160229
0.0178917
0.0198127
0.0217801
0.0237881
0.0258303
0.0279006
0.0299925
0.0320997
0.0342154
0.036333
0.0384458
0.0405468
0.0426292
0.0446861
0.0467106
0.0486959
0.0506352
0.052522
0.0543497
0.056112
0.0578026
0.0594156
0.0609451
0.0623856
0.0637319
0.0649792
0.066123
0.0671592
0.068084
0.0688942
0.0695871
0.0701603
0.070612
0.070941
0.0711463
0.0712278
0.0711857
0.071021
0.070735
0.0703295
0.0698069
0.06917
0.0684221
0.0675668
0.066608
0.06555
0.0643973
0.0631542
0.0618255
0.0604153
0.0589282
0.0573682
0.0557379
0.0540395
0.0522864
0.0504895
0.0484909
0.0461523
0.0222593
0.0196162
0.0173855
0.0154098
0.0135071
0.0116879
0.00996512
0.0083387
0.00680883
0.00537688
0.00404456
0.00281375
0.0016863
0.000664029
-0.00025126
-0.00105785
-0.00175416
-0.00233883
-0.0028107
-0.0031689
-0.00341278
-0.00354196
-0.0035563
-0.00345605
-0.0032417
-0.00291405
-0.00247419
-0.0019235
-0.0012637
-0.000496717
0.000375203
0.00134956
0.00242355
0.00359406
0.00485776
0.00621101
0.00764998
0.00917056
0.0107683
0.0124386
0.0141767
0.0159774
0.0178356
0.0197459
0.0217025
0.0236995
0.025731
0.0277907
0.0298723
0.0319695
0.0340756
0.0361842
0.0382884
0.0403815
0.0424567
0.0445071
0.0465259
0.0485062
0.0504413
0.0523248
0.05415
0.0559106
0.0576003
0.0592131
0.0607431
0.0621847
0.0635327
0.0647821
0.0659282
0.0669669
0.0678942
0.0687068
0.0694016
0.0699762
0.0704285
0.0707568
0.0709603
0.0710382
0.0709906
0.070818
0.0705214
0.0701023
0.0695624
0.0689042
0.0681306
0.0672447
0.0662497
0.0651495
0.0639478
0.0626487
0.0612562
0.059774
0.0582062
0.056556
0.0548259
0.0530173
0.0511444
0.0492188
0.0470696
0.0445482
0.0236022
0.0207768
0.0183967
0.0162939
0.0142735
0.0123465
0.0105267
0.00881307
0.0072053
0.00570431
0.00431119
0.00302708
0.00185325
0.000790882
-0.000158823
-0.000994738
-0.00171586
-0.00232136
-0.00281061
-0.00318316
-0.0034388
-0.00357759
-0.00359978
-0.00350589
-0.00329674
-0.00297338
-0.00253715
-0.00198967
-0.00133277
-0.000568544
0.000300659
0.00127222
0.00234321
0.00351051
0.00477076
0.00612032
0.00755535
0.0090717
0.010665
0.0123306
0.0140639
0.0158598
0.0177131
0.0196184
0.0215701
0.0235625
0.0255894
0.027645
0.0297228
0.0318165
0.0339197
0.0360258
0.0381281
0.0402201
0.0422947
0.0443452
0.0463647
0.0483465
0.0502839
0.0521703
0.0539991
0.0557639
0.0574584
0.0590766
0.0606124
0.0620602
0.0634146
0.0646705
0.0658232
0.0668682
0.0678016
0.0686196
0.0693191
0.0698974
0.0703521
0.0706814
0.0708839
0.0709589
0.0709059
0.0707252
0.0704174
0.0699834
0.0694247
0.0687435
0.0679419
0.0670228
0.0659888
0.0648434
0.0635897
0.0622315
0.0607721
0.0592151
0.0575638
0.0558213
0.0539894
0.0520695
0.0500762
0.0480221
0.0457238
0.0430222
0.0248312
0.0218268
0.0192992
0.0170703
0.0149326
0.0128977
0.0109798
0.00917777
0.00749064
0.00591878
0.0044628
0.00312329
0.00190092
0.000796344
-0.000189796
-0.00105694
-0.00180461
-0.00243245
-0.00294031
-0.00332819
-0.00359632
-0.00374515
-0.00377527
-0.0036875
-0.00348295
-0.00316296
-0.00272913
-0.00218323
-0.00152728
-0.000763505
0.000105565
0.00107721
0.00214843
0.00331605
0.00457668
0.00592664
0.00736204
0.00887874
0.0104724
0.0121384
0.0138722
0.0156686
0.0175226
0.0194288
0.0213816
0.0233754
0.0254041
0.0274618
0.0295422
0.0316389
0.0337457
0.035856
0.0379631
0.0400604
0.042141
0.0441982
0.046225
0.0482148
0.0501607
0.0520563
0.0538948
0.0556699
0.057375
0.0590041
0.0605511
0.0620103
0.063376
0.0646431
0.0658066
0.066862
0.067805
0.0686318
0.069339
0.0699235
0.0703828
0.0707149
0.0709179
0.0709909
0.0709332
0.0707445
0.070425
0.0699755
0.0693971
0.0686913
0.0678602
0.0669058
0.0658307
0.0646376
0.0633295
0.0619096
0.0603809
0.0587466
0.0570096
0.0551728
0.0532377
0.0512053
0.0490913
0.0469088
0.0444625
0.0415832
0.0259367
0.0227559
0.0200827
0.0177287
0.015474
0.0133311
0.0113147
0.00942338
0.00765571
0.0060116
0.00449119
0.00309463
0.00182208
0.000673684
-0.000350463
-0.00125028
-0.00202576
-0.00267703
-0.00320436
-0.00360823
-0.00388926
-0.00404821
-0.00408602
-0.00400386
-0.0038031
-0.00348538
-0.00305246
-0.00250635
-0.00184923
-0.00108353
-0.000211905
0.000762824
0.0018376
0.00300915
0.00427402
0.00562847
0.00706858
0.00859023
0.0101891
0.0118606
0.0136
0.0154025
0.0172628
0.0191756
0.0211355
0.0231367
0.0251734
0.0272395
0.0293288
0.031435
0.0335519
0.0356729
0.0377913
0.0399006
0.0419938
0.0440641
0.0461048
0.048109
0.0500699
0.051981
0.0538354
0.0556266
0.0573483
0.058994
0.0605578
0.0620335
0.0634155
0.0646985
0.0658774
0.0669473
0.0679039
0.0687431
0.0694611
0.0700547
0.0705211
0.070858
0.0710633
0.0711357
0.071074
0.0708779
0.070547
0.0700817
0.0694829
0.0687518
0.0678898
0.0668987
0.0657807
0.0645381
0.0631736
0.0616899
0.0600899
0.0583762
0.0565518
0.0546191
0.0525794
0.0504337
0.0481985
0.0458878
0.0432945
0.0402391
0.0269096
0.0235547
0.0207374
0.0182591
0.015888
0.0136371
0.0115219
0.00954069
0.0076916
0.00597421
0.00438825
0.00293342
0.00160945
0.000415999
-0.00064728
-0.00158077
-0.00238493
-0.00306033
-0.00360767
-0.00402784
-0.00432179
-0.00449064
-0.00453566
-0.00445834
-0.00426034
-0.0039435
-0.00350983
-0.00296154
-0.00230104
-0.00153089
-0.000653884
0.000327062
0.00140878
0.00258791
0.00386092
0.005224
0.00667324
0.00820448
0.00981337
0.0114954
0.0132458
0.0150596
0.0169318
0.018857
0.0208299
0.0228446
0.0248953
0.026976
0.0290806
0.0312028
0.0333363
0.0354744
0.0376108
0.0397385
0.0418509
0.043941
0.0460021
0.0480272
0.0500095
0.0519423
0.0538188
0.0556324
0.0573765
0.0590447
0.0606307
0.0621283
0.0635319
0.0648357
0.0660346
0.0671235
0.0680978
0.068953
0.0696854
0.0702913
0.0707676
0.0711118
0.0713214
0.0713948
0.0713306
0.0711278
0.070786
0.0703053
0.0696859
0.0689289
0.0680353
0.0670066
0.0658444
0.0645509
0.0631284
0.0615793
0.0599063
0.0581117
0.0561982
0.0541682
0.0520228
0.049763
0.0474062
0.0449673
0.0422273
0.0389972
0.0277412
0.0242142
0.021254
0.0186522
0.0161651
0.0138063
0.0115922
0.00952066
0.00758956
0.00579817
0.00414585
0.00263191
0.00125564
1.63153e-05
-0.00108684
-0.00205464
-0.002888
-0.00358789
-0.00415543
-0.00459184
-0.00489844
-0.00507669
-0.00512817
-0.00505468
-0.0048581
-0.00454055
-0.00410427
-0.0035517
-0.00288543
-0.00210815
-0.0012228
-0.00023241
0.000859729
0.00205016
0.00333525
0.00471119
0.006174
0.00771949
0.00934329
0.0110408
0.0128074
0.0146381
0.0165277
0.0184711
0.0204628
0.022497
0.0245679
0.0266695
0.0287957
0.0309402
0.0330967
0.0352586
0.0374194
0.0395722
0.0417103
0.0438268
0.0459148
0.0479673
0.0499775
0.0519384
0.0538434
0.0556855
0.0574581
0.0591546
0.0607686
0.0622937
0.0637241
0.0650539
0.0662777
0.0673901
0.0683864
0.0692619
0.0700123
0.0706339
0.0711232
0.0714774
0.0716938
0.0717702
0.071705
0.0714969
0.0711453
0.0706496
0.0700101
0.0692272
0.0683017
0.0672346
0.0660275
0.0646821
0.0632004
0.0615847
0.0598373
0.0579604
0.0559565
0.053828
0.0515759
0.0492012
0.0467223
0.044155
0.0412686
0.0378642
0.0284232
0.0247257
0.0216237
0.0188989
0.0162961
0.0138297
0.0115165
0.00935444
0.00734096
0.0054751
0.00375589
0.00218229
0.000753217
-0.000532458
-0.0016759
-0.00267835
-0.0035411
-0.00426552
-0.00485309
-0.00530537
-0.00562405
-0.00581091
-0.00586782
-0.00579685
-0.00560015
-0.0052801
-0.00483919
-0.00428004
-0.00360542
-0.00281818
-0.0019214
-0.000918248
0.000187872
0.0013934
0.00269464
0.00408771
0.00556858
0.00713302
0.00877661
0.0104948
0.0122828
0.0141357
0.0160485
0.0180157
0.0200321
0.0220918
0.024189
0.0263177
0.0284719
0.0306451
0.0328311
0.0350233
0.037215
0.0393996
0.0415701
0.0437195
0.045841
0.0479275
0.049972
0.0519676
0.0539073
0.0557843
0.0575915
0.0593223
0.0609701
0.0625285
0.0639912
0.0653524
0.0666061
0.067747
0.0687699
0.0696698
0.0704423
0.0710833
0.0715892
0.0719564
0.0721822
0.0722641
0.0722
0.0719883
0.0716281
0.0711186
0.0704596
0.0696511
0.0686938
0.0675883
0.0663358
0.0649379
0.0633963
0.061713
0.0598901
0.0579298
0.0558344
0.0536064
0.0512466
0.0487562
0.0461545
0.0434582
0.0404252
0.0368468
0.0289477
0.0250806
0.0218375
0.0189903
0.0162722
0.0136982
0.011286
0.0090333
0.00693728
0.00499669
0.00321031
0.00157676
9.46268e-05
-0.00123759
-0.00242144
-0.00345854
-0.00435054
-0.0050992
-0.00570633
-0.00617385
-0.00650376
-0.00669814
-0.00675917
-0.00668917
-0.00649059
-0.00616604
-0.00571826
-0.00515004
-0.00446434
-0.00366417
-0.00275275
-0.0017334
-0.000609627
0.000614917
0.00193644
0.00335097
0.00485445
0.00644257
0.00811089
0.0098548
0.0116695
0.0135502
0.0154916
0.0174885
0.0195354
0.0216266
0.0237563
0.0259184
0.0281068
0.0303152
0.0325372
0.0347662
0.0369955
0.0392184
0.0414279
0.043617
0.0457787
0.0479058
0.0499913
0.052028
0.054009
0.0559271
0.0577753
0.0595466
0.0612344
0.0628318
0.0643327
0.0657307
0.0670197
0.0681941
0.0692484
0.0701774
0.0709764
0.0716408
0.0721668
0.0725506
0.0727889
0.0728789
0.0728183
0.0726053
0.0722383
0.0717163
0.0710388
0.0702056
0.0692169
0.0680732
0.0667753
0.0653245
0.0637225
0.0619709
0.0600718
0.0580272
0.0558394
0.0535108
0.0510424
0.0484354
0.0457101
0.0428842
0.039704
0.0359509
0.0293067
0.0252708
0.0218871
0.0189178
0.0160846
0.0134031
0.010892
0.00854864
0.00637001
0.00435463
0.002501
0.000807457
-0.000727751
-0.00210645
-0.00333056
-0.00440203
-0.00532287
-0.00609519
-0.00672112
-0.00720293
-0.00754293
-0.00774349
-0.00780707
-0.00773628
-0.00753384
-0.00720259
-0.00674549
-0.00616554
-0.00546585
-0.00464963
-0.00372022
-0.0026811
-0.00153588
-0.000288317
0.0010577
0.00249812
0.00402881
0.00564541
0.00734345
0.00911828
0.0109651
0.0128789
0.0148547
0.016887
0.0189703
0.0210991
0.0232673
0.0254691
0.0276981
0.0299481
0.0322126
0.034485
0.0367586
0.0390266
0.0412818
0.0435172
0.0457258
0.0479002
0.0500333
0.0521179
0.0541468
0.0561126
0.0580081
0.0598264
0.0615602
0.063203
0.0647478
0.0661884
0.0675183
0.0687316
0.0698224
0.0707854
0.0716154
0.0723077
0.0728578
0.0732619
0.0735161
0.0736175
0.0735633
0.0733512
0.0729796
0.072447
0.0717526
0.0708958
0.0698765
0.068695
0.067352
0.0658484
0.0641857
0.0623655
0.0603895
0.0582599
0.0559789
0.0535489
0.050971
0.0482464
0.0453965
0.0424401
0.0391117
0.0351829
0.0294926
0.0252882
0.0217641
0.0186729
0.0157247
0.0129359
0.0103259
0.00789189
0.00563068
0.00354057
0.00161979
-0.000133605
-0.00172167
-0.00314656
-0.00441051
-0.00551581
-0.00646481
-0.00725993
-0.00790365
-0.00839854
-0.00874722
-0.00895235
-0.00901669
-0.00894312
-0.0087346
-0.00839424
-0.00792518
-0.00733063
-0.00661389
-0.00577833
-0.00482744
-0.00376483
-0.00259426
-0.00131956
5.52509e-05
0.00152606
0.00308865
0.00473862
0.00647142
0.00828238
0.0101667
0.0121192
0.0141349
0.0162084
0.0183342
0.0205066
0.0227196
0.0249673
0.0272433
0.0295414
0.031855
0.0341774
0.036502
0.0388216
0.0411294
0.043418
0.0456802
0.0479088
0.0500964
0.0522356
0.054319
0.0563392
0.0582888
0.0601604
0.0619469
0.0636411
0.0652362
0.0667254
0.068102
0.0693597
0.0704926
0.0714947
0.0723607
0.0730854
0.0736642
0.0740926
0.0743666
0.0744828
0.0744382
0.0742301
0.0738563
0.0733153
0.0726057
0.0717268
0.0706781
0.0694598
0.0680723
0.0665162
0.0647929
0.0629038
0.0608507
0.0586355
0.0562605
0.0537283
0.0510399
0.0481965
0.0452209
0.0421327
0.0386548
0.0345488
0.0294977
0.0251246
0.0214601
0.018247
0.0151839
0.0122878
0.009579
0.00705446
0.0047108
0.00254612
0.000558421
-0.00125452
-0.00289503
-0.00436559
-0.00566874
-0.00680708
-0.00778328
-0.00860009
-0.00926032
-0.00976683
-0.0101225
-0.0103304
-0.0103935
-0.0103149
-0.0100979
-0.00974578
-0.00926192
-0.00864972
-0.00791268
-0.00705433
-0.00607831
-0.00498836
-0.00378839
-0.00248235
-0.00107431
0.000431487
0.00203075
0.00371903
0.00549173
0.00734409
0.00927123
0.0112681
0.0133295
0.0154501
0.0176243
0.0198464
0.0221104
0.0244103
0.0267398
0.0290924
0.0314617
0.0338409
0.0362231
0.0386013
0.0409684
0.043317
0.0456399
0.0479295
0.0501785
0.0523793
0.0545242
0.0566056
0.0586159
0.0605477
0.0623934
0.0641457
0.0657974
0.0673414
0.0687708
0.0700789
0.0712595
0.0723063
0.0732135
0.0739758
0.0745879
0.0750451
0.0753432
0.0754782