/*--------------------------------*- C++ -*----------------------------------*\
| =========                 |                                                 |
| \\      /  F ield         | OpenFOAM: The Open Source CFD Toolbox           |
|  \\    /   O peration     | Version:  2212                                  |
|   \\  /    A nd           | Website:  www.openfoam.com                      |
|    \\/     M anipulation  |                                                 |
\*---------------------------------------------------------------------------*/
FoamFile
{
    version     2.0;
    format      ascii;
    arch        "LSB;label=32;scalar=64";
    class       volVectorField;
    location    "0.096";
    object      U_0;
}
// * * * * * * * * * * * * * * * * * * * * * * * * * * * * * * * * * * * * * //

dimensions      [0 1 -1 0 0 0 0];

internalField   nonuniform List<vector> 
10000
(
(3.02164e-06 -3.00794e-06 0)
(1.50135e-05 -7.7598e-06 0)
(3.41442e-05 -8.97453e-06 0)
(5.2158e-05 -7.75138e-06 0)
(6.40036e-05 -5.23516e-06 0)
(6.72248e-05 -2.08925e-06 0)
(6.05475e-05 1.31737e-06 0)
(4.33879e-05 4.77623e-06 0)
(1.56214e-05 8.1694e-06 0)
(-2.25823e-05 1.14293e-05 0)
(-7.08617e-05 1.45163e-05 0)
(-0.000128729 1.74061e-05 0)
(-0.000195613 2.00853e-05 0)
(-0.000270888 2.25472e-05 0)
(-0.000353891 2.47884e-05 0)
(-0.000443941 2.68087e-05 0)
(-0.000540342 2.86099e-05 0)
(-0.000642398 3.0195e-05 0)
(-0.000749412 3.15677e-05 0)
(-0.000860695 3.27325e-05 0)
(-0.000975571 3.36945e-05 0)
(-0.00109337 3.4459e-05 0)
(-0.00121344 3.50323e-05 0)
(-0.00133516 3.54205e-05 0)
(-0.00145789 3.56295e-05 0)
(-0.00158104 3.56657e-05 0)
(-0.00170404 3.55356e-05 0)
(-0.00182632 3.52457e-05 0)
(-0.00194735 3.48025e-05 0)
(-0.00206661 3.42125e-05 0)
(-0.00218359 3.34821e-05 0)
(-0.00229783 3.26177e-05 0)
(-0.00240887 3.16254e-05 0)
(-0.00251628 3.05117e-05 0)
(-0.00261965 2.92829e-05 0)
(-0.00271858 2.79453e-05 0)
(-0.00281272 2.65054e-05 0)
(-0.0029017 2.49692e-05 0)
(-0.00298522 2.33432e-05 0)
(-0.00306297 2.1634e-05 0)
(-0.00313466 1.98475e-05 0)
(-0.00320004 1.799e-05 0)
(-0.00325888 1.60679e-05 0)
(-0.00331096 1.40877e-05 0)
(-0.0033561 1.20561e-05 0)
(-0.00339412 9.97962e-06 0)
(-0.00342488 7.86513e-06 0)
(-0.00344827 5.71969e-06 0)
(-0.00346419 3.55018e-06 0)
(-0.00347256 1.36356e-06 0)
(-0.00347336 -8.33129e-07 0)
(-0.00346654 -3.03301e-06 0)
(-0.00345212 -5.22867e-06 0)
(-0.00343013 -7.41237e-06 0)
(-0.00340063 -9.57676e-06 0)
(-0.00336369 -1.17141e-05 0)
(-0.00331944 -1.3816e-05 0)
(-0.003268 -1.58747e-05 0)
(-0.00320955 -1.78828e-05 0)
(-0.00314428 -1.98322e-05 0)
(-0.0030724 -2.17143e-05 0)
(-0.00299417 -2.35212e-05 0)
(-0.00290987 -2.52448e-05 0)
(-0.00281979 -2.68763e-05 0)
(-0.00272428 -2.84073e-05 0)
(-0.0026237 -2.98297e-05 0)
(-0.00251844 -3.11356e-05 0)
(-0.00240892 -3.23165e-05 0)
(-0.00229557 -3.33643e-05 0)
(-0.00217888 -3.42718e-05 0)
(-0.00205933 -3.50311e-05 0)
(-0.00193746 -3.56347e-05 0)
(-0.00181381 -3.60753e-05 0)
(-0.00168894 -3.63464e-05 0)
(-0.00156344 -3.64411e-05 0)
(-0.00143794 -3.63526e-05 0)
(-0.00131305 -3.60749e-05 0)
(-0.00118943 -3.56025e-05 0)
(-0.00106773 -3.49309e-05 0)
(-0.000948648 -3.40552e-05 0)
(-0.000832853 -3.29716e-05 0)
(-0.000721045 -3.1677e-05 0)
(-0.000613922 -3.01693e-05 0)
(-0.000512186 -2.84466e-05 0)
(-0.000416534 -2.6508e-05 0)
(-0.000327653 -2.43542e-05 0)
(-0.000246217 -2.19877e-05 0)
(-0.000172876 -1.94132e-05 0)
(-0.000108247 -1.66378e-05 0)
(-5.28943e-05 -1.36734e-05 0)
(-7.31653e-06 -1.05382e-05 0)
(2.80851e-05 -7.26064e-06 0)
(5.30487e-05 -3.88524e-06 0)
(6.7516e-05 -4.85175e-07 0)
(7.17357e-05 2.81561e-06 0)
(6.64236e-05 5.80418e-06 0)
(5.29876e-05 8.11292e-06 0)
(3.39954e-05 9.09005e-06 0)
(1.45522e-05 7.63532e-06 0)
(2.78976e-06 2.79019e-06 0)
(7.77288e-06 -1.50034e-05 0)
(3.15323e-05 -3.14983e-05 0)
(6.3441e-05 -3.36941e-05 0)
(8.90366e-05 -2.57757e-05 0)
(9.87292e-05 -1.16172e-05 0)
(8.69668e-05 6.15441e-06 0)
(5.0335e-05 2.58205e-05 0)
(-1.30545e-05 4.62569e-05 0)
(-0.000103946 6.67288e-05 0)
(-0.000222271 8.67492e-05 0)
(-0.000367388 0.000105994 0)
(-0.00053825 0.000124242 0)
(-0.000733521 0.000141345 0)
(-0.000951662 0.000157206 0)
(-0.00119099 0.000171761 0)
(-0.00144974 0.000184973 0)
(-0.00172606 0.000196823 0)
(-0.0020181 0.000207307 0)
(-0.00232395 0.000216431 0)
(-0.00264175 0.000224208 0)
(-0.00296961 0.000230659 0)
(-0.0033057 0.000235809 0)
(-0.00364819 0.000239688 0)
(-0.00399532 0.000242329 0)
(-0.00434534 0.000243766 0)
(-0.00469656 0.000244037 0)
(-0.00504735 0.000243179 0)
(-0.00539612 0.000241234 0)
(-0.00574135 0.00023824 0)
(-0.00608154 0.000234241 0)
(-0.00641529 0.000229276 0)
(-0.00674124 0.000223389 0)
(-0.00705809 0.000216621 0)
(-0.00736459 0.000209014 0)
(-0.00765957 0.000200613 0)
(-0.00794191 0.00019146 0)
(-0.00821056 0.000181598 0)
(-0.00846451 0.00017107 0)
(-0.00870285 0.000159921 0)
(-0.00892471 0.000148194 0)
(-0.00912927 0.000135933 0)
(-0.00931581 0.000123182 0)
(-0.00948364 0.000109987 0)
(-0.00963217 9.63927e-05 0)
(-0.00976084 8.2445e-05 0)
(-0.00986918 6.81907e-05 0)
(-0.00995679 5.36765e-05 0)
(-0.0100233 3.89505e-05 0)
(-0.0100685 2.40613e-05 0)
(-0.0100922 9.0574e-06 0)
(-0.0100942 -6.01162e-06 0)
(-0.0100744 -2.10956e-05 0)
(-0.010033 -3.61439e-05 0)
(-0.00996992 -5.11044e-05 0)
(-0.00988544 -6.59244e-05 0)
(-0.00977975 -8.05503e-05 0)
(-0.0096532 -9.49282e-05 0)
(-0.00950618 -0.000109004 0)
(-0.00933916 -0.000122722 0)
(-0.00915272 -0.000136029 0)
(-0.00894749 -0.000148867 0)
(-0.00872418 -0.000161183 0)
(-0.0084836 -0.000172918 0)
(-0.00822663 -0.000184017 0)
(-0.00795421 -0.000194425 0)
(-0.0076674 -0.000204084 0)
(-0.00736731 -0.000212942 0)
(-0.00705513 -0.000220945 0)
(-0.00673212 -0.000228038 0)
(-0.00639964 -0.000234172 0)
(-0.00605909 -0.000239296 0)
(-0.00571195 -0.000243362 0)
(-0.00535978 -0.000246324 0)
(-0.00500418 -0.000248138 0)
(-0.00464682 -0.000248761 0)
(-0.00428943 -0.000248156 0)
(-0.00393377 -0.000246286 0)
(-0.00358166 -0.000243121 0)
(-0.00323496 -0.000238633 0)
(-0.00289554 -0.0002328 0)
(-0.00256532 -0.000225604 0)
(-0.00224621 -0.000217035 0)
(-0.00194014 -0.000207089 0)
(-0.00164901 -0.000195771 0)
(-0.0013747 -0.000183094 0)
(-0.00111907 -0.000169085 0)
(-0.000883888 -0.000153787 0)
(-0.000670839 -0.000137261 0)
(-0.00048148 -0.000119596 0)
(-0.000317194 -0.000100916 0)
(-0.000179125 -8.13948e-05 0)
(-6.81012e-05 -6.12775e-05 0)
(1.54874e-05 -4.09128e-05 0)
(7.18468e-05 -2.08086e-05 0)
(0.000102013 -1.71654e-06 0)
(0.00010817 1.52358e-05 0)
(9.40097e-05 2.83522e-05 0)
(6.52964e-05 3.50754e-05 0)
(3.17161e-05 3.1712e-05 0)
(7.62789e-06 1.45412e-05 0)
(9.00385e-06 -3.41564e-05 0)
(3.38518e-05 -6.345e-05 0)
(6.23664e-05 -6.20764e-05 0)
(7.7245e-05 -3.88913e-05 0)
(6.69125e-05 -1.13248e-06 0)
(2.41709e-05 4.57915e-05 0)
(-5.57402e-05 9.79869e-05 0)
(-0.000175665 0.0001527 0)
(-0.000336909 0.000207994 0)
(-0.000539613 0.000262506 0)
(-0.000783048 0.00031527 0)
(-0.00106584 0.000365603 0)
(-0.00138613 0.000413024 0)
(-0.00174171 0.000457195 0)
(-0.00213011 0.000497886 0)
(-0.00254868 0.000534946 0)
(-0.00299465 0.000568282 0)
(-0.00346517 0.000597849 0)
(-0.00395734 0.000623637 0)
(-0.00446824 0.000645663 0)
(-0.00499496 0.000663965 0)
(-0.00553461 0.0006786 0)
(-0.00608434 0.000689637 0)
(-0.00664135 0.000697159 0)
(-0.0072029 0.000701255 0)
(-0.00776631 0.000702022 0)
(-0.00832898 0.000699563 0)
(-0.00888838 0.000693986 0)
(-0.00944206 0.000685402 0)
(-0.00998768 0.000673925 0)
(-0.010523 0.000659672 0)
(-0.0110457 0.000642761 0)
(-0.0115539 0.00062331 0)
(-0.0120455 0.000601443 0)
(-0.0125186 0.00057728 0)
(-0.0129714 0.000550946 0)
(-0.0134022 0.000522565 0)
(-0.0138095 0.000492261 0)
(-0.0141917 0.000460161 0)
(-0.0145475 0.000426391 0)
(-0.0148755 0.00039108 0)
(-0.0151746 0.000354356 0)
(-0.0154436 0.00031635 0)
(-0.0156817 0.000277193 0)
(-0.0158878 0.000237019 0)
(-0.0160614 0.000195963 0)
(-0.0162017 0.000154161 0)
(-0.0163081 0.000111751 0)
(-0.0163803 6.88748e-05 0)
(-0.0164179 2.56733e-05 0)
(-0.0164208 -1.771e-05 0)
(-0.0163888 -6.11293e-05 0)
(-0.016322 -0.000104436 0)
(-0.0162206 -0.000147481 0)
(-0.0160848 -0.000190112 0)
(-0.015915 -0.000232175 0)
(-0.0157118 -0.000273515 0)
(-0.0154758 -0.000313975 0)
(-0.0152077 -0.000353397 0)
(-0.0149086 -0.000391622 0)
(-0.0145793 -0.000428491 0)
(-0.0142212 -0.000463844 0)
(-0.0138354 -0.00049752 0)
(-0.0134234 -0.00052936 0)
(-0.0129867 -0.000559203 0)
(-0.0125269 -0.000586894 0)
(-0.012046 -0.000612277 0)
(-0.0115457 -0.000635198 0)
(-0.0110281 -0.00065551 0)
(-0.0104954 -0.000673067 0)
(-0.00994977 -0.00068773 0)
(-0.00939362 -0.000699363 0)
(-0.0088294 -0.000707838 0)
(-0.00825967 -0.000713032 0)
(-0.00768709 -0.000714833 0)
(-0.00711438 -0.000713137 0)
(-0.00654434 -0.000707849 0)
(-0.00597984 -0.000698888 0)
(-0.00542381 -0.000686186 0)
(-0.00487919 -0.000669689 0)
(-0.00434898 -0.000649362 0)
(-0.00383616 -0.000625187 0)
(-0.00334373 -0.000597172 0)
(-0.00287463 -0.000565349 0)
(-0.00243176 -0.000529784 0)
(-0.00201793 -0.000490583 0)
(-0.00163582 -0.000447899 0)
(-0.00128795 -0.00040195 0)
(-0.000976588 -0.000353032 0)
(-0.000703721 -0.00030155 0)
(-0.000470921 -0.00024805 0)
(-0.000279241 -0.000193278 0)
(-0.000129048 -0.000138253 0)
(-1.98111e-05 -8.43821e-05 0)
(5.01825e-05 -3.36267e-05 0)
(8.41828e-05 1.12709e-05 0)
(8.73184e-05 4.64895e-05 0)
(6.70681e-05 6.67971e-05 0)
(3.52e-05 6.53188e-05 0)
(9.10072e-06 3.39855e-05 0)
(7.84664e-06 -5.2316e-05 0)
(2.62384e-05 -8.93287e-05 0)
(3.9862e-05 -7.71003e-05 0)
(3.10746e-05 -2.98521e-05 0)
(-1.22674e-05 4.15995e-05 0)
(-9.8111e-05 0.000128902 0)
(-0.00023189 0.000225756 0)
(-0.000416975 0.000327502 0)
(-0.000655019 0.000430715 0)
(-0.00094631 0.000532886 0)
(-0.00129007 0.000632174 0)
(-0.0016847 0.000727233 0)
(-0.00212797 0.000817083 0)
(-0.00261714 0.000901017 0)
(-0.00314913 0.000978534 0)
(-0.00372058 0.00104929 0)
(-0.00432796 0.00111306 0)
(-0.00496757 0.00116971 0)
(-0.00563566 0.00121919 0)
(-0.00632842 0.00126151 0)
(-0.00704202 0.00129669 0)
(-0.00777266 0.00132485 0)
(-0.00851658 0.00134608 0)
(-0.00927005 0.00136053 0)
(-0.0100294 0.00136836 0)
(-0.0107912 0.00136974 0)
(-0.0115517 0.00136487 0)
(-0.0123078 0.00135395 0)
(-0.0130561 0.00133718 0)
(-0.0137934 0.00131478 0)
(-0.0145166 0.00128697 0)
(-0.015223 0.00125398 0)
(-0.0159095 0.00121603 0)
(-0.0165737 0.00117337 0)
(-0.0172128 0.00112622 0)
(-0.0178246 0.00107484 0)
(-0.0184066 0.00101945 0)
(-0.0189567 0.000960302 0)
(-0.019473 0.000897647 0)
(-0.0199535 0.000831728 0)
(-0.0203965 0.000762797 0)
(-0.0208003 0.000691106 0)
(-0.0211636 0.000616912 0)
(-0.0214849 0.000540472 0)
(-0.0217632 0.000462048 0)
(-0.0219974 0.000381905 0)
(-0.0221866 0.00030031 0)
(-0.02233 0.000217535 0)
(-0.0224272 0.000133853 0)
(-0.0224777 4.95443e-05 0)
(-0.0224812 -3.51096e-05 0)
(-0.0224377 -0.000119823 0)
(-0.0223471 -0.000204307 0)
(-0.0222097 -0.000288268 0)
(-0.0220259 -0.000371408 0)
(-0.0217963 -0.000453428 0)
(-0.0215215 -0.000534025 0)
(-0.0212025 -0.000612892 0)
(-0.0208402 -0.000689722 0)
(-0.020436 -0.000764206 0)
(-0.0199912 -0.000836033 0)
(-0.0195074 -0.000904891 0)
(-0.0189863 -0.000970471 0)
(-0.0184299 -0.00103246 0)
(-0.0178402 -0.00109056 0)
(-0.0172194 -0.00114445 0)
(-0.01657 -0.00119385 0)
(-0.0158946 -0.00123846 0)
(-0.0151959 -0.00127798 0)
(-0.0144767 -0.00131215 0)
(-0.0137401 -0.00134069 0)
(-0.0129893 -0.00136335 0)
(-0.0122275 -0.00137989 0)
(-0.0114582 -0.00139007 0)
(-0.0106849 -0.00139368 0)
(-0.00991128 -0.00139053 0)
(-0.00914105 -0.00138045 0)
(-0.00837803 -0.00136329 0)
(-0.00762608 -0.00133893 0)
(-0.00688913 -0.00130729 0)
(-0.00617111 -0.00126831 0)
(-0.00547595 -0.00122198 0)
(-0.00480757 -0.00116834 0)
(-0.00416983 -0.00110748 0)
(-0.00356648 -0.00103956 0)
(-0.00300113 -0.000964825 0)
(-0.00247723 -0.000883605 0)
(-0.00199796 -0.000796369 0)
(-0.00156616 -0.00070374 0)
(-0.00118427 -0.000606544 0)
(-0.000854175 -0.000505877 0)
(-0.00057708 -0.000403192 0)
(-0.000353316 -0.000300419 0)
(-0.000182119 -0.000200139 0)
(-6.13428e-05 -0.000105802 0)
(1.28708e-05 -2.20359e-05 0)
(4.64007e-05 4.4991e-05 0)
(4.75519e-05 8.72075e-05 0)
(2.88066e-05 9.43189e-05 0)
(8.18667e-06 5.3089e-05 0)
(5.43414e-06 -6.45114e-05 0)
(1.25303e-05 -9.97198e-05 0)
(3.07414e-06 -6.7403e-05 0)
(-3.88675e-05 1.32364e-05 0)
(-0.000124927 0.000127918 0)
(-0.000263167 0.000265439 0)
(-0.000459178 0.000417114 0)
(-0.000716477 0.000576326 0)
(-0.00103682 0.000738053 0)
(-0.00142052 0.000898502 0)
(-0.00186671 0.00105481 0)
(-0.00237358 0.00120484 0)
(-0.00293859 0.00134698 0)
(-0.00355858 0.00148005 0)
(-0.00422997 0.00160318 0)
(-0.00494881 0.00171576 0)
(-0.00571091 0.00181737 0)
(-0.00651188 0.00190776 0)
(-0.00734722 0.00198678 0)
(-0.00821235 0.0020544 0)
(-0.00910266 0.00211066 0)
(-0.0100135 0.00215566 0)
(-0.0109404 0.00218957 0)
(-0.0118787 0.00221258 0)
(-0.0128239 0.00222494 0)
(-0.0137718 0.00222691 0)
(-0.0147181 0.00221877 0)
(-0.0156585 0.00220085 0)
(-0.016589 0.00217347 0)
(-0.0175058 0.00213697 0)
(-0.0184051 0.00209171 0)
(-0.0192831 0.00203803 0)
(-0.0201366 0.00197631 0)
(-0.0209621 0.00190693 0)
(-0.0217565 0.00183027 0)
(-0.0225168 0.00174672 0)
(-0.02324 0.00165665 0)
(-0.0239237 0.00156048 0)
(-0.0245652 0.0014586 0)
(-0.0251621 0.00135142 0)
(-0.0257125 0.00123934 0)
(-0.0262141 0.00112277 0)
(-0.0266653 0.00100213 0)
(-0.0270644 0.000877843 0)
(-0.0274099 0.000750336 0)
(-0.0277006 0.000620039 0)
(-0.0279353 0.000487388 0)
(-0.0281132 0.000352827 0)
(-0.0282336 0.000216804 0)
(-0.028296 7.97715e-05 0)
(-0.0283 -5.78099e-05 0)
(-0.0282455 -0.000195474 0)
(-0.0281326 -0.00033275 0)
(-0.0279616 -0.000469161 0)
(-0.0277329 -0.000604222 0)
(-0.0274473 -0.000737447 0)
(-0.0271056 -0.000868343 0)
(-0.0267089 -0.000996414 0)
(-0.0262587 -0.00112116 0)
(-0.0257563 -0.00124208 0)
(-0.0252035 -0.00135867 0)
(-0.0246024 -0.00147043 0)
(-0.023955 -0.00157686 0)
(-0.0232637 -0.00167745 0)
(-0.0225311 -0.00177171 0)
(-0.02176 -0.00185916 0)
(-0.0209533 -0.00193931 0)
(-0.0201143 -0.00201169 0)
(-0.0192464 -0.00207584 0)
(-0.018353 -0.00213132 0)
(-0.0174379 -0.00217769 0)
(-0.016505 -0.00221456 0)
(-0.0155584 -0.00224153 0)
(-0.0146023 -0.00225825 0)
(-0.013641 -0.00226437 0)
(-0.012679 -0.00225961 0)
(-0.0117209 -0.00224371 0)
(-0.0107713 -0.00221643 0)
(-0.00983496 -0.00217761 0)
(-0.00891664 -0.00212714 0)
(-0.00802113 -0.00206494 0)
(-0.00715318 -0.00199103 0)
(-0.00631753 -0.0019055 0)
(-0.00551879 -0.00180854 0)
(-0.00476148 -0.00170044 0)
(-0.00404989 -0.00158164 0)
(-0.00338811 -0.00145272 0)
(-0.00277986 -0.0013145 0)
(-0.00222847 -0.00116801 0)
(-0.00173675 -0.00101462 0)
(-0.00130685 -0.000856118 0)
(-0.000940109 -0.000694795 0)
(-0.000636895 -0.000533646 0)
(-0.000396352 -0.000376557 0)
(-0.000216161 -0.000228584 0)
(-9.22428e-05 -9.62937e-05 0)
(-1.84839e-05 1.18117e-05 0)
(1.3629e-05 8.48894e-05 0)
(1.62419e-05 0.000109286 0)
(5.99057e-06 6.68713e-05 0)
(2.41641e-06 -6.8361e-05 0)
(-4.71643e-06 -8.91711e-05 0)
(-4.27793e-05 -2.58665e-05 0)
(-0.000124597 9.82822e-05 0)
(-0.000260477 0.000265895 0)
(-0.000458099 0.000463137 0)
(-0.000722801 0.000679072 0)
(-0.00105792 0.000905167 0)
(-0.00146509 0.00113479 0)
(-0.00194448 0.00136282 0)
(-0.00249506 0.00158529 0)
(-0.0031148 0.00179917 0)
(-0.00380084 0.00200214 0)
(-0.00454966 0.00219246 0)
(-0.00535723 0.00236883 0)
(-0.0062191 0.00253029 0)
(-0.00713052 0.00267619 0)
(-0.00808649 0.00280608 0)
(-0.00908188 0.00291972 0)
(-0.0101114 0.003017 0)
(-0.0111698 0.00309793 0)
(-0.0122517 0.00316262 0)
(-0.0133518 0.00321127 0)
(-0.0144649 0.00324415 0)
(-0.0155857 0.00326158 0)
(-0.0167092 0.00326391 0)
(-0.0178303 0.00325156 0)
(-0.0189443 0.00322495 0)
(-0.0200463 0.00318456 0)
(-0.0211318 0.00313086 0)
(-0.0221964 0.00306436 0)
(-0.0232357 0.00298557 0)
(-0.0242458 0.00289504 0)
(-0.0252228 0.0027933 0)
(-0.0261627 0.0026809 0)
(-0.0270623 0.00255841 0)
(-0.027918 0.0024264 0)
(-0.0287267 0.00228545 0)
(-0.0294855 0.00213613 0)
(-0.0301915 0.00197905 0)
(-0.0308424 0.00181479 0)
(-0.0314356 0.00164397 0)
(-0.0319691 0.00146719 0)
(-0.0324409 0.00128508 0)
(-0.0328493 0.00109825 0)
(-0.0331928 0.000907344 0)
(-0.0334701 0.000713002 0)
(-0.0336802 0.000515874 0)
(-0.0338223 0.000316617 0)
(-0.0338956 0.000115898 0)
(-0.0339 -8.56086e-05 0)
(-0.0338352 -0.00028722 0)
(-0.0337013 -0.000488244 0)
(-0.0334987 -0.000687981 0)
(-0.0332279 -0.000885724 0)
(-0.0328899 -0.00108076 0)
(-0.0324855 -0.00127237 0)
(-0.0320162 -0.00145982 0)
(-0.0314835 -0.00164239 0)
(-0.0308892 -0.00181935 0)
(-0.0302354 -0.00198995 0)
(-0.0295244 -0.00215348 0)
(-0.0287587 -0.00230919 0)
(-0.0279411 -0.00245637 0)
(-0.0270747 -0.00259429 0)
(-0.0261627 -0.00272224 0)
(-0.0252087 -0.00283953 0)
(-0.0242164 -0.00294547 0)
(-0.0231898 -0.00303941 0)
(-0.0221329 -0.00312069 0)
(-0.0210503 -0.00318872 0)
(-0.0199465 -0.00324289 0)
(-0.0188263 -0.00328266 0)
(-0.0176945 -0.00330752 0)
(-0.0165563 -0.003317 0)
(-0.0154168 -0.00331068 0)
(-0.0142814 -0.0032882 0)
(-0.0131555 -0.00324926 0)
(-0.0120447 -0.00319363 0)
(-0.0109543 -0.00312117 0)
(-0.00988999 -0.00303183 0)
(-0.00885723 -0.00292564 0)
(-0.00786146 -0.0028028 0)
(-0.00690798 -0.00266359 0)
(-0.00600195 -0.00250852 0)
(-0.00514828 -0.00233825 0)
(-0.00435158 -0.00215369 0)
(-0.00361608 -0.00195606 0)
(-0.0029455 -0.0017469 0)
(-0.00234301 -0.00152821 0)
(-0.001811 -0.00130256 0)
(-0.00135102 -0.00107317 0)
(-0.000963542 -0.000844192 0)
(-0.00064779 -0.000620872 0)
(-0.000401507 -0.000409886 0)
(-0.000220723 -0.000219705 0)
(-9.9493e-05 -6.10546e-05 0)
(-2.9577e-05 5.26419e-05 0)
(2.71075e-08 0.000104683 0)
(3.15864e-06 7.28805e-05 0)
(-8.54708e-07 -6.26123e-05 0)
(-2.38776e-05 -5.42562e-05 0)
(-9.40525e-05 5.23624e-05 0)
(-0.000220283 0.000230915 0)
(-0.000410985 0.000461429 0)
(-0.000673074 0.00072776 0)
(-0.0010113 0.00101692 0)
(-0.00142856 0.00131859 0)
(-0.00192613 0.00162459 0)
(-0.0025039 0.00192844 0)
(-0.00316059 0.00222509 0)
(-0.00389385 0.00251056 0)
(-0.00470051 0.00278177 0)
(-0.00557669 0.00303636 0)
(-0.00651796 0.00327253 0)
(-0.0075194 0.00348894 0)
(-0.00857577 0.00368465 0)
(-0.00968153 0.003859 0)
(-0.010831 0.00401158 0)
(-0.0120183 0.00414219 0)
(-0.0132375 0.0042508 0)
(-0.0144826 0.00433753 0)
(-0.0157477 0.00440259 0)
(-0.0170269 0.0044463 0)
(-0.0183143 0.00446907 0)
(-0.0196042 0.00447136 0)
(-0.0208909 0.0044537 0)
(-0.0221689 0.00441665 0)
(-0.0234329 0.00436084 0)
(-0.0246777 0.0042869 0)
(-0.0258982 0.00419551 0)
(-0.0270896 0.00408736 0)
(-0.0282473 0.00396317 0)
(-0.0293668 0.00382368 0)
(-0.0304438 0.00366964 0)
(-0.0314743 0.0035018 0)
(-0.0324546 0.00332095 0)
(-0.0333809 0.00312787 0)
(-0.0342499 0.00292336 0)
(-0.0350585 0.00270823 0)
(-0.0358038 0.00248329 0)
(-0.036483 0.00224937 0)
(-0.0370937 0.00200732 0)
(-0.0376338 0.00175797 0)
(-0.0381012 0.00150218 0)
(-0.0384943 0.00124083 0)
(-0.0388115 0.000974796 0)
(-0.0390518 0.000704961 0)
(-0.0392142 0.000432231 0)
(-0.0392979 0.000157519 0)
(-0.0393026 -0.00011825 0)
(-0.0392281 -0.000394142 0)
(-0.0390745 -0.000669209 0)
(-0.0388422 -0.000942494 0)
(-0.0385319 -0.00121303 0)
(-0.0381446 -0.00147984 0)
(-0.0376814 -0.00174195 0)
(-0.0371439 -0.00199835 0)
(-0.0365338 -0.00224806 0)
(-0.0358532 -0.00249008 0)
(-0.0351045 -0.00272341 0)
(-0.0342903 -0.00294705 0)
(-0.0334135 -0.00316001 0)
(-0.0324773 -0.0033613 0)
(-0.0314851 -0.00354995 0)
(-0.0304408 -0.00372499 0)
(-0.0293482 -0.00388548 0)
(-0.0282117 -0.00403049 0)
(-0.0270357 -0.00415915 0)
(-0.025825 -0.00427057 0)
(-0.0245845 -0.00436393 0)
(-0.0233195 -0.00443846 0)
(-0.0220354 -0.00449341 0)
(-0.0207376 -0.0045281 0)
(-0.019432 -0.00454191 0)
(-0.0181244 -0.0045343 0)
(-0.0168209 -0.0045048 0)
(-0.0155275 -0.00445303 0)
(-0.0142505 -0.0043787 0)
(-0.0129959 -0.00428166 0)
(-0.0117701 -0.00416187 0)
(-0.0105791 -0.00401943 0)
(-0.00942916 -0.00385462 0)
(-0.00832603 -0.00366793 0)
(-0.0072755 -0.00346003 0)
(-0.00628301 -0.00323191 0)
(-0.00535365 -0.00298485 0)
(-0.0044921 -0.00272051 0)
(-0.00370248 -0.00244102 0)
(-0.00298828 -0.00214908 0)
(-0.0023522 -0.00184807 0)
(-0.00179603 -0.00154223 0)
(-0.00132047 -0.00123686 0)
(-0.000924982 -0.00093858 0)
(-0.000607582 -0.000655643 0)
(-0.000364682 -0.000398319 0)
(-0.000190829 -0.00017937 0)
(-7.84364e-05 -1.45128e-05 0)
(-1.82122e-05 7.69691e-05 0)
(4.59083e-08 6.97953e-05 0)
(-4.18831e-06 -4.66507e-05 0)
(-4.39333e-05 7.05819e-06 0)
(-0.000148271 0.000170421 0)
(-0.000321788 0.000414966 0)
(-0.00057066 0.000718676 0)
(-0.000900757 0.00106346 0)
(-0.00131599 0.00143456 0)
(-0.00181857 0.00182 0)
(-0.00240925 0.00221016 0)
(-0.00308751 0.0025973 0)
(-0.00385167 0.00297525 0)
(-0.00469902 0.00333912 0)
(-0.00562605 0.00368502 0)
(-0.00662848 0.00400994 0)
(-0.00770149 0.00431156 0)
(-0.00883973 0.00458813 0)
(-0.0100375 0.00483835 0)
(-0.0112888 0.00506133 0)
(-0.0125873 0.00525648 0)
(-0.0139268 0.00542349 0)
(-0.0153006 0.00556226 0)
(-0.0167024 0.00567288 0)
(-0.0181254 0.00575559 0)
(-0.0195633 0.00581076 0)
(-0.0210096 0.00583888 0)
(-0.0224579 0.00584051 0)
(-0.0239021 0.00581632 0)
(-0.025336 0.005767 0)
(-0.0267537 0.00569335 0)
(-0.0281494 0.00559616 0)
(-0.0295177 0.00547631 0)
(-0.030853 0.00533468 0)
(-0.0321502 0.0051722 0)
(-0.0334045 0.00498981 0)
(-0.034611 0.00478848 0)
(-0.0357652 0.00456919 0)
(-0.036863 0.00433297 0)
(-0.0379003 0.00408081 0)
(-0.0388733 0.00381378 0)
(-0.0397786 0.0035329 0)
(-0.0406129 0.00323926 0)
(-0.0413731 0.00293392 0)
(-0.0420567 0.00261799 0)
(-0.042661 0.00229256 0)
(-0.0431841 0.00195875 0)
(-0.0436238 0.00161771 0)
(-0.0439787 0.00127057 0)
(-0.0442475 0.000918503 0)
(-0.0444289 0.000562682 0)
(-0.0445224 0.000204298 0)
(-0.0445274 -0.000155442 0)
(-0.0444438 -0.000515317 0)
(-0.0442716 -0.000874094 0)
(-0.0440115 -0.00123052 0)
(-0.0436641 -0.00158335 0)
(-0.0432304 -0.0019313 0)
(-0.0427118 -0.00227309 0)
(-0.0421101 -0.00260744 0)
(-0.0414272 -0.00293305 0)
(-0.0406654 -0.00324863 0)
(-0.0398273 -0.00355288 0)
(-0.0389159 -0.0038445 0)
(-0.0379344 -0.00412221 0)
(-0.0368864 -0.00438473 0)
(-0.0357757 -0.0046308 0)
(-0.0346064 -0.00485918 0)
(-0.0333831 -0.00506864 0)
(-0.0321103 -0.005258 0)
(-0.0307932 -0.00542611 0)
(-0.029437 -0.00557185 0)
(-0.0280471 -0.00569417 0)
(-0.0266294 -0.00579207 0)
(-0.0251898 -0.0058646 0)
(-0.0237345 -0.0059109 0)
(-0.0222698 -0.0059302 0)
(-0.0208021 -0.0059218 0)
(-0.0193382 -0.00588514 0)
(-0.0178848 -0.00581973 0)
(-0.0164486 -0.00572527 0)
(-0.0150365 -0.00560157 0)
(-0.0136552 -0.00544861 0)
(-0.0123116 -0.0052666 0)
(-0.0110122 -0.00505594 0)
(-0.0097636 -0.00481728 0)
(-0.00857193 -0.00455157 0)
(-0.00744317 -0.00426013 0)
(-0.00638289 -0.00394463 0)
(-0.00539617 -0.00360725 0)
(-0.00448753 -0.00325074 0)
(-0.00366081 -0.00287851 0)
(-0.00291905 -0.00249482 0)
(-0.00226437 -0.00210491 0)
(-0.0016978 -0.00171525 0)
(-0.00121919 -0.00133376 0)
(-0.000827026 -0.000970187 0)
(-0.000518309 -0.000636449 0)
(-0.000288336 -0.000347114 0)
(-0.000130455 -0.000119847 0)
(-3.74416e-05 2.39988e-05 0)
(-3.15092e-06 5.69434e-05 0)
(-7.48507e-06 -2.02641e-05 0)
(-6.42576e-05 9.58056e-05 0)
(-0.000203789 0.000330123 0)
(-0.000426232 0.000652831 0)
(-0.000735342 0.00104037 0)
(-0.00113575 0.00147311 0)
(-0.00163034 0.00193473 0)
(-0.00222047 0.00241186 0)
(-0.00290622 0.00289355 0)
(-0.00368649 0.00337088 0)
(-0.00455913 0.00383662 0)
(-0.00552101 0.00428497 0)
(-0.00656818 0.00471126 0)
(-0.00769599 0.00511183 0)
(-0.00889916 0.00548381 0)
(-0.010172 0.00582499 0)
(-0.0115082 0.00613373 0)
(-0.0129015 0.00640887 0)
(-0.014345 0.00664962 0)
(-0.015832 0.00685553 0)
(-0.0173553 0.00702642 0)
(-0.0189081 0.00716235 0)
(-0.0204831 0.00726358 0)
(-0.0220734 0.00733052 0)
(-0.0236719 0.00736373 0)
(-0.0252719 0.00736389 0)
(-0.0268665 0.00733179 0)
(-0.0284491 0.00726828 0)
(-0.0300133 0.00717432 0)
(-0.0315528 0.0070509 0)
(-0.0330615 0.00689908 0)
(-0.0345336 0.00671996 0)
(-0.0359634 0.00651469 0)
(-0.0373455 0.00628444 0)
(-0.0386748 0.00603042 0)
(-0.0399464 0.00575387 0)
(-0.0411556 0.00545603 0)
(-0.042298 0.0051382 0)
(-0.0433694 0.00480167 0)
(-0.0443662 0.00444777 0)
(-0.0452847 0.00407782 0)
(-0.0461216 0.00369318 0)
(-0.046874 0.00329524 0)
(-0.0475392 0.00288537 0)
(-0.0481149 0.00246499 0)
(-0.0485988 0.00203553 0)
(-0.0489893 0.00159842 0)
(-0.049285 0.00115514 0)
(-0.0494845 0.000707162 0)
(-0.0495873 0.000255986 0)
(-0.0495927 -0.000196871 0)
(-0.0495005 -0.000649873 0)
(-0.049311 -0.00110147 0)
(-0.0490246 -0.00155009 0)
(-0.0486421 -0.00199416 0)
(-0.0481648 -0.00243207 0)
(-0.047594 -0.00286223 0)
(-0.0469317 -0.00328301 0)
(-0.0461801 -0.0036928 0)
(-0.0453416 -0.00408997 0)
(-0.0444191 -0.00447289 0)
(-0.0434159 -0.00483996 0)
(-0.0423354 -0.00518954 0)
(-0.0411816 -0.00552007 0)
(-0.0399587 -0.00582994 0)
(-0.0386711 -0.00611762 0)
(-0.0373238 -0.00638159 0)
(-0.035922 -0.00662037 0)
(-0.0344709 -0.00683252 0)
(-0.0329764 -0.00701667 0)
(-0.0314446 -0.00717151 0)
(-0.0298815 -0.0072958 0)
(-0.0282938 -0.00738838 0)
(-0.0266881 -0.0074482 0)
(-0.0250713 -0.0074743 0)
(-0.0234505 -0.00746585 0)
(-0.0218329 -0.00742216 0)
(-0.0202257 -0.00734269 0)
(-0.0186364 -0.00722705 0)
(-0.0170722 -0.00707507 0)
(-0.0155405 -0.00688679 0)
(-0.0140487 -0.00666247 0)
(-0.0126039 -0.00640267 0)
(-0.0112131 -0.00610827 0)
(-0.00988302 -0.00578049 0)
(-0.00862003 -0.00542098 0)
(-0.00743016 -0.00503188 0)
(-0.00631892 -0.0046159 0)
(-0.00529123 -0.00417641 0)
(-0.00435133 -0.00371758 0)
(-0.00350265 -0.00324453 0)
(-0.00274771 -0.00276348 0)
(-0.00208799 -0.00228203 0)
(-0.00152386 -0.00180935 0)
(-0.0010544 -0.00135654 0)
(-0.000677402 -0.000936987 0)
(-0.000389098 -0.000566822 0)
(-0.000183958 -0.000265302 0)
(-5.7015e-05 -5.53585e-05 0)
(-6.32594e-06 3.40676e-05 0)
(-1.06952e-05 1.652e-05 0)
(-8.44708e-05 0.000212352 0)
(-0.000259533 0.000532341 0)
(-0.00053165 0.000945827 0)
(-0.000902095 0.00142816 0)
(-0.00137416 0.00195849 0)
(-0.00194955 0.00251926 0)
(-0.00262866 0.00309586 0)
(-0.00341074 0.00367618 0)
(-0.00429406 0.00425023 0)
(-0.00527586 0.00480979 0)
(-0.0063525 0.00534818 0)
(-0.00751959 0.00586001 0)
(-0.008772 0.00634094 0)
(-0.010104 0.00678756 0)
(-0.0115096 0.00719721 0)
(-0.0129819 0.00756789 0)
(-0.0145142 0.00789815 0)
(-0.0160994 0.008187 0)
(-0.0177299 0.00843383 0)
(-0.0193985 0.00863837 0)
(-0.0210975 0.00880065 0)
(-0.0228194 0.00892091 0)
(-0.0245566 0.00899962 0)
(-0.0263018 0.00903742 0)
(-0.0280475 0.0090351 0)
(-0.0297865 0.00899356 0)
(-0.0315117 0.00891384 0)
(-0.0332162 0.00879705 0)
(-0.0348931 0.00864439 0)
(-0.0365361 0.00845713 0)
(-0.0381387 0.00823659 0)
(-0.0396949 0.00798416 0)
(-0.0411989 0.00770126 0)
(-0.0426452 0.00738935 0)
(-0.0440284 0.00704992 0)
(-0.0453435 0.00668452 0)
(-0.0465858 0.0062947 0)
(-0.0477509 0.00588205 0)
(-0.0488347 0.00544816 0)
(-0.0498332 0.00499469 0)
(-0.0507429 0.00452327 0)
(-0.0515608 0.00403561 0)
(-0.0522837 0.00353338 0)
(-0.0529093 0.00301833 0)
(-0.0534352 0.00249218 0)
(-0.0538596 0.00195672 0)
(-0.0541809 0.00141372 0)
(-0.0543978 0.000865014 0)
(-0.0545094 0.000312419 0)
(-0.0545153 -0.000242205 0)
(-0.0544152 -0.00079698 0)
(-0.0542093 -0.00135001 0)
(-0.0538982 -0.00189938 0)
(-0.0534827 -0.00244316 0)
(-0.0529641 -0.0029794 0)
(-0.052344 -0.00350614 0)
(-0.0516244 -0.00402141 0)
(-0.0508076 -0.00452323 0)
(-0.0498965 -0.00500962 0)
(-0.048894 -0.0054786 0)
(-0.0478037 -0.00592821 0)
(-0.0466294 -0.00635648 0)
(-0.0453752 -0.00676147 0)
(-0.0440456 -0.00714128 0)
(-0.0426457 -0.00749401 0)
(-0.0411805 -0.00781783 0)
(-0.0396556 -0.00811095 0)
(-0.0380769 -0.00837163 0)
(-0.0364505 -0.00859821 0)
(-0.034783 -0.00878912 0)
(-0.033081 -0.00894285 0)
(-0.0313514 -0.00905803 0)
(-0.0296016 -0.00913338 0)
(-0.0278388 -0.00916779 0)
(-0.0260707 -0.00916025 0)
(-0.0243049 -0.00910997 0)
(-0.0225493 -0.0090163 0)
(-0.0208118 -0.00887884 0)
(-0.0191001 -0.0086974 0)
(-0.0174223 -0.00847207 0)
(-0.015786 -0.00820322 0)
(-0.014199 -0.00789158 0)
(-0.0126687 -0.00753822 0)
(-0.0112023 -0.00714469 0)
(-0.00980665 -0.00671301 0)
(-0.00848824 -0.00624576 0)
(-0.00725298 -0.0057462 0)
(-0.00610624 -0.00521834 0)
(-0.00505267 -0.00466711 0)
(-0.00409617 -0.00409845 0)
(-0.00323973 -0.00351957 0)
(-0.00248539 -0.00293909 0)
(-0.00183411 -0.00236734 0)
(-0.00128575 -0.00181666 0)
(-0.000838979 -0.00130172 0)
(-0.000491107 -0.000839943 0)
(-0.00023784 -0.000451861 0)
(-7.65368e-05 -0.000161551 0)
(-9.42442e-06 1.16051e-06 0)
(-1.37965e-05 6.35389e-05 0)
(-0.000104351 0.00035663 0)
(-0.000314819 0.000777291 0)
(-0.000636726 0.00129448 0)
(-0.00106889 0.00188284 0)
(-0.0016132 0.0025206 0)
(-0.00227014 0.00318922 0)
(-0.00303899 0.00387304 0)
(-0.00391815 0.00455895 0)
(-0.00490508 0.00523599 0)
(-0.00599639 0.00589508 0)
(-0.00718787 0.00652871 0)
(-0.00847457 0.00713077 0)
(-0.0098509 0.00769631 0)
(-0.0113107 0.00822138 0)
(-0.0128474 0.00870288 0)
(-0.0144539 0.00913844 0)
(-0.0161228 0.00952632 0)
(-0.0178467 0.00986531 0)
(-0.0196176 0.0101547 0)
(-0.0214277 0.010394 0)
(-0.023269 0.0105833 0)
(-0.0251335 0.0107228 0)
(-0.0270132 0.010813 0)
(-0.0289002 0.0108546 0)
(-0.0307866 0.0108486 0)
(-0.0326648 0.010796 0)
(-0.0345273 0.0106979 0)
(-0.0363666 0.0105557 0)
(-0.0381756 0.0103708 0)
(-0.0399473 0.0101447 0)
(-0.041675 0.00987883 0)
(-0.0433523 0.00957496 0)
(-0.044973 0.00923473 0)
(-0.0465311 0.00885989 0)
(-0.048021 0.0084522 0)
(-0.0494374 0.0080135 0)
(-0.0507751 0.00754563 0)
(-0.0520295 0.00705049 0)
(-0.0531962 0.00653 0)
(-0.0542711 0.0059861 0)
(-0.0552503 0.00542079 0)
(-0.0561305 0.00483605 0)
(-0.0569087 0.00423394 0)
(-0.0575819 0.00361651 0)
(-0.0581479 0.00298584 0)
(-0.0586047 0.00234405 0)
(-0.0589504 0.00169328 0)
(-0.059184 0.0010357 0)
(-0.0593043 0.000373508 0)
(-0.0593108 -0.000291089 0)
(-0.0592033 -0.000955843 0)
(-0.0589821 -0.00161849 0)
(-0.0586476 -0.00227673 0)
(-0.0582008 -0.00292828 0)
(-0.0576432 -0.00357079 0)
(-0.0569763 -0.00420192 0)
(-0.0562024 -0.00481934 0)
(-0.0553239 -0.00542068 0)
(-0.0543437 -0.00600357 0)
(-0.0532652 -0.00656567 0)
(-0.0520921 -0.00710463 0)
(-0.0508283 -0.00761811 0)
(-0.0494785 -0.00810381 0)
(-0.0480473 -0.00855945 0)