/*--------------------------------*- C++ -*----------------------------------*\
| =========                 |                                                 |
| \\      /  F ield         | OpenFOAM: The Open Source CFD Toolbox           |
|  \\    /   O peration     | Version:  2212                                  |
|   \\  /    A nd           | Website:  www.openfoam.com                      |
|    \\/     M anipulation  |                                                 |
\*---------------------------------------------------------------------------*/
FoamFile
{
    version     2.0;
    format      ascii;
    arch        "LSB;label=32;scalar=64";
    class       volScalarField;
    location    "0.0905";
    object      p;
}
// * * * * * * * * * * * * * * * * * * * * * * * * * * * * * * * * * * * * * //

dimensions      [0 2 -2 0 0 0 0];

internalField   nonuniform List<scalar> 
10000
(
-1.5408e-07
9.31721e-05
-0.000127483
-0.000706567
-0.00159533
-0.00273832
-0.00407939
-0.00556464
-0.00714525
-0.00877803
-0.0104251
-0.0120534
-0.0136342
-0.0151426
-0.0165569
-0.0178587
-0.019032
-0.0200631
-0.0209408
-0.0216556
-0.0221998
-0.0225675
-0.0227539
-0.0227559
-0.0225712
-0.0221991
-0.0216396
-0.0208939
-0.0199639
-0.0188523
-0.0175625
-0.0160988
-0.0144658
-0.0126691
-0.0107146
-0.00860875
-0.00635875
-0.00397208
-0.00145668
0.00117918
0.00392681
0.00677718
0.00972099
0.0127486
0.0158499
0.0190149
0.022233
0.0254936
0.0287859
0.0320988
0.0354213
0.0387425
0.0420509
0.0453355
0.0485848
0.0517875
0.0549325
0.0580086
0.0610049
0.0639108
0.0667158
0.0694096
0.0719824
0.0744246
0.076727
0.0788808
0.080878
0.0827109
0.0843727
0.0858571
0.0871587
0.0882727
0.0891952
0.0899233
0.0904553
0.0907903
0.0909289
0.0908724
0.0906239
0.0901878
0.0895697
0.0887774
0.08782
0.0867089
0.0854571
0.0840801
0.0825955
0.0810237
0.0793879
0.0777145
0.0760333
0.0743784
0.0727879
0.0713051
0.0699778
0.0688582
0.0679993
0.067452
0.0672584
0.0673667
-9.31287e-05
6.4576e-07
-0.000213548
-0.000730768
-0.00150093
-0.00248505
-0.00364197
-0.00492907
-0.00630589
-0.00773531
-0.00918382
-0.0106215
-0.0120217
-0.0133613
-0.0146195
-0.0157788
-0.0168235
-0.0177404
-0.0185182
-0.0191476
-0.0196207
-0.0199313
-0.0200746
-0.020047
-0.0198461
-0.0194707
-0.0189204
-0.0181961
-0.0172992
-0.0162319
-0.0149973
-0.0135991
-0.0120415
-0.0103297
-0.00846893
-0.00646546
-0.0043258
-0.002057
0.00033352
0.00283799
0.00544823
0.0081557
0.0109516
0.0138268
0.0167718
0.019777
0.0228324
0.0259279
0.0290532
0.032198
0.0353517
0.0385039
0.0416438
0.0447609
0.0478444
0.0508836
0.0538678
0.0567865
0.0596297
0.062387
0.0650488
0.0676053
0.0700474
0.0723661
0.0745527
0.0765992
0.078498
0.0802421
0.0818253
0.0832418
0.0844868
0.0855559
0.0864457
0.0871539
0.0876791
0.088021
0.0881802
0.0881586
0.0879594
0.0875872
0.0870477
0.0863487
0.0854994
0.0845109
0.0833958
0.0821691
0.0808478
0.0794513
0.0780015
0.0765229
0.0750429
0.0735921
0.0722044
0.0709166
0.0697684
0.0688008
0.0680524
0.0675589
0.0673662
0.0674749
0.000127273
0.00021577
1.8142e-06
-0.000483687
-0.0011865
-0.00207416
-0.00311329
-0.00426837
-0.00550498
-0.00679084
-0.00809622
-0.00939408
-0.0106601
-0.0118726
-0.0130122
-0.0140621
-0.0150076
-0.0158357
-0.0165355
-0.0170977
-0.0175147
-0.0177802
-0.0178893
-0.0178382
-0.0176243
-0.0172463
-0.0167036
-0.0159965
-0.0151263
-0.014095
-0.0129052
-0.0115603
-0.0100641
-0.00842127
-0.00663699
-0.00471696
-0.00266735
-0.000494767
0.00179375
0.00419085
0.00668877
0.0092794
0.0119544
0.0147049
0.0175221
0.0203966
0.0233189
0.0262794
0.0292683
0.0322757
0.0352916
0.0383058
0.0413082
0.0442887
0.047237
0.0501429
0.0529962
0.055787
0.0585054
0.0611421
0.0636876
0.0661328
0.0684689
0.0706875
0.0727805
0.0747401
0.0765594
0.0782319
0.0797518
0.0811136
0.0823129
0.0833459
0.0842094
0.0849016
0.0854212
0.0857683
0.0859437
0.0859495
0.0857889
0.0854666
0.0849886
0.0843623
0.0835967
0.0827026
0.0816925
0.0805804
0.0793826
0.0781175
0.0768054
0.0754693
0.074134
0.0728273
0.0715791
0.0704216
0.0693884
0.0685139
0.0678293
0.0673648
0.0671728
0.0672824
0.000705373
0.00073391
0.000488222
1.91724e-06
-0.000674934
-0.00151295
-0.00248305
-0.00355455
-0.00469757
-0.00588378
-0.00708675
-0.00828213
-0.00944777
-0.0105637
-0.011612
-0.0125769
-0.0134442
-0.014202
-0.0148395
-0.0153479
-0.0157197
-0.0159487
-0.01603
-0.0159598
-0.0157357
-0.0153559
-0.0148198
-0.0141275
-0.0132801
-0.0122793
-0.0111275
-0.0098277
-0.00838358
-0.00679946
-0.00508018
-0.00323111
-0.00125811
0.000832564
0.00303423
0.00533986
0.00774207
0.0102331
0.012805
0.0154493
0.0181574
0.0209205
0.0237295
0.026575
0.0294477
0.032338
0.0352365
0.0381334
0.041019
0.0438834
0.0467168
0.0495096
0.0522519
0.0549342
0.0575472
0.0600817
0.0625289
0.0648801
0.0671268
0.0692611
0.0712751
0.0731616
0.0749142
0.0765266
0.0779932
0.0793091
0.0804702
0.0814728
0.0823142
0.0829926
0.0835072
0.0838581
0.0840463
0.0840738
0.0839441
0.0836618
0.0832326
0.082664
0.0819646
0.0811447
0.0802162
0.0791927
0.0780894
0.0769235
0.075714
0.0744818
0.07325
0.0720432
0.0708883
0.0698136
0.0688484
0.0680224
0.0673633
0.0668987
0.0666789
0.0667376
0.00159426
0.00150668
0.00119316
0.000677965
-1.33491e-06
-0.000818551
-0.0017481
-0.00276365
-0.00383931
-0.00495037
-0.00607348
-0.00718691
-0.00827066
-0.00930654
-0.0102781
-0.0111707
-0.0119712
-0.0126682
-0.0132517
-0.0137131
-0.0140453
-0.0142423
-0.0142993
-0.0142127
-0.0139798
-0.013599
-0.0130694
-0.0123913
-0.0115652
-0.0105929
-0.00947648
-0.00821871
-0.00682305
-0.00529353
-0.00363471
-0.00185168
5.00264e-05
0.00206444
0.00418524
0.00640572
0.00871878
0.0111171
0.0135929
0.0161383
0.0187448
0.0214042
0.0241076
0.026846
0.0296106
0.0323922
0.0351815
0.0379693
0.0407463
0.0435029
0.0462297
0.0489175
0.0515569
0.0541387
0.0566541
0.0590942
0.0614505
0.0637148
0.065879
0.0679354
0.0698767
0.071696
0.073387
0.074944
0.0763617
0.0776353
0.078761
0.0797355
0.0805563
0.0812218
0.0817313
0.0820849
0.0822839
0.0823302
0.0822272
0.0819795
0.0815928
0.081074
0.0804315
0.0796751
0.0788161
0.0778673
0.0768428
0.0757587
0.0746325
0.0734833
0.0723318
0.0712004
0.0701128
0.0690937
0.0681687
0.0673636
0.0667029
0.0662116
0.0659292
0.0658817
0.00274177
0.0024978
0.00208649
0.00151721
0.000810248
-1.15741e-05
-0.000925745
-0.00190985
-0.00294173
-0.00399991
-0.00506393
-0.00611456
-0.0071339
-0.00810554
-0.00901455
-0.00984743
-0.0105921
-0.011238
-0.0117756
-0.012197
-0.0124954
-0.012665
-0.0127014
-0.0126009
-0.012361
-0.0119801
-0.0114572
-0.0107925
-0.00998652
-0.0090407
-0.00795703
-0.00673814
-0.00538725
-0.00390814
-0.00230515
-0.000583108
0.00125278
0.00319681
0.00524291
0.00738474
0.00961551
0.0119281
0.0143153
0.0167693
0.0192821
0.0218456
0.0244516
0.0270913
0.0297561
0.0324374
0.0351261
0.0378135
0.0404904
0.0431478
0.0457767
0.048368
0.0509128
0.0534024
0.0558282
0.0581817
0.0604548
0.0626396
0.0647283
0.0667135
0.0685883
0.0703462
0.0719811
0.0734875
0.0748604
0.0760954
0.0771888
0.0781375
0.0789392
0.0795924
0.0800966
0.0804519
0.0806595
0.0807215
0.0806411
0.0804227
0.0800718
0.079595
0.0790002
0.0782968
0.0774954
0.0766077
0.0756471
0.0746283
0.0735671
0.0724811
0.071389
0.0703105
0.0692666
0.0682788
0.0673694
0.0665604
0.0658738
0.0653314
0.064957
0.0647626
0.00409587
0.0036694
0.00313764
0.00249309
0.00173658
0.000887804
-3.34251e-05
-0.00100826
-0.00201785
-0.00304374
-0.00406808
-0.00507401
-0.00604564
-0.00696831
-0.00782853
-0.00861407
-0.0093139
-0.0099182
-0.0104183
-0.0108068
-0.0110772
-0.0112243
-0.0112437
-0.0111322
-0.0108871
-0.010507
-0.00999098
-0.00933902
-0.00855173
-0.00763036
-0.00657682
-0.00539353
-0.00408358
-0.00265055
-0.00109852
0.000567886
0.00234367
0.00422347
0.00620145
0.0082715
0.0104272
0.0126616
0.0149679
0.0173385
0.0197658
0.0222421
0.0247591
0.0273088
0.0298829
0.0324728
0.03507
0.037666
0.040252
0.0428192
0.0453591
0.0478629
0.050322
0.052728
0.0550727
0.0573479
0.0595458
0.0616587
0.0636793
0.0656003
0.0674152
0.0691177
0.0707021
0.0721629
0.0734955
0.0746957
0.0757598
0.076685
0.0774691
0.0781108
0.0786095
0.0789653
0.0791794
0.0792539
0.0791918
0.0789974
0.0786757
0.078233
0.0776769
0.0770161
0.0762604
0.0754208
0.0745095
0.0735398
0.0725264
0.0714851
0.0704324
0.069386
0.0683641
0.0673857
0.0664697
0.065635
0.064901
0.0642868
0.0637976
0.0634297
0.00560761
0.00498281
0.00431439
0.00357786
0.00275397
0.00185969
0.000912558
-7.18459e-05
-0.0010777
-0.00208921
-0.00309095
-0.00406821
-0.00500707
-0.00589451
-0.00671849
-0.007468
-0.00813305
-0.00870469
-0.00917501
-0.00953714
-0.00978519
-0.00991428
-0.0099204
-0.00980042
-0.00955201
-0.00917369
-0.00866469
-0.00802497
-0.00725513
-0.00635634
-0.00533041
-0.00417968
-0.00290705
-0.00151596
-1.03166e-05
0.0016055
0.00332669
0.00514809
0.00706416
0.00906903
0.0111565
0.01332
0.0155527
0.0178476
0.0201974
0.0225944
0.0250309
0.027499
0.0299908
0.032498
0.0350123
0.0375256
0.0400293
0.0425151
0.0449746
0.0473994
0.0497812
0.052112
0.0543837
0.0565885
0.0587188
0.0607672
0.0627265
0.0645901
0.0663513
0.0680043
0.0695433
0.0709634
0.0722598
0.0734286
0.0744664
0.0753704
0.0761385
0.0767692
0.0772622
0.0776175
0.0778362
0.0779202
0.0778724
0.0776968
0.0773983
0.0769825
0.0764567
0.0758289
0.0751081
0.0743045
0.0734291
0.0724942
0.0715131
0.0704998
0.0694691
0.0684365
0.0674181
0.0664301
0.0654888
0.0646099
0.0638108
0.0631081
0.0624878
0.0619297
0.00723339
0.00640175
0.0055858
0.00474466
0.00383936
0.0028845
0.00189582
0.000885996
-0.000131886
-0.00114445
-0.00213848
-0.00310123
-0.00402056
-0.00488505
-0.00568406
-0.00640778
-0.00704726
-0.00759441
-0.00804208
-0.00838403
-0.00861491
-0.00873025
-0.0087264
-0.00860049
-0.00835042
-0.00797483
-0.00747306
-0.00684509
-0.00609155
-0.00521359
-0.00421292
-0.00309183
-0.00185311
-0.00050005
0.000963602
0.00253362
0.00420543
0.00597404
0.00783413
0.00978009
0.0118059
0.0139053
0.0160717
0.0182982
0.0205779
0.0229034
0.0252673
0.0276619
0.0300795
0.0325122
0.034952
0.0373909
0.0398207
0.0422333
0.0446207
0.0469747
0.0492874
0.0515508
0.0537572
0.0558991
0.0579691
0.05996
0.0618649
0.0636773
0.0653908
0.0669997
0.0684986
0.0698824
0.0711467
0.0722876
0.0733018
0.0741867
0.07494
0.0755605
0.0760476
0.0764014
0.0766229
0.0767137
0.0766766
0.0765153
0.0762342
0.0758388
0.0753356
0.0747319
0.0740362
0.0732576
0.0724063
0.0714934
0.0705307
0.0695309
0.0685069
0.0674724
0.0664413
0.0654278
0.0644454
0.0635073
0.0626289
0.0618248
0.0610622
0.0603049
0.00893541
0.00789337
0.00692314
0.00596822
0.00497063
0.00394313
0.00290005
0.00185154
0.00080826
-0.000218595
-0.00121782
-0.00217846
-0.00309001
-0.00394253
-0.00472671
-0.00543389
-0.00605614
-0.00658626
-0.00701784
-0.00734527
-0.00756377
-0.00766932
-0.00765862
-0.00752913
-0.00727897
-0.00690695
-0.00641257
-0.00579588
-0.00505752
-0.00419867
-0.00322103
-0.00212679
-0.000918678
0.00040013
0.001826
0.00335485
0.0049823
0.00670353
0.0085134
0.0104065
0.012377
0.0144189
0.0165258
0.0186911
0.020908
0.0231696
0.0254684
0.0277973
0.0301487
0.0325148
0.034888
0.0372605
0.0396245
0.041972
0.0442953
0.0465864
0.0488377
0.0510414
0.0531901
0.0552764
0.0572931
0.0592332
0.0610902
0.0628575
0.0645291
0.0660993
0.0675628
0.0689147
0.0701508
0.0712672
0.0722606
0.0731284
0.0738684
0.0744793
0.0749606
0.0753121
0.0755347
0.0756299
0.0756002
0.0754488
0.0751801
0.074799
0.0743113
0.0737239
0.0730443
0.072281
0.0714431
0.0705406
0.0695842
0.0685849
0.0675542
0.0665041
0.0654467
0.0643941
0.0633576
0.0623479
0.0613792
0.0604644
0.0595522
0.0585915
0.010681
0.00942838
0.0083001
0.00722501
0.00612697
0.00501736
0.00390944
0.00281122
0.00173125
0.000678813
-0.000336703
-0.001306
-0.00222008
-0.00307036
-0.00384874
-0.0045477
-0.00516026
-0.0056801
-0.00610154
-0.00641962
-0.00663011
-0.00672949
-0.00671482
-0.00658385
-0.00633503
-0.00596737
-0.00548046
-0.00487452
-0.00415026
-0.00330886
-0.00235203
-0.00128191
-0.000101207
0.00118698
0.00257915
0.00407134
0.00565929
0.00733835
0.00910355
0.0109496
0.012871
0.0148618
0.0169159
0.0190268
0.0211881
0.0233929
0.0256342
0.0279048
0.0301975
0.0325049
0.0348193
0.0371333
0.0394392
0.0417294
0.0439962
0.0462322
0.0484296
0.050581
0.0526792
0.0547169
0.0566872
0.0585832
0.0603985
0.0621268
0.063762
0.0652986
0.0667315
0.068056
0.0692676
0.0703627
0.071338
0.0721907
0.0729189
0.0735212
0.0739966
0.0743453
0.0745676
0.0746649
0.0746396
0.0744945
0.0742336
0.0738612
0.0733828
0.0728044
0.072133
0.0713762
0.0705422
0.0696399
0.0686788
0.0676687
0.0666198
0.0655425
0.0644472
0.0633441
0.0622427
0.0611516
0.0600841
0.0590518
0.057986
0.0568212
0.0124423
0.0109809
0.00969295
0.00849342
0.00728888
0.00608981
0.00490872
0.00375177
0.00262569
0.0015381
0.000496776
-0.000490481
-0.00141604
-0.00227259
-0.00305318
-0.0037513
-0.00436093
-0.00487654
-0.0052932
-0.00560662
-0.00581306
-0.00590947
-0.00589339
-0.0057629
-0.00551666
-0.00515394
-0.00467456
-0.00407882
-0.00336752
-0.00254189
-0.0016037
-0.000555072
0.000601355
0.00186251
0.00322495
0.00468483
0.006238
0.00787997
0.00960588
0.0114107
0.0132888
0.0152348
0.0172425
0.0193057
0.0214182
0.0235733
0.0257642
0.027984
0.0302254
0.0324814
0.0347446
0.0370076
0.0392631
0.0415035
0.0437215
0.0459097
0.0480606
0.050167
0.0522217
0.0542177
0.0561482
0.0580065
0.0597862
0.0614811
0.0630854
0.0645936
0.0660006
0.0673018
0.0684928
0.0695698
0.0705296
0.0713695
0.0720875
0.0726819
0.0731518
0.0734971
0.073718
0.0738157
0.0737922
0.0736501
0.0733928
0.0730243
0.0725493
0.0719736
0.0713033
0.0705451
0.0697066
0.0687955
0.0678203
0.0667897
0.0657126
0.064598
0.0634549
0.062292
0.0611169
0.0599367
0.058764
0.0576096
0.0563882
0.0550208
0.0141948
0.0125278
0.0110802
0.00975361
0.00843829
0.00714418
0.00588333
0.00466032
0.00348032
0.0023495
0.00127428
0.000261078
-0.000683706
-0.00155393
-0.00234372
-0.0030475
-0.00366015
-0.00417693
-0.0045936
-0.00490645
-0.00511238
-0.00520878
-0.00519354
-0.00506513
-0.00482255
-0.00446529
-0.00399332
-0.00340713
-0.00270763
-0.00189612
-0.000974385
5.54005e-05
0.0011906
0.00242819
0.0037648
0.00519664
0.00671965
0.00832945
0.0100213
0.0117903
0.0136312
0.0155383
0.0175059
0.019528
0.0215984
0.0237106
0.0258581
0.0280341
0.0302315
0.0324435
0.0346628
0.0368822
0.0390946
0.0412927
0.0434692
0.0456168
0.0477284
0.0497967
0.0518148
0.0537758
0.055673
0.0574998
0.0592498
0.0609171
0.0624958
0.0639805
0.0653663
0.0666484
0.0678224
0.0688846
0.0698317
0.070661
0.0713703
0.071958
0.0724228
0.0727645
0.0729832
0.0730798
0.0730559
0.0729139
0.0726566
0.0722876
0.0718112
0.0712325
0.0705569
0.0697906
0.0689401
0.0680124
0.0670149
0.0659553
0.0648414
0.0636811
0.0624819
0.0612513
0.0599955
0.0587201
0.0574375
0.056158
0.0547805
0.0532132
0.0159175
0.0140489
0.0124426
0.0109875
0.00955846
0.00816512
0.00681935
0.00552443
0.00428413
0.00310339
0.00198742
0.000941446
-2.92474e-05
-0.000919547
-0.00172458
-0.00243974
-0.00306063
-0.00358326
-0.00400414
-0.00432013
-0.00452861
-0.00462747
-0.00461507
-0.00449018
-0.00425209
-0.00390056
-0.00343581
-0.00285845
-0.00216949
-0.00137037
-0.000462933
0.000550611
0.00166764
0.00288512
0.0041997
0.00560766
0.00710502
0.00868751
0.0103505
0.0120892
0.0138983
0.0157725
0.0177062
0.0196935
0.0217283
0.0238044
0.0259153
0.0280544
0.030215
0.03239
0.0345725
0.0367556
0.0389321
0.041095
0.0432371
0.0453513
0.0474305
0.0494676
0.0514558
0.0533884
0.0552586
0.05706
0.0587862
0.0604315
0.0619899
0.0634561
0.0648252
0.0660923
0.067253
0.0683037
0.069241
0.070062
0.0707645
0.0713465
0.071807
0.0721452
0.0723611
0.0724554
0.0724294
0.0722849
0.0720246
0.0716514
0.0711692
0.0705826
0.0698963
0.0691158
0.0682469
0.0672956
0.0662687
0.0651729
0.064015
0.0628016
0.0615394
0.0602347
0.0588925
0.0575173
0.0561214
0.054715
0.0531819
0.0514181
0.0175921
0.0155261
0.0137626
0.0121786
0.0106339
0.00913828
0.00770363
0.00633211
0.00502635
0.00379015
0.0026277
0.00154324
0.000540968
-0.000374969
-0.00120051
-0.00193188
-0.00256555
-0.00309821
-0.00352689
-0.00384913
-0.00406286
-0.00416637
-0.00415842
-0.00403817
-0.00380522
-0.00345957
-0.00300164
-0.00243223
-0.00175253
-0.000964034
-6.8682e-05
0.00093127
0.00203314
0.0032339
0.00453022
0.00591843
0.00739462
0.00895454
0.0105937
0.0123073
0.0140903
0.0159375
0.0178433
0.019802
0.0218076
0.0238541
0.0259351
0.0280442
0.0301746
0.0323196
0.0344724
0.0366262
0.0387739
0.0409087
0.0430234
0.045111
0.0471646
0.0491773
0.0511423
0.0530529
0.0549023
0.0566843
0.0583926
0.0600213
0.0615647
0.0630173
0.0643741
0.0656304
0.0667817
0.0678243
0.0687547
0.0695699
0.0702674
0.0708453
0.0713022
0.0716373
0.0718502
0.0719414
0.0719118
0.0717628
0.0714968
0.0711163
0.0706246
0.0700258
0.0693241
0.0685242
0.0676312
0.0666506
0.0655883
0.06445
0.0632418
0.0619693
0.0606384
0.0592543
0.0578212
0.0563426
0.054831
0.0532967
0.051609
0.0496524
0.0192026
0.0169434
0.0150246
0.0133117
0.0116503
0.0100502
0.00852369
0.00707185
0.00569642
0.00440029
0.00318666
0.00205882
0.00102019
7.40245e-05
-0.000776522
-0.00152837
-0.00217865
-0.00272479
-0.00316446
-0.00349566
-0.00371684
-0.00382678
-0.00382463
-0.00370989
-0.00348244
-0.00314257
-0.00269093
-0.00212851
-0.00145662
-0.000676901
0.000208629
0.00119762
0.00228734
0.00347478
0.00475661
0.00612916
0.00758853
0.00913055
0.0107508
0.0124446
0.014207
0.0160328
0.0179166
0.0198528
0.0218356
0.0238589
0.0259166
0.0280022
0.0301093
0.0322311
0.0343611
0.0364924
0.0386183
0.0407318
0.0428259
0.0448939
0.0469287
0.0489236
0.0508719
0.0527667
0.0546016
0.0563701
0.0580662
0.0596839
0.0612174
0.0626613
0.0640105
0.0652602
0.066406
0.0674439
0.0683704
0.0691823
0.069877
0.0704524
0.0709069
0.0712394
0.0714495
0.071537
0.0715027
0.0713478
0.0710739
0.0706835
0.0701792
0.0695647
0.0688434
0.0680197
0.0670979
0.066083
0.0649799
0.0637939
0.0625301
0.0611935
0.0597891
0.0583213
0.0567937
0.055209
0.05358
0.0519173
0.0500765
0.0479308
0.0207345
0.0182862
0.0162143
0.0143731
0.0125944
0.0108884
0.00926769
0.00773269
0.00628424
0.00492444
0.00365575
0.00248061
0.00140157
0.000421208
-0.000458046
-0.00123388
-0.0019041
-0.00246669
-0.00291989
-0.00326229
-0.00349278
-0.00361058
-0.0036152
-0.00350652
-0.00328472
-0.00295038
-0.00250432
-0.00194774
-0.00128212
-0.000509237
0.000368769
0.00134948
0.00243014
0.00360767
0.00487874
0.00623965
0.00768655
0.00921533
0.0108216
0.0125008
0.014248
0.0160581
0.0179257
0.0198454
0.0218115
0.0238179
0.0258586
0.0279273
0.0300176
0.032123
0.034237
0.0363527
0.0384634
0.0405624
0.0426428
0.0446978
0.0467206
0.0487042
0.0506421
0.0525275
0.054354
0.0561151
0.0578047
0.0594168
0.0609457
0.0623857
0.0637319
0.0649794
0.0661236
0.0671604
0.0680861
0.0688974
0.0695916
0.0701663
0.0706198
0.0709507
0.0711582
0.071242
0.0712024
0.0710403
0.0707571
0.0703546
0.0698352
0.0692018
0.0684577
0.0676063
0.0666517
0.0655982
0.0644501
0.0632119
0.0618881
0.0604831
0.0590012
0.0574464
0.0558214
0.0541285
0.0523809
0.0505896
0.0485972
0.0462659
0.0221752
0.0195417
0.0173188
0.01535
0.0134539
0.0116411
0.00992448
0.00830405
0.00677996
0.00535358
0.00402659
0.00280084
0.00167816
0.000660349
-0.00025079
-0.00105357
-0.0017464
-0.00232785
-0.00279674
-0.00315212
-0.00339336
-0.00352006
-0.00353215
-0.00342982
-0.00321358
-0.00288424
-0.00244286
-0.00189083
-0.00122983
-0.000461766
0.000411118
0.00138633
0.00246103
0.00363207
0.00489609
0.0062494
0.00768819
0.00920836
0.0108055
0.0124752
0.0142125
0.0160124
0.0178696
0.0197787
0.0217341
0.0237298
0.0257599
0.0278181
0.0298983
0.0319939
0.0340984
0.0362052
0.0383076
0.0403988
0.0424722
0.0445209
0.0465381
0.048517
0.0504509
0.0523332
0.0541573
0.0559169
0.0576057
0.0592177
0.0607471
0.0621884
0.0635363
0.0647859
0.0659325
0.0669719
0.0679001
0.0687139
0.0694101
0.0699862
0.0704403
0.0707707
0.0709764
0.0710566
0.0710115
0.0708416
0.0705478
0.0701317
0.0695951
0.0689404
0.0681705
0.0672885
0.0662977
0.065202
0.0640051
0.062711
0.0613235
0.0598466
0.058284
0.0566393
0.0549148
0.0531119
0.0512449
0.0493252
0.0471826
0.044669
0.0235131
0.0206978
0.0183261
0.0162306
0.0142171
0.0122968
0.0104833
0.00877587
0.007174
0.00567867
0.0042909
0.00301187
0.00184282
0.000784923
-0.00016063
-0.000992731
-0.00171036
-0.00231265
-0.0027989
-0.00316864
-0.00342166
-0.003558
-0.00357793
-0.00348199
-0.00327094
-0.00294586
-0.00250807
-0.00195917
-0.00130099
-0.000535583
0.000334688
0.00130723
0.0023791
0.0035471
0.00480783
0.00615762
0.00759263
0.00910876
0.0107017
0.0123668
0.0140995
0.0158947
0.0177472
0.0196516
0.0216022
0.0235933
0.0256191
0.0276733
0.0297497
0.031842
0.0339437
0.0360482
0.0381489
0.0402391
0.042312
0.044361
0.0463792
0.0483597
0.050296
0.0521814
0.0540093
0.0557733
0.0574671
0.0590846
0.0606199
0.0620674
0.0634218
0.064678
0.0658312
0.066877
0.0678113
0.0686305
0.0693314
0.0699113
0.0703679
0.0706993
0.0709041
0.0709814
0.070931
0.070753
0.070448
0.070017
0.0694616
0.0687838
0.0679859
0.0670707
0.066041
0.0649001
0.0636514
0.0622982
0.060844
0.0592923
0.0576465
0.0559096
0.0540835
0.0521695
0.0501824
0.0481345
0.0458431
0.0431499
0.0247377
0.0217438
0.019225
0.0170037
0.0148732
0.0128453
0.010934
0.00913825
0.00745711
0.00589097
0.0044404
0.00310599
0.00188841
0.000788322
-0.000193661
-0.00105698
-0.00180114
-0.00242576
-0.00293062
-0.0033157
-0.00358121
-0.00372758
-0.00375543
-0.00366559
-0.00345912
-0.00313738
-0.00270192
-0.00215453
-0.00149721
-0.000732175
0.000138073
0.00111082
0.00218307
0.00335155
0.00461281
0.00596315
0.0073987
0.00891535
0.0105088
0.0121746
0.0139079
0.0157038
0.0175572
0.0194625
0.0214144
0.0234071
0.0254346
0.0274911
0.0295703
0.0316658
0.0337712
0.03588
0.0379856
0.0400813
0.0421604
0.0442162
0.0462418
0.0482305
0.0501756
0.0520703
0.0539081
0.0556824
0.0573869
0.0590154
0.060562
0.062021
0.0633868
0.0646543
0.0658184
0.0668745
0.0678185
0.0686465
0.0693551
0.0699413
0.0704026
0.0707367
0.070942
0.0710175
0.0709623
0.0707763
0.0704598
0.0700133
0.0694381
0.0687357
0.0679082
0.0669578
0.0658869
0.0646985
0.0633953
0.0619805
0.0604571
0.0588282
0.0570969
0.0552659
0.0533368
0.0513106
0.049203
0.047027
0.044588
0.0417173
0.0258392
0.0226695
0.0200054
0.0176592
0.0154121
0.0132763
0.0112667
0.00938178
0.0076202
0.00598188
0.00446693
0.00307549
0.00180773
0.000663812
-0.000356171
-0.00125215
-0.00202411
-0.00267214
-0.00319647
-0.00359751
-0.00387588
-0.00403235
-0.00406787
-0.00398359
-0.00378088
-0.00346134
-0.00302674
-0.00247907
-0.00182051
-0.00105345
-0.000180527
0.00079543
0.00187134
0.00304388
0.00430952
0.0056645
0.00710492
0.00862668
0.0102255
0.0118969
0.0136361
0.0154382
0.017298
0.0192101
0.0211691
0.0231693
0.0252049
0.0272699
0.0293582
0.0314633
0.0335789
0.0356986
0.0378157
0.0399235
0.0420154
0.0440845
0.046124
0.0481273
0.0500875
0.0519979
0.0538517
0.0556423
0.0573634
0.0590087
0.060572
0.0620477
0.0634299
0.0647133
0.0658928
0.0669635
0.0679211
0.0687615
0.069481
0.0700763
0.0705447
0.0708836
0.0710912
0.0711661
0.071107
0.0709136
0.0705857
0.0701235
0.0695279
0.0688001
0.0679417
0.0669546
0.0658409
0.0646029
0.0632433
0.0617648
0.0601702
0.0584621
0.0566434
0.0547167
0.0526832
0.050544
0.0483154
0.0460114
0.0434256
0.0403794
0.0268087
0.0234653
0.0206574
0.0181872
0.0158238
0.0135803
0.011472
0.00949732
0.0076544
0.00594285
0.00436239
0.0029127
0.00159352
0.000404533
-0.000654597
-0.00158425
-0.00238489
-0.00305703
-0.00360133
-0.00401862
-0.00430986
-0.00447619
-0.00451887
-0.00443939
-0.00423936
-0.00392062
-0.0034852
-0.0029353
-0.00227327
-0.00150166
-0.000623255
0.000359025
0.00144198
0.00262221
0.00389611
0.00525985
0.00670953
0.00824104
0.00985007
0.0115321
0.0132824
0.0150961
0.0169678
0.0188925
0.0208645
0.0228783
0.0249281
0.0270079
0.0291115
0.0312327
0.0333651
0.0355021
0.0376372
0.0397637
0.0418748
0.0439638
0.0460239
0.0480482
0.0500299
0.0519622
0.0538382
0.0556512
0.0573948
0.0590626
0.0606484
0.0621461
0.0635499
0.0648542
0.0660537
0.0671434
0.0681186
0.0689752
0.069709
0.0703166
0.0707948
0.0711411
0.071353
0.0714289
0.0713673
0.0711674
0.0708286
0.0703509
0.0697347
0.0689811
0.0680911
0.0670663
0.0659085
0.0646196
0.0632019
0.0616581
0.0599904
0.0582016
0.056294
0.0542702
0.0521312
0.049878
0.047528
0.0450961
0.0423639
0.0391432
0.0276375
0.0241224
0.0211719
0.0185784
0.0160992
0.0137479
0.0115408
0.00947588
0.00755103
0.00576552
0.0041187
0.00260989
0.0012384
3.51969e-06
-0.00109551
-0.00205951
-0.00288934
-0.00358594
-0.00415038
-0.00458386
-0.00488768
-0.00506333
-0.0051124
-0.00503666
-0.00483799
-0.00451848
-0.00408038
-0.00352611
-0.00285822
-0.00207941
-0.00119256
-0.000200745
0.000892724
0.00208434
0.00337044
0.00474716
0.00621053
0.00775642
0.0093805
0.0110782
0.0128449
0.0146755
0.0165649
0.0185078
0.0204987
0.0225321
0.0246022
0.026703
0.0288283
0.030972
0.0331275
0.0352884
0.037448
0.0395998
0.0417368
0.0438523
0.0459395
0.0479913
0.0500009
0.0519614
0.0538658
0.0557075
0.0574797
0.0591759
0.0607898
0.062315
0.0637457
0.065076
0.0663004
0.0674137
0.068411
0.0692877
0.0700395
0.0706627
0.071154
0.0715102
0.0717289
0.0718079
0.0717454
0.0715402
0.0711915
0.070699
0.0700626
0.0692831
0.0683613
0.0672982
0.0660953
0.0647544
0.0632776
0.0616671
0.0599251
0.0580541
0.0560562
0.0539341
0.0516885
0.0493206
0.0468486
0.0442885
0.0414102
0.0380155
0.0283175
0.0246319
0.0215398
0.0188236
0.0162289
0.0137701
0.0114641
0.00930869
0.00730151
0.00544153
0.00372781
0.0021593
0.000734949
-0.000546324
-0.00168568
-0.00268433
-0.00354354
-0.00426463
-0.00484904
-0.00529832
-0.00561416
-0.00579833
-0.00585274
-0.00577944
-0.00558058
-0.00525851
-0.00481569
-0.00425476
-0.00357843
-0.00278957
-0.00189122
-0.000886556
0.000220977
0.00142778
0.00273011
0.00412406
0.00560561
0.00717057
0.00881458
0.0105331
0.0123213
0.0141743
0.0160869
0.0180538
0.0200695
0.0221285
0.024225
0.026353
0.0285064
0.0306789
0.0328641
0.0350554
0.0372462
0.0394297
0.0415992
0.0437479
0.0458686
0.0479546
0.0499986
0.0519937
0.053933
0.0558095
0.0576165
0.0593471
0.0609949
0.0625534
0.0640165
0.0653781
0.0666325
0.0677742
0.0687981
0.0696992
0.0704731
0.0711157
0.0716233
0.0719927
0.0722208
0.0723052
0.0722438
0.0720351
0.0716779
0.0711715
0.0705157
0.0697107
0.068757
0.0676555
0.0664072
0.0650137
0.0634769
0.0617988
0.0599814
0.058027
0.0559378
0.0537161
0.051363
0.0488795
0.0462849
0.0435961
0.0405714
0.0370029
0.0288406
0.0249857
0.0217527
0.0189142
0.0162042
0.013638
0.011233
0.00898703
0.0068973
0.00496259
0.00318165
0.00155314
7.56695e-05
-0.00125221
-0.00243201
-0.00346532
-0.00435377
-0.00509906
-0.00570298
-0.00616742
-0.0064944
-0.00668602
-0.00674446
-0.00667207
-0.00647126
-0.00614463
-0.00569485
-0.00512476
-0.00443726
-0.00363538
-0.00272231
-0.00170136
-0.000576103
0.000649786
0.00197248
0.00338798
0.00489223
0.00648099
0.00814986
0.00989425
0.0117094
0.0135902
0.0155316
0.0175282
0.0195746
0.0216653
0.0237943
0.0259558
0.0281435
0.0303513
0.0325726
0.0348008
0.0370293
0.0392513
0.04146
0.0436484
0.0458094
0.0479361
0.0500211
0.0520575
0.054038
0.0559558
0.0578037
0.059575
0.0612627
0.0628604
0.0643616
0.06576
0.0670497
0.0682249
0.0692802
0.0702103
0.0710106
0.0716766
0.0722044
0.0725902
0.0728308
0.0729234
0.0728656
0.0726554
0.0722915
0.0717727
0.0710985
0.0702687
0.0692837
0.0681438
0.0668501
0.0654037
0.0638065
0.0620601
0.0601665
0.0581277
0.0559461
0.053624
0.0511624
0.0485624
0.0458443
0.043026
0.0398543
0.0361114
0.029199
0.0251755
0.0218019
0.0188414
0.0160165
0.0133428
0.010839
0.00850231
0.00632994
0.00432038
0.00247214
0.000783555
-0.000747055
-0.00212148
-0.00334157
-0.00440925
-0.00532653
-0.00609544
-0.00671812
-0.0071968
-0.00753379
-0.00773152
-0.00779246
-0.00771922
-0.00751447
-0.00718106
-0.00672188
-0.00613995
-0.00543838
-0.00462035
-0.00368921
-0.00264842
-0.00150164
-0.000252668
0.00109459
0.00253606
0.00406761
0.00568496
0.00738368
0.00915911
0.0110064
0.0129206
0.0148964
0.0169286
0.0190116
0.0211399
0.0233076
0.0255088
0.0277373
0.0299867
0.0322506
0.0345224
0.0367952
0.0390624
0.041317
0.0435518
0.0457598
0.0479338
0.0500666
0.0521508
0.0541792
0.0561447
0.0580401
0.0598582
0.0615921
0.0632351
0.0647803
0.0662213
0.0675518
0.0687659
0.0698577
0.0708218
0.0716531
0.0723469
0.0728988
0.0733048
0.0735614
0.0736653
0.0736137
0.0734046
0.073036
0.0725066
0.0718155
0.0709622
0.0699466
0.068769
0.0674301
0.065931
0.064273
0.0624579
0.0604874
0.0583636
0.0560887
0.0536652
0.0510941
0.0483766
0.0455341
0.0425853
0.0392656
0.0353471
0.0293851
0.0251931
0.0216792
0.0185969
0.015657
0.012876
0.0102733
0.00784594
0.00559095
0.00350657
0.0015911
-0.00015741
-0.00174095
-0.0031616
-0.00442156
-0.00552309
-0.00646851
-0.0072602
-0.00790063
-0.00839234
-0.00873797
-0.00894023
-0.00900188
-0.0089258
-0.00871491
-0.00837228
-0.00790105
-0.00730443
-0.00658571
-0.00574825
-0.00479555
-0.00373121
-0.00255901
-0.00128285
9.32636e-05
0.0015652
0.00312874
0.00477956
0.00651316
0.00832484
0.0102097
0.0121627
0.0141787
0.0162522
0.0183777
0.0205498
0.0227624
0.0250096
0.0272851
0.0295827
0.0318958
0.0342176
0.0365416
0.0388606
0.0411678
0.0434559
0.0457177
0.0479459
0.0501331
0.052272
0.054355
0.0563749
0.0583243
0.0601959
0.0619824
0.0636768
0.0652722
0.0667618
0.068139
0.0693975
0.0705312
0.0715344
0.0724017
0.0731279
0.0737084
0.0741388
0.0744151
0.0745338
0.0744918
0.0742865
0.0739158
0.0733779
0.0726717
0.0717963
0.0707514
0.069537
0.0681535
0.0666019
0.0648833
0.0629993
0.0609516
0.0587421
0.0563732
0.0538475
0.0511658
0.0483297
0.0453615
0.042281
0.0388118
0.0347162
0.029391
0.0250305
0.0213763
0.018172
0.0151172
0.0122289
0.00952721
0.00700931
0.00467179
0.00251278
0.0005303
-0.00127781
-0.00291386
-0.00438022
-0.0056794
-0.00681398
-0.00778662
-0.00859999
-0.00925691
-0.00976021
-0.0101128
-0.0103178
-0.0103781
-0.010297
-0.0100775
-0.00972308
-0.00923696
-0.00862261
-0.00788349
-0.00702315
-0.00604524
-0.00495351
-0.00375186
-0.00244429
-0.0010349
0.000472077
0.00207239
0.00376162
0.00553521
0.00738841
0.00931629
0.0113137
0.0133755
0.0154962
0.0176703
0.0198921
0.0221558
0.0244553
0.0267844
0.0291367
0.0315055
0.0338842
0.0362659
0.0386436
0.0410102
0.0433584
0.0456809
0.0479702
0.0502189
0.0524193
0.0545638
0.056645
0.0586551
0.0605868
0.0624325
0.064185
0.0658369
0.0673814
0.0688113
0.0701202
0.0713016
0.0723494
0.0732579
0.0740216
0.0746355
0.0750946