/*--------------------------------*- C++ -*----------------------------------*\
| =========                 |                                                 |
| \\      /  F ield         | OpenFOAM: The Open Source CFD Toolbox           |
|  \\    /   O peration     | Version:  2212                                  |
|   \\  /    A nd           | Website:  www.openfoam.com                      |
|    \\/     M anipulation  |                                                 |
\*---------------------------------------------------------------------------*/
FoamFile
{
    version     2.0;
    format      ascii;
    arch        "LSB;label=32;scalar=64";
    class       surfaceScalarField;
    location    "0.0905";
    object      phi_0;
}
// * * * * * * * * * * * * * * * * * * * * * * * * * * * * * * * * * * * * * //

dimensions      [0 3 -1 0 0 0 0];

oriented        oriented;

internalField   nonuniform List<scalar> 
19800
(
7.0654e-11
-7.05023e-11
2.42618e-10
-1.71974e-10
4.3214e-10
-1.89531e-10
5.80984e-10
-1.48847e-10
6.55813e-10
-7.48113e-11
6.38201e-10
1.76232e-11
5.18922e-10
1.19276e-10
2.94561e-10
2.2435e-10
-3.45848e-11
3.29148e-10
-4.6586e-10
4.31273e-10
-9.95031e-10
5.29171e-10
-1.61684e-09
6.21801e-10
-2.32531e-09
7.08469e-10
-3.11404e-09
7.88725e-10
-3.97632e-09
8.62284e-10
-4.90531e-09
9.28981e-10
-5.89405e-09
9.88745e-10
-6.93562e-09
1.04157e-09
-8.02313e-09
1.0875e-09
-9.14976e-09
1.12662e-09
-1.03088e-08
1.15905e-09
-1.14937e-08
1.18492e-09
-1.26981e-08
1.20438e-09
-1.39157e-08
1.21761e-09
-1.51405e-08
1.22479e-09
-1.63666e-08
1.22611e-09
-1.75884e-08
1.22176e-09
-1.88003e-08
1.21194e-09
-1.99972e-08
1.19685e-09
-2.11739e-08
1.17671e-09
-2.23256e-08
1.15173e-09
-2.34478e-08
1.12212e-09
-2.45358e-08
1.08808e-09
-2.55857e-08
1.04985e-09
-2.65933e-08
1.00763e-09
-2.7555e-08
9.61646e-10
-2.84671e-08
9.12105e-10
-2.93263e-08
8.5923e-10
-3.01295e-08
8.03235e-10
-3.08739e-08
7.44346e-10
-3.15567e-08
6.82782e-10
-3.21754e-08
6.18765e-10
-3.2728e-08
5.52526e-10
-3.32122e-08
4.84285e-10
-3.36265e-08
4.14275e-10
-3.39692e-08
3.4273e-10
-3.42391e-08
2.69875e-10
-3.44351e-08
1.95954e-10
-3.45563e-08
1.21211e-10
-3.46021e-08
4.58783e-11
-3.45724e-08
-2.97889e-11
-3.44668e-08
-1.05528e-10
-3.42857e-08
-1.81094e-10
-3.40295e-08
-2.56229e-10
-3.36989e-08
-3.30654e-10
-3.32948e-08
-4.0411e-10
-3.28184e-08
-4.76336e-10
-3.22714e-08
-5.47053e-10
-3.16554e-08
-6.15983e-10
-3.09725e-08
-6.8286e-10
-3.02251e-08
-7.47402e-10
-2.94158e-08
-8.09318e-10
-2.85475e-08
-8.68324e-10
-2.76233e-08
-9.24145e-10
-2.66468e-08
-9.765e-10
-2.56217e-08
-1.02511e-09
-2.4552e-08
-1.0697e-09
-2.3442e-08
-1.11001e-09
-2.22963e-08
-1.14575e-09
-2.11196e-08
-1.17667e-09
-1.99171e-08
-1.20251e-09
-1.86941e-08
-1.22303e-09
-1.74561e-08
-1.23799e-09
-1.62089e-08
-1.24718e-09
-1.49585e-08
-1.25038e-09
-1.37111e-08
-1.2474e-09
-1.2473e-08
-1.23805e-09
-1.12508e-08
-1.22219e-09
-1.00512e-08
-1.19966e-09
-8.88084e-09
-1.17033e-09
-7.74671e-09
-1.13413e-09
-6.65572e-09
-1.09098e-09
-5.61485e-09
-1.04087e-09
-4.63108e-09
-9.83778e-10
-3.71131e-09
-9.19781e-10
-2.86231e-09
-8.48998e-10
-2.09068e-09
-7.71627e-10
-1.40274e-09
-6.87946e-10
-8.04383e-10
-5.98361e-10
-3.00918e-10
-5.03462e-10
1.03177e-10
-4.04084e-10
4.04586e-10
-3.01405e-10
6.01691e-10
-1.97111e-10
6.95383e-10
-9.36966e-11
6.90338e-10
5.04796e-12
5.97102e-10
9.32437e-11
4.35323e-10
1.6178e-10
2.39284e-10
1.96031e-10
6.71794e-11
1.72098e-10
6.71835e-11
1.7207e-10
-2.4258e-10
4.73044e-10
-4.72931e-10
7.61901e-10
-4.78391e-10
9.36442e-10
-3.23417e-10
9.2568e-10
-6.40668e-11
6.84095e-10
2.59219e-10
1.85128e-10
6.18265e-10
-5.84177e-10
9.93659e-10
-1.6271e-09
1.37206e-09
-2.94007e-09
1.74423e-09
-4.51464e-09
2.10375e-09
-6.33896e-09
2.44611e-09
-8.39869e-09
2.76819e-09
-1.06778e-08
3.06782e-09
-1.31591e-08
3.34354e-09
-1.58245e-08
3.59442e-09
-1.86557e-08
3.81991e-09
-2.16339e-08
4.01975e-09
-2.47403e-08
4.19392e-09
-2.79563e-08
4.34258e-09
-3.12633e-08
4.46605e-09
-3.46431e-08
4.56473e-09
-3.80778e-08
4.63913e-09
-4.155e-08
4.68979e-09
-4.50426e-08
4.71736e-09
-4.8539e-08
4.7225e-09
-5.20232e-08
4.70592e-09
-5.54796e-08
4.66834e-09
-5.88932e-08
4.61052e-09
-6.22497e-08
4.53324e-09
-6.55353e-08
4.43729e-09
-6.87367e-08
4.32346e-09
-7.18411e-08
4.19257e-09
-7.48367e-08
4.04545e-09
-7.7712e-08
3.8829e-09
-8.04561e-08
3.70577e-09
-8.30589e-08
3.51489e-09
-8.55108e-08
3.3111e-09
-8.78028e-08
3.09525e-09
-8.99267e-08
2.86819e-09
-9.18746e-08
2.63077e-09
-9.36397e-08
2.38387e-09
-9.52156e-08
2.12836e-09
-9.65964e-08
1.86513e-09
-9.77772e-08
1.59505e-09
-9.87535e-08
1.31905e-09
-9.95217e-08
1.03803e-09
-1.00079e-07
7.52913e-10
-1.00422e-07
4.64642e-10
-1.0055e-07
1.74171e-10
-1.00463e-07
-1.17547e-10
-1.00159e-07
-4.09525e-10
-9.96389e-08
-7.00759e-10
-9.89049e-08
-9.90255e-10
-9.79586e-08
-1.27699e-09
-9.68028e-08
-1.55993e-09
-9.54411e-08
-1.83803e-09
-9.38779e-08
-2.11024e-09
-9.21184e-08
-2.37551e-09
-9.01685e-08
-2.63276e-09
-8.80349e-08
-2.88093e-09
-8.57253e-08
-3.11893e-09
-8.3248e-08
-3.34567e-09
-8.06121e-08
-3.56007e-09
-7.78275e-08
-3.76108e-09
-7.4905e-08
-3.94762e-09
-7.1856e-08
-4.11865e-09
-6.86929e-08
-4.27316e-09
-6.54285e-08
-4.41012e-09
-6.20766e-08
-4.52854e-09
-5.86517e-08
-4.62746e-09
-5.51687e-08
-4.70598e-09
-5.16435e-08
-4.76323e-09
-4.80923e-08
-4.79837e-09
-4.45321e-08
-4.81063e-09
-4.09802e-08
-4.79931e-09
-3.74545e-08
-4.76376e-09
-3.39732e-08
-4.70341e-09
-3.05551e-08
-4.61778e-09
-2.72189e-08
-4.50649e-09
-2.39838e-08
-4.36928e-09
-2.08688e-08
-4.20599e-09
-1.7893e-08
-4.01664e-09
-1.50754e-08
-3.80139e-09
-1.24345e-08
-3.56067e-09
-9.98837e-09
-3.29512e-09
-7.75429e-09
-3.00571e-09
-5.7484e-09
-2.69383e-09
-3.98537e-09
-2.36138e-09
-2.47781e-09
-2.01101e-09
-1.23557e-09
-1.64631e-09
-2.64757e-10
-1.27221e-09
4.33664e-10
-8.95533e-10
8.65796e-10
-5.25829e-10
1.04751e-09
-1.76666e-10
1.0082e-09
1.3255e-10
7.95861e-10
3.74108e-10
4.83103e-10
5.08782e-10
1.72005e-10
4.83198e-10
2.39191e-10
1.90245e-10
-4.32832e-10
4.80617e-10
-7.63299e-10
6.97633e-10
-6.95382e-10
7.18184e-10
-3.43962e-10
4.53079e-10
2.01034e-10
-1.5855e-10
8.70836e-10
-1.15481e-09
1.61452e-09
-2.55622e-09
2.39508e-09
-4.36992e-09
3.18576e-09
-6.59294e-09
3.96725e-09
-9.21478e-09
4.72557e-09
-1.22193e-08
5.45063e-09
-1.55863e-08
6.13514e-09
-1.92923e-08
6.77389e-09
-2.3312e-08
7.36326e-09
-2.76184e-08
7.90077e-09
-3.21834e-08
8.38487e-09
-3.69783e-08
8.81468e-09
-4.19742e-08
9.18986e-09
-4.71422e-08
9.51052e-09
-5.24532e-08
9.77709e-09
-5.78788e-08
9.99031e-09
-6.33908e-08
1.01511e-08
-6.89615e-08
1.02605e-08
-7.45641e-08
1.03199e-08
-8.01722e-08
1.03306e-08
-8.57602e-08
1.0294e-08
-9.13035e-08
1.02116e-08
-9.67781e-08
1.00852e-08
-1.02161e-07
9.9162e-09
-1.0743e-07
9.70643e-09
-1.12564e-07
9.45758e-09
-1.17543e-07
9.17139e-09
-1.22347e-07
8.84963e-09
-1.26959e-07
8.4941e-09
-1.31359e-07
8.1066e-09
-1.35533e-07
7.68896e-09
-1.39465e-07
7.24301e-09
-1.43141e-07
6.77062e-09
-1.46546e-07
6.27364e-09
-1.49669e-07
5.75398e-09
-1.52499e-07
5.21353e-09
-1.55025e-07
4.65421e-09
-1.57238e-07
4.07798e-09
-1.59129e-07
3.48678e-09
-1.60693e-07
2.88261e-09
-1.61922e-07
2.26749e-09
-1.62813e-07
1.64345e-09
-1.63361e-07
1.01254e-09
-1.63564e-07
3.76874e-10
-1.6342e-07
-2.61427e-10
-1.62929e-07
-9.00218e-10
-1.62093e-07
-1.53732e-09
-1.60912e-07
-2.17051e-09
-1.59392e-07
-2.79756e-09
-1.57535e-07
-3.41622e-09
-1.55349e-07
-4.0242e-09
-1.5284e-07
-4.61919e-09
-1.50017e-07
-5.19888e-09
-1.46889e-07
-5.76093e-09
-1.43467e-07
-6.303e-09
-1.39763e-07
-6.82274e-09
-1.35791e-07
-7.3178e-09
-1.31565e-07
-7.78583e-09
-1.27102e-07
-8.22452e-09
-1.22418e-07
-8.63155e-09
-1.17532e-07
-9.00468e-09
-1.12463e-07
-9.34167e-09
-1.07233e-07
-9.64035e-09
-1.01863e-07
-9.89859e-09
-9.63759e-08
-1.01144e-08
-9.07962e-08
-1.02857e-08
-8.51486e-08
-1.04107e-08
-7.94592e-08
-1.04878e-08
-7.37548e-08
-1.05151e-08
-6.80628e-08
-1.04913e-08
-6.24115e-08
-1.0415e-08
-5.68297e-08
-1.02851e-08
-5.13468e-08
-1.01007e-08
-4.59923e-08
-9.86102e-09
-4.07959e-08
-9.56561e-09
-3.57876e-08
-9.21434e-09
-3.09968e-08
-8.80742e-09
-2.64527e-08
-8.34546e-09
-2.21838e-08
-7.82959e-09
-1.82174e-08
-7.26151e-09
-1.45795e-08
-6.64368e-09
-1.12938e-08
-5.97947e-09
-8.38172e-09
-5.27348e-09
-5.86091e-09
-4.53183e-09
-3.74451e-09
-3.76271e-09
-2.03966e-09
-2.97706e-09
-7.45596e-10
-2.18959e-09
1.4878e-10
-1.42021e-09
6.68021e-10
-6.95911e-10
8.54094e-10
-5.35261e-11
7.71181e-10
4.57019e-10
5.10764e-10
7.69198e-10
1.96518e-10
7.97443e-10
4.35708e-10
1.51238e-10
-5.84082e-10
3.30613e-10
-9.42708e-10
3.55033e-10
-7.19801e-10
9.32454e-11
-8.2167e-11
-5.51151e-10
8.45431e-10
-1.64591e-09
1.9656e-09
-3.23512e-09
3.20372e-09
-5.34365e-09
4.50361e-09
-7.98112e-09
5.82323e-09
-1.11451e-08
7.1312e-09
-1.48236e-08
8.40412e-09
-1.89976e-08
9.62463e-09
-2.36424e-08
1.07799e-08
-2.87289e-08
1.18604e-08
-3.42251e-08
1.28595e-08
-4.00967e-08
1.37723e-08
-4.63075e-08
1.45957e-08
-5.28206e-08
1.53278e-08
-5.95982e-08
1.59675e-08
-6.66024e-08
1.65147e-08
-7.37952e-08
1.69699e-08
-8.11389e-08
1.7334e-08
-8.85961e-08
1.76084e-08
-9.61304e-08
1.77948e-08
-1.03706e-07
1.78951e-08
-1.11287e-07
1.79117e-08
-1.18839e-07
1.78468e-08
-1.26331e-07
1.77031e-08
-1.33729e-07
1.74831e-08
-1.41002e-07
1.71898e-08
-1.48122e-07
1.68258e-08
-1.55058e-07
1.63942e-08
-1.61785e-07
1.58979e-08
-1.68275e-07
1.53399e-08
-1.74504e-07
1.47234e-08
-1.80449e-07
1.40515e-08
-1.86088e-07
1.33273e-08
-1.91399e-07
1.25539e-08
-1.96363e-07
1.17347e-08
-2.00962e-07
1.08728e-08
-2.0518e-07
9.97159e-09
-2.09e-07
9.03428e-09
-2.1241e-07
8.06426e-09
-2.15397e-07
7.0649e-09
-2.1795e-07
6.03963e-09
-2.20059e-07
4.99191e-09
-2.21717e-07
3.92523e-09
-2.22917e-07
2.84315e-09
-2.23654e-07
1.74926e-09
-2.23924e-07
6.4721e-10
-2.23726e-07
-4.59317e-10
-2.2306e-07
-1.56657e-09
-2.21926e-07
-2.67077e-09
-2.20329e-07
-3.76808e-09
-2.18272e-07
-4.85461e-09
-2.15761e-07
-5.92644e-09
-2.12806e-07
-6.97964e-09
-2.09415e-07
-8.01019e-09
-2.056e-07
-9.01409e-09
-2.01373e-07
-9.9873e-09
-1.96751e-07
-1.09258e-08
-1.91748e-07
-1.18254e-08
-1.86383e-07
-1.26823e-08
-1.80677e-07
-1.34922e-08
-1.7465e-07
-1.42513e-08
-1.68326e-07
-1.49556e-08
-1.6173e-07
-1.56012e-08
-1.54887e-07
-1.61842e-08
-1.47826e-07
-1.6701e-08
-1.40577e-07
-1.7148e-08
-1.3317e-07
-1.75217e-08
-1.25637e-07
-1.78187e-08
-1.18011e-07
-1.8036e-08
-1.10329e-07
-1.81705e-08
-1.02624e-07
-1.82197e-08
-9.49344e-08
-1.81809e-08
-8.72974e-08
-1.80521e-08
-7.97511e-08
-1.78314e-08
-7.23343e-08
-1.75174e-08
-6.50863e-08
-1.7109e-08
-5.80462e-08
-1.66057e-08
-5.12531e-08
-1.60074e-08
-4.47458e-08
-1.53148e-08
-3.85621e-08
-1.45292e-08
-3.27388e-08
-1.36529e-08
-2.73112e-08
-1.26892e-08
-2.2312e-08
-1.16428e-08
-1.77716e-08
-1.05199e-08
-1.37161e-08
-9.32896e-09
-1.01672e-08
-8.08075e-09
-7.14026e-09
-6.78961e-09
-4.64307e-09
-5.47425e-09
-2.67349e-09
-4.15918e-09
-1.21712e-09
-2.87659e-09
-2.44175e-10
-1.66885e-09
2.94052e-10
-5.91752e-10
4.69471e-10
2.81597e-10
3.81708e-10
8.56956e-10
1.63978e-10
1.01517e-09
5.99686e-10
7.96955e-11
-6.63766e-10
7.84495e-11
-9.41491e-10
-1.7748e-10
-4.63883e-10
-8.16637e-10
5.56992e-10
-1.93484e-09
1.96364e-09
-3.60063e-09
3.6314e-09
-5.85948e-09
5.46257e-09
-8.73759e-09
7.38171e-09
-1.22452e-08
9.33083e-09
-1.63795e-08
1.12655e-08
-2.11272e-08
1.31518e-08
-2.64665e-08
1.49639e-08
-3.23691e-08
1.66824e-08
-3.88013e-08
1.82927e-08
-4.57258e-08
1.97839e-08
-5.31018e-08
2.11483e-08
-6.08867e-08
2.23806e-08
-6.90362e-08
2.34773e-08
-7.75051e-08
2.44364e-08
-8.62476e-08
2.52572e-08
-9.52178e-08
2.59401e-08
-1.0437e-07
2.6486e-08
-1.13658e-07
2.68969e-08
-1.23039e-07
2.7175e-08
-1.32467e-07
2.7323e-08
-1.41899e-07
2.73443e-08
-1.51294e-07
2.72421e-08
-1.60611e-07
2.70202e-08
-1.69811e-07
2.66826e-08
-1.78855e-07
2.62333e-08
-1.87705e-07
2.56767e-08
-1.96328e-07
2.5017e-08
-2.04689e-07
2.42589e-08
-2.12756e-07
2.34068e-08
-2.20498e-07
2.24654e-08
-2.27886e-07
2.14395e-08
-2.34893e-07
2.03338e-08
-2.41492e-07
1.91531e-08
-2.4766e-07
1.79025e-08
-2.53373e-07
1.65867e-08
-2.58613e-07
1.52109e-08
-2.63359e-07
1.37801e-08
-2.67594e-07
1.22993e-08
-2.71303e-07
1.07739e-08
-2.74472e-07
9.2089e-09
-2.7709e-07
7.60974e-09
-2.79146e-07
5.98175e-09
-2.80633e-07
4.33035e-09
-2.81545e-07
2.66105e-09
-2.81877e-07
9.79425e-10
-2.81628e-07
-7.08887e-10
-2.80796e-07
-2.39817e-09
-2.79384e-07
-4.08262e-09
-2.77396e-07
-5.75639e-09
-2.74837e-07
-7.41357e-09
-2.71715e-07
-9.04817e-09
-2.68041e-07
-1.06541e-08
-2.63826e-07
-1.22254e-08
-2.59084e-07
-1.37559e-08
-2.53832e-07
-1.52395e-08
-2.48087e-07
-1.66699e-08
-2.41872e-07
-1.80411e-08
-2.35207e-07
-1.93469e-08
-2.28118e-07
-2.05812e-08
-2.20631e-07
-2.1738e-08
-2.12776e-07
-2.28113e-08
-2.04582e-07
-2.37951e-08
-1.96082e-07
-2.46839e-08
-1.87311e-07
-2.54719e-08
-1.78305e-07
-2.61538e-08
-1.69103e-07
-2.67244e-08
-1.59743e-07
-2.71786e-08
-1.50267e-07
-2.75119e-08
-1.40718e-07
-2.77199e-08
-1.31139e-07
-2.77985e-08
-1.21575e-07
-2.77443e-08
-1.12073e-07
-2.75541e-08
-1.02679e-07
-2.72253e-08
-9.34411e-08
-2.67559e-08
-8.44056e-08
-2.61445e-08
-7.56207e-08
-2.53906e-08
-6.71337e-08
-2.44945e-08
-5.89911e-08
-2.34574e-08
-5.12384e-08
-2.22818e-08
-4.39196e-08
-2.09716e-08
-3.70765e-08
-1.95323e-08
-3.07478e-08
-1.79714e-08
-2.4969e-08
-1.62988e-08
-1.97704e-08
-1.45275e-08
-1.51769e-08
-1.26742e-08
-1.1206e-08
-1.07605e-08
-7.86617e-09
-8.81406e-09
-5.15509e-09
-6.87027e-09
-3.05701e-09
-4.97468e-09
-1.54015e-09
-3.1857e-09
-5.53627e-10
-1.57827e-09
-2.38567e-11
-2.48179e-10
1.49411e-10
6.83684e-10
9.83683e-11
1.06622e-09
6.98057e-10
-9.82917e-12
-6.5393e-10
-2.36762e-10
-7.14561e-10
-8.33953e-10
1.33289e-10
-1.91899e-09
1.64202e-09
-3.58107e-09
3.62572e-09
-5.88479e-09
5.93512e-09
-8.87333e-09
8.45111e-09
-1.25714e-08
1.10798e-08
-1.6988e-08
1.37474e-08
-2.21188e-08
1.63963e-08
-2.79484e-08
1.89815e-08
-3.44526e-08
2.14681e-08
-4.15995e-08
2.38293e-08
-4.93515e-08
2.60447e-08
-5.76664e-08
2.80988e-08
-6.64983e-08
2.99802e-08
-7.57987e-08
3.1681e-08
-8.55172e-08
3.31957e-08
-9.56018e-08
3.45211e-08
-1.06e-07
3.56555e-08
-1.16659e-07
3.6599e-08
-1.27526e-07
3.73526e-08
-1.38547e-07
3.79185e-08
-1.49672e-07
3.82996e-08
-1.60848e-07
3.84994e-08
-1.72026e-07
3.85222e-08
-1.83157e-07
3.83725e-08
-1.94192e-07
3.80553e-08
-2.05085e-07
3.75761e-08
-2.15792e-07
3.69403e-08
-2.26269e-07
3.6154e-08
-2.36475e-07
3.52231e-08
-2.4637e-07
3.41538e-08
-2.55916e-07
3.29526e-08
-2.65077e-07
3.16259e-08
-2.73818e-07
3.01803e-08
-2.82106e-07
2.86226e-08
-2.89913e-07
2.69594e-08
-2.97208e-07
2.51978e-08
-3.03966e-07
2.33445e-08
-3.10162e-07
2.14068e-08
-3.15773e-07
1.93917e-08
-3.20781e-07
1.73065e-08
-3.25165e-07
1.51583e-08
-3.28911e-07
1.29547e-08
-3.32004e-07
1.0703e-08
-3.34433e-07
8.41086e-09
-3.36189e-07
6.08593e-09
-3.37264e-07
3.73595e-09
-3.37653e-07
1.36879e-09
-3.37354e-07
-1.0076e-09
-3.36367e-07
-3.38516e-09
-3.34694e-07
-5.75575e-09
-3.32339e-07
-8.11111e-09
-3.2931e-07
-1.04429e-08
-3.25616e-07
-1.27428e-08
-3.21267e-07
-1.50022e-08
-3.1628e-07
-1.72126e-08
-3.10671e-07
-1.93655e-08
-3.04458e-07
-2.14522e-08
-2.97664e-07
-2.34641e-08
-2.90312e-07
-2.53927e-08
-2.8243e-07
-2.72292e-08
-2.74046e-07
-2.89651e-08
-2.65192e-07
-3.05922e-08
-2.55901e-07
-3.21019e-08
-2.4621e-07
-3.34861e-08
-2.36157e-07
-3.47369e-08
-2.25783e-07
-3.58465e-08
-2.15129e-07
-3.68073e-08
-2.04241e-07
-3.76122e-08
-1.93166e-07
-3.82544e-08
-1.8195e-07
-3.87274e-08
-1.70645e-07
-3.90252e-08
-1.59301e-07
-3.91426e-08
-1.4797e-07
-3.90745e-08
-1.36708e-07
-3.8817e-08
-1.25566e-07
-3.83665e-08
-1.14602e-07
-3.77206e-08
-1.03868e-07
-3.68777e-08
-9.34218e-08
-3.58372e-08
-8.33162e-08
-3.46001e-08
-7.36052e-08
-3.31684e-08
-6.43409e-08
-3.15461e-08
-5.55734e-08
-2.97391e-08
-4.73503e-08
-2.77555e-08
-3.97155e-08
-2.56062e-08
-3.27088e-08
-2.33055e-08
-2.63645e-08
-2.08718e-08
-2.07104e-08
-1.83284e-08
-1.57662e-08
-1.57048e-08
-1.15419e-08
-1.30383e-08
-8.03622e-09
-1.0376e-08
-5.23402e-09
-7.77688e-09
-3.10437e-09
-5.31534e-09
-1.59789e-09
-3.08476e-09
-6.43943e-10
-1.20213e-09
-1.47619e-10
1.87357e-10
1.41272e-11
9.04474e-10
7.12188e-10
-1.08619e-10
-5.45318e-10
-5.88582e-10
-2.34594e-10
-1.56704e-09
1.11175e-09
-3.14529e-09
3.22025e-09
-5.40143e-09
5.88186e-09
-8.39244e-09
8.92614e-09
-1.21562e-08
1.22149e-08
-1.67135e-08
1.56371e-08
-2.20703e-08
1.91042e-08
-2.82195e-08
2.25454e-08
-3.51429e-08
2.59049e-08
-4.28131e-08
2.91383e-08
-5.1195e-08
3.22112e-08
-6.02471e-08
3.50968e-08
-6.99228e-08
3.77745e-08
-8.01717e-08
4.02291e-08
-9.09399e-08
4.24493e-08
-1.02172e-07
4.44274e-08
-1.13809e-07
4.61585e-08
-1.25794e-07
4.76401e-08
-1.38066e-07
4.88715e-08
-1.50567e-07
4.98537e-08
-1.63238e-07
5.05891e-08
-1.76019e-07
5.10811e-08
-1.88854e-07
5.13341e-08
-2.01685e-07
5.13532e-08
-2.14457e-07
5.11445e-08
-2.27116e-07
5.07142e-08
-2.39609e-07
5.00693e-08
-2.51886e-07
4.9217e-08
-2.63897e-07
4.8165e-08
-2.75595e-07
4.69211e-08
-2.86935e-07
4.54937e-08
-2.97873e-07
4.38909e-08
-3.08368e-07
4.21214e-08
-3.18382e-07
4.01939e-08
-3.27876e-07
3.81172e-08
-3.36817e-07
3.59005e-08
-3.45172e-07
3.35527e-08
-3.52911e-07
3.10832e-08
-3.60006e-07
2.85013e-08
-3.6643e-07
2.58166e-08
-3.72162e-07
2.30385e-08
-3.77181e-07
2.01768e-08
-3.81468e-07
1.72415e-08
-3.85007e-07
1.42423e-08
-3.87786e-07
1.11895e-08
-3.89793e-07
8.09314e-09
-3.91021e-07
4.96367e-09
-3.91463e-07
1.81153e-09
-3.91118e-07
-1.35268e-09
-3.89985e-07
-4.51825e-09
-3.88067e-07
-7.6743e-09
-3.85368e-07
-1.08099e-08
-3.81897e-07
-1.39139e-08
-3.77665e-07
-1.69752e-08
-3.72684e-07
-1.99825e-08
-3.66972e-07
-2.29245e-08
-3.60548e-07
-2.57897e-08
-3.53434e-07
-2.85668e-08
-3.45653e-07
-3.12444e-08
-3.37235e-07
-3.38109e-08
-3.28209e-07
-3.62551e-08
-3.18609e-07
-3.85657e-08
-3.08469e-07
-4.07315e-08
-2.97829e-07
-4.27416e-08
-2.8673e-07
-4.45852e-08
-2.75216e-07
-4.62517e-08
-2.63331e-07
-4.7731e-08
-2.51125e-07
-4.90131e-08
-2.38649e-07
-5.00888e-08
-2.25954e-07
-5.09491e-08
-2.13096e-07
-5.15857e-08
-2.0013e-07
-5.19908e-08
-1.87115e-07
-5.21574e-08
-1.7411e-07
-5.20795e-08
-1.61176e-07
-5.17517e-08
-1.48372e-07
-5.11698e-08
-1.35762e-07
-5.03309e-08
-1.23407e-07
-4.92331e-08
-1.11368e-07
-4.78763e-08
-9.97058e-08
-4.62618e-08
-8.84811e-08
-4.43931e-08
-7.77514e-08
-4.22758e-08
-6.75725e-08
-3.9918e-08
-5.79969e-08
-3.73311e-08
-4.90733e-08
-3.45298e-08
-4.08455e-08
-3.15333e-08
-3.33516e-08
-2.83657e-08
-2.66225e-08
-2.50575e-08
-2.06805e-08
-2.16468e-08
-1.55381e-08
-1.81807e-08
-1.11962e-08
-1.47179e-08
-7.64233e-09
-1.13307e-08
-4.84875e-09
-8.10892e-09
-2.77056e-09
-5.16295e-09
-1.3437e-09
-2.62899e-09
-4.82984e-10
-6.73362e-10
-7.99982e-11
5.01493e-10
6.32192e-10
-2.11403e-10
-3.3393e-10
-9.59505e-10
5.13498e-10
-2.34376e-09
2.496e-09
-4.44609e-09
5.32258e-09
-7.33058e-09
8.76634e-09
-1.10438e-08
1.26394e-08
-1.5616e-08
1.6787e-08
-2.1062e-08
2.10831e-08
-2.73829e-08
2.54251e-08
-3.45677e-08
2.97302e-08
-4.25945e-08
3.39317e-08
-5.14324e-08
3.79762e-08
-6.10425e-08
4.18213e-08
-7.13795e-08
4.54338e-08
-8.23926e-08
4.87877e-08
-9.40269e-08
5.18634e-08
-1.06224e-07
5.46463e-08
-1.18923e-07
5.71262e-08
-1.32061e-07
5.92963e-08
-1.45573e-07
6.11527e-08
-1.59396e-07
6.26941e-08
-1.73464e-07
6.39213e-08
-1.87711e-07
6.48366e-08
-2.02074e-07
6.54442e-08
-2.16489e-07
6.57491e-08
-2.30894e-07
6.57576e-08
-2.45226e-07
6.54769e-08
-2.59427e-07
6.49148e-08
-2.73437e-07
6.40798e-08
-2.87201e-07
6.29811e-08
-3.00664e-07
6.16282e-08
-3.13774e-07
6.0031e-08
-3.2648e-07
5.81997e-08
-3.38734e-07
5.61451e-08
-3.50491e-07
5.38778e-08
-3.61706e-07
5.1409e-08
-3.72339e-07
4.875e-08
-3.82351e-07
4.59121e-08
-3.91705e-07
4.29071e-08
-4.00368e-07
3.97467e-08
-4.0831e-07
3.64429e-08
-4.15501e-07
3.30078e-08
-4.21916e-07
2.94536e-08
-4.27532e-07
2.57928e-08
-4.32329e-07
2.2038e-08
-4.36288e-07
1.82019e-08
-4.39396e-07
1.42973e-08
-4.4164e-07
1.03375e-08
-4.43012e-07
6.33548e-09
-4.43505e-07
2.30475e-09
-4.43117e-07
-1.74116e-09
-4.41847e-07
-5.78856e-09
-4.39697e-07
-9.82357e-09
-4.36675e-07
-1.38322e-08
-4.32789e-07
-1.78003e-08
-4.2805e-07
-2.17136e-08
-4.22475e-07
-2.55578e-08
-4.16081e-07
-2.93183e-08
-4.0889e-07
-3.29808e-08
-4.00926e-07
-3.65306e-08
-3.92217e-07
-3.99533e-08
-3.82794e-07
-4.32342e-08
-3.7269e-07
-4.6359e-08
-3.61942e-07
-4.93134e-08
-3.50591e-07
-5.20832e-08
-3.38678e-07
-5.46545e-08
-3.26249e-07
-5.70137e-08
-3.13354e-07
-5.91474e-08
-3.00042e-07
-6.10429e-08
-2.86367e-07
-6.26877e-08
-2.72386e-07
-6.407e-08
-2.58157e-07
-6.51785e-08
-2.43739e-07
-6.60029e-08
-2.29197e-07
-6.65336e-08
-2.14592e-07
-6.67619e-08
-1.99991e-07
-6.66803e-08
-1.85461e-07
-6.62823e-08
-1.71067e-07
-6.5563e-08
-1.5688e-07
-6.45187e-08
-1.42965e-07
-6.31478e-08
-1.29391e-07
-6.14502e-08
-1.16224e-07
-5.94284e-08
-1.03531e-07
-5.70869e-08
-9.1373e-08
-5.44335e-08
-7.98121e-08
-5.14789e-08
-6.89054e-08
-4.82378e-08
-5.87059e-08
-4.47293e-08
-4.92616e-08
-4.09776e-08
-4.06141e-08
-3.70132e-08
-3.27978e-08
-3.28738e-08
-2.58384e-08
-2.86062e-08
-1.97518e-08
-2.42673e-08
-1.45424e-08
-1.99273e-08
-1.02018e-08
-1.56713e-08
-6.70772e-09
-1.1603e-08
-4.022e-09
-7.84866e-09
-2.08991e-09
-4.56109e-09
-8.38993e-10
-1.92428e-09
-1.78624e-10
-1.58868e-10
4.5357e-10
-3.15054e-10
-1.88769e-11
-1.33818e-09
1.53661e-09
-3.14153e-09
4.29935e-09
-5.7864e-09
7.96746e-09
-9.321e-09
1.23009e-08
-1.37797e-08
1.70981e-08
-1.91831e-08
2.21904e-08
-2.55385e-08
2.74385e-08
-3.28409e-08
3.27275e-08
-4.1074e-08
3.79634e-08
-5.02115e-08
4.30692e-08
-6.02182e-08
4.79828e-08
-7.1051e-08
5.26542e-08
-8.26607e-08
5.70434e-08
-9.49923e-08
6.11193e-08
-1.07986e-07
6.48576e-08
-1.2158e-07
6.82403e-08
-1.35709e-07
7.12543e-08
-1.50303e-07
7.38908e-08
-1.65295e-07
7.61446e-08
-1.80614e-07
7.80134e-08
-1.96191e-07
7.94977e-08
-2.11954e-07
8.06e-08
-2.27835e-07
8.13246e-08
-2.43763e-07
8.16777e-08
-2.59672e-07
8.16664e-08
-2.75494e-07
8.12992e-08
-2.91165e-07
8.05856e-08
-3.06621e-07
7.95359e-08
-3.21801e-07
7.81609e-08
-3.36645e-07
7.64723e-08
-3.51096e-07
7.44821e-08
-3.651e-07
7.22031e-08
-3.78603e-07
6.96479e-08
-3.91555e-07
6.68301e-08
-4.03909e-07
6.37632e-08
-4.1562e-07
6.0461e-08
-4.26646e-07
5.69377e-08
-4.36946e-07
5.32077e-08
-4.46485e-07
4.92855e-08
-4.55228e-07
4.5186e-08
-4.63144e-07
4.0924e-08
-4.70206e-07
3.65149e-08
-4.76387e-07
3.19739e-08
-4.81666e-07
2.73167e-08
-4.86023e-07
2.2559e-08
-4.89442e-07
1.77169e-08
-4.91911e-07
1.28064e-08
-4.9342e-07
7.84409e-09
-4.93962e-07
2.8464e-09
-4.93533e-07
-2.16984e-09
-4.92134e-07
-7.18767e-09
-4.89767e-07
-1.21899e-08
-4.8644e-07
-1.71593e-08
-4.82162e-07
-2.20782e-08
-4.76947e-07
-2.69292e-08
-4.7081e-07
-3.16943e-08
-4.63773e-07
-3.63559e-08
-4.55858e-07
-4.08959e-08
-4.47092e-07
-4.52965e-08
-4.37505e-07
-4.95396e-08
-4.27132e-07
-5.36075e-08
-4.16009e-07
-5.74823e-08
-4.04176e-07
-6.11464e-08
-3.91676e-07
-6.45825e-08
-3.78557e-07
-6.77735e-08
-3.64869e-07
-7.07025e-08
-3.50663e-07
-7.33534e-08
-3.35995e-07
-7.57103e-08
-3.20925e-07
-7.77581e-08
-3.05512e-07
-7.94824e-08
-2.89821e-07
-8.08695e-08
-2.73917e-07
-8.19068e-08
-2.57868e-07
-8.25827e-08
-2.41744e-07
-8.28867e-08
-2.25614e-07
-8.28099e-08
-2.09552e-07
-8.23446e-08
-1.9363e-07
-8.1485e-08
-1.77921e-07
-8.02271e-08
-1.625e-07
-7.85691e-08
-1.47439e-07
-7.65115e-08
-1.3281e-07
-7.40575e-08
-1.18683e-07
-7.12135e-08
-1.05127e-07
-6.79892e-08
-9.2208e-08
-6.43982e-08
-7.99868e-08
-6.04589e-08
-6.85213e-08
-5.61948e-08
-5.78635e-08
-5.16354e-08
-4.8059e-08
-4.68177e-08
-3.91461e-08
-4.17868e-08
-3.11544e-08
-3.65978e-08
-2.41042e-08
-3.13176e-08
-1.80045e-08
-2.60269e-08
-1.28528e-08
-2.0823e-08
-8.6333e-09
-1.58225e-08
-5.31678e-09
-1.11652e-08
-2.85965e-09
-7.01823e-09
-1.20403e-09
-3.57989e-09
-2.78506e-10
-1.08439e-09
1.75068e-10
-4.17742e-10
3.98864e-10
-1.71737e-09
2.83623e-09
-3.94522e-09
6.5272e-09
-7.14182e-09
1.11641e-08
-1.13387e-08
1.64978e-08
-1.65567e-08
2.23161e-08
-2.28056e-08
2.84393e-08
-3.0084e-08
3.47168e-08
-3.83794e-08
4.10229e-08
-4.76694e-08
4.72534e-08
-5.79222e-08
5.3322e-08
-6.90977e-08
5.91583e-08
-8.11484e-08
6.47049e-08
-9.40206e-08
6.99156e-08
-1.07655e-07
7.47538e-08
-1.21988e-07
7.91908e-08
-1.36953e-07
8.32049e-08
-1.52479e-07
8.67803e-08
-1.68494e-07
8.99059e-08
-1.84924e-07
9.2575e-08
-2.01695e-07
9.47845e-08
-2.18732e-07
9.65343e-08
-2.35959e-07
9.78271e-08
-2.53302e-07
9.86676e-08
-2.70687e-07
9.90626e-08
-2.88041e-07
9.90204e-08
-3.05292e-07
9.85509e-08
-3.22372e-07
9.76652e-08
-3.39211e-07
9.63752e-08
-3.55744e-07
9.46939e-08
-3.71907e-07
9.26352e-08
-3.87638e-07
9.02133e-08
-4.02879e-07
8.74432e-08
-4.17571e-07
8.43405e-08
-4.31662e-07
8.09211e-08
-4.451e-07
7.72013e-08
-4.57837e-07
7.31977e-08
-4.69827e-07
6.89275e-08
-4.81027e-07
6.44078e-08
-4.91397e-07
5.96562e-08
-5.00902e-07
5.46906e-08
-5.09507e-07
4.95291e-08
-5.17182e-07
4.419e-08
-5.239e-07
3.86919e-08
-5.29637e-07
3.30536e-08
-5.34372e-07
2.72942e-08
-5.38089e-07
2.1433e-08
-5.40772e-07
1.54895e-08
-5.42411e-07
9.48357e-09
-5.43e-07
3.43521e-09
-5.42534e-07
-2.63531e-09
-5.41015e-07
-8.70749e-09
-5.38444e-07
-1.47606e-08
-5.34829e-07
-2.07738e-08
-5.30182e-07
-2.67259e-08
-5.24515e-07
-3.25957e-08
-5.17848e-07
-3.83618e-08
-5.10201e-07
-4.40026e-08
-5.016e-07
-4.94966e-08
-4.92075e-07
-5.48222e-08
-4.81656e-07
-5.99578e-08
-4.70382e-07
-6.48819e-08
-4.58291e-07
-6.95731e-08
-4.45427e-07
-7.40103e-08
-4.31837e-07
-7.81727e-08
-4.17571e-07
-8.20396e-08
-4.02683e-07
-8.55911e-08
-3.87228e-07
-8.88076e-08
-3.71268e-07
-9.16703e-08
-3.54865e-07
-9.41611e-08
-3.38085e-07
-9.62628e-08
-3.20995e-07
-9.79591e-08
-3.03667e-07
-9.92352e-08
-2.86173e-07
-1.00077e-07
-2.68587e-07
-1.00473e-07
-2.50985e-07
-1.00411e-07
-2.33445e-07
-9.98843e-08
-2.16046e-07
-9.88848e-08
-1.98864e-07
-9.74085e-08
-1.8198e-07
-9.54535e-08
-1.6547e-07
-9.30209e-08
-1.49413e-07
-9.0115e-08
-1.33883e-07
-8.67437e-08
-1.18953e-07
-8.29189e-08
-1.04694e-07
-7.86575e-08
-9.11712e-08
-7.39814e-08
-7.84473e-08
-6.89186e-08
-6.65783e-08
-6.35044e-08
-5.56142e-08
-5.77818e-08
-4.55977e-08
-5.18033e-08
-3.65632e-08
-4.56323e-08
-2.85357e-08
-3.9345e-08
-2.15304e-08
-3.30322e-08
-1.55513e-08
-2.68021e-08
-1.0591e-08
-2.07828e-08
-6.63009e-09
-1.51261e-08
-3.63741e-09
-1.00109e-08
-1.57064e-09
-5.64667e-09
-3.7772e-10
-2.2773e-09
-2.0265e-10
-5.18432e-10
9.17298e-10
-2.09255e-09
4.41035e-09
-4.74487e-09
9.17951e-09
-8.49575e-09
1.49149e-08
-1.33598e-08
2.13618e-08
-1.93438e-08
2.83001e-08
-2.64459e-08
3.55414e-08
-3.46547e-08
4.29256e-08
-4.39496e-08
5.03179e-08
-5.43012e-08
5.76049e-08
-6.56714e-08
6.46922e-08
-7.80147e-08
7.15016e-08
-9.12786e-08
7.79688e-08
-1.05405e-07
8.40415e-08
-1.20329e-07
8.96781e-08
-1.35983e-07
9.48454e-08
-1.52297e-07
9.95183e-08
-1.69194e-07
1.03678e-07
-1.866e-07
1.07311e-07
-2.04434e-07
1.1041e-07
-2.2262e-07
1.1297e-07
-2.41075e-07
1.1499e-07
-2.59722e-07
1.16474e-07
-2.78481e-07
1.17426e-07
-2.97273e-07
1.17855e-07
-3.16022e-07
1.17769e-07
-3.34651e-07
1.1718e-07
-3.53086e-07
1.161e-07
-3.71255e-07
1.14544e-07
-3.89087e-07
1.12526e-07
-4.06515e-07
1.10063e-07
-4.23473e-07
1.07171e-07
-4.39897e-07
1.03868e-07
-4.55728e-07
1.00171e-07
-4.70908e-07
9.61009e-08
-4.85382e-07
9.16753e-08
-4.99098e-07
8.69142e-08
-5.12009e-07
8.18377e-08
-5.24067e-07
7.64663e-08
-5.35231e-07
7.08206e-08
-5.45463e-07
6.49219e-08
-5.54725e-07
5.87914e-08
-5.62986e-07
5.24508e-08
-5.70216e-07
4.59223e-08
-5.76391e-07
3.9228e-08
-5.81487e-07
3.23905e-08
-5.85487e-07
2.54328e-08
-5.88375e-07
1.83779e-08
-5.90141e-07
1.12493e-08
-5.90776e-07
4.07066e-09
-5.90277e-07
-3.13393e-09
-5.88645e-07
-1.03403e-08
-5.85882e-07
-1.75238e-08
-5.81995e-07
-2.46599e-08
-5.76998e-07
-3.17235e-08
-5.70904e-07
-3.86895e-08
-5.63733e-07
-4.55326e-08
-5.55509e-07
-5.22273e-08
-5.46257e-07
-5.87484e-08
-5.36009e-07
-6.50701e-08
-5.248e-07
-7.11671e-08
-5.12668e-07
-7.70139e-08
-4.99655e-07
-8.25855e-08
-4.85809e-07
-8.78569e-08
-4.71178e-07
-9.28035e-08
-4.55816e-07
-9.74012e-08
-4.39781e-07
-1.01626e-07
-4.23132e-07
-1.05456e-07
-4.05934e-07
-1.08868e-07
-3.88253e-07
-1.11842e-07
-3.7016e-07
-1.14357e-07
-3.51726e-07
-1.16393e-07
-3.33026e-07
-1.17935e-07
-3.14138e-07
-1.18965e-07
-2.95141e-07
-1.1947e-07
-2.76115e-07
-1.19437e-07
-2.57143e-07
-1.18856e-07
-2.38308e-07
-1.1772e-07
-2.19693e-07
-1.16024e-07
-2.01381e-07
-1.13765e-07
-1.83455e-07
-1.10947e-07
-1.65997e-07
-1.07573e-07
-1.49087e-07
-1.03654e-07
-1.32802e-07
-9.92035e-08
-1.17218e-07
-9.4242e-08
-1.02404e-07
-8.87949e-08
-8.84283e-08
-8.28948e-08
-7.53503e-08
-7.65824e-08
-6.32251e-08
-6.99069e-08
-5.21004e-08
-6.2928e-08
-4.20158e-08
-5.57169e-08
-3.30024e-08
-4.83584e-08
-2.5082e-08
-4.09527e-08
-1.82661e-08
-3.36179e-08
-1.25566e-08
-2.64923e-08
-7.94497e-09
-1.97378e-08
-4.41299e-09
-1.35429e-08
-1.93411e-09
-8.12555e-09
-4.75166e-10
-3.73624e-09
-6.77814e-10
-6.16568e-10
1.53387e-09
-2.46107e-09
6.25484e-09
-5.53423e-09
1.22527e-08
-9.83723e-09
1.92179e-08
-1.53681e-08
2.68926e-08
-2.21193e-08
3.50514e-08
-3.00768e-08
4.34989e-08
-3.92189e-08
5.20677e-08
-4.95159e-08
6.06149e-08
-6.09306e-08
6.90196e-08
-7.34181e-08
7.71798e-08
-8.6927e-08
8.50104e-08
-1.01399e-07
9.24408e-08
-1.16771e-07
9.94133e-08
-1.32974e-07
1.05881e-07
-1.49935e-07
1.11807e-07
-1.67579e-07
1.17162e-07
-1.85827e-07
1.21926e-07
-2.04597e-07
1.26081e-07
-2.23808e-07
1.2962e-07
-2.43375e-07
1.32537e-07
-2.63216e-07
1.34831e-07
-2.83245e-07
1.36504e-07
-3.03381e-07
1.37562e-07
-3.23539e-07
1.38013e-07
-3.43639e-07
1.37869e-07
-3.63601e-07
1.37142e-07
-3.83346e-07
1.35845e-07
-4.02798e-07
1.33996e-07
-4.21883e-07
1.31611e-07
-4.40529e-07
1.28709e-07
-4.58667e-07
1.25309e-07
-4.7623e-07
1.21431e-07
-4.93155e-07
1.17096e-07
-5.0938e-07
1.12326e-07
-5.24848e-07
1.07143e-07
-5.39504e-07
1.0157e-07
-5.53297e-07
9.56306e-08
-5.66178e-07
8.93477e-08
-5.78103e-07
8.27457e-08
-5.89031e-07
7.58493e-08
-5.98923e-07
6.86833e-08
-6.07745e-07
6.12729e-08
-6.15466e-07
5.36439e-08
-6.2206e-07
4.5822e-08
-6.27504e-07
3.78337e-08
-6.31776e-07
2.97054e-08
-6.34863e-07
2.14643e-08
-6.36751e-07
1.31376e-08
-6.37433e-07
4.75293e-09
-6.36905e-07
-3.66183e-09
-6.35167e-07
-1.20784e-08
-6.32223e-07
-2.04683e-08
-6.2808e-07
-2.88027e-08
-6.22751e-07
-3.70527e-08
-6.16251e-07
-4.51888e-08
-6.08602e-07
-5.31819e-08