/*--------------------------------*- C++ -*----------------------------------*\
| =========                 |                                                 |
| \\      /  F ield         | OpenFOAM: The Open Source CFD Toolbox           |
|  \\    /   O peration     | Version:  2212                                  |
|   \\  /    A nd           | Website:  www.openfoam.com                      |
|    \\/     M anipulation  |                                                 |
\*---------------------------------------------------------------------------*/
FoamFile
{
    version     2.0;
    format      ascii;
    arch        "LSB;label=32;scalar=64";
    class       volVectorField;
    location    "0.09";
    object      U;
}
// * * * * * * * * * * * * * * * * * * * * * * * * * * * * * * * * * * * * * //

dimensions      [0 1 -1 0 0 0 0];

internalField   nonuniform List<vector> 
10000
(
(3.01232e-06 -2.99881e-06 0)
(1.49619e-05 -7.73194e-06 0)
(3.40074e-05 -8.93591e-06 0)
(5.19341e-05 -7.71342e-06 0)
(6.37095e-05 -5.20474e-06 0)
(6.68913e-05 -2.07096e-06 0)
(6.02105e-05 1.32278e-06 0)
(4.30863e-05 4.76924e-06 0)
(1.53955e-05 8.15049e-06 0)
(-2.26903e-05 1.13975e-05 0)
(-7.08115e-05 1.44719e-05 0)
(-0.000128483 1.73504e-05 0)
(-0.000195135 2.00193e-05 0)
(-0.000270144 2.24716e-05 0)
(-0.00035285 2.47043e-05 0)
(-0.000442574 2.67165e-05 0)
(-0.000538623 2.85105e-05 0)
(-0.000640302 3.00887e-05 0)
(-0.000746918 3.14552e-05 0)
(-0.000857785 3.26151e-05 0)
(-0.000972228 3.35727e-05 0)
(-0.00108958 3.4334e-05 0)
(-0.0012092 3.49048e-05 0)
(-0.00133045 3.52911e-05 0)
(-0.00145271 3.54993e-05 0)
(-0.00157539 3.55357e-05 0)
(-0.00169792 3.54064e-05 0)
(-0.00181974 3.51177e-05 0)
(-0.0019403 3.46763e-05 0)
(-0.0020591 3.40886e-05 0)
(-0.00217564 3.33607e-05 0)
(-0.00228944 3.2499e-05 0)
(-0.00240006 3.15098e-05 0)
(-0.00250705 3.03997e-05 0)
(-0.00261002 2.9175e-05 0)
(-0.00270857 2.78418e-05 0)
(-0.00280234 2.6407e-05 0)
(-0.00289099 2.48765e-05 0)
(-0.00297418 2.32562e-05 0)
(-0.00305163 2.15532e-05 0)
(-0.00312305 1.97733e-05 0)
(-0.00318819 1.79226e-05 0)
(-0.0032468 1.60083e-05 0)
(-0.00329869 1.40361e-05 0)
(-0.00334366 1.20126e-05 0)
(-0.00338154 9.94549e-06 0)
(-0.0034122 7.84031e-06 0)
(-0.00343551 5.70332e-06 0)
(-0.00345139 3.54232e-06 0)
(-0.00345975 1.36406e-06 0)
(-0.00346056 -8.24609e-07 0)
(-0.0034538 -3.01583e-06 0)
(-0.00343946 -5.20266e-06 0)
(-0.00341758 -7.37829e-06 0)
(-0.00338821 -9.53456e-06 0)
(-0.00335145 -1.16633e-05 0)
(-0.00330739 -1.37573e-05 0)
(-0.00325618 -1.58087e-05 0)
(-0.00319798 -1.78092e-05 0)
(-0.00313299 -1.97511e-05 0)
(-0.00306141 -2.16265e-05 0)
(-0.00298351 -2.34275e-05 0)
(-0.00289955 -2.51455e-05 0)
(-0.00280985 -2.67719e-05 0)
(-0.00271473 -2.82981e-05 0)
(-0.00261455 -2.9716e-05 0)
(-0.00250971 -3.1018e-05 0)
(-0.00240062 -3.21958e-05 0)
(-0.00228772 -3.32411e-05 0)
(-0.00217148 -3.41458e-05 0)
(-0.00205239 -3.49031e-05 0)
(-0.00193099 -3.55057e-05 0)
(-0.0018078 -3.59461e-05 0)
(-0.0016834 -3.62165e-05 0)
(-0.00155837 -3.63104e-05 0)
(-0.00143333 -3.62224e-05 0)
(-0.0013089 -3.59471e-05 0)
(-0.00118573 -3.54786e-05 0)
(-0.00106448 -3.48111e-05 0)
(-0.000945815 -3.39399e-05 0)
(-0.000830427 -3.28617e-05 0)
(-0.000719006 -3.15736e-05 0)
(-0.000612248 -3.00727e-05 0)
(-0.000510854 -2.8357e-05 0)
(-0.000415517 -2.64263e-05 0)
(-0.000326922 -2.42815e-05 0)
(-0.000245742 -2.19246e-05 0)
(-0.000172626 -1.93594e-05 0)
(-0.000108187 -1.65933e-05 0)
(-5.29898e-05 -1.36388e-05 0)
(-7.53208e-06 -1.05148e-05 0)
(2.77857e-05 -7.24942e-06 0)
(5.27016e-05 -3.88627e-06 0)
(6.7157e-05 -4.97457e-07 0)
(7.13982e-05 2.79336e-06 0)
(6.61373e-05 5.77373e-06 0)
(5.27752e-05 8.07716e-06 0)
(3.38686e-05 9.05395e-06 0)
(1.45038e-05 7.60798e-06 0)
(2.7823e-06 2.78272e-06 0)
(7.73953e-06 -1.49431e-05 0)
(3.13958e-05 -3.13664e-05 0)
(6.31519e-05 -3.35374e-05 0)
(8.8602e-05 -2.56355e-05 0)
(9.82004e-05 -1.15218e-05 0)
(8.64215e-05 6.18575e-06 0)
(4.9866e-05 2.57774e-05 0)
(-1.33456e-05 4.61351e-05 0)
(-0.000103953 6.65274e-05 0)
(-0.000221885 8.64693e-05 0)
(-0.000366502 0.000105637 0)
(-0.000536759 0.000123811 0)
(-0.000731325 0.000140845 0)
(-0.000948668 0.000156641 0)
(-0.00118711 0.000171138 0)
(-0.00144489 0.000184296 0)
(-0.00172018 0.000196096 0)
(-0.0020111 0.000206535 0)
(-0.00231579 0.000215619 0)
(-0.00263236 0.000223361 0)
(-0.00295896 0.000229783 0)
(-0.00329375 0.00023491 0)
(-0.00363491 0.000238771 0)
(-0.00398069 0.000241399 0)
(-0.00432934 0.00024283 0)
(-0.00467919 0.000243099 0)
(-0.0050286 0.000242245 0)
(-0.00537601 0.000240306 0)
(-0.00571987 0.000237324 0)
(-0.00605873 0.000233339 0)
(-0.00639117 0.000228392 0)
(-0.00671584 0.000222526 0)
(-0.00703143 0.000215784 0)
(-0.00733673 0.000208206 0)
(-0.00763055 0.000199837 0)
(-0.00791178 0.00019072 0)
(-0.00817937 0.000180896 0)
(-0.00843233 0.00017041 0)
(-0.00866974 0.000159305 0)
(-0.00889073 0.000147624 0)
(-0.0090945 0.000135413 0)
(-0.00928032 0.000122715 0)
(-0.00944752 0.000109574 0)
(-0.00959548 9.6036e-05 0)
(-0.00972368 8.21468e-05 0)
(-0.00983164 6.79523e-05 0)
(-0.00991894 5.34994e-05 0)
(-0.00998527 3.8835e-05 0)
(-0.0100303 2.4007e-05 0)
(-0.010054 9.06382e-06 0)
(-0.010056 -5.94472e-06 0)
(-0.0100364 -2.0968e-05 0)
(-0.00999519 -3.59557e-05 0)
(-0.00993246 -5.08562e-05 0)
(-0.00984839 -6.56166e-05 0)
(-0.0097432 -8.01838e-05 0)
(-0.00961722 -9.45051e-05 0)
(-0.00947086 -0.000108526 0)
(-0.00930459 -0.000122192 0)
(-0.00911896 -0.000135448 0)
(-0.00891461 -0.00014824 0)
(-0.00869226 -0.00016051 0)
(-0.0084527 -0.000172203 0)
(-0.0081968 -0.000183263 0)
(-0.00792552 -0.000193634 0)
(-0.00763989 -0.000203262 0)
(-0.00734102 -0.000212091 0)
(-0.0070301 -0.00022007 0)
(-0.0067084 -0.000227145 0)
(-0.00637724 -0.000233263 0)
(-0.00603804 -0.000238375 0)
(-0.00569226 -0.000242432 0)
(-0.00534145 -0.00024539 0)
(-0.00498723 -0.000247203 0)
(-0.00463123 -0.000247831 0)
(-0.00427519 -0.000247234 0)
(-0.00392087 -0.00024538 0)
(-0.00357007 -0.000242236 0)
(-0.00322464 -0.000237775 0)
(-0.00288646 -0.000231973 0)
(-0.00255742 -0.000224814 0)
(-0.00223945 -0.000216286 0)
(-0.00193444 -0.000206386 0)
(-0.00164432 -0.000195117 0)
(-0.00137095 -0.000182493 0)
(-0.00111617 -0.000168543 0)
(-0.00088175 -0.000153306 0)
(-0.00066938 -0.000136845 0)
(-0.000480607 -0.000119246 0)
(-0.00031681 -0.000100635 0)
(-0.000179133 -8.11842e-05 0)
(-6.8402e-05 -6.11388e-05 0)
(1.49901e-05 -4.08454e-05 0)
(7.1247e-05 -2.08092e-05 0)
(0.000101399 -1.77834e-06 0)
(0.000107618 1.51236e-05 0)
(9.35778e-05 2.82065e-05 0)
(6.50194e-05 3.49218e-05 0)
(3.15916e-05 3.15881e-05 0)
(7.60038e-06 1.44923e-05 0)
(8.96311e-06 -3.40129e-05 0)
(3.36912e-05 -6.31609e-05 0)
(6.20468e-05 -6.17607e-05 0)
(7.68018e-05 -3.86379e-05 0)
(6.643e-05 -1.00565e-06 0)
(2.37687e-05 4.57486e-05 0)
(-5.5921e-05 9.77465e-05 0)
(-0.00017547 0.000152247 0)
(-0.000336177 0.000207324 0)
(-0.000538178 0.000261618 0)
(-0.000780748 0.00031417 0)
(-0.00106251 0.000364299 0)
(-0.00138162 0.000411526 0)
(-0.00173587 0.000455515 0)
(-0.00212281 0.000496037 0)
(-0.00253979 0.000532942 0)
(-0.00298405 0.000566138 0)
(-0.00345276 0.000595578 0)
(-0.00394302 0.000621254 0)
(-0.00445193 0.000643182 0)
(-0.00497658 0.000661401 0)
(-0.00551412 0.00067597 0)
(-0.00606168 0.000686956 0)
(-0.0066165 0.000694442 0)
(-0.00717582 0.000698517 0)
(-0.007737 0.000699277 0)
(-0.00829743 0.000696824 0)
(-0.0088546 0.000691267 0)
(-0.00940608 0.000682714 0)
(-0.00994952 0.00067128 0)
(-0.0104827 0.000657081 0)
(-0.0110033 0.000640234 0)
(-0.0115095 0.00062086 0)
(-0.0119991 0.000599079 0)
(-0.0124703 0.000575013 0)
(-0.0129213 0.000548784 0)
(-0.0133505 0.000520518 0)
(-0.0137561 0.000490337 0)
(-0.0141368 0.000458368 0)
(-0.0144912 0.000424737 0)
(-0.0148179 0.000389572 0)
(-0.0151158 0.000353001 0)
(-0.0153839 0.000315154 0)
(-0.015621 0.000276162 0)
(-0.0158264 0.000236157 0)
(-0.0159994 0.000195274 0)
(-0.0161391 0.000153647 0)
(-0.0162452 0.000111415 0)
(-0.0163172 6.87175e-05 0)
(-0.0163548 2.56945e-05 0)
(-0.0163578 -1.75106e-05 0)
(-0.016326 -6.07517e-05 0)
(-0.0162596 -0.000103881 0)
(-0.0161587 -0.000146751 0)
(-0.0160236 -0.00018921 0)
(-0.0158546 -0.000231103 0)
(-0.0156523 -0.000272278 0)
(-0.0154174 -0.000312578 0)
(-0.0151505 -0.000351847 0)
(-0.0148527 -0.000389926 0)
(-0.0145249 -0.000426656 0)
(-0.0141683 -0.000461877 0)
(-0.0137842 -0.00049543 0)
(-0.0133739 -0.000527155 0)
(-0.012939 -0.000556893 0)
(-0.0124812 -0.000584489 0)
(-0.0120022 -0.000609789 0)
(-0.011504 -0.00063264 0)
(-0.0109885 -0.000652893 0)
(-0.010458 -0.000670404 0)
(-0.00991454 -0.000685031 0)
(-0.0093606 -0.00069664 0)
(-0.00879861 -0.000705103 0)
(-0.00823111 -0.0007103 0)
(-0.00766074 -0.000712117 0)
(-0.00709022 -0.00071045 0)
(-0.00652235 -0.000705208 0)
(-0.00595998 -0.000696307 0)
(-0.00540602 -0.000683679 0)
(-0.00486341 -0.000667271 0)
(-0.00433513 -0.000647046 0)
(-0.00382417 -0.000622988 0)
(-0.00333348 -0.000595101 0)
(-0.00286603 -0.000563419 0)
(-0.0024247 -0.000528006 0)
(-0.00201227 -0.000488969 0)
(-0.00163144 -0.000446458 0)
(-0.00128471 -0.000400691 0)
(-0.000974342 -0.000351961 0)
(-0.000702317 -0.000300673 0)
(-0.000470208 -0.00024737 0)
(-0.000279068 -0.000192795 0)
(-0.000129266 -0.000137963 0)
(-2.02763e-05 -8.42759e-05 0)
(4.96037e-05 -3.36858e-05 0)
(8.3607e-05 1.10752e-05 0)
(8.68376e-05 4.61996e-05 0)
(6.67429e-05 6.64731e-05 0)
(3.50452e-05 6.50423e-05 0)
(9.06421e-06 3.38579e-05 0)
(7.80815e-06 -5.20835e-05 0)
(2.60973e-05 -8.88939e-05 0)
(3.96069e-05 -7.66588e-05 0)
(3.07745e-05 -2.95527e-05 0)
(-1.24917e-05 4.16518e-05 0)
(-9.81019e-05 0.000128634 0)
(-0.000231464 0.000225119 0)
(-0.000415933 0.000326469 0)
(-0.000653151 0.000429275 0)
(-0.000943404 0.000531036 0)
(-0.00128592 0.000629922 0)
(-0.00167909 0.000724593 0)
(-0.00212069 0.000814074 0)
(-0.00260801 0.000897661 0)
(-0.00313797 0.000974854 0)
(-0.00370723 0.00104531 0)
(-0.00431225 0.00110881 0)
(-0.00494938 0.00116522 0)
(-0.00561485 0.00121449 0)
(-0.00630489 0.00125661 0)
(-0.00701567 0.00129164 0)
(-0.00774343 0.00131966 0)
(-0.00848439 0.0013408 0)
(-0.00923487 0.00135518 0)
(-0.00999122 0.00136296 0)
(-0.0107499 0.00136434 0)
(-0.0115074 0.00135948 0)
(-0.0122605 0.00134859 0)
(-0.0130057 0.00133188 0)
(-0.01374 0.00130956 0)
(-0.0144604 0.00128186 0)
(-0.0151639 0.001249 0)
(-0.0158477 0.00121121 0)
(-0.0165092 0.00116872 0)
(-0.0171458 0.00112176 0)
(-0.0177551 0.00107058 0)
(-0.0183347 0.00101542 0)
(-0.0188827 0.000956523 0)
(-0.0193969 0.000894127 0)
(-0.0198755 0.000828483 0)
(-0.0203168 0.000759841 0)
(-0.020719 0.000688452 0)
(-0.0210809 0.000614571 0)
(-0.021401 0.000538454 0)
(-0.0216783 0.000460362 0)
(-0.0219116 0.000380557 0)
(-0.0221001 0.000299306 0)
(-0.0222432 0.000216879 0)
(-0.0223401 0.000133548 0)
(-0.0223905 4.95918e-05 0)
(-0.0223942 -3.47103e-05 0)
(-0.0223509 -0.000119074 0)
(-0.0222609 -0.00020321 0)
(-0.0221242 -0.000286826 0)
(-0.0219414 -0.000369627 0)
(-0.0217128 -0.000451315 0)
(-0.0214393 -0.000531588 0)
(-0.0211217 -0.000610142 0)
(-0.0207611 -0.00068667 0)
(-0.0203587 -0.000760866 0)
(-0.0199159 -0.000832418 0)
(-0.0194342 -0.000901018 0)
(-0.0189153 -0.000966355 0)
(-0.0183613 -0.00102812 0)
(-0.017774 -0.00108601 0)
(-0.0171559 -0.00113972 0)
(-0.0165092 -0.00118896 0)
(-0.0158366 -0.00123342 0)
(-0.0151407 -0.00127283 0)
(-0.0144245 -0.0013069 0)
(-0.0136909 -0.00133538 0)
(-0.012943 -0.00135799 0)
(-0.0121843 -0.0013745 0)
(-0.011418 -0.00138469 0)
(-0.0106477 -0.00138833 0)
(-0.0098771 -0.00138524 0)
(-0.00910982 -0.00137525 0)
(-0.00834969 -0.00135821 0)
(-0.00760058 -0.00133399 0)
(-0.00686637 -0.00130252 0)
(-0.00615099 -0.00126374 0)
(-0.00545836 -0.00121763 0)
(-0.00479239 -0.00116424 0)
(-0.00415691 -0.00110365 0)
(-0.00355567 -0.00103602 0)
(-0.00299228 -0.000961598 0)
(-0.00247016 -0.00088071 0)
(-0.00199248 -0.000793822 0)
(-0.00156209 -0.000701553 0)
(-0.00118141 -0.000604727 0)
(-0.000852332 -0.000504435 0)
(-0.000576053 -0.000402123 0)
(-0.000352913 -0.000299715 0)
(-0.000182154 -0.000199778 0)
(-6.1642e-05 -0.000105752 0)
(1.24608e-05 -2.22444e-05 0)
(4.60051e-05 4.45966e-05 0)
(4.72605e-05 8.67278e-05 0)
(2.86593e-05 9.3887e-05 0)
(8.15011e-06 5.28746e-05 0)
(5.40505e-06 -6.42105e-05 0)
(1.24381e-05 -9.91934e-05 0)
(2.95e-06 -6.69241e-05 0)
(-3.89149e-05 1.34598e-05 0)
(-0.000124739 0.000127736 0)
(-0.000262548 0.000264746 0)
(-0.000457906 0.000415841 0)
(-0.000714312 0.000574431 0)
(-0.00103351 0.000735517 0)
(-0.00141582 0.000895321 0)
(-0.00186035 0.001051 0)
(-0.00236533 0.00120041 0)
(-0.0029282 0.00134196 0)
(-0.00354582 0.00147448 0)
(-0.00421463 0.00159709 0)
(-0.00493069 0.0017092 0)
(-0.00568981 0.00181038 0)
(-0.00648765 0.00190038 0)
(-0.0073197 0.00197905 0)
(-0.00818141 0.00204638 0)
(-0.00906819 0.00210238 0)
(-0.00997544 0.00214718 0)
(-0.0108986 0.00218093 0)
(-0.0118331 0.00220383 0)
(-0.0127746 0.00221611 0)
(-0.0137187 0.00221806 0)
(-0.0146611 0.00220995 0)
(-0.0155977 0.00219209 0)
(-0.0165245 0.00216481 0)
(-0.0174376 0.00212845 0)
(-0.0183332 0.00208335 0)
(-0.0192078 0.00202989 0)
(-0.0200578 0.00196843 0)
(-0.02088 0.00189933 0)
(-0.0216712 0.00182298 0)
(-0.0224284 0.00173977 0)
(-0.0231488 0.00165008 0)
(-0.0238297 0.00155432 0)
(-0.0244686 0.00145286 0)
(-0.0250632 0.00134613 0)
(-0.0256114 0.00123452 0)
(-0.0261111 0.00111844 0)
(-0.0265605 0.000998316 0)
(-0.0269581 0.000874558 0)
(-0.0273023 0.000747592 0)
(-0.0275919 0.000617848 0)
(-0.0278259 0.000485759 0)
(-0.0280032 0.000351766 0)
(-0.0281233 0.000216316 0)
(-0.0281856 7.98579e-05 0)
(-0.0281898 -5.71485e-05 0)
(-0.0281357 -0.00019424 0)
(-0.0280234 -0.000330948 0)
(-0.0278533 -0.000466797 0)
(-0.0276258 -0.000601305 0)
(-0.0273415 -0.000733989 0)
(-0.0270014 -0.000864357 0)
(-0.0266066 -0.000991917 0)
(-0.0261584 -0.00111617 0)
(-0.0256583 -0.00123662 0)
(-0.025108 -0.00135277 0)
(-0.0245094 -0.0014641 0)
(-0.0238648 -0.00157013 0)
(-0.0231765 -0.00167036 0)
(-0.022447 -0.00176429 0)
(-0.0216792 -0.00185143 0)
(-0.0208759 -0.00193132 0)
(-0.0200404 -0.00200346 0)
(-0.019176 -0.00206742 0)
(-0.0182862 -0.00212274 0)
(-0.0173748 -0.00216901 0)
(-0.0164457 -0.0022058 0)
(-0.0155029 -0.00223273 0)
(-0.0145505 -0.00224946 0)
(-0.013593 -0.00225564 0)
(-0.0126348 -0.00225097 0)
(-0.0116803 -0.00223521 0)
(-0.0107344 -0.00220812 0)
(-0.00980158 -0.00216953 0)
(-0.0088867 -0.00211932 0)
(-0.00799451 -0.00205744 0)
(-0.00712974 -0.00198388 0)
(-0.00629712 -0.00189875 0)
(-0.00550124 -0.00180222 0)
(-0.0047466 -0.00169459 0)
(-0.0040375 -0.00157629 0)
(-0.00337799 -0.0014479 0)
(-0.0027718 -0.00131023 0)
(-0.00222224 -0.00116431 0)
(-0.0017321 -0.00101152 0)
(-0.00130356 -0.000853604 0)
(-0.000937936 -0.000692871 0)
(-0.000635609 -0.000532297 0)
(-0.00039573 -0.000375751 0)
(-0.000215994 -0.000228268 0)
(-9.23434e-05 -9.63929e-05 0)
(-1.86937e-05 1.14033e-05 0)
(1.34315e-05 8.43151e-05 0)
(1.61279e-05 0.000108733 0)
(5.95938e-06 6.65815e-05 0)
(2.40002e-06 -6.80224e-05 0)
(-4.74204e-06 -8.86311e-05 0)
(-4.27273e-05 -2.54706e-05 0)
(-0.000124316 9.82704e-05 0)
(-0.000259767 0.000265282 0)
(-0.000456728 0.000461785 0)
(-0.00072051 0.00067689 0)
(-0.00105443 0.000902099 0)
(-0.00146011 0.00113081 0)
(-0.00193773 0.00135792 0)
(-0.00248626 0.00157949 0)
(-0.00310365 0.00179249 0)
(-0.00378707 0.00199462 0)
(-0.00453301 0.00218415 0)
(-0.00533746 0.00235978 0)
(-0.00619597 0.00252056 0)
(-0.00710382 0.00266583 0)
(-0.00805604 0.00279517 0)
(-0.00904749 0.00290831 0)
(-0.010073 0.00300516 0)
(-0.0111271 0.00308572 0)
(-0.0122047 0.00315012 0)
(-0.0133004 0.00319854 0)
(-0.014409 0.00323126 0)
(-0.0155253 0.00324859 0)
(-0.0166443 0.00325089 0)
(-0.0177609 0.00323857 0)
(-0.0188704 0.00321205 0)
(-0.0199679 0.00317181 0)
(-0.0210491 0.00311831 0)
(-0.0221093 0.00305208 0)
(-0.0231445 0.00297361 0)
(-0.0241505 0.00288344 0)
(-0.0251235 0.00278212 0)
(-0.0260597 0.00267019 0)
(-0.0269556 0.00254821 0)
(-0.0278079 0.00241675 0)
(-0.0286134 0.00227639 0)
(-0.0293691 0.0021277 0)
(-0.0300724 0.00197128 0)
(-0.0307207 0.00180773 0)
(-0.0313116 0.00163763 0)
(-0.031843 0.0014616 0)
(-0.032313 0.00128026 0)
(-0.0327199 0.00109423 0)
(-0.0330622 0.000904136 0)
(-0.0333385 0.00071062 0)
(-0.033548 0.000514327 0)
(-0.0336897 0.000315912 0)
(-0.033763 0.000116038 0)
(-0.0337675 -8.46243e-05 0)
(-0.0337032 -0.000285394 0)
(-0.0335701 -0.000485583 0)
(-0.0333686 -0.000684496 0)
(-0.0330992 -0.000881428 0)
(-0.0327627 -0.00107567 0)
(-0.0323603 -0.0012665 0)
(-0.0318931 -0.00145321 0)
(-0.0313628 -0.00163506 0)
(-0.0307712 -0.00181132 0)
(-0.0301203 -0.00198127 0)
(-0.0294124 -0.00214418 0)
(-0.02865 -0.00229931 0)
(-0.0278359 -0.00244595 0)
(-0.0269732 -0.00258338 0)
(-0.0260651 -0.00271089 0)
(-0.0251151 -0.00282778 0)
(-0.0241269 -0.00293339 0)
(-0.0231045 -0.00302704 0)
(-0.022052 -0.00310809 0)
(-0.0209738 -0.00317594 0)
(-0.0198744 -0.00323001 0)
(-0.0187587 -0.00326973 0)
(-0.0176314 -0.0032946 0)
(-0.0164976 -0.00330415 0)
(-0.0153626 -0.00329797 0)
(-0.0142316 -0.00327569 0)
(-0.01311 -0.00323702 0)
(-0.0120033 -0.00318172 0)
(-0.0109171 -0.00310965 0)
(-0.00985671 -0.00302076 0)
(-0.00882775 -0.00291508 0)
(-0.00783561 -0.0027928 0)
(-0.00688557 -0.00265422 0)
(-0.00598276 -0.00249982 0)
(-0.00513209 -0.00233027 0)
(-0.00433815 -0.00214647 0)
(-0.00360515 -0.00194963 0)
(-0.00293683 -0.00174129 0)
(-0.00233631 -0.00152345 0)
(-0.00180602 -0.00129864 0)
(-0.00134748 -0.0010701 0)
(-0.000961177 -0.000841938 0)
(-0.000646343 -0.000619394 0)
(-0.000400738 -0.000409113 0)
(-0.00022041 -0.000219537 0)
(-9.94447e-05 -6.13518e-05 0)
(-2.96386e-05 5.20652e-05 0)
(-3.6534e-08 0.000104068 0)
(3.13607e-06 7.2538e-05 0)
(-8.57402e-07 -6.22741e-05 0)
(-2.38261e-05 -5.37971e-05 0)
(-9.37963e-05 5.25317e-05 0)
(-0.000219623 0.000230481 0)
(-0.00040968 0.000460159 0)
(-0.000670853 0.000725487 0)
(-0.00100787 0.00101353 0)
(-0.0014236 0.00131402 0)
(-0.00191933 0.00161879 0)
(-0.00249495 0.00192143 0)
(-0.00314915 0.00221687 0)
(-0.00387962 0.00250117 0)
(-0.00468318 0.00277126 0)
(-0.00555598 0.00302478 0)
(-0.00649359 0.00325996 0)
(-0.00749112 0.00347546 0)
(-0.00854334 0.00367033 0)
(-0.00964475 0.00384393 0)
(-0.0107897 0.00399584 0)
(-0.0119722 0.00412588 0)
(-0.0131866 0.00423401 0)
(-0.0144267 0.00432033 0)
(-0.0156868 0.00438509 0)
(-0.0169608 0.00442858 0)
(-0.018243 0.00445122 0)
(-0.0195277 0.00445347 0)
(-0.0208092 0.00443585 0)
(-0.0220821 0.00439894 0)
(-0.023341 0.00434333 0)
(-0.0245808 0.00426968 0)
(-0.0257963 0.00417865 0)
(-0.0269829 0.00407094 0)
(-0.0281359 0.00394726 0)
(-0.0292509 0.00380835 0)
(-0.0303236 0.00365494 0)
(-0.03135 0.00348781 0)
(-0.0323263 0.00330771 0)
(-0.0332489 0.00311545 0)
(-0.0341145 0.00291181 0)
(-0.0349199 0.00269759 0)
(-0.0356622 0.00247361 0)
(-0.0363388 0.00224069 0)
(-0.0369472 0.00199967 0)
(-0.0374852 0.00175138 0)
(-0.0379509 0.00149669 0)
(-0.0383426 0.00123645 0)
(-0.0386588 0.000971545 0)
(-0.0388983 0.000702856 0)
(-0.0390602 0.00043128 0)
(-0.0391438 0.000157726 0)
(-0.0391487 -0.000116885 0)
(-0.0390748 -0.000391623 0)
(-0.0389221 -0.000665546 0)
(-0.0386911 -0.000937701 0)
(-0.0383824 -0.00120713 0)
(-0.0379969 -0.00147285 0)
(-0.0375359 -0.00173389 0)
(-0.0370008 -0.00198927 0)
(-0.0363935 -0.002238 0)
(-0.035716 -0.00247907 0)
(-0.0349706 -0.0027115 0)
(-0.03416 -0.00293429 0)
(-0.033287 -0.00314645 0)
(-0.0323548 -0.00334701 0)
(-0.0313669 -0.00353498 0)
(-0.0303269 -0.00370941 0)
(-0.0292389 -0.00386936 0)
(-0.0281071 -0.00401391 0)
(-0.026936 -0.00414217 0)
(-0.0257302 -0.00425328 0)
(-0.0244948 -0.00434641 0)
(-0.0232349 -0.00442078 0)
(-0.0219559 -0.00447565 0)
(-0.0206633 -0.00451036 0)
(-0.0193628 -0.00452427 0)
(-0.0180603 -0.00451684 0)
(-0.0167618 -0.00448761 0)
(-0.0154734 -0.00443619 0)
(-0.0142012 -0.00436231 0)
(-0.0129513 -0.0042658 0)
(-0.0117301 -0.00414661 0)
(-0.0105435 -0.00400486 0)
(-0.00939774 -0.00384082 0)
(-0.0082986 -0.00365495 0)
(-0.00725182 -0.00344796 0)
(-0.00626283 -0.0032208 0)
(-0.00533671 -0.00297476 0)
(-0.00447812 -0.00271148 0)
(-0.00369118 -0.0024331 0)
(-0.00297936 -0.00214228 0)
(-0.00234536 -0.0018424 0)
(-0.00179096 -0.00153769 0)
(-0.00131689 -0.00123342 0)
(-0.00092259 -0.000936178 0)
(-0.000606112 -0.000654195 0)
(-0.000363881 -0.000397698 0)
(-0.000190472 -0.000179404 0)
(-7.83333e-05 -1.49759e-05 0)
(-1.82146e-05 7.63674e-05 0)
(3.37054e-08 6.94299e-05 0)
(-4.1775e-06 -4.63548e-05 0)
(-4.37999e-05 7.33033e-06 0)
(-0.000147794 0.000170204 0)
(-0.000320717 0.000413905 0)
(-0.000568712 0.000716502 0)
(-0.000897622 0.00105999 0)
(-0.00131134 0.00142964 0)
(-0.00181206 0.00181357 0)
(-0.00240053 0.00220217 0)
(-0.00307624 0.00258776 0)
(-0.00383748 0.00296418 0)
(-0.0046816 0.00332655 0)
(-0.00560505 0.00367102 0)
(-0.0066036 0.00399459 0)
(-0.00767243 0.00429494 0)
(-0.00880622 0.00457034 0)
(-0.00999928 0.00481949 0)
(-0.0112456 0.00504151 0)
(-0.012539 0.00523581 0)
(-0.0138732 0.00540208 0)
(-0.0152416 0.00554023 0)
(-0.0166377 0.00565034 0)
(-0.0180551 0.00573267 0)
(-0.0194872 0.00578756 0)
(-0.0209277 0.00581552 0)
(-0.0223702 0.00581711 0)
(-0.0238085 0.00579298 0)
(-0.0252367 0.00574384 0)
(-0.0266486 0.00567046 0)
(-0.0280388 0.00557365 0)
(-0.0294015 0.00545428 0)
(-0.0307314 0.00531323 0)
(-0.0320234 0.00515141 0)
(-0.0332726 0.00496977 0)
(-0.0344742 0.00476928 0)
(-0.0356239 0.00455092 0)
(-0.0367173 0.00431569 0)
(-0.0377504 0.0040646 0)
(-0.0387196 0.0037987 0)
(-0.0396213 0.00351902 0)
(-0.0404523 0.00322663 0)
(-0.0412096 0.0029226 0)
(-0.0418905 0.00260801 0)
(-0.0424926 0.00228397 0)
(-0.0430137 0.00195159 0)
(-0.0434519 0.001612 0)
(-0.0438056 0.00126634 0)
(-0.0440735 0.000915772 0)
(-0.0442545 0.000561458 0)
(-0.0443479 0.000204587 0)
(-0.0443531 -0.00015364 0)
(-0.0442702 -0.000512009 0)
(-0.0440991 -0.000869292 0)
(-0.0438403 -0.00122425 0)
(-0.0434946 -0.00157562 0)
(-0.043063 -0.00192215 0)
(-0.0425469 -0.00226256 0)
(-0.041948 -0.00259558 0)
(-0.0412682 -0.0029199 0)
(-0.0405098 -0.00323424 0)
(-0.0396754 -0.00353732 0)
(-0.038768 -0.00382783 0)
(-0.0377907 -0.0041045 0)
(-0.0367472 -0.00436607 0)
(-0.0356412 -0.00461126 0)
(-0.0344769 -0.00483884 0)
(-0.0332586 -0.00504759 0)
(-0.0319912 -0.00523634 0)
(-0.0306795 -0.00540393 0)
(-0.0293288 -0.00554926 0)
(-0.0279446 -0.00567127 0)
(-0.0265326 -0.00576896 0)
(-0.0250987 -0.00584139 0)
(-0.0236491 -0.00588771 0)
(-0.0221902 -0.00590713 0)
(-0.0207283 -0.00589896 0)
(-0.01927 -0.00586264 0)
(-0.0178221 -0.00579769 0)
(-0.0163914 -0.00570379 0)
(-0.0149846 -0.00558076 0)
(-0.0136085 -0.00542858 0)
(-0.0122698 -0.00524745 0)
(-0.0109752 -0.00503776 0)
(-0.00973106 -0.00480017 0)
(-0.00854366 -0.00453562 0)
(-0.0074189 -0.0042454 0)
(-0.00636233 -0.00393121 0)
(-0.00537902 -0.00359519 0)
(-0.00447347 -0.00324008 0)
(-0.00364953 -0.00286929 0)
(-0.00291022 -0.00248705 0)
(-0.00225766 -0.00209858 0)
(-0.0016929 -0.00171032 0)
(-0.00121577 -0.00133017 0)
(-0.00082479 -0.000967824 0)
(-0.000516971 -0.000635168 0)
(-0.000287638 -0.000346714 0)
(-0.000130169 -0.000120065 0)
(-3.73758e-05 2.34986e-05 0)
(-3.15174e-06 5.65892e-05 0)
(-7.46129e-06 -2.00535e-05 0)
(-6.40399e-05 9.57786e-05 0)
(-0.000203084 0.000329354 0)
(-0.000424736 0.000650927 0)
(-0.000732727 0.00103704 0)
(-0.00113167 0.00146813 0)
(-0.00162443 0.00192796 0)
(-0.00221235 0.00240322 0)
(-0.00289551 0.00288299 0)
(-0.00367283 0.0033584 0)
(-0.00454214 0.00382225 0)
(-0.00550032 0.00426876 0)
(-0.00654345 0.0046933 0)
(-0.00766688 0.0050922 0)
(-0.00886537 0.00546261 0)
(-0.0101332 0.00580235 0)
(-0.0114642 0.00610977 0)
(-0.012852 0.00638372 0)
(-0.0142898 0.00662343 0)
(-0.0157709 0.00682843 0)
(-0.0172882 0.00699856 0)
(-0.0188347 0.00713387 0)
(-0.0204035 0.00723462 0)
(-0.0219874 0.00730123 0)
(-0.0235796 0.00733425 0)
(-0.0251731 0.00733437 0)
(-0.0267613 0.00730235 0)
(-0.0283376 0.00723907 0)
(-0.0298955 0.00714546 0)
(-0.0314288 0.00702252 0)
(-0.0329314 0.00687131 0)
(-0.0343976 0.00669292 0)
(-0.0358217 0.0064885 0)
(-0.0371982 0.0062592 0)
(-0.0385222 0.00600625 0)
(-0.0397887 0.00573086 0)
(-0.040993 0.00543428 0)
(-0.0421309 0.0051178 0)
(-0.0431982 0.0047827 0)
(-0.044191 0.0044303 0)
(-0.0451059 0.00406193 0)
(-0.0459396 0.00367894 0)
(-0.0466892 0.00328269 0)
(-0.0473519 0.00287458 0)
(-0.0479254 0.002456 0)
(-0.0484076 0.00202837 0)
(-0.0487968 0.00159312 0)
(-0.0490915 0.00115173 0)
(-0.0492906 0.000705644 0)
(-0.0493933 0.000256373 0)
(-0.0493989 -0.00019458 0)
(-0.0493075 -0.000645686 0)
(-0.0491191 -0.0010954 0)
(-0.0488342 -0.00154217 0)
(-0.0484537 -0.00198441 0)
(-0.0479787 -0.00242054 0)
(-0.0474106 -0.00284896 0)
(-0.0467514 -0.00326806 0)
(-0.0460031 -0.00367622 0)
(-0.0451683 -0.00407184 0)
(-0.0442499 -0.00445329 0)
(-0.0432511 -0.00481896 0)
(-0.0421753 -0.00516724 0)
(-0.0410264 -0.00549655 0)
(-0.0398087 -0.00580532 0)
(-0.0385265 -0.006092 0)
(-0.0371849 -0.00635508 0)
(-0.0357888 -0.00659308 0)
(-0.0343437 -0.00680458 0)
(-0.0328553 -0.00698821 0)
(-0.0313296 -0.00714265 0)
(-0.0297728 -0.00726668 0)
(-0.0281914 -0.00735913 0)
(-0.0265921 -0.00741895 0)
(-0.0249816 -0.0074452 0)
(-0.0233671 -0.00743703 0)
(-0.0217557 -0.00739376 0)
(-0.0201547 -0.00731485 0)
(-0.0185713 -0.0071999 0)
(-0.017013 -0.00704875 0)
(-0.0154871 -0.00686142 0)
(-0.0140008 -0.00663819 0)
(-0.0125612 -0.0063796 0)
(-0.0111755 -0.00608651 0)
(-0.00985012 -0.00576015 0)
(-0.0085916 -0.00540217 0)
(-0.0074059 -0.00501467 0)
(-0.00629851 -0.00460037 0)
(-0.00527434 -0.00416261 0)
(-0.00433762 -0.00370555 0)
(-0.00349176 -0.00323429 0)
(-0.0027393 -0.00275502 0)
(-0.00208171 -0.0022753 0)
(-0.00151936 -0.00180428 0)
(-0.00105136 -0.00135301 0)
(-0.000675499 -0.000934827 0)
(-0.000388039 -0.000565805 0)
(-0.000183479 -0.000265132 0)
(-5.6877e-05 -5.56632e-05 0)
(-6.31455e-06 3.37612e-05 0)
(-1.06582e-05 1.66029e-05 0)
(-8.41688e-05 0.00021191 0)
(-0.000258598 0.000530845 0)
(-0.000529722 0.000942857 0)
(-0.000898802 0.0014234 0)
(-0.00136911 0.00195172 0)
(-0.00194236 0.00251031 0)
(-0.0026189 0.00308465 0)
(-0.00339803 0.00366266 0)
(-0.00427798 0.00423439 0)
(-0.00525603 0.00479169 0)
(-0.00632854 0.00532788 0)
(-0.00749112 0.0058376 0)
(-0.00873868 0.00631653 0)
(-0.0100655 0.00676127 0)
(-0.0114656 0.00716919 0)
(-0.0129322 0.0075383 0)
(-0.0144585 0.00786714 0)
(-0.0160373 0.00815473 0)
(-0.0176615 0.00840048 0)
(-0.0193234 0.00860411 0)
(-0.0210157 0.00876565 0)
(-0.0227307 0.00888534 0)
(-0.0244611 0.00896367 0)
(-0.0261993 0.00900125 0)
(-0.0279381 0.00899888 0)
(-0.0296701 0.00895746 0)
(-0.0313884 0.00887802 0)
(-0.033086 0.00876168 0)
(-0.0347562 0.00860962 0)
(-0.0363926 0.00842311 0)
(-0.0379888 0.00820347 0)
(-0.0395388 0.00795208 0)
(-0.0410368 0.00767035 0)
(-0.0424773 0.00735975 0)
(-0.043855 0.00702175 0)
(-0.045165 0.0066579 0)
(-0.0464024 0.00626973 0)
(-0.0475629 0.00585883 0)
(-0.0486424 0.00542679 0)
(-0.049637 0.00497525 0)
(-0.0505433 0.00450586 0)
(-0.051358 0.00402027 0)
(-0.0520783 0.00352019 0)
(-0.0527016 0.00300734 0)
(-0.0532257 0.00248344 0)
(-0.0536487 0.00195026 0)
(-0.0539689 0.00140957 0)
(-0.0541853 0.000863182 0)
(-0.0542968 0.000312918 0)
(-0.054303 -0.000239375 0)
(-0.0542037 -0.000791831 0)
(-0.0539991 -0.00134256 0)
(-0.0536896 -0.00188966 0)
(-0.0532762 -0.00243121 0)
(-0.0527601 -0.00296527 0)
(-0.0521429 -0.00348988 0)
(-0.0514266 -0.00400309 0)
(-0.0506135 -0.00450292 0)
(-0.0497064 -0.00498741 0)
(-0.0487084 -0.00545459 0)
(-0.0476228 -0.00590249 0)
(-0.0464535 -0.00632917 0)
(-0.0452047 -0.00673268 0)
(-0.0438807 -0.00711113 0)
(-0.0424866 -0.00746264 0)
(-0.0410275 -0.00778537 0)
(-0.0395089 -0.00807754 0)
(-0.0379367 -0.00833742 0)
(-0.0363169 -0.00856335 0)
(-0.0346561 -0.00875376 0)
(-0.0329609 -0.00890717 0)
(-0.0312382 -0.00902218 0)
(-0.0294952 -0.00909753 0)
(-0.0277393 -0.0091321 0)
(-0.025978 -0.00912489 0)
(-0.024219 -0.0090751 0)
(-0.0224701 -0.0089821 0)
(-0.0207391 -0.00884547 0)
(-0.0190338 -0.00866503 0)
(-0.0173622 -0.00844084 0)
(-0.0157319 -0.00817329 0)
(-0.0141507 -0.00786309 0)
(-0.0126259 -0.00751132 0)
(-0.0111648 -0.0071195 0)
(-0.00977407 -0.00668964 0)
(-0.00846028 -0.00622431 0)
(-0.00722931 -0.00572677 0)
(-0.0060865 -0.00520099 0)
(-0.0050365 -0.00465189 0)
(-0.0040832 -0.00408538 0)
(-0.00322959 -0.00350863 0)
(-0.00247771 -0.00293024 0)
(-0.00182852 -0.00236051 0)
(-0.00128188 -0.00181171 0)
(-0.000836497 -0.00129845 0)
(-0.00048968 -0.00083812 0)
(-0.000237163 -0.000451158 0)
(-7.6325e-05 -0.000161563 0)
(-9.40044e-06 9.39628e-07 0)
(-1.37458e-05 6.34503e-05 0)
(-0.000103966 0.00035566 0)
(-0.000313655 0.000774893 0)
(-0.000634369 0.00129022 0)
(-0.00106492 0.00187639 0)
(-0.00160719 0.00251172 0)
(-0.00226166 0.00317774 0)
(-0.00302761 0.00385888 0)
(-0.00390343 0.00454207 0)
(-0.00488661 0.0052164 0)
(-0.00597375 0.00587281 0)
(-0.00716065 0.00650386 0)
(-0.0084424 0.00710345 0)
(-0.00981342 0.00766664 0)
(-0.0112676 0.00818952 0)
(-0.0127983 0.00866899 0)
(-0.0143985 0.0091027 0)
(-0.0160609 0.00948892 0)
(-0.017778 0.00982644 0)
(-0.019542 0.0101145 0)
(-0.021345 0.0103528 0)
(-0.023179 0.0105412 0)
(-0.0250361 0.0106801 0)
(-0.0269084 0.0107698 0)
(-0.0287879 0.0108112 0)
(-0.0306668 0.0108052 0)
(-0.0325376 0.0107527 0)
(-0.0343926 0.010655 0)
(-0.0362246 0.0105133 0)
(-0.0380264 0.0103291 0)
(-0.039791 0.0101039 0)
(-0.0415119 0.00983915 0)
(-0.0431826 0.00953654 0)
(-0.0447968 0.00919773 0)
(-0.0463487 0.00882445 0)
(-0.0478328 0.00841848 0)
(-0.0492435 0.00798163 0)
(-0.0505761 0.00751575 0)
(-0.0518256 0.00702271 0)
(-0.0529878 0.00650444 0)
(-0.0540585 0.00596286 0)
(-0.055034 0.00539996 0)
(-0.0559109 0.00481773 0)
(-0.0566862 0.00421818 0)
(-0.057357 0.00360338 0)
(-0.057921 0.0029754 0)
(-0.0583763 0.00233634 0)
(-0.058721 0.00168834 0)
(-0.0589539 0.00103354 0)
(-0.0590741 0.000374136 0)
(-0.059081 -0.000287672 0)
(-0.0589744 -0.000949651 0)
(-0.0587545 -0.00160954 0)
(-0.0584218 -0.00226508 0)
(-0.0579772 -0.00291395 0)
(-0.0574222 -0.00355385 0)
(-0.0567585 -0.00418244 0)
(-0.0559881 -0.0047974 0)
(-0.0551135 -0.00539636 0)
(-0.0541377 -0.00597698 0)
(-0.053064 -0.00653692 0)
(-0.0518959 -0.00707384 0)
(-0.0506376 -0.00758541 0)
(-0.0492934 -0.00806934 0)
(-0.0478682 -0.00852335 0)