/*--------------------------------*- C++ -*----------------------------------*\
| =========                 |                                                 |
| \\      /  F ield         | OpenFOAM: The Open Source CFD Toolbox           |
|  \\    /   O peration     | Version:  2212                                  |
|   \\  /    A nd           | Website:  www.openfoam.com                      |
|    \\/     M anipulation  |                                                 |
\*---------------------------------------------------------------------------*/
FoamFile
{
    version     2.0;
    format      ascii;
    arch        "LSB;label=32;scalar=64";
    class       surfaceScalarField;
    location    "0.0565";
    object      phi;
}
// * * * * * * * * * * * * * * * * * * * * * * * * * * * * * * * * * * * * * //

dimensions      [0 3 -1 0 0 0 0];

oriented        oriented;

internalField   nonuniform List<scalar> 
19800
(
6.67362e-11
-6.67872e-11
2.24584e-10
-1.57833e-10
3.98878e-10
-1.74311e-10
5.33662e-10
-1.34776e-10
5.98305e-10
-6.46483e-11
5.75864e-10
2.24416e-11
4.57935e-10
1.17922e-10
2.41558e-10
2.16373e-10
-7.28048e-11
3.14367e-10
-4.82518e-10
4.09696e-10
-9.83479e-10
5.00951e-10
-1.57067e-09
5.87166e-10
-2.23841e-09
6.67734e-10
-2.98066e-09
7.42246e-10
-3.79111e-09
8.10451e-10
-4.66331e-09
8.72209e-10
-5.59078e-09
9.27465e-10
-6.567e-09
9.7622e-10
-7.58553e-09
1.01853e-09
-8.64002e-09
1.05449e-09
-9.72421e-09
1.0842e-09
-1.0832e-08
1.1078e-09
-1.19574e-08
1.12544e-09
-1.30947e-08
1.13728e-09
-1.42382e-08
1.1435e-09
-1.53825e-08
1.14427e-09
-1.65223e-08
1.13979e-09
-1.76525e-08
1.13026e-09
-1.87684e-08
1.11585e-09
-1.98652e-08
1.09677e-09
-2.09384e-08
1.07322e-09
-2.19838e-08
1.0454e-09
-2.29973e-08
1.01349e-09
-2.3975e-08
9.77719e-10
-2.49133e-08
9.38281e-10
-2.58086e-08
8.95375e-10
-2.66578e-08
8.49196e-10
-2.74578e-08
7.99956e-10
-2.82057e-08
7.47863e-10
-2.88988e-08
6.93114e-10
-2.95347e-08
6.35907e-10
-3.01111e-08
5.76446e-10
-3.06261e-08
5.14942e-10
-3.10777e-08
4.51608e-10
-3.14643e-08
3.86646e-10
-3.17846e-08
3.20267e-10
-3.20373e-08
2.52694e-10
-3.22214e-08
1.84139e-10
-3.23362e-08
1.14821e-10
-3.23812e-08
4.49615e-11
-3.2356e-08
-2.52222e-11
-3.22605e-08
-9.54914e-11
-3.20949e-08
-1.65609e-10
-3.18595e-08
-2.35346e-10
-3.15551e-08
-3.04464e-10
-3.11823e-08
-3.72719e-10
-3.07425e-08
-4.39871e-10
-3.02368e-08
-5.05663e-10
-2.9667e-08
-5.69837e-10
-2.90348e-08
-6.32149e-10
-2.83425e-08
-6.92345e-10
-2.75923e-08
-7.50159e-10
-2.6787e-08
-8.05328e-10
-2.59294e-08
-8.57589e-10
-2.50227e-08
-9.06675e-10
-2.40704e-08
-9.52332e-10
-2.30761e-08
-9.94316e-10
-2.20437e-08
-1.03237e-09
-2.09775e-08
-1.06624e-09
-1.98818e-08
-1.09567e-09
-1.87614e-08
-1.12043e-09
-1.76211e-08
-1.14028e-09
-1.64661e-08
-1.15499e-09
-1.53017e-08
-1.16436e-09
-1.41335e-08
-1.16818e-09
-1.29673e-08
-1.16627e-09
-1.18088e-08
-1.15843e-09
-1.06643e-08
-1.14452e-09
-9.53994e-09
-1.12439e-09
-8.44203e-09
-1.09791e-09
-7.37705e-09
-1.06498e-09
-6.35149e-09
-1.02555e-09
-5.37193e-09
-9.79571e-10
-4.44491e-09
-9.27034e-10
-3.57694e-09
-8.67974e-10
-2.77444e-09
-8.02491e-10
-2.04369e-09
-7.30749e-10
-1.3907e-09
-6.52993e-10
-8.21115e-10
-5.69583e-10
-3.40068e-10
-4.81044e-10
4.80548e-11
-3.88124e-10
3.39943e-10
-2.91896e-10
5.3384e-10
-1.93903e-10
6.30294e-10
-9.64511e-11
6.33355e-10
-3.05574e-12
5.52504e-10
8.08505e-11
4.05745e-10
1.46751e-10
2.24801e-10
1.80945e-10
6.39861e-11
1.60824e-10
6.39868e-11
1.62406e-10
-2.29183e-10
4.39537e-10
-4.3496e-10
7.00505e-10
-4.35256e-10
8.51979e-10
-2.86253e-10
8.27914e-10
-4.05766e-11
5.86406e-10
2.63947e-10
1.03257e-10
6.01072e-10
-6.33076e-10
9.52701e-10
-1.62515e-09
1.30645e-09
-2.86921e-09
1.65378e-09
-4.35702e-09
1.98878e-09
-6.0772e-09
2.30736e-09
-8.01613e-09
2.60668e-09
-1.01587e-08
2.88476e-09
-1.24885e-08
3.14034e-09
-1.49889e-08
3.37257e-09
-1.76424e-08
3.58097e-09
-2.04316e-08
3.76538e-09
-2.33388e-08
3.92579e-09
-2.63467e-08
4.06239e-09
-2.94381e-08
4.1755e-09
-3.25958e-08
4.26552e-09
-3.58033e-08
4.33295e-09
-3.90444e-08
4.37832e-09
-4.23031e-08
4.40224e-09
-4.55642e-08
4.40536e-09
-4.88127e-08
4.38833e-09
-5.20343e-08
4.35186e-09
-5.52151e-08
4.29668e-09
-5.83419e-08
4.22352e-09
-6.14018e-08
4.13311e-09
-6.43826e-08
4.02621e-09
-6.72727e-08
3.90359e-09
-7.0061e-08
3.76602e-09
-7.2737e-08
3.61426e-09
-7.52907e-08
3.44908e-09
-7.77127e-08
3.27126e-09
-7.99943e-08
3.08158e-09
-8.21273e-08
2.88083e-09
-8.4104e-08
2.6698e-09
-8.59174e-08
2.44927e-09
-8.7561e-08
2.22005e-09
-8.9029e-08
1.98293e-09
-9.03161e-08
1.73871e-09
-9.14176e-08
1.48823e-09
-9.23297e-08
1.23229e-09
-9.30487e-08
9.71741e-10
-9.3572e-08
7.07417e-10
-9.38973e-08
4.40166e-10
-9.40232e-08
1.70858e-10
-9.39488e-08
-9.96297e-11
-9.36739e-08
-3.70411e-10
-9.31989e-08
-6.40574e-10
-9.25251e-08
-9.09207e-10
-9.16541e-08
-1.1754e-09
-9.05887e-08
-1.4382e-09
-8.93319e-08
-1.69665e-09
-8.78877e-08
-1.94981e-09
-8.62609e-08
-2.19669e-09
-8.44567e-08
-2.4363e-09
-8.24814e-08
-2.66767e-09
-8.03417e-08
-2.8898e-09
-7.80454e-08
-3.10169e-09
-7.56006e-08
-3.30233e-09
-7.30166e-08
-3.49073e-09
-7.0303e-08
-3.66591e-09
-6.74705e-08
-3.82689e-09
-6.45301e-08
-3.9727e-09
-6.14939e-08
-4.10242e-09
-5.83745e-08
-4.21508e-09
-5.51852e-08
-4.30979e-09
-5.19398e-08
-4.38568e-09
-4.86528e-08
-4.44191e-09
-4.53395e-08
-4.47769e-09
-4.20154e-08
-4.49226e-09
-3.86967e-08
-4.48495e-09
-3.54001e-08
-4.45511e-09
-3.21424e-08
-4.40218e-09
-2.89411e-08
-4.32567e-09
-2.58139e-08
-4.22518e-09
-2.27784e-08
-4.10042e-09
-1.98528e-08
-3.9512e-09
-1.70549e-08
-3.77749e-09
-1.44025e-08
-3.57941e-09
-1.19132e-08
-3.35726e-09
-9.60408e-09
-3.11161e-09
-7.49155e-09
-2.84328e-09
-5.59104e-09
-2.5535e-09
-3.91662e-09
-2.244e-09
-2.48053e-09
-1.91714e-09
-1.29246e-09
-1.57619e-09
-3.58682e-10
-1.22567e-09
3.19281e-10
-8.7186e-10
7.46437e-10
-5.23602e-10
9.36858e-10
-1.93476e-10
9.17269e-10
1.00438e-10
7.31818e-10
3.3221e-10
4.4784e-10
4.64937e-10
1.60688e-10
4.47977e-10
2.24669e-10
1.75323e-10
-4.04524e-10
4.39535e-10
-6.99177e-10
6.29108e-10
-6.24836e-10
6.30916e-10
-2.88041e-10
3.62559e-10
2.27764e-10
-2.3194e-10
8.58446e-10
-1.18736e-09
1.55649e-09
-2.52209e-09
2.28741e-09
-4.24206e-09
3.0264e-09
-6.34389e-09
3.75559e-09
-8.81722e-09
4.4621e-09
-1.16465e-08
5.13669e-09
-1.48126e-08
5.77271e-09
-1.82933e-08
6.36547e-09
-2.20646e-08
6.9117e-09
-2.61013e-08
7.40919e-09
-3.03769e-08
7.85658e-09
-3.48646e-08
8.25315e-09
-3.95375e-08
8.59867e-09
-4.43684e-08
8.89329e-09
-4.93304e-08
9.1375e-09
-5.43969e-08
9.332e-09
-5.95417e-08
9.47773e-09
-6.47391e-08
9.57577e-09
-6.99642e-08
9.6273e-09
-7.51925e-08
9.63364e-09
-8.04004e-08
9.59619e-09
-8.55649e-08
9.51641e-09
-9.0664e-08
9.39581e-09
-9.56764e-08
9.23594e-09
-1.00582e-07
9.0384e-09
-1.0536e-07
8.80482e-09
-1.09994e-07
8.53682e-09
-1.14464e-07
8.23607e-09
-1.18754e-07
7.90425e-09
-1.22848e-07
7.54304e-09
-1.2673e-07
7.15413e-09
-1.30388e-07
6.73921e-09
-1.33807e-07
6.30003e-09
-1.36976e-07
5.8383e-09
-1.39882e-07
5.35575e-09
-1.42516e-07
4.85414e-09
-1.44869e-07
4.33523e-09
-1.46931e-07
3.8008e-09
-1.48695e-07
3.25264e-09
-1.50155e-07
2.69256e-09
-1.51306e-07
2.12239e-09
-1.52143e-07
1.54401e-09
-1.52662e-07
9.59266e-10
-1.52861e-07
3.70068e-10
-1.52739e-07
-2.21652e-10
-1.52295e-07
-8.13941e-10
-1.51531e-07
-1.40482e-09
-1.50448e-07
-1.99226e-09
-1.49049e-07
-2.57425e-09
-1.47339e-07
-3.14874e-09
-1.45322e-07
-3.71363e-09
-1.43005e-07
-4.26682e-09
-1.40395e-07
-4.80618e-09
-1.37502e-07
-5.32958e-09
-1.34335e-07
-5.83484e-09
-1.30905e-07
-6.3198e-09
-1.27224e-07
-6.7823e-09
-1.23306e-07
-7.22017e-09
-1.19166e-07
-7.63124e-09
-1.14818e-07
-8.01337e-09
-1.10281e-07
-8.36447e-09
-1.05571e-07
-8.68242e-09
-1.00708e-07
-8.96519e-09
-9.57125e-08
-9.21079e-09
-9.0605e-08
-9.41727e-09
-8.5408e-08
-9.58276e-09
-8.01444e-08
-9.70548e-09
-7.48383e-08
-9.78376e-09
-6.95146e-08
-9.81602e-09
-6.41987e-08
-9.8008e-09
-5.8917e-08
-9.73681e-09
-5.36963e-08
-9.62289e-09
-4.85639e-08
-9.45809e-09
-4.35474e-08
-9.24166e-09
-3.86748e-08
-8.97307e-09
-3.39739e-08
-8.65209e-09
-2.94726e-08
-8.27882e-09
-2.51983e-08
-7.8537e-09
-2.11779e-08
-7.37766e-09
-1.74373e-08
-6.85217e-09
-1.40012e-08
-6.27939e-09
-1.08924e-08
-5.66233e-09
-8.13128e-09
-5.00513e-09
-5.73509e-09
-4.31333e-09
-3.71685e-09
-3.59443e-09
-2.08404e-09
-2.85848e-09
-8.36837e-10
-2.11907e-09
3.41557e-11
-1.3946e-09
5.50874e-10
-7.10193e-10
7.51526e-10
-1.00212e-10
6.95195e-10
3.88549e-10
4.66683e-10
6.93451e-10
1.81324e-10
7.33327e-10
4.05993e-10
1.37135e-10
-5.41638e-10
2.93599e-10
-8.55634e-10
2.98829e-10
-6.30062e-10
3.18461e-11
-2.10659e-11
-5.96184e-10
8.55791e-10
-1.64754e-09
1.90981e-09
-3.16244e-09
3.07139e-09
-5.16322e-09
4.28821e-09
-7.65806e-09
5.52123e-09
-1.06439e-08
6.74141e-09
-1.4109e-08
7.92719e-09
-1.80349e-08
9.06261e-09
-2.23981e-08
1.01359e-08
-2.71712e-08
1.11386e-08
-3.23239e-08
1.20644e-08
-3.78239e-08
1.29092e-08
-4.36375e-08
1.36702e-08
-4.97299e-08
1.43456e-08
-5.60659e-08
1.49347e-08
-6.26101e-08
1.54375e-08
-6.93271e-08
1.58545e-08
-7.61817e-08
1.61866e-08
-8.31393e-08
1.64353e-08
-9.01658e-08
1.66023e-08
-9.72279e-08
1.66894e-08
-1.04293e-07
1.66987e-08
-1.11329e-07
1.66327e-08
-1.18307e-07
1.64936e-08
-1.25195e-07
1.6284e-08
-1.31965e-07
1.60066e-08
-1.38591e-07
1.5664e-08
-1.45045e-07
1.52591e-08
-1.51303e-07
1.47945e-08
-1.5734e-07
1.42732e-08
-1.63134e-07
1.36981e-08
-1.68663e-07
1.30719e-08
-1.73907e-07
1.23977e-08
-1.78846e-07
1.16784e-08
-1.83463e-07
1.0917e-08
-1.87741e-07
1.01165e-08
-1.91665e-07
9.27985e-09
-1.95221e-07
8.41013e-09
-1.98396e-07
7.51042e-09
-2.01179e-07
6.58379e-09
-2.0356e-07
5.63336e-09
-2.0553e-07
4.6623e-09
-2.07081e-07
3.6738e-09
-2.08208e-07
2.67109e-09
-2.08906e-07
1.65743e-09
-2.09172e-07
6.36138e-10
-2.09005e-07
-3.89447e-10
-2.08403e-07
-1.41591e-09
-2.07368e-07
-2.43982e-09
-2.05902e-07
-3.45768e-09
-2.04011e-07
-4.46597e-09
-2.01698e-07
-5.4611e-09
-1.98972e-07
-6.43948e-09
-1.95842e-07
-7.39746e-09
-1.92317e-07
-8.33135e-09
-1.88409e-07
-9.23744e-09
-1.84131e-07
-1.0112e-08
-1.795e-07
-1.09514e-08
-1.74531e-07
-1.17517e-08
-1.69241e-07
-1.25093e-08
-1.63652e-07
-1.32204e-08
-1.57784e-07
-1.38815e-08
-1.5166e-07
-1.44888e-08
-1.45304e-07
-1.50388e-08
-1.38741e-07
-1.55279e-08
-1.31999e-07
-1.59528e-08
-1.25106e-07
-1.63102e-08
-1.18092e-07
-1.6597e-08
-1.10987e-07
-1.681e-08
-1.03824e-07
-1.69465e-08
-9.66365e-08
-1.70038e-08
-8.94577e-08
-1.69796e-08
-8.23229e-08
-1.68717e-08
-7.52676e-08
-1.66782e-08
-6.8328e-08
-1.63977e-08
-6.15408e-08
-1.60289e-08
-5.49425e-08
-1.55713e-08
-4.857e-08
-1.50246e-08
-4.24595e-08
-1.43893e-08
-3.66469e-08
-1.36664e-08
-3.11668e-08
-1.28578e-08
-2.60526e-08
-1.19664e-08
-2.13356e-08
-1.09964e-08
-1.70446e-08
-9.95331e-09
-1.3205e-08
-8.84474e-09
-9.83771e-09
-7.68061e-09
-6.95813e-09
-6.47402e-09
-4.57446e-09
-5.24216e-09
-2.68582e-09
-4.0077e-09
-1.27991e-09
-2.8005e-09
-3.30116e-10
-1.65999e-09
2.07942e-10
-6.38269e-10
4.00375e-10
1.9612e-10
3.39374e-10
7.54448e-10
1.48792e-10
9.23907e-10
5.5479e-10
6.8912e-11
-6.10551e-10
5.393e-11
-8.40638e-10
-2.06079e-10
-3.70065e-10
-8.29323e-10
6.02198e-10
-1.9039e-09
1.93036e-09
-3.49262e-09
3.49852e-09
-5.63689e-09
5.21565e-09
-8.36019e-09
7.01151e-09
-1.16712e-08
8.83226e-09
-1.55665e-08
1.06367e-08
-2.00329e-08
1.23936e-08
-2.50496e-08
1.40792e-08
-3.05894e-08
1.56757e-08
-3.66207e-08
1.71698e-08
-4.31079e-08
1.85517e-08
-5.00131e-08
1.98144e-08
-5.72961e-08
2.09532e-08
-6.49156e-08
2.1965e-08
-7.28292e-08
2.28483e-08
-8.09941e-08
2.36025e-08
-8.93677e-08
2.4228e-08
-9.79071e-08
2.47261e-08
-1.0657e-07
2.50985e-08
-1.15316e-07
2.53476e-08
-1.24102e-07
2.54759e-08
-1.3289e-07
2.54867e-08
-1.41641e-07
2.53831e-08
-1.50316e-07
2.51687e-08
-1.58879e-07
2.48473e-08
-1.67295e-07
2.44228e-08
-1.7553e-07
2.38992e-08
-1.83552e-07
2.32806e-08
-1.91329e-07
2.25712e-08
-1.98831e-07
2.17753e-08
-2.0603e-07
2.08973e-08
-2.129e-07
1.99416e-08
-2.19414e-07
1.89126e-08
-2.25551e-07
1.78147e-08
-2.31286e-07
1.66526e-08
-2.36601e-07
1.54308e-08
-2.41475e-07
1.41539e-08
-2.45891e-07
1.28266e-08
-2.49834e-07
1.14534e-08
-2.5329e-07
1.00392e-08
-2.56245e-07
8.5888e-09
-2.5869e-07
7.10692e-09
-2.60614e-07
5.5985e-09
-2.62012e-07
4.06847e-09
-2.62876e-07
2.52183e-09
-2.63204e-07
9.63656e-10
-2.62992e-07
-6.00934e-10
-2.62241e-07
-2.16675e-09
-2.60953e-07
-3.72851e-09
-2.59129e-07
-5.2809e-09
-2.56777e-07
-6.81855e-09
-2.53902e-07
-8.33598e-09
-2.50514e-07
-9.82769e-09
-2.46623e-07
-1.12881e-08
-2.42243e-07
-1.27117e-08
-2.37388e-07
-1.40927e-08
-2.32074e-07
-1.54256e-08
-2.26321e-07
-1.67047e-08
-2.20148e-07
-1.79242e-08
-2.13579e-07
-1.90785e-08
-2.06637e-07
-2.01621e-08
-1.99349e-07
-2.11693e-08
-1.91744e-07
-2.20946e-08
-1.8385e-07
-2.29327e-08
-1.75699e-07
-2.36784e-08
-1.67326e-07
-2.43264e-08
-1.58764e-07
-2.48719e-08
-1.50051e-07
-2.53101e-08
-1.41224e-07
-2.56366e-08
-1.32324e-07
-2.58471e-08
-1.2339e-07
-2.59378e-08
-1.14464e-07
-2.59051e-08
-1.0559e-07
-2.5746e-08
-9.68102e-08
-2.54579e-08
-8.81692e-08
-2.50386e-08
-7.97115e-08
-2.44866e-08
-7.14816e-08
-2.38013e-08
-6.35237e-08
-2.29825e-08
-5.58817e-08
-2.20312e-08
-4.85985e-08
-2.09495e-08
-4.17157e-08
-1.97406e-08
-3.52727e-08
-1.84094e-08
-2.93065e-08
-1.69625e-08
-2.3851e-08
-1.54089e-08
-1.89354e-08
-1.37603e-08
-1.45839e-08
-1.20321e-08
-1.08139e-08
-1.0244e-08
-7.6345e-09
-8.42154e-09
-5.04476e-09
-6.59744e-09
-3.03125e-09
-4.81401e-09
-1.56562e-09
-3.12562e-09
-6.01596e-10
-1.60229e-09
-7.16834e-11
-3.33791e-10
1.16611e-10
5.66149e-10
8.5751e-11
9.54771e-10
6.40542e-10
-1.55112e-11
-5.95037e-10
-2.43041e-10
-6.13105e-10
-8.23947e-10
2.10838e-10
-1.86612e-09
1.64438e-09
-3.45127e-09
3.51551e-09
-5.63837e-09
5.68562e-09
-8.46658e-09
8.04386e-09
-1.19579e-08
1.05029e-08
-1.61199e-08
1.29942e-08
-2.09475e-08
1.54644e-08
-2.64258e-08
1.78719e-08
-3.25313e-08
2.01847e-08
-3.92338e-08
2.23782e-08
-4.64977e-08
2.44337e-08
-5.42831e-08
2.63371e-08
-6.2547e-08
2.80783e-08
-7.12439e-08
2.96501e-08
-8.03265e-08
3.10476e-08
-8.97463e-08
3.22681e-08
-9.94544e-08
3.33105e-08
-1.09401e-07
3.41748e-08
-1.19537e-07
3.48624e-08
-1.29814e-07
3.53754e-08
-1.40183e-07
3.57166e-08
-1.50597e-07
3.58896e-08
-1.61009e-07
3.58984e-08
-1.71373e-07
3.57474e-08
-1.81646e-07
3.54415e-08
-1.91784e-07
3.49857e-08
-2.01747e-07
3.43854e-08
-2.11494e-07
3.36461e-08
-2.20987e-07
3.27734e-08
-2.30189e-07
3.17733e-08
-2.39065e-07
3.06517e-08
-2.47582e-07
2.94147e-08
-2.55709e-07
2.80684e-08
-2.63416e-07
2.6619e-08
-2.70674e-07
2.50728e-08
-2.77457e-07
2.34363e-08
-2.83742e-07
2.17157e-08
-2.89506e-07
1.99176e-08
-2.94728e-07
1.80486e-08
-2.9939e-07
1.61152e-08
-3.03474e-07
1.4124e-08
-3.06968e-07
1.2082e-08
-3.09856e-07
9.99571e-09
-3.1213e-07
7.8722e-09
-3.1378e-07
5.7184e-09
-3.148e-07
3.54135e-09
-3.15184e-07
1.34819e-09
-3.14931e-07
-8.53834e-10
-3.14041e-07
-3.0574e-09
-3.12514e-07
-5.25512e-09
-3.10355e-07
-7.43948e-09
-3.07571e-07
-9.6029e-09
-3.04169e-07
-1.17377e-08
-3.00161e-07
-1.38362e-08
-2.95558e-07
-1.58905e-08
-2.90377e-07
-1.78928e-08
-2.84635e-07
-1.98351e-08
-2.78351e-07
-2.17096e-08
-2.71547e-07
-2.35083e-08
-2.64248e-07
-2.52233e-08
-2.5648e-07
-2.68466e-08
-2.48272e-07
-2.83705e-08
-2.39654e-07
-2.97871e-08
-2.3066e-07
-3.10888e-08
-2.21324e-07
-3.22681e-08
-2.11685e-07
-3.33177e-08
-2.01781e-07
-3.42305e-08
-1.91653e-07
-3.49998e-08
-1.81344e-07
-3.56188e-08
-1.70899e-07
-3.60816e-08
-1.60364e-07
-3.63824e-08
-1.49786e-07
-3.65158e-08
-1.39214e-07
-3.64772e-08
-1.28697e-07
-3.62624e-08
-1.18287e-07
-3.5868e-08
-1.08034e-07
-3.52912e-08
-9.79906e-08
-3.45304e-08
-8.82073e-08
-3.35846e-08
-7.87355e-08
-3.24543e-08
-6.96256e-08
-3.11412e-08
-6.09267e-08
-2.96484e-08
-5.26862e-08
-2.79812e-08
-4.4949e-08
-2.61465e-08
-3.77572e-08
-2.41544e-08
-3.11486e-08
-2.20175e-08
-2.51562e-08
-1.97526e-08
-1.98072e-08
-1.73811e-08
-1.51211e-08
-1.49301e-08
-1.11086e-08
-1.2434e-08
-7.76975e-09
-9.93633e-09
-5.09183e-09
-7.49193e-09
-3.04736e-09
-5.17009e-09
-1.59163e-09
-3.05801e-09
-6.6009e-10
-1.26534e-09
-1.65466e-10
7.15228e-11
5.70797e-12
7.83595e-10
6.46243e-10
-1.08142e-10
-4.86897e-10
-5.72872e-10
-1.48363e-10
-1.51098e-09
1.14894e-09
-3.01507e-09
3.14847e-09
-5.1564e-09
5.65684e-09
-7.98673e-09
8.51595e-09
-1.15402e-08
1.15973e-08
-1.58351e-08
1.47978e-08
-2.08759e-08
1.8035e-08
-2.66552e-08
2.12437e-08
-3.31553e-08
2.4372e-08
-4.03498e-08
2.73793e-08
-4.82053e-08
3.02338e-08
-5.66827e-08
3.2911e-08
-6.5738e-08
3.53924e-08
-7.53236e-08
3.7664e-08
-8.53894e-08
3.97158e-08
-9.58827e-08
4.15409e-08
-1.0675e-07
4.31352e-08
-1.17936e-07
4.44966e-08
-1.29386e-07
4.56248e-08
-1.41044e-07
4.65209e-08
-1.52857e-07
4.71875e-08
-1.64768e-07
4.76279e-08
-1.76725e-07
4.78465e-08
-1.88675e-07
4.78483e-08
-2.00566e-07
4.7639e-08
-2.12349e-07
4.72246e-08
-2.23975e-07
4.66118e-08
-2.35397e-07
4.58075e-08
-2.4657e-07
4.48188e-08
-2.5745e-07
4.36532e-08
-2.67995e-07
4.23185e-08
-2.78166e-07
4.08224e-08
-2.87924e-07
3.91729e-08
-2.97234e-07
3.73781e-08
-3.06061e-07
3.54464e-08
-3.14374e-07
3.33859e-08
-3.22143e-07
3.12053e-08
-3.2934e-07
2.89129e-08
-3.3594e-07
2.65174e-08
-3.41919e-07
2.40276e-08
-3.47256e-07
2.14521e-08
-3.51932e-07
1.88e-08
-3.5593e-07
1.60801e-08
-3.59236e-07
1.33016e-08
-3.61837e-07
1.04736e-08
-3.63724e-07
7.60538e-09
-3.64889e-07
4.70643e-09
-3.65327e-07
1.78621e-09
-3.65036e-07
-1.14565e-09
-3.64014e-07
-4.07938e-09
-3.62264e-07
-7.00512e-09
-3.5979e-07
-9.91289e-09
-3.56601e-07
-1.27926e-08
-3.52704e-07
-1.56341e-08
-3.48113e-07
-1.8427e-08
-3.42843e-07
-2.1161e-08
-3.3691e-07
-2.38257e-08
-3.30334e-07
-2.64106e-08
-3.23139e-07
-2.89051e-08
-3.15349e-07
-3.12988e-08
-3.06991e-07
-3.3581e-08
-2.98096e-07
-3.57415e-08
-2.88697e-07
-3.77698e-08
-2.78828e-07
-3.96557e-08
-2.68528e-07
-4.13891e-08
-2.57836e-07
-4.29601e-08
-2.46794e-07
-4.43591e-08
-2.35448e-07
-4.55769e-08
-2.23843e-07
-4.66045e-08
-2.12029e-07
-4.74334e-08
-2.00055e-07
-4.80555e-08
-1.87974e-07
-4.84634e-08
-1.75839e-07
-4.86504e-08
-1.63706e-07
-4.86103e-08
-1.51631e-07
-4.83379e-08
-1.3967e-07
-4.7829e-08
-1.27881e-07
-4.70802e-08
-1.16322e-07
-4.60895e-08
-1.0505e-07
-4.48562e-08
-9.4123e-08
-4.33813e-08
-8.35968e-08
-4.16673e-08
-7.35261e-08
-3.97191e-08
-6.39635e-08
-3.75438e-08
-5.49588e-08
-3.51512e-08
-4.65584e-08
-3.25548e-08
-3.88042e-08
-2.97717e-08
-3.17327e-08
-2.68241e-08
-2.5374e-08
-2.37399e-08
-1.97502e-08
-2.05539e-08
-1.48743e-08
-1.73098e-08
-1.07488e-08
-1.40619e-08
-7.36318e-09
-1.08775e-08
-4.69325e-09
-7.84001e-09
-2.69857e-09
-5.05269e-09
-1.32089e-09
-2.64303e-09
-4.82253e-10
-7.67111e-10
-8.32118e-11
3.84543e-10
5.63025e-10
-2.04198e-10
-2.82704e-10
-9.19543e-10
5.67016e-10
-2.23689e-09
2.46627e-09
-4.23076e-09
5.14234e-09
-6.95925e-09
8.38533e-09
-1.04644e-08
1.20211e-08
-1.47731e-08
1.5906e-08
-1.98981e-08
1.99227e-08
-2.58394e-08
2.39763e-08
-3.25857e-08
2.79901e-08
-4.0116e-08
3.19022e-08
-4.84004e-08
3.56637e-08
-5.74022e-08
3.92356e-08
-6.70785e-08
4.25873e-08
-7.73814e-08
4.56954e-08
-8.82594e-08
4.85419e-08
-9.96575e-08
5.1114e-08
-1.11519e-07
5.34022e-08
-1.23785e-07
5.54009e-08
-1.36395e-07
5.71068e-08
-1.49289e-07
5.85191e-08
-1.62407e-07
5.96387e-08
-1.75688e-07
6.04684e-08
-1.89072e-07
6.1012e-08
-2.025e-07
6.12748e-08
-2.15915e-07
6.12627e-08
-2.29258e-07
6.09827e-08
-2.42476e-07
6.04423e-08
-2.55514e-07
5.96496e-08
-2.6832e-07
5.86133e-08
-2.80843e-07
5.73424e-08
-2.93036e-07
5.58462e-08
-3.04852e-07
5.41344e-08
-3.16247e-07
5.22169e-08
-3.27178e-07
5.01039e-08
-3.37605e-07
4.78056e-08
-3.47491e-07
4.53324e-08
-3.568e-07
4.26951e-08
-3.65499e-07
3.99043e-08
-3.73557e-07
3.6971e-08
-3.80946e-07
3.3906e-08
-3.87639e-07
3.07206e-08
-3.93613e-07
2.74259e-08
-3.98846e-07
2.40334e-08
-4.03321e-07
2.05545e-08
-4.0702e-07
1.70008e-08
-4.0993e-07
1.3384e-08
-4.12041e-07
9.7161e-09
-4.13344e-07
6.00904e-09
-4.13833e-07
2.275e-09
-4.13504e-07
-1.47369e-09
-4.12359e-07
-5.22458e-09
-4.10399e-07
-8.96507e-09
-4.0763e-07
-1.26824e-08
-4.04059e-07
-1.63637e-08
-3.99697e-07
-1.9996e-08
-3.94558e-07
-2.35661e-08
-3.88658e-07
-2.70608e-08
-3.82017e-07
-3.04668e-08
-3.74657e-07
-3.37709e-08
-3.66602e-07
-3.69595e-08
-3.57882e-07
-4.00193e-08
-3.48526e-07
-4.2937e-08
-3.38568e-07
-4.56993e-08
-3.28045e-07
-4.82931e-08
-3.16995e-07
-5.07053e-08
-3.05461e-07
-5.29233e-08
-2.93486e-07
-5.49346e-08
-2.81119e-07
-5.67269e-08
-2.68407e-07
-5.82887e-08
-2.55403e-07
-5.96086e-08
-2.4216e-07
-6.0676e-08
-2.28735e-07
-6.14808e-08
-2.15184e-07
-6.20138e-08
-2.01568e-07
-6.22665e-08
-1.87947e-07
-6.22315e-08
-1.74383e-07
-6.19023e-08
-1.60938e-07
-6.12738e-08
-1.47676e-07
-6.03423e-08
-1.3466e-07
-5.91053e-08
-1.21954e-07
-5.75626e-08
-1.09619e-07
-5.57155e-08
-9.77187e-08
-5.35681e-08
-8.63112e-08
-5.11266e-08
-7.54544e-08
-4.84005e-08
-6.52026e-08
-4.5403e-08
-5.56063e-08
-4.21511e-08
-4.67112e-08
-3.86668e-08
-3.85575e-08
-3.49778e-08
-3.11785e-08
-3.11189e-08
-2.45996e-08
-2.71329e-08
-1.88369e-08
-2.30725e-08
-1.38962e-08
-1.90026e-08
-9.77123e-09
-1.50025e-08
-6.44259e-09
-1.11686e-08
-3.87643e-09
-7.61886e-09
-2.0233e-09
-4.49616e-09
-8.1738e-10
-1.97304e-09
-1.76039e-10
-2.56809e-10
3.86988e-10
-3.00837e-10
1.81212e-11
-1.27275e-09
1.53894e-09
-2.9811e-09
4.17462e-09
-5.48123e-09
7.64247e-09
-8.81649e-09
1.17206e-08
-1.30174e-08
1.62221e-08
-1.8102e-08
2.09905e-08
-2.40759e-08
2.58966e-08
-3.09333e-08
3.08338e-08
-3.86582e-08
3.5715e-08
-4.72251e-08
4.04691e-08
-5.66004e-08
4.5039e-08
-6.67433e-08
4.93785e-08
-7.76072e-08
5.34512e-08
-8.91403e-08
5.72285e-08
-1.01287e-07
6.06886e-08
-1.13988e-07
6.38152e-08
-1.27183e-07
6.65966e-08
-1.40807e-07
6.90251e-08
-1.54796e-07
7.10964e-08
-1.69086e-07
7.28087e-08
-1.8361e-07
7.4163e-08
-1.98304e-07
7.51619e-08
-2.13102e-07
7.581e-08
-2.2794e-07
7.61132e-08
-2.42756e-07
7.60785e-08
-2.57487e-07
7.57142e-08
-2.72074e-07
7.50292e-08
-2.86458e-07
7.40335e-08
-3.00582e-07
7.27373e-08
-3.14392e-07
7.11517e-08
-3.27833e-07
6.9288e-08
-3.40857e-07
6.71581e-08
-3.53414e-07
6.4774e-08
-3.65459e-07
6.21483e-08
-3.76947e-07
5.92935e-08
-3.87837e-07
5.62226e-08
-3.9809e-07
5.29487e-08
-4.07671e-07
4.94849e-08
-4.16545e-07
4.58448e-08
-4.24681e-07
4.20419e-08
-4.3205e-07
3.809e-08
-4.38627e-07
3.4003e-08
-4.44388e-07
2.97949e-08
-4.49314e-07
2.548e-08
-4.53386e-07
2.10727e-08
-4.56589e-07
1.65875e-08
-4.58913e-07
1.20392e-08
-4.60346e-07
7.44253e-09
-4.60884e-07
2.8127e-09
-4.60522e-07
-1.83508e-09
-4.59262e-07
-6.48537e-09
-4.57104e-07
-1.11226e-08
-4.54056e-07
-1.57309e-08
-4.50125e-07
-2.02944e-08
-4.45324e-07
-2.47971e-08
-4.39667e-07
-2.92226e-08
-4.33173e-07
-3.35548e-08
-4.25863e-07
-3.7777e-08
-4.17761e-07
-4.1873e-08
-4.08894e-07
-4.58261e-08
-3.99294e-07
-4.96198e-08
-3.88993e-07
-5.32379e-08
-3.78028e-07
-5.66638e-08
-3.6644e-07
-5.98814e-08
-3.5427e-07
-6.28749e-08
-3.41565e-07
-6.56285e-08
-3.28373e-07
-6.81269e-08
-3.14745e-07
-7.03552e-08
-3.00734e-07
-7.22992e-08
-2.86398e-07
-7.39451e-08
-2.71794e-07
-7.52799e-08
-2.56983e-07
-7.62914e-08
-2.42029e-07
-7.69683e-08
-2.26995e-07
-7.73006e-08
-2.11947e-07
-7.72792e-08
-1.96952e-07
-7.68966e-08
-1.8208e-07
-7.61467e-08
-1.67397e-07
-7.50252e-08
-1.52972e-07
-7.35296e-08
-1.38875e-07
-7.16599e-08
-1.25172e-07
-6.94183e-08
-1.11931e-07
-6.68099e-08
-9.92141e-08
-6.3843e-08
-8.70848e-08
-6.05298e-08
-7.56014e-08
-5.68864e-08
-6.48184e-08
-5.29341e-08
-5.47856e-08
-4.86996e-08
-4.55467e-08
-4.42167e-08
-3.71389e-08
-3.95267e-08
-2.95914e-08
-3.46804e-08
-2.29243e-08
-2.97396e-08
-1.71478e-08
-2.47791e-08
-1.22611e-08
-1.98892e-08
-8.25127e-09
-1.51785e-08
-5.09261e-09
-1.07775e-08
-2.74628e-09
-6.84249e-09
-1.1602e-09
-3.55912e-09
-2.69805e-10
-1.14721e-09
1.17187e-10
-3.96429e-10
4.14537e-10
-1.62595e-09
2.76848e-09
-3.72994e-09
6.27859e-09
-6.74446e-09
1.0657e-08
-1.06973e-08
1.56734e-08
-1.56066e-08
2.11313e-08
-2.14801e-08
2.6864e-08
-2.83153e-08
3.27318e-08
-3.60995e-08
3.86181e-08
-4.48109e-08
4.44264e-08
-5.44189e-08
5.00771e-08
-6.48853e-08
5.55054e-08
-7.61652e-08
6.06583e-08
-8.82077e-08
6.54937e-08
-1.00957e-07
6.99779e-08
-1.14354e-07
7.40852e-08
-1.28334e-07
7.77958e-08
-1.42833e-07
8.10957e-08
-1.57783e-07
8.3975e-08
-1.73115e-07
8.64283e-08
-1.88759e-07
8.8453e-08
-2.04646e-07
9.00496e-08
-2.20705e-07
9.12211e-08
-2.36867e-07
9.19722e-08
-2.53064e-07
9.23099e-08
-2.69228e-07
9.22421e-08
-2.85292e-07
9.17785e-08
-3.01192e-07
9.09296e-08
-3.16866e-07
8.9707e-08
-3.32252e-07
8.81229e-08
-3.4729e-07
8.61903e-08
-3.61925e-07
8.39229e-08
-3.76102e-07
8.13347e-08
-3.89768e-07
7.84402e-08
-4.02874e-07
7.52543e-08
-4.15373e-07
7.17922e-08
-4.27219e-07
6.80693e-08
-4.38372e-07
6.41015e-08
-4.48792e-07
5.99046e-08
-4.58442e-07
5.54949e-08
-4.67289e-07
5.08888e-08
-4.75302e-07
4.61029e-08
-4.82453e-07
4.11539e-08
-4.88717e-07
3.60589e-08
-4.94072e-07
3.0835e-08
-4.98499e-07
2.54997e-08
-5.01982e-07
2.00704e-08
-5.04508e-07
1.4565e-08
-5.06067e-07
9.00153e-09
-5.06652e-07
3.39814e-09
-5.0626e-07
-2.22672e-09
-5.04891e-07
-7.85442e-09
-5.02548e-07
-1.34661e-08
-4.99236e-07
-1.90427e-08
-4.94965e-07
-2.45651e-08
-4.89749e-07
-3.00138e-08
-4.83602e-07
-3.53692e-08
-4.76545e-07
-4.06117e-08
-4.68601e-07
-4.57215e-08
-4.59795e-07
-5.06788e-08
-4.50157e-07
-5.54636e-08
-4.39721e-07
-6.00561e-08
-4.28522e-07
-6.44367e-08
-4.166e-07
-6.85855e-08
-4.03999e-07
-7.24834e-08
-3.90762e-07
-7.6111e-08
-3.76941e-07
-7.94496e-08
-3.62587e-07
-8.24809e-08
-3.47755e-07
-8.51872e-08
-3.32503e-07
-8.75512e-08
-3.16892e-07
-8.95566e-08
-3.00984e-07
-9.1188e-08
-2.84844e-07
-9.24309e-08
-2.68541e-07
-9.32719e-08
-2.52142e-07
-9.36991e-08
-2.35719e-07
-9.3702e-08
-2.19344e-07
-9.32717e-08
-2.0309e-07
-9.24013e-08
-1.87029e-07
-9.10859e-08
-1.71235e-07
-8.9323e-08
-1.55783e-07
-8.71128e-08
-1.40743e-07
-8.44584e-08
-1.26186e-07
-8.13663e-08
-1.12182e-07
-7.78469e-08
-9.87972e-08
-7.39149e-08
-8.60938e-08
-6.95898e-08
-7.41309e-08
-6.4897e-08
-6.29622e-08
-5.98683e-08
-5.26357e-08
-5.45432e-08
-4.31926e-08
-4.89698e-08
-3.46665e-08
-4.32065e-08
-2.70824e-08
-3.73236e-08
-2.04561e-08
-3.14054e-08
-1.4793e-08
-2.55523e-08
-1.00879e-08
-1.98836e-08
-6.32453e-09
-1.45409e-08
-3.47571e-09
-9.69131e-09
-1.50392e-09
-5.53092e-09
-3.62777e-10
-2.28835e-09
-2.45592e-10
-4.90073e-10
9.04608e-10
-1.97517e-09
4.25358e-09
-4.47453e-09
8.77795e-09
-8.00559e-09
1.41881e-08
-1.25805e-08
2.02483e-08
-1.82042e-08
2.67551e-08
-2.48737e-08
3.35335e-08
-3.25773e-08
4.04353e-08
-4.12947e-08
4.73354e-08
-5.09973e-08
5.4129e-08
-6.16489e-08
6.07288e-08
-7.32061e-08
6.70626e-08
-8.56193e-08
7.30715e-08
-9.88331e-08
7.87075e-08
-1.12788e-07
8.39325e-08
-1.27419e-07
8.87166e-08
-1.4266e-07
9.30368e-08
-1.58441e-07
9.68764e-08
-1.7469e-07
1.00224e-07
-1.91334e-07
1.03072e-07
-2.08299e-07
1.05418e-07
-2.25512e-07
1.07262e-07
-2.42897e-07
1.08606e-07
-2.60382e-07
1.09457e-07
-2.77893e-07
1.09821e-07
-2.95359e-07
1.09708e-07
-3.1271e-07
1.09129e-07
-3.29876e-07
1.08096e-07
-3.46791e-07
1.06622e-07
-3.6339e-07
1.04722e-07
-3.7961e-07
1.0241e-07
-3.9539e-07
9.97031e-08
-4.10672e-07
9.66172e-08
-4.25402e-07
9.31694e-08
-4.39524e-07
8.93772e-08
-4.52991e-07
8.52584e-08
-4.65753e-07
8.08313e-08
-4.77766e-07
7.61144e-08
-4.88988e-07
7.11267e-08
-4.9938e-07
6.58873e-08
-5.08907e-07
6.04155e-08
-5.17535e-07
5.4731e-08
-5.25234e-07
4.88536e-08
-5.31979e-07
4.28034e-08
-5.37745e-07
3.66009e-08
-5.42512e-07
3.02665e-08
-5.46262e-07
2.38211e-08
-5.48983e-07
1.72858e-08
-5.50663e-07
1.06819e-08
-5.51296e-07
4.0309e-09
-5.50878e-07
-2.64533e-09
-5.49407e-07
-9.32472e-09
-5.46888e-07
-1.5985e-08
-5.43328e-07
-2.26036e-08
-5.38735e-07
-2.91578e-08
-5.33124e-07
-3.56247e-08
-5.26512e-07
-4.19811e-08
-5.1892e-07
-4.82038e-08
-5.10372e-07
-5.42694e-08
-5.00896e-07
-6.01544e-08
-4.90525e-07
-6.58355e-08
-4.79292e-07
-7.12892e-08
-4.67236e-07
-7.64922e-08
-4.544e-07
-8.14214e-08
-4.4083e-07
-8.60539e-08
-4.26573e-07
-9.03672e-08
-4.11684e-07
-9.43392e-08
-3.96216e-07
-9.79483e-08
-3.8023e-07
-1.01174e-07
-3.63785e-07
-1.03996e-07
-3.46948e-07
-1.06394e-07
-3.29784e-07
-1.08352e-07
-3.12363e-07
-1.09852e-07
-2.94756e-07
-1.10878e-07
-2.77038e-07
-1.11417e-07
-2.59283e-07
-1.11457e-07
-2.41568e-07
-1.10987e-07
-2.23969e-07
-1.1e-07
-2.06566e-07
-1.08489e-07
-1.89435e-07
-1.06454e-07
-1.72655e-07
-1.03893e-07
-1.56302e-07
-1.00811e-07
-1.40451e-07
-9.72167e-08
-1.25177e-07
-9.31215e-08
-1.10548e-07
-8.8543e-08
-9.66339e-08
-8.35044e-08
-8.34958e-08
-7.8035e-08
-7.11925e-08
-7.21717e-08
-5.97762e-08
-6.59594e-08
-4.9293e-08
-5.9453e-08
-3.97814e-08
-5.27181e-08
-3.12721e-08
-4.5833e-08
-2.37869e-08
-3.88906e-08
-1.73387e-08
-3.20005e-08
-1.19307e-08
-2.52916e-08
-7.55696e-09
-1.89146e-08
-4.20244e-09
-1.30458e-08
-1.84436e-09
-7.889e-09
-4.53983e-10
-3.67872e-09
-6.99581e-10
-5.8132e-10
1.48592e-09
-2.31807e-09
5.99033e-09
-5.2094e-09
1.16693e-08
-9.25505e-09
1.82337e-08
-1.44518e-08
2.5445e-08
-2.07913e-08
3.30947e-08
-2.82593e-08
4.10015e-08
-3.68343e-08
4.90104e-08
-4.64878e-08
5.69889e-08
-5.71838e-08
6.4825e-08
-6.88798e-08
7.24248e-08
-8.15268e-08
7.97096e-08
-9.50698e-08
8.66145e-08
-1.09449e-07
9.30866e-08
-1.246e-07
9.90832e-08
-1.40454e-07
1.04571e-07
-1.5694e-07
1.09523e-07
-1.73984e-07
1.1392e-07
-1.9151e-07
1.1775e-07
-2.09442e-07
1.21004e-07
-2.27701e-07
1.23677e-07
-2.46209e-07
1.2577e-07
-2.64888e-07
1.27286e-07
-2.83661e-07
1.2823e-07
-3.02451e-07
1.28611e-07
-3.21181e-07
1.28439e-07
-3.39779e-07
1.27727e-07
-3.58171e-07
1.26488e-07
-3.76287e-07
1.24738e-07
-3.94057e-07
1.22493e-07
-4.11417e-07
1.1977e-07
-4.28302e-07
1.16588e-07
-4.4465e-07
1.12965e-07
-4.60402e-07
1.08922e-07
-4.75504e-07
1.04478e-07
-4.899e-07
9.9655e-08
-5.03542e-07
9.4473e-08
-5.16381e-07
8.89539e-08
-5.28374e-07
8.31197e-08
-5.39479e-07
7.69925e-08
-5.49659e-07
7.05949e-08
-5.58878e-07
6.39498e-08
-5.67104e-07
5.70803e-08
-5.74311e-07
5.00097e-08
-5.80472e-07
4.27618e-08
-5.85566e-07
3.53605e-08
-5.89575e-07
2.78302e-08
-5.92484e-07
2.01952e-08
-5.94283e-07
1.24805e-08
-5.94963e-07
4.71119e-09
-5.94521e-07
-3.08738e-09
-5.92956e-07
-1.08895e-08
-5.90272e-07
-1.86692e-08
-5.86475e-07
-2.64003e-08
-5.81577e-07
-3.40564e-08
-5.75591e-07
-4.16106e-08
-5.68536e-07
-4.90362e-08
-5.60433e-07
-5.63061e-08
-5.5131e-07
-6.33931e-08