/*--------------------------------*- C++ -*----------------------------------*\
| =========                 |                                                 |
| \\      /  F ield         | OpenFOAM: The Open Source CFD Toolbox           |
|  \\    /   O peration     | Version:  2212                                  |
|   \\  /    A nd           | Website:  www.openfoam.com                      |
|    \\/     M anipulation  |                                                 |
\*---------------------------------------------------------------------------*/
FoamFile
{
    version     2.0;
    format      ascii;
    arch        "LSB;label=32;scalar=64";
    class       volVectorField;
    location    "0.081";
    object      U;
}
// * * * * * * * * * * * * * * * * * * * * * * * * * * * * * * * * * * * * * //

dimensions      [0 1 -1 0 0 0 0];

internalField   nonuniform List<vector> 
10000
(
(2.9869e-06 -2.97854e-06 0)
(1.48267e-05 -7.66276e-06 0)
(3.36766e-05 -8.84499e-06 0)
(5.13996e-05 -7.62657e-06 0)
(6.30133e-05 -5.13719e-06 0)
(6.61036e-05 -2.0299e-06 0)
(5.94173e-05 1.33369e-06 0)
(4.23835e-05 4.74782e-06 0)
(1.48822e-05 8.09625e-06 0)
(-2.29161e-05 1.13124e-05 0)
(-7.06528e-05 1.43575e-05 0)
(-0.000127845 1.72079e-05 0)
(-0.00019393 1.98504e-05 0)
(-0.000268289 2.22781e-05 0)
(-0.000350269 2.44883e-05 0)
(-0.000439194 2.64802e-05 0)
(-0.00053438 2.82559e-05 0)
(-0.000635138 2.98178e-05 0)
(-0.000740781 3.11702e-05 0)
(-0.00085063 3.23174e-05 0)
(-0.000964015 3.32644e-05 0)
(-0.00108028 3.40168e-05 0)
(-0.00119878 3.45803e-05 0)
(-0.00131889 3.49616e-05 0)
(-0.00144001 3.51671e-05 0)
(-0.00156154 3.52026e-05 0)
(-0.00168291 3.5074e-05 0)
(-0.00180357 3.47871e-05 0)
(-0.00192299 3.43486e-05 0)
(-0.00204066 3.37655e-05 0)
(-0.00215609 3.30443e-05 0)
(-0.00226881 3.2191e-05 0)
(-0.00237837 3.12116e-05 0)
(-0.00248434 3.0112e-05 0)
(-0.00258633 2.88987e-05 0)
(-0.00268395 2.75786e-05 0)
(-0.00277683 2.61578e-05 0)
(-0.00286463 2.46426e-05 0)
(-0.00294704 2.30385e-05 0)
(-0.00302376 2.13519e-05 0)
(-0.00309451 1.95896e-05 0)
(-0.00315904 1.77577e-05 0)
(-0.00321712 1.58624e-05 0)
(-0.00326853 1.39102e-05 0)
(-0.0033131 1.19072e-05 0)
(-0.00335065 9.85996e-06 0)
(-0.00338105 7.77561e-06 0)
(-0.00340418 5.6604e-06 0)
(-0.00341995 3.52093e-06 0)
(-0.00342828 1.36451e-06 0)
(-0.00342913 -8.0197e-07 0)
(-0.00342248 -2.9717e-06 0)
(-0.00340833 -5.13717e-06 0)
(-0.00338672 -7.29105e-06 0)
(-0.0033577 -9.42623e-06 0)
(-0.00332135 -1.15348e-05 0)
(-0.00327777 -1.36085e-05 0)
(-0.00322712 -1.56403e-05 0)
(-0.00316954 -1.76224e-05 0)
(-0.00310522 -1.95467e-05 0)
(-0.00303439 -2.14046e-05 0)
(-0.00295729 -2.31886e-05 0)
(-0.00287419 -2.48908e-05 0)
(-0.0027854 -2.65027e-05 0)
(-0.00269123 -2.80161e-05 0)
(-0.00259205 -2.94229e-05 0)
(-0.00248824 -3.07147e-05 0)
(-0.00238022 -3.18832e-05 0)
(-0.00226842 -3.29207e-05 0)
(-0.0021533 -3.38197e-05 0)
(-0.00203535 -3.45726e-05 0)
(-0.00191509 -3.51721e-05 0)
(-0.00179306 -3.56115e-05 0)
(-0.00166982 -3.58836e-05 0)
(-0.00154595 -3.59812e-05 0)
(-0.00142205 -3.58978e-05 0)
(-0.00129874 -3.5628e-05 0)
(-0.00117667 -3.51671e-05 0)
(-0.00105649 -3.45097e-05 0)
(-0.000938856 -3.36506e-05 0)
(-0.000824461 -3.25856e-05 0)
(-0.000713985 -3.13119e-05 0)
(-0.000608121 -2.98273e-05 0)
(-0.000507562 -2.813e-05 0)
(-0.000412996 -2.62193e-05 0)
(-0.000325104 -2.40959e-05 0)
(-0.000244552 -2.17624e-05 0)
(-0.000171985 -1.92224e-05 0)
(-0.000108014 -1.64829e-05 0)
(-5.31996e-05 -1.35554e-05 0)
(-8.03679e-06 -1.04582e-05 0)
(2.70753e-05 -7.2194e-06 0)
(5.18749e-05 -3.88313e-06 0)
(6.63008e-05 -5.21431e-07 0)
(7.0594e-05 2.74366e-06 0)
(6.54563e-05 5.70238e-06 0)
(5.22727e-05 7.99197e-06 0)
(3.35727e-05 8.96905e-06 0)
(1.43925e-05 7.54603e-06 0)
(2.76703e-06 2.76739e-06 0)
(7.66475e-06 -1.48092e-05 0)
(3.10767e-05 -3.10547e-05 0)
(6.2472e-05 -3.31672e-05 0)
(8.7582e-05 -2.53082e-05 0)
(9.69587e-05 -1.13046e-05 0)
(8.51352e-05 6.25178e-06 0)
(4.8753e-05 2.56688e-05 0)
(-1.4042e-05 4.5839e-05 0)
(-0.000103976 6.60385e-05 0)
(-0.000220976 8.57892e-05 0)
(-0.000364404 0.000104771 0)
(-0.000533221 0.000122768 0)
(-0.000726109 0.000139634 0)
(-0.000941546 0.000155272 0)
(-0.00117787 0.000169622 0)
(-0.00143334 0.000182645 0)
(-0.00170613 0.000194324 0)
(-0.00199441 0.000204655 0)
(-0.0022963 0.000213642 0)
(-0.00260995 0.000221302 0)
(-0.00293352 0.000227654 0)
(-0.00326518 0.000232723 0)
(-0.00360315 0.000236539 0)
(-0.00394567 0.000239134 0)
(-0.00429103 0.000240543 0)
(-0.00463757 0.000240803 0)
(-0.00498368 0.000239952 0)
(-0.00532778 0.000238027 0)
(-0.00566837 0.000235069 0)
(-0.006004 0.000231118 0)
(-0.00633326 0.000226217 0)
(-0.00665483 0.000220406 0)
(-0.00696741 0.000213727 0)
(-0.00726978 0.000206223 0)
(-0.0075608 0.000197935 0)
(-0.00783934 0.000188905 0)
(-0.00810438 0.000179178 0)
(-0.00835494 0.000168796 0)
(-0.0085901 0.000157801 0)
(-0.008809 0.000146238 0)
(-0.00901086 0.000134148 0)
(-0.00919495 0.000121578 0)
(-0.0093606 0.00010857 0)
(-0.00950722 9.51688e-05 0)
(-0.00963427 8.14199e-05 0)
(-0.00974128 6.73684e-05 0)
(-0.00982785 5.30605e-05 0)
(-0.00989365 3.85438e-05 0)
(-0.00993841 2.38654e-05 0)
(-0.00996194 9.07225e-06 0)
(-0.0099641 -5.78606e-06 0)
(-0.00994485 -2.06596e-05 0)
(-0.0099042 -3.54987e-05 0)
(-0.00984224 -5.02523e-05 0)
(-0.00975914 -6.48681e-05 0)
(-0.00965514 -7.92941e-05 0)
(-0.00953055 -9.34775e-05 0)
(-0.00938577 -0.000107365 0)
(-0.00922127 -0.000120901 0)
(-0.0090376 -0.000134033 0)
(-0.00883538 -0.000146706 0)
(-0.00861532 -0.000158864 0)
(-0.00837821 -0.000170452 0)
(-0.00812491 -0.000181415 0)
(-0.00785636 -0.000191698 0)
(-0.00757358 -0.000201246 0)
(-0.00727768 -0.000210006 0)
(-0.00696981 -0.000217923 0)
(-0.00665124 -0.000224945 0)
(-0.00632328 -0.000231023 0)
(-0.00598733 -0.000236104 0)
(-0.00564484 -0.000240143 0)
(-0.00529734 -0.000243094 0)
(-0.00494642 -0.000244912 0)
(-0.00459372 -0.000245557 0)
(-0.00424094 -0.00024499 0)
(-0.00388983 -0.000243177 0)
(-0.00354219 -0.000240085 0)
(-0.00319983 -0.000235687 0)
(-0.00286463 -0.000229961 0)
(-0.00253845 -0.000222889 0)
(-0.0022232 -0.000214459 0)
(-0.00192078 -0.000204668 0)
(-0.00163307 -0.000193519 0)
(-0.00136194 -0.000181027 0)
(-0.00110921 -0.000167217 0)
(-0.000876645 -0.00015213 0)
(-0.000665909 -0.000135828 0)
(-0.000478545 -0.000118395 0)
(-0.000315924 -9.99545e-05 0)
(-0.000179186 -8.06775e-05 0)
(-6.91555e-05 -6.08053e-05 0)
(1.37731e-05 -4.0682e-05 0)
(6.97939e-05 -2.08083e-05 0)
(9.99196e-05 -1.92553e-06 0)
(0.000106294 1.48546e-05 0)
(9.25484e-05 2.78573e-05 0)
(6.43654e-05 3.45564e-05 0)
(3.13013e-05 3.12984e-05 0)
(7.53811e-06 1.43812e-05 0)
(8.86991e-06 -3.36803e-05 0)
(3.33176e-05 -6.24859e-05 0)
(6.12964e-05 -6.1016e-05 0)
(7.57523e-05 -3.8039e-05 0)
(6.5281e-05 -7.07084e-07 0)
(2.27946e-05 4.56443e-05 0)
(-5.63922e-05 9.71764e-05 0)
(-0.000175073 0.000151175 0)
(-0.000334526 0.000205734 0)
(-0.000534882 0.000259508 0)
(-0.000775415 0.000311551 0)
(-0.00105476 0.00036119 0)
(-0.00137108 0.00040795 0)
(-0.0017222 0.0004515 0)
(-0.00210567 0.000491614 0)
(-0.00251889 0.000528142 0)
(-0.00295911 0.000560996 0)
(-0.00342352 0.000590129 0)
(-0.00390925 0.000615535 0)
(-0.00441344 0.000637228 0)
(-0.00493321 0.000655249 0)
(-0.00546571 0.000669655 0)
(-0.00600813 0.000680514 0)
(-0.00655771 0.000687906 0)
(-0.00711174 0.000691921 0)
(-0.00766759 0.000692655 0)
(-0.00822269 0.00069021 0)
(-0.00877455 0.000684692 0)
(-0.00932077 0.00067621 0)
(-0.00985901 0.000664877 0)
(-0.0103871 0.000650807 0)
(-0.0109027 0.000634118 0)
(-0.011404 0.000614928 0)
(-0.011889 0.000593356 0)
(-0.0123557 0.000569524 0)
(-0.0128024 0.000543553 0)
(-0.0132274 0.000515565 0)
(-0.0136292 0.000485684 0)
(-0.0140063 0.000454034 0)
(-0.0143573 0.00042074 0)
(-0.014681 0.000385929 0)
(-0.0149761 0.000349726 0)
(-0.0152416 0.000312262 0)
(-0.0154766 0.000273665 0)
(-0.0156802 0.000234064 0)
(-0.0158516 0.000193595 0)
(-0.0159902 0.00015239 0)
(-0.0160955 0.000110584 0)
(-0.016167 6.83167e-05 0)
(-0.0162044 2.57269e-05 0)
(-0.0162076 -1.70452e-05 0)
(-0.0161764 -5.98552e-05 0)
(-0.0161109 -0.000102557 0)
(-0.0160112 -0.000145003 0)
(-0.0158777 -0.000187046 0)
(-0.0157106 -0.000228531 0)
(-0.0155106 -0.000269308 0)
(-0.0152782 -0.000309223 0)
(-0.0150142 -0.00034812 0)
(-0.0147195 -0.000385841 0)
(-0.0143951 -0.000422231 0)
(-0.0140422 -0.000457131 0)
(-0.013662 -0.000490383 0)
(-0.0132559 -0.000521829 0)
(-0.0128254 -0.000551314 0)
(-0.0123722 -0.000578682 0)
(-0.011898 -0.000603778 0)
(-0.0114046 -0.000626453 0)
(-0.0108942 -0.000646559 0)
(-0.0103688 -0.000663952 0)
(-0.00983056 -0.000678493 0)
(-0.0092819 -0.000690048 0)
(-0.00872522 -0.00069849 0)
(-0.00816303 -0.000703698 0)
(-0.00759797 -0.000705559 0)
(-0.0070327 -0.000703972 0)
(-0.00647001 -0.000698842 0)
(-0.00591272 -0.000690087 0)
(-0.00536371 -0.000677639 0)
(-0.0048259 -0.000661444 0)
(-0.00430224 -0.000641464 0)
(-0.00379569 -0.000617683 0)
(-0.00330919 -0.000590105 0)
(-0.00284567 -0.000558762 0)
(-0.00240799 -0.000523717 0)
(-0.00199893 -0.000485075 0)
(-0.00162114 -0.000442984 0)
(-0.00127711 -0.000397657 0)
(-0.00096911 -0.000349386 0)
(-0.00069909 -0.00029857 0)
(-0.00046862 -0.000245746 0)
(-0.000278754 -0.000191648 0)
(-0.000129868 -0.000137281 0)
(-2.14506e-05 -8.40325e-05 0)
(4.81748e-05 -3.38377e-05 0)
(8.22001e-05 1.05968e-05 0)
(8.56719e-05 4.5498e-05 0)
(6.59612e-05 6.56958e-05 0)
(3.46764e-05 6.43881e-05 0)
(8.97827e-06 3.35615e-05 0)
(7.71957e-06 -5.15417e-05 0)
(2.57667e-05 -8.78732e-05 0)
(3.90028e-05 -7.56148e-05 0)
(3.00474e-05 -2.88328e-05 0)
(-1.30597e-05 4.17923e-05 0)
(-9.81432e-05 0.000128018 0)
(-0.00023055 0.000223634 0)
(-0.000413595 0.000324049 0)
(-0.000648894 0.000425887 0)
(-0.000936724 0.000526675 0)
(-0.00127631 0.000624604 0)
(-0.00166606 0.000718348 0)
(-0.00210376 0.000806945 0)
(-0.00258673 0.000889697 0)
(-0.00311192 0.000966112 0)
(-0.003676 0.00103585 0)
(-0.00427548 0.0010987 0)
(-0.00490673 0.00115452 0)
(-0.00556604 0.00120327 0)
(-0.00624964 0.00124494 0)
(-0.00695378 0.00127959 0)
(-0.00767469 0.0013073 0)
(-0.00840867 0.00132819 0)
(-0.00915204 0.00134239 0)
(-0.00990121 0.00135006 0)
(-0.0106527 0.00135139 0)
(-0.011403 0.00134655 0)
(-0.0121488 0.00133574 0)
(-0.0128869 0.00131917 0)
(-0.0136142 0.00129705 0)
(-0.0143277 0.0012696 0)
(-0.0150244 0.00123704 0)
(-0.0157017 0.00119961 0)
(-0.0163568 0.00115753 0)
(-0.0169873 0.00111103 0)
(-0.0175907 0.00106036 0)
(-0.0181648 0.00100575 0)
(-0.0187076 0.000947432 0)
(-0.0192169 0.000885661 0)
(-0.019691 0.000820677 0)
(-0.0201281 0.000752727 0)
(-0.0205266 0.000682059 0)
(-0.0208851 0.000608925 0)
(-0.0212023 0.000533581 0)
(-0.0214771 0.000456281 0)
(-0.0217083 0.000377285 0)
(-0.0218953 0.000296858 0)
(-0.0220372 0.000215266 0)
(-0.0221335 0.000132776 0)
(-0.0221837 4.96646e-05 0)
(-0.0221876 -3.37914e-05 0)
(-0.0221451 -0.000117312 0)
(-0.0220563 -0.000200612 0)
(-0.0219214 -0.000283401 0)
(-0.0217406 -0.000365389 0)
(-0.0215147 -0.000446281 0)
(-0.0212442 -0.000525778 0)
(-0.0209301 -0.000603579 0)
(-0.0205734 -0.000679382 0)
(-0.0201752 -0.000752882 0)
(-0.019737 -0.000823771 0)
(-0.0192603 -0.000891745 0)
(-0.0187468 -0.000956497 0)
(-0.0181984 -0.00101772 0)
(-0.0176171 -0.00107512 0)
(-0.0170051 -0.00112838 0)
(-0.0163649 -0.00117722 0)
(-0.0156989 -0.00122134 0)
(-0.0150098 -0.00126046 0)
(-0.0143005 -0.0012943 0)
(-0.013574 -0.00132261 0)
(-0.0128333 -0.00134512 0)
(-0.0120817 -0.00136158 0)
(-0.0113226 -0.00137179 0)
(-0.0105596 -0.00137551 0)
(-0.00979605 -0.00137257 0)
(-0.00903579 -0.00136279 0)
(-0.00828256 -0.00134603 0)
(-0.00754017 -0.00132216 0)
(-0.00681249 -0.00129109 0)
(-0.0061034 -0.00125278 0)
(-0.00541679 -0.00120721 0)
(-0.00475654 -0.00115441 0)
(-0.00412645 -0.00109447 0)
(-0.00353023 -0.00102754 0)
(-0.00297147 -0.000953872 0)
(-0.00245357 -0.000873784 0)
(-0.00197968 -0.000787734 0)
(-0.00155262 -0.000696336 0)
(-0.00117481 -0.000600402 0)
(-0.000848125 -0.000501012 0)
(-0.00057377 -0.000399597 0)
(-0.000352089 -0.000298062 0)
(-0.000182345 -0.000198949 0)
(-6.24381e-05 -0.000105663 0)
(1.14234e-05 -2.27731e-05 0)
(4.50241e-05 4.36284e-05 0)
(4.65485e-05 8.55652e-05 0)
(2.83039e-05 9.28537e-05 0)
(8.06315e-06 5.23697e-05 0)
(5.33583e-06 -6.35054e-05 0)
(1.2217e-05 -9.79449e-05 0)
(2.64537e-06 -6.57759e-05 0)
(-3.90632e-05 1.40213e-05 0)
(-0.000124363 0.000127352 0)
(-0.00026119 0.000263162 0)
(-0.000455045 0.00041289 0)
(-0.000709384 0.00057001 0)
(-0.00102593 0.000729578 0)
(-0.00140497 0.000887855 0)
(-0.00184566 0.00104202 0)
(-0.00234619 0.00118998 0)
(-0.00290404 0.00133013 0)
(-0.0035161 0.00146132 0)
(-0.00417884 0.0015827 0)
(-0.00488834 0.00169366 0)
(-0.00564048 0.0017938 0)
(-0.00643093 0.00188287 0)
(-0.00725524 0.00196072 0)
(-0.00810889 0.00202732 0)
(-0.00898734 0.00208271 0)
(-0.00988603 0.00212701 0)
(-0.0108005 0.00216037 0)
(-0.0117261 0.00218298 0)
(-0.0126587 0.0021951 0)
(-0.0135937 0.00219697 0)
(-0.0145271 0.00218888 0)
(-0.0154548 0.00217116 0)
(-0.0163727 0.0021441 0)
(-0.017277 0.00210807 0)
(-0.018164 0.00206339 0)
(-0.0190302 0.00201043 0)
(-0.019872 0.00194955 0)
(-0.0206863 0.00188112 0)
(-0.0214699 0.00180552 0)
(-0.0222198 0.00172313 0)
(-0.0229333 0.00163434 0)
(-0.0236077 0.00153953 0)
(-0.0242405 0.00143909 0)
(-0.0248295 0.00133343 0)
(-0.0253725 0.00122295 0)
(-0.0258675 0.00110805 0)
(-0.0263128 0.000989142 0)
(-0.0267068 0.00086664 0)
(-0.0270479 0.000740964 0)
(-0.027335 0.000612538 0)
(-0.027567 0.000481789 0)
(-0.027743 0.000349155 0)
(-0.0278622 0.000215074 0)
(-0.0279243 7.99915e-05 0)
(-0.0279288 -5.56389e-05 0)
(-0.0278757 -0.000191359 0)
(-0.027765 -0.000326706 0)
(-0.027597 -0.000461211 0)
(-0.0273721 -0.000594397 0)
(-0.0270911 -0.000725786 0)
(-0.0267548 -0.000854893 0)
(-0.0263642 -0.00098123 0)
(-0.0259208 -0.0011043 0)
(-0.025426 -0.00122362 0)
(-0.0248815 -0.00133869 0)
(-0.0242892 -0.00144901 0)
(-0.0236512 -0.00155409 0)
(-0.0229699 -0.00165344 0)
(-0.0222478 -0.00174656 0)
(-0.0214876 -0.00183298 0)
(-0.0206924 -0.00191222 0)
(-0.0198651 -0.00198381 0)
(-0.0190092 -0.0020473 0)
(-0.0181281 -0.00210225 0)
(-0.0172255 -0.00214823 0)
(-0.0163052 -0.00218484 0)
(-0.0153714 -0.0022117 0)
(-0.014428 -0.00222845 0)
(-0.0134794 -0.00223476 0)
(-0.0125301 -0.00223033 0)
(-0.0115844 -0.0022149 0)
(-0.010647 -0.00218826 0)
(-0.00972266 -0.00215022 0)
(-0.00881594 -0.00210066 0)
(-0.00793162 -0.00203952 0)
(-0.00707441 -0.00196682 0)
(-0.00624897 -0.00188263 0)
(-0.00545989 -0.00178714 0)
(-0.0047116 -0.00168063 0)
(-0.00400838 -0.00156352 0)
(-0.00335425 -0.00143641 0)
(-0.00275292 -0.00130007 0)
(-0.00220768 -0.00115553 0)
(-0.00172131 -0.00100414 0)
(-0.00129596 -0.000847656 0)
(-0.000932974 -0.000688336 0)
(-0.000632727 -0.000529135 0)
(-0.000394396 -0.000373886 0)
(-0.00021571 -0.000227575 0)
(-9.26662e-05 -9.6688e-05 0)
(-1.9247e-05 1.03776e-05 0)
(1.29351e-05 8.29073e-05 0)
(1.58491e-05 0.000107399 0)
(5.885e-06 6.58936e-05 0)
(2.35769e-06 -6.72255e-05 0)
(-4.81164e-06 -8.73348e-05 0)
(-4.26291e-05 -2.44935e-05 0)
(-0.000123707 9.83061e-05 0)
(-0.000258186 0.000263915 0)
(-0.00045363 0.000458686 0)
(-0.000715287 0.000671837 0)
(-0.00104643 0.000894955 0)
(-0.00144866 0.00112151 0)
(-0.00192215 0.00134645 0)
(-0.00246585 0.00156587 0)
(-0.00307775 0.00177678 0)
(-0.00375503 0.00197692 0)
(-0.00449422 0.00216456 0)
(-0.00529132 0.00233841 0)
(-0.00614195 0.00249756 0)
(-0.0070414 0.00264134 0)
(-0.00798477 0.00276933 0)
(-0.00896697 0.00288129 0)
(-0.00998282 0.0029771 0)
(-0.0110271 0.00305679 0)
(-0.0120945 0.00312047 0)
(-0.0131798 0.00316833 0)
(-0.0142779 0.00320065 0)
(-0.0153835 0.00321772 0)
(-0.0164918 0.00321993 0)
(-0.0175977 0.00320765 0)
(-0.0186966 0.00318134 0)
(-0.0197836 0.00314143 0)
(-0.0208543 0.00308842 0)
(-0.0219044 0.00302279 0)
(-0.0229296 0.00294507 0)
(-0.0239259 0.00285576 0)
(-0.0248895 0.00275543 0)
(-0.0258167 0.00264459 0)
(-0.026704 0.00252382 0)
(-0.0275481 0.00239367 0)
(-0.0283459 0.00225471 0)
(-0.0290945 0.00210752 0)
(-0.0297911 0.00195268 0)
(-0.0304333 0.00179078 0)
(-0.0310187 0.00162241 0)
(-0.0315452 0.00144817 0)
(-0.0320109 0.00126867 0)
(-0.0324142 0.00108453 0)
(-0.0327535 0.000896371 0)
(-0.0330275 0.000704821 0)
(-0.0332353 0.000510519 0)
(-0.0333761 0.000314112 0)
(-0.0334491 0.000116254 0)
(-0.0334541 -8.23904e-05 0)
(-0.0333909 -0.000281151 0)
(-0.0332597 -0.000479346 0)
(-0.0330606 -0.000676288 0)
(-0.0327944 -0.000871283 0)
(-0.0324618 -0.00106363 0)
(-0.0320638 -0.00125261 0)
(-0.0316017 -0.00143753 0)
(-0.0310772 -0.00161765 0)
(-0.0304918 -0.00179226 0)
(-0.0298477 -0.00196063 0)
(-0.0291472 -0.00212205 0)
(-0.0283927 -0.0022758 0)
(-0.0275869 -0.00242115 0)
(-0.0267329 -0.00255739 0)
(-0.0258339 -0.00268383 0)
(-0.0248934 -0.00279979 0)
(-0.023915 -0.00290457 0)
(-0.0229026 -0.00299754 0)
(-0.0218604 -0.00307804 0)
(-0.0207926 -0.00314548 0)
(-0.0197037 -0.00319928 0)
(-0.0185986 -0.00323888 0)
(-0.0174819 -0.00326378 0)
(-0.0163587 -0.00327351 0)
(-0.0152342 -0.00326766 0)
(-0.0141136 -0.00324586 0)
(-0.0130023 -0.00320783 0)
(-0.0119056 -0.00315331 0)
(-0.0108291 -0.00308218 0)
(-0.00977813 -0.00299437 0)
(-0.00875819 -0.00288992 0)
(-0.00777464 -0.00276899 0)
(-0.00683274 -0.0026319 0)
(-0.00593758 -0.00247911 0)
(-0.00509401 -0.00231127 0)
(-0.00430661 -0.0021293 0)
(-0.00357955 -0.00193436 0)
(-0.00291654 -0.00172799 0)
(-0.00232071 -0.00151217 0)
(-0.00179445 -0.00128939 0)
(-0.0013393 -0.00106286 0)
(-0.000955762 -0.000836657 0)
(-0.000643077 -0.000615964 0)
(-0.000399044 -0.000407366 0)
(-0.000219766 -0.000219228 0)
(-9.93953e-05 -6.21425e-05 0)
(-2.98178e-05 5.06269e-05 0)
(-1.98032e-07 0.000102568 0)
(3.08159e-06 7.172e-05 0)
(-8.69401e-07 -6.14711e-05 0)
(-2.37198e-05 -5.26725e-05 0)
(-9.32293e-05 5.30064e-05 0)
(-0.000218136 0.000229559 0)
(-0.000406717 0.000457284 0)
(-0.000665779 0.000720259 0)
(-0.000999993 0.00100568 0)
(-0.00141219 0.00130337 0)
(-0.00190363 0.00160527 0)
(-0.0024742 0.00190501 0)
(-0.00312259 0.00219759 0)
(-0.00384651 0.0024791 0)
(-0.00464281 0.00274653 0)
(-0.00550767 0.00299752 0)
(-0.00643668 0.00323033 0)
(-0.00742501 0.00344365 0)
(-0.00846748 0.00363652 0)
(-0.00955864 0.00380831 0)
(-0.0106928 0.00395863 0)
(-0.0118643 0.00408728 0)
(-0.0130672 0.00419423 0)
(-0.0142956 0.0042796 0)
(-0.0155437 0.0043436 0)
(-0.0168056 0.00438656 0)
(-0.0180756 0.00440888 0)
(-0.0193481 0.004411 0)
(-0.0206173 0.00439347 0)
(-0.021878 0.00435683 0)
(-0.0231248 0.0043017 0)
(-0.0243526 0.00422871 0)
(-0.0255565 0.00413853 0)
(-0.0267317 0.00403184 0)
(-0.0278736 0.00390935 0)
(-0.0289779 0.00377179 0)
(-0.0300402 0.00361989 0)
(-0.0310568 0.00345441 0)
(-0.0320238 0.00327611 0)
(-0.0329376 0.00308578 0)
(-0.0337949 0.00288418 0)
(-0.0345927 0.00267213 0)
(-0.0353281 0.00245042 0)
(-0.0359983 0.00221986 0)
(-0.0366011 0.00198129 0)
(-0.0371342 0.00173553 0)
(-0.0375958 0.00148343 0)
(-0.037984 0.00122585 0)
(-0.0382976 0.000963632 0)
(-0.0385353 0.000697669 0)
(-0.0386961 0.000428843 0)
(-0.0387795 0.000158051 0)
(-0.0387849 -0.000113799 0)
(-0.0387123 -0.000385786 0)
(-0.0385617 -0.00065698 0)
(-0.0383335 -0.000926439 0)
(-0.0380284 -0.00119321 0)
(-0.0376474 -0.00145634 0)
(-0.0371915 -0.00171486 0)
(-0.0366623 -0.00196779 0)
(-0.0360615 -0.00221415 0)
(-0.0353912 -0.00245296 0)
(-0.0346536 -0.00268323 0)
(-0.0338514 -0.00290399 0)
(-0.0329874 -0.00311425 0)
(-0.0320647 -0.00331304 0)
(-0.0310868 -0.0034994 0)
(-0.0300573 -0.00367237 0)
(-0.0289801 -0.00383103 0)
(-0.0278595 -0.00397445 0)
(-0.0266999 -0.00410177 0)
(-0.0255058 -0.00421212 0)
(-0.0242824 -0.00430468 0)
(-0.0230345 -0.00437868 0)
(-0.0217677 -0.00443338 0)
(-0.0204872 -0.00446811 0)
(-0.0191989 -0.00448226 0)
(-0.0179085 -0.00447527 0)
(-0.016622 -0.00444668 0)
(-0.0153453 -0.00439612 0)
(-0.0140846 -0.00432329 0)
(-0.012846 -0.00422802 0)
(-0.0116356 -0.00411029 0)
(-0.0104594 -0.00397017 0)
(-0.00932359 -0.00380796 0)
(-0.00823391 -0.00362409 0)
(-0.00719602 -0.00341925 0)
(-0.00621533 -0.0031944 0)
(-0.00529689 -0.0029508 0)
(-0.00444531 -0.00269007 0)
(-0.00366469 -0.00241432 0)
(-0.00295849 -0.00212619 0)
(-0.00232939 -0.00182902 0)
(-0.00177919 -0.001527 0)
(-0.00130859 -0.00122535 0)
(-0.000917099 -0.000930592 0)
(-0.000602772 -0.000650879 0)
(-0.000362092 -0.000396348 0)
(-0.0001897 -0.000179604 0)
(-7.81281e-05 -1.61748e-05 0)
(-1.82333e-05 7.48788e-05 0)
(3.22068e-09 6.85508e-05 0)
(-4.15793e-06 -4.564e-05 0)
(-4.35047e-05 8.03799e-06 0)
(-0.000146719 0.000169807 0)
(-0.000318281 0.000411549 0)
(-0.000564255 0.000711547 0)
(-0.000890417 0.00105197 0)
(-0.00130061 0.00141825 0)
(-0.001797 0.0017986 0)
(-0.00238032 0.00218353 0)
(-0.00305004 0.00256543 0)
(-0.00380448 0.00293821 0)
(-0.00464098 0.00329703 0)
(-0.00555605 0.00363811 0)
(-0.00654548 0.00395845 0)
(-0.00760449 0.00425579 0)
(-0.00872781 0.00452839 0)
(-0.00990979 0.00477499 0)
(-0.0111445 0.00499471 0)
(-0.0124258 0.00518697 0)
(-0.0137474 0.00535147 0)
(-0.0151029 0.00548812 0)
(-0.0164859 0.00559701 0)
(-0.0178898 0.00567838 0)
(-0.0193083 0.0057326 0)
(-0.0207351 0.00576016 0)
(-0.0221638 0.0057616 0)
(-0.0235884 0.00573759 0)
(-0.0250029 0.00568883 0)
(-0.0264013 0.00561608 0)
(-0.0277781 0.00552015 0)
(-0.0291277 0.00540189 0)
(-0.0304449 0.00526218 0)
(-0.0317245 0.00510192 0)
(-0.0329617 0.00492206 0)
(-0.0341518 0.00472354 0)
(-0.0352904 0.00450735 0)
(-0.0363734 0.00427446 0)
(-0.0373967 0.0040259 0)
(-0.0383567 0.00376267 0)
(-0.0392499 0.00348582 0)
(-0.0400731 0.0031964 0)
(-0.0408234 0.00289545 0)
(-0.041498 0.00258407 0)
(-0.0420947 0.00226333 0)
(-0.0426111 0.00193433 0)
(-0.0430456 0.0015982 0)
(-0.0433963 0.00125606 0)
(-0.0436621 0.000909042 0)
(-0.043842 0.000558315 0)
(-0.043935 0.000205046 0)
(-0.0439409 -0.000149579 0)
(-0.0438594 -0.00050436 0)
(-0.0436907 -0.000858084 0)
(-0.0434351 -0.00120952 0)
(-0.0430935 -0.00155744 0)
(-0.0426668 -0.00190059 0)
(-0.0421565 -0.0022377 0)
(-0.0415641 -0.00256752 0)
(-0.0408915 -0.00288876 0)
(-0.0401412 -0.00320016 0)
(-0.0393156 -0.00350043 0)
(-0.0384176 -0.00378829 0)
(-0.0374504 -0.00406248 0)
(-0.0364175 -0.00432174 0)
(-0.0353227 -0.00456483 0)
(-0.03417 -0.0047905 0)
(-0.0329639 -0.00499757 0)
(-0.031709 -0.00518485 0)
(-0.0304101 -0.00535121 0)
(-0.0290726 -0.00549554 0)
(-0.0277017 -0.0056168 0)
(-0.0263032 -0.00571399 0)
(-0.024883 -0.00578619 0)
(-0.0234471 -0.00583252 0)
(-0.0220017 -0.00585223 0)
(-0.0205534 -0.00584462 0)
(-0.0191085 -0.00580911 0)
(-0.0176739 -0.00574525 0)
(-0.016256 -0.00565269 0)
(-0.0148618 -0.00553126 0)
(-0.0134979 -0.00538094 0)
(-0.012171 -0.0052019 0)
(-0.0108877 -0.00499454 0)
(-0.00965426 -0.0047595 0)
(-0.00847697 -0.00449771 0)
(-0.00736169 -0.00421044 0)
(-0.00631391 -0.00389935 0)
(-0.00533867 -0.00356659 0)
(-0.00444045 -0.00321484 0)
(-0.00362308 -0.00284748 0)
(-0.00288956 -0.0024687 0)
(-0.00224201 -0.00208367 0)
(-0.00168149 -0.00169875 0)
(-0.00120786 -0.00132178 0)
(-0.000819645 -0.000962374 0)
(-0.00051392 -0.00063229 0)
(-0.000286066 -0.000345921 0)
(-0.000129538 -0.000120715 0)
(-3.7237e-05 2.2225e-05 0)
(-3.15601e-06 5.57276e-05 0)
(-7.41001e-06 -1.95261e-05 0)
(-6.35503e-05 9.58096e-05 0)
(-0.000201479 0.000327689 0)
(-0.000421308 0.000646629 0)
(-0.00072671 0.0010294 0)
(-0.00112224 0.00145663 0)
(-0.00161074 0.00191226 0)
(-0.00219351 0.00238308 0)
(-0.00287063 0.00285832 0)
(-0.00364101 0.00332918 0)
(-0.00450251 0.00378856 0)
(-0.00545203 0.00423071 0)
(-0.00648566 0.00465106 0)
(-0.00759881 0.005046 0)
(-0.00878628 0.00541269 0)
(-0.0100424 0.00574899 0)
(-0.0113611 0.00605327 0)
(-0.0127359 0.00632439 0)
(-0.0141603 0.00656158 0)
(-0.0156275 0.0067644 0)
(-0.0171305 0.00693269 0)
(-0.0186624 0.0070665 0)
(-0.0202163 0.00716609 0)
(-0.0217852 0.00723188 0)
(-0.0233623 0.00726442 0)
(-0.0249406 0.00726438 0)
(-0.0265137 0.00723254 0)
(-0.0280749 0.00716975 0)
(-0.0296179 0.00707695 0)
(-0.0311365 0.00695513 0)
(-0.0326248 0.00680533 0)
(-0.0340769 0.00662864 0)
(-0.0354874 0.00642619 0)
(-0.0368508 0.00619914 0)
(-0.0381621 0.00594868 0)
(-0.0394165 0.00567602 0)
(-0.0406094 0.00538241 0)
(-0.0417365 0.0050691 0)
(-0.0427937 0.00473738 0)
(-0.0437772 0.00438855 0)
(-0.0446835 0.00402391 0)
(-0.0455095 0.00364482 0)
(-0.0462522 0.0032526 0)
(-0.046909 0.00284864 0)
(-0.0474774 0.00243432 0)
(-0.0479555 0.00201104 0)
(-0.0483415 0.00158022 0)
(-0.0486339 0.0011433 0)
(-0.0488317 0.000701734 0)
(-0.0489341 0.000256995 0)
(-0.0489404 -0.000189426 0)
(-0.0488506 -0.000636019 0)
(-0.0486648 -0.00108126 0)
(-0.0483835 -0.0015236 0)
(-0.0480075 -0.0019615 0)
(-0.0475378 -0.00239337 0)
(-0.0469761 -0.00281764 0)
(-0.046324 -0.00323273 0)
(-0.0455838 -0.00363702 0)
(-0.0447579 -0.00402893 0)
(-0.0438491 -0.00440685 0)
(-0.0428605 -0.00476918 0)
(-0.0417958 -0.00511435 0)
(-0.0406586 -0.00544077 0)
(-0.0394531 -0.00574688 0)
(-0.0381838 -0.00603116 0)
(-0.0368555 -0.00629211 0)
(-0.0354731 -0.00652826 0)
(-0.0340422 -0.0067382 0)
(-0.0325682 -0.00692057 0)
(-0.0310572 -0.00707406 0)
(-0.0295153 -0.00719744 0)
(-0.0279489 -0.00728958 0)
(-0.0263645 -0.00734941 0)
(-0.0247691 -0.00737599 0)
(-0.0231695 -0.0073685 0)
(-0.0215729 -0.00732623 0)
(-0.0199864 -0.00724864 0)
(-0.0184174 -0.00713535 0)
(-0.016873 -0.00698617 0)
(-0.0153606 -0.00680112 0)
(-0.0138873 -0.00658047 0)
(-0.0124603 -0.00632476 0)
(-0.0110865 -0.00603482 0)
(-0.00977242 -0.00571186 0)
(-0.00852452 -0.00535751 0)
(-0.00734871 -0.00497385 0)
(-0.00625044 -0.00456355 0)
(-0.0052346 -0.00412993 0)
(-0.00430539 -0.00367711 0)
(-0.00346622 -0.0032101 0)
(-0.00271961 -0.00273508 0)
(-0.00206705 -0.0022595 0)
(-0.0015089 -0.00179243 0)
(-0.00104431 -0.00134483 0)
(-0.000671115 -0.000929904 0)
(-0.000385622 -0.000563587 0)
(-0.000182398 -0.000264901 0)
(-5.65734e-05 -5.6502e-05 0)
(-6.29185e-06 3.30006e-05 0)
(-1.05761e-05 1.68423e-05 0)
(-8.34853e-05 0.000211 0)
(-0.000256459 0.000527507 0)
(-0.000525286 0.000936094 0)
(-0.000891199 0.00141245 0)
(-0.00135743 0.00193602 0)
(-0.00192565 0.0024895 0)
(-0.00259622 0.00305849 0)
(-0.00336841 0.00363104 0)
(-0.00424048 0.00419732 0)
(-0.00520971 0.00474923 0)
(-0.0062725 0.00528021 0)
(-0.00742449 0.00578491 0)
(-0.00866064 0.00625909 0)
(-0.00997531 0.00669939 0)
(-0.0113624 0.00710319 0)
(-0.0128154 0.00746852 0)
(-0.0143275 0.00779397 0)
(-0.0158917 0.00807856 0)
(-0.0175006 0.0083217 0)
(-0.019147 0.00852313 0)
(-0.0208233 0.00868288 0)
(-0.0225222 0.0088012 0)
(-0.0242362 0.00887855 0)
(-0.025958 0.00891557 0)
(-0.0276802 0.00891305 0)
(-0.0293958 0.00887187 0)
(-0.0310977 0.00879306 0)
(-0.0327792 0.00867773 0)
(-0.0344335 0.00852706 0)
(-0.0360543 0.0083423 0)
(-0.0376353 0.00812476 0)
(-0.0391705 0.0078758 0)
(-0.0406543 0.00759682 0)
(-0.0420811 0.00728928 0)
(-0.0434457 0.00695465 0)
(-0.0447432 0.00659443 0)
(-0.0459689 0.00621015 0)
(-0.0471186 0.00580339 0)
(-0.048188 0.00537573 0)
(-0.0491734 0.00492877 0)
(-0.0500713 0.00446414 0)
(-0.0508786 0.00398349 0)
(-0.0515925 0.0034885 0)
(-0.0522103 0.00298086 0)
(-0.0527299 0.00246229 0)
(-0.0531494 0.00193452 0)
(-0.0534673 0.00139931 0)
(-0.0536822 0.00085845 0)
(-0.0537935 0.000313733 0)
(-0.0538004 -0.000233016 0)
(-0.0537029 -0.000779951 0)
(-0.0535011 -0.00132521 0)
(-0.0531954 -0.0018669 0)
(-0.0527869 -0.00240313 0)
(-0.0522766 -0.00293198 0)
(-0.0516663 -0.00345153 0)
(-0.0509578 -0.00395982 0)
(-0.0501534 -0.00445492 0)
(-0.0492559 -0.00493488 0)
(-0.0482683 -0.00539774 0)
(-0.0471939 -0.00584157 0)
(-0.0460365 -0.00626442 0)
(-0.0448003 -0.0066644 0)
(-0.0434897 -0.0070396 0)
(-0.0421095 -0.00738817 0)
(-0.0406648 -0.00770828 0)
(-0.0391611 -0.00799818 0)
(-0.0376042 -0.00825614 0)
(-0.0360001 -0.00848052 0)
(-0.0343551 -0.00866975 0)
(-0.032676 -0.00882236 0)
(-0.0309696 -0.00893696 0)
(-0.0292429 -0.0090123 0)
(-0.0275033 -0.00904725 0)
(-0.0257583 -0.00904083 0)
(-0.0240154 -0.00899223 0)
(-0.0222823 -0.00890081 0)
(-0.0205668 -0.00876615 0)
(-0.0188768 -0.00858807 0)
(-0.0172199 -0.00836662 0)
(-0.0156039 -0.00810217 0)
(-0.0140364 -0.00779542 0)
(-0.0125248 -0.00744742 0)
(-0.0110761 -0.00705968 0)
(-0.00969709 -0.00663417 0)
(-0.00839425 -0.00617345 0)
(-0.00717344 -0.00568071 0)
(-0.00603995 -0.0051599 0)
(-0.00499841 -0.00461587 0)
(-0.00405269 -0.00405449 0)
(-0.00320578 -0.00348284 0)
(-0.0024597 -0.00290945 0)
(-0.00181545 -0.00234451 0)
(-0.00127288 -0.00180018 0)
(-0.000830747 -0.00129095 0)
(-0.000486397 -0.000834029 0)
(-0.000235623 -0.000449697 0)
(-7.58544e-05 -0.000161739 0)
(-9.35095e-06 3.65188e-07 0)
(-1.36339e-05 6.33026e-05 0)
(-0.000103091 0.000353542 0)
(-0.000310986 0.000769477 0)
(-0.000628932 0.00128047 0)
(-0.00105574 0.0018615 0)
(-0.00159325 0.00249112 0)
(-0.00224194 0.00315104 0)
(-0.00300109 0.00382583 0)
(-0.00386909 0.00450258 0)
(-0.00484344 0.00517049 0)
(-0.00592077 0.00582059 0)
(-0.00709692 0.0064455 0)
(-0.00836701 0.00703921 0)
(-0.0097255 0.00759683 0)
(-0.0111663 0.00811449 0)
(-0.0126829 0.00858913 0)
(-0.0142684 0.00901842 0)
(-0.0159154 0.00940067 0)
(-0.0176166 0.00973467 0)
(-0.0193641 0.0100197 0)
(-0.0211502 0.0102554 0)
(-0.0229671 0.0104417 0)
(-0.0248068 0.010579 0)
(-0.0266614 0.0106677 0)
(-0.0285232 0.0107084 0)
(-0.0303844 0.0107022 0)
(-0.0322375 0.0106501 0)
(-0.034075 0.0105532 0)
(-0.0358896 0.0104127 0)
(-0.0376743 0.0102302 0)
(-0.0394223 0.0100071 0)
(-0.0411268 0.00974488 0)
(-0.0427816 0.0094452 0)
(-0.0443806 0.0091097 0)
(-0.0459179 0.00874011 0)
(-0.0473879 0.00833817 0)
(-0.0487854 0.00790568 0)
(-0.0501054 0.00744447 0)
(-0.0513433 0.0069564 0)
(-0.0524947 0.00644336 0)
(-0.0535555 0.00590728 0)
(-0.0545221 0.00535009 0)
(-0.0553911 0.00477377 0)
(-0.0561595 0.00418032 0)
(-0.0568245 0.00357176 0)
(-0.0573837 0.00295016 0)
(-0.0578353 0.00231758 0)
(-0.0581774 0.00167613 0)
(-0.0584089 0.00102794 0)
(-0.0585288 0.000375172 0)
(-0.0585365 -0.000280003 0)
(-0.0584318 -0.000935377 0)
(-0.0582149 -0.00158872 0)
(-0.0578863 -0.00223778 0)
(-0.057447 -0.0028803 0)
(-0.0568983 -0.00351397 0)
(-0.0562419 -0.00413651 0)
(-0.0554798 -0.00474559 0)
(-0.0546146 -0.00533889 0)
(-0.0536491 -0.00591409 0)
(-0.0525864 -0.00646887 0)
(-0.0514304 -0.00700091 0)
(-0.0501848 -0.00750791 0)
(-0.0488542 -0.0079876 0)