/*--------------------------------*- C++ -*----------------------------------*\
| =========                 |                                                 |
| \\      /  F ield         | OpenFOAM: The Open Source CFD Toolbox           |
|  \\    /   O peration     | Version:  2212                                  |
|   \\  /    A nd           | Website:  www.openfoam.com                      |
|    \\/     M anipulation  |                                                 |
\*---------------------------------------------------------------------------*/
FoamFile
{
    version     2.0;
    format      ascii;
    arch        "LSB;label=32;scalar=64";
    class       volVectorField;
    location    "0.074";
    object      U_0;
}
// * * * * * * * * * * * * * * * * * * * * * * * * * * * * * * * * * * * * * //

dimensions      [0 1 -1 0 0 0 0];

internalField   nonuniform List<vector> 
10000
(
(2.93246e-06 -2.98049e-06 0)
(1.47092e-05 -7.75027e-06 0)
(3.36021e-05 -8.9905e-06 0)
(5.14028e-05 -7.72385e-06 0)
(6.30616e-05 -5.17807e-06 0)
(6.61692e-05 -2.0418e-06 0)
(5.9527e-05 1.3248e-06 0)
(4.25999e-05 4.72633e-06 0)
(1.5295e-05 8.0531e-06 0)
(-2.22034e-05 1.12392e-05 0)
(-6.9532e-05 1.42507e-05 0)
(-0.000126207 1.70686e-05 0)
(-0.000191666 1.96783e-05 0)
(-0.000265296 2.20745e-05 0)
(-0.000346449 2.42559e-05 0)
(-0.000434457 2.62216e-05 0)
(-0.000528644 2.7973e-05 0)
(-0.000628326 2.95133e-05 0)
(-0.000732828 3.08474e-05 0)
(-0.000841476 3.19776e-05 0)
(-0.000953611 3.29095e-05 0)
(-0.00106858 3.36498e-05 0)
(-0.00118575 3.42038e-05 0)
(-0.00130451 3.4577e-05 0)
(-0.00142425 3.47767e-05 0)
(-0.00154439 3.481e-05 0)
(-0.00166437 3.46816e-05 0)
(-0.00178364 3.43963e-05 0)
(-0.00190168 3.39615e-05 0)
(-0.00201799 3.33838e-05 0)
(-0.00213207 3.26692e-05 0)
(-0.00224348 3.18239e-05 0)
(-0.00235176 3.08546e-05 0)
(-0.0024565 2.97678e-05 0)
(-0.0025573 2.85689e-05 0)
(-0.00265377 2.72636e-05 0)
(-0.00274556 2.58585e-05 0)
(-0.00283234 2.43604e-05 0)
(-0.00291379 2.27759e-05 0)
(-0.00298962 2.11102e-05 0)
(-0.00305955 1.93687e-05 0)
(-0.00312333 1.75583e-05 0)
(-0.00318075 1.56854e-05 0)
(-0.00323158 1.37569e-05 0)
(-0.00327565 1.17791e-05 0)
(-0.0033128 9.75794e-06 0)
(-0.00334288 7.69924e-06 0)
(-0.00336578 5.60994e-06 0)
(-0.00338141 3.4967e-06 0)
(-0.00338969 1.36612e-06 0)
(-0.00339059 -7.7428e-07 0)
(-0.00338409 -2.91714e-06 0)
(-0.00337017 -5.0559e-06 0)
(-0.00334889 -7.18371e-06 0)
(-0.00332028 -9.29326e-06 0)
(-0.00328443 -1.13771e-05 0)
(-0.00324145 -1.34273e-05 0)
(-0.00319147 -1.54356e-05 0)
(-0.00313465 -1.73944e-05 0)
(-0.00307117 -1.92966e-05 0)
(-0.00300125 -2.11342e-05 0)
(-0.00292513 -2.28988e-05 0)
(-0.00284308 -2.45822e-05 0)
(-0.0027554 -2.61765e-05 0)
(-0.0026624 -2.76737e-05 0)
(-0.00256445 -2.90656e-05 0)
(-0.00246191 -3.03443e-05 0)
(-0.0023552 -3.15021e-05 0)
(-0.00224474 -3.2531e-05 0)
(-0.002131 -3.34231e-05 0)
(-0.00201445 -3.41706e-05 0)
(-0.00189561 -3.47664e-05 0)
(-0.001775 -3.52034e-05 0)
(-0.00165318 -3.54751e-05 0)
(-0.00153073 -3.55751e-05 0)
(-0.00140824 -3.54971e-05 0)
(-0.00128632 -3.52351e-05 0)
(-0.0011656 -3.47834e-05 0)
(-0.00104674 -3.41371e-05 0)
(-0.000930385 -3.32919e-05 0)
(-0.000817215 -3.22437e-05 0)
(-0.000707907 -3.09889e-05 0)
(-0.000603144 -2.95251e-05 0)
(-0.000503611 -2.78509e-05 0)
(-0.000409992 -2.59656e-05 0)
(-0.000322959 -2.38697e-05 0)
(-0.000243175 -2.15647e-05 0)
(-0.000171277 -1.90547e-05 0)
(-0.000107872 -1.63469e-05 0)
(-5.35174e-05 -1.34527e-05 0)
(-8.70646e-06 -1.03897e-05 0)
(2.61632e-05 -7.18518e-06 0)
(5.08295e-05 -3.88291e-06 0)
(6.52282e-05 -5.54438e-07 0)
(6.9593e-05 2.67965e-06 0)
(6.46135e-05 5.6128e-06 0)
(5.16539e-05 7.88702e-06 0)
(3.32103e-05 8.86575e-06 0)
(1.42581e-05 7.47135e-06 0)
(2.74925e-06 2.74952e-06 0)
(7.40125e-06 -1.46044e-05 0)
(3.04497e-05 -3.09047e-05 0)
(6.15481e-05 -3.32283e-05 0)
(8.65493e-05 -2.53799e-05 0)
(9.59627e-05 -1.13511e-05 0)
(8.43028e-05 6.16891e-06 0)
(4.82634e-05 2.54781e-05 0)
(-1.39608e-05 4.54934e-05 0)
(-0.000103063 6.55044e-05 0)
(-0.000218947 8.50496e-05 0)
(-0.000360966 0.000103818 0)
(-0.000528087 0.000121603 0)
(-0.000718992 0.000138263 0)
(-0.000932171 0.000153705 0)
(-0.00116598 0.000167872 0)
(-0.00141869 0.000180726 0)
(-0.00168851 0.00019225 0)
(-0.0019736 0.000202442 0)
(-0.00227212 0.000211307 0)
(-0.00258225 0.000218859 0)
(-0.00290216 0.000225119 0)
(-0.00323005 0.000230112 0)
(-0.00356415 0.000233867 0)
(-0.00390273 0.000236416 0)
(-0.0042441 0.000237794 0)
(-0.00458661 0.000238038 0)
(-0.00492868 0.000237185 0)
(-0.00526876 0.000235273 0)
(-0.00560536 0.000232341 0)
(-0.00593703 0.000228429 0)
(-0.00626242 0.000223577 0)
(-0.00658018 0.000217828 0)
(-0.00688906 0.000211224 0)
(-0.00718786 0.000203805 0)
(-0.00747542 0.000195614 0)
(-0.00775067 0.000186691 0)
(-0.00801257 0.000177079 0)
(-0.00826016 0.000166821 0)
(-0.00849254 0.000155959 0)
(-0.00870887 0.000144537 0)
(-0.00890837 0.000132596 0)
(-0.00909031 0.00012018 0)
(-0.00925404 0.000107333 0)
(-0.00939898 9.40977e-05 0)
(-0.0095246 8.05198e-05 0)
(-0.00963043 6.66444e-05 0)
(-0.00971608 5.25162e-05 0)
(-0.00978121 3.81809e-05 0)
(-0.00982557 2.36852e-05 0)
(-0.00984896 9.07609e-06 0)
(-0.00985126 -5.59775e-06 0)
(-0.00983241 -2.02869e-05 0)
(-0.00979243 -3.49424e-05 0)
(-0.0097314 -4.95145e-05 0)
(-0.0096495 -6.39527e-05 0)
(-0.00954694 -7.82051e-05 0)
(-0.00942405 -9.22192e-05 0)
(-0.00928121 -0.000105942 0)
(-0.00911889 -0.000119319 0)
(-0.00893761 -0.000132298 0)
(-0.00873801 -0.000144826 0)
(-0.00852077 -0.000156847 0)
(-0.00828667 -0.000168306 0)
(-0.00803656 -0.00017915 0)
(-0.00777137 -0.000189322 0)
(-0.0074921 -0.000198771 0)
(-0.00719984 -0.000207443 0)
(-0.00689574 -0.000215284 0)
(-0.00658103 -0.000222244 0)
(-0.00625701 -0.000228271 0)
(-0.00592507 -0.000233315 0)
(-0.00558663 -0.00023733 0)
(-0.00524321 -0.000240269 0)
(-0.00489637 -0.000242091 0)
(-0.00454774 -0.000242754 0)
(-0.00419899 -0.00024222 0)
(-0.00385186 -0.000240455 0)
(-0.0035081 -0.000237427 0)
(-0.00316954 -0.000233108 0)
(-0.002838 -0.000227476 0)
(-0.00251535 -0.000220513 0)
(-0.00220346 -0.000212207 0)
(-0.00190422 -0.000202553 0)
(-0.00161948 -0.000191556 0)
(-0.00135111 -0.000179229 0)
(-0.00110089 -0.000165597 0)
(-0.000870588 -0.000150698 0)
(-0.000661843 -0.000134592 0)
(-0.000476191 -0.000117364 0)
(-0.000314994 -9.91336e-05 0)
(-0.000179386 -8.00704e-05 0)
(-7.01913e-05 -6.04121e-05 0)
(1.21911e-05 -4.04987e-05 0)
(6.79428e-05 -2.08246e-05 0)
(9.8054e-05 -2.12158e-06 0)
(0.000104635 1.45119e-05 0)
(9.12656e-05 2.74208e-05 0)
(6.35554e-05 3.41051e-05 0)
(3.09448e-05 3.09433e-05 0)
(7.46242e-06 1.42465e-05 0)
(8.49955e-06 -3.29463e-05 0)
(3.23301e-05 -6.17271e-05 0)
(5.96966e-05 -6.07346e-05 0)
(7.38594e-05 -3.80049e-05 0)
(6.34383e-05 -8.7777e-07 0)
(2.13296e-05 4.51762e-05 0)
(-5.71036e-05 9.63058e-05 0)
(-0.000174629 0.000149814 0)
(-0.000332495 0.000203827 0)
(-0.000530811 0.000257025 0)
(-0.000768853 0.00030848 0)
(-0.00104526 0.000357539 0)
(-0.0013582 0.000403737 0)
(-0.00170552 0.000446752 0)
(-0.00208479 0.000486362 0)
(-0.00249344 0.000522426 0)
(-0.00292875 0.000554852 0)
(-0.00338794 0.000583602 0)
(-0.00386817 0.000608666 0)
(-0.00436661 0.00063006 0)
(-0.00488041 0.000647828 0)
(-0.00540677 0.000662023 0)
(-0.00594291 0.000672713 0)
(-0.00648609 0.000679981 0)
(-0.00703365 0.000683913 0)
(-0.00758298 0.000684606 0)
(-0.00813154 0.00068216 0)
(-0.00867689 0.00067668 0)
(-0.00921663 0.000668275 0)
(-0.00974849 0.000657055 0)
(-0.0102702 0.000643134 0)
(-0.0107798 0.000626629 0)
(-0.0112751 0.000607656 0)
(-0.0117542 0.000586334 0)
(-0.0122154 0.000562782 0)
(-0.0126567 0.00053712 0)
(-0.0130767 0.000509469 0)
(-0.0134737 0.00047995 0)
(-0.0138463 0.000448686 0)
(-0.0141932 0.000415802 0)
(-0.014513 0.000381421 0)
(-0.0148047 0.000345669 0)
(-0.0150671 0.000308672 0)
(-0.0152994 0.000270557 0)
(-0.0155007 0.000231453 0)
(-0.0156702 0.000191491 0)
(-0.0158073 0.000150804 0)
(-0.0159115 0.000109524 0)
(-0.0159824 6.77868e-05 0)
(-0.0160196 2.57298e-05 0)
(-0.016023 -1.65079e-05 0)
(-0.0159924 -5.87845e-05 0)
(-0.015928 -0.000100957 0)
(-0.0158298 -0.00014288 0)
(-0.0156982 -0.000184406 0)
(-0.0155334 -0.000225388 0)
(-0.0153361 -0.000265674 0)
(-0.0151069 -0.000305112 0)
(-0.0148464 -0.000343548 0)
(-0.0145555 -0.000380829 0)
(-0.0142354 -0.000416798 0)
(-0.013887 -0.000451301 0)
(-0.0135116 -0.000484182 0)
(-0.0131107 -0.000515283 0)
(-0.0126856 -0.000544452 0)
(-0.012238 -0.000571533 0)
(-0.0117697 -0.000596377 0)
(-0.0112824 -0.000618834 0)
(-0.0107782 -0.000638757 0)
(-0.0102591 -0.000656004 0)
(-0.00972733 -0.000670436 0)
(-0.00918519 -0.000681921 0)
(-0.00863507 -0.000690332 0)
(-0.00807946 -0.000695551 0)
(-0.00752094 -0.000697466 0)
(-0.00696216 -0.000695973 0)
(-0.00640587 -0.000690981 0)
(-0.00585485 -0.000682407 0)
(-0.00531195 -0.000670182 0)
(-0.00478006 -0.000654253 0)
(-0.0042621 -0.00063458 0)
(-0.00376099 -0.000611147 0)
(-0.00327965 -0.000583956 0)
(-0.00282097 -0.000553038 0)
(-0.00238778 -0.000518456 0)
(-0.00198284 -0.000480307 0)
(-0.00160878 -0.000438741 0)
(-0.00126807 -0.000393963 0)
(-0.000962946 -0.000346262 0)
(-0.000695362 -0.000296028 0)
(-0.000466878 -0.000243794 0)
(-0.000278547 -0.000190283 0)
(-0.000130753 -0.000136487 0)
(-2.30057e-05 -8.3778e-05 0)
(4.63365e-05 -3.40656e-05 0)
(8.0415e-05 9.97488e-06 0)
(8.42064e-05 4.46115e-05 0)
(6.49865e-05 6.47267e-05 0)
(3.42209e-05 6.35782e-05 0)
(8.87298e-06 3.31971e-05 0)
(7.40871e-06 -5.02168e-05 0)
(2.48678e-05 -8.63565e-05 0)
(3.74921e-05 -7.48471e-05 0)
(2.82867e-05 -2.8686e-05 0)
(-1.4604e-05 4.13166e-05 0)
(-9.89749e-05 0.000126803 0)
(-0.000230134 0.000221538 0)
(-0.000411365 0.000320956 0)
(-0.000644261 0.000421725 0)
(-0.000929092 0.000521405 0)
(-0.00126508 0.000618217 0)
(-0.00165064 0.000710865 0)
(-0.00208358 0.000798398 0)
(-0.00256124 0.000880137 0)
(-0.00308059 0.000955601 0)
(-0.00363836 0.00102446 0)
(-0.00423108 0.0010865 0)
(-0.00485516 0.00114159 0)
(-0.00550693 0.00118969 0)
(-0.00618267 0.00123079 0)
(-0.00687866 0.00126496 0)
(-0.00759119 0.00129227 0)
(-0.0083166 0.00131284 0)
(-0.00905126 0.0013268 0)
(-0.00979162 0.00133432 0)
(-0.0105342 0.00133557 0)
(-0.0112756 0.00133073 0)
(-0.0120126 0.00132 0)
(-0.0127419 0.00130359 0)
(-0.0134605 0.00128169 0)
(-0.0141655 0.00125454 0)
(-0.0148539 0.00122235 0)
(-0.015523 0.00118535 0)
(-0.0161703 0.00114376 0)
(-0.0167932 0.00109781 0)
(-0.0173894 0.00104774 0)
(-0.0179566 0.000993791 0)
(-0.0184929 0.00093619 0)
(-0.0189961 0.000875177 0)
(-0.0194645 0.000810996 0)
(-0.0198965 0.000743891 0)
(-0.0202903 0.000674106 0)
(-0.0206446 0.00060189 0)
(-0.0209582 0.000527491 0)
(-0.0212298 0.000451164 0)
(-0.0214585 0.000373164 0)
(-0.0216434 0.00029375 0)
(-0.0217839 0.000213185 0)
(-0.0218793 0.000131735 0)
(-0.0219292 4.96677e-05 0)
(-0.0219334 -3.27425e-05 0)
(-0.0218918 -0.00011522 0)
(-0.0218045 -0.000197483 0)
(-0.0216716 -0.000279249 0)
(-0.0214934 -0.000360229 0)
(-0.0212706 -0.000440133 0)
(-0.0210039 -0.000518668 0)
(-0.020694 -0.000595535 0)
(-0.020342 -0.000670438 0)
(-0.0199491 -0.000743074 0)
(-0.0195165 -0.000813143 0)
(-0.019046 -0.000880341 0)
(-0.0185391 -0.000944366 0)
(-0.0179976 -0.00100492 0)
(-0.0174237 -0.00106169 0)
(-0.0168194 -0.0011144 0)
(-0.0161871 -0.00116274 0)
(-0.0155293 -0.00120644 0)
(-0.0148486 -0.0012452 0)
(-0.0141479 -0.00127876 0)
(-0.0134301 -0.00130685 0)
(-0.0126983 -0.00132922 0)
(-0.0119556 -0.00134563 0)
(-0.0112054 -0.00135585 0)
(-0.0104512 -0.00135968 0)
(-0.0096965 -0.00135692 0)
(-0.00894493 -0.00134741 0)
(-0.00820022 -0.00133099 0)
(-0.00746614 -0.00130755 0)
(-0.00674651 -0.00127699 0)
(-0.00604519 -0.00123927 0)
(-0.00536601 -0.00119436 0)
(-0.00471281 -0.0011423 0)
(-0.00408935 -0.00108317 0)
(-0.00349931 -0.00101713 0)
(-0.00294625 -0.000944401 0)
(-0.00243354 -0.00086531 0)
(-0.00196428 -0.000780304 0)
(-0.0015413 -0.000689986 0)
(-0.00116699 -0.000595158 0)
(-0.000843213 -0.000496884 0)
(-0.000571186 -0.000396576 0)
(-0.000351262 -0.000296114 0)
(-0.000182727 -0.00019801 0)
(-6.35262e-05 -0.00010563 0)
(1.00728e-05 -2.34878e-05 0)
(4.37732e-05 4.23888e-05 0)
(4.56526e-05 8.41047e-05 0)
(2.78619e-05 9.15684e-05 0)
(7.95627e-06 5.17464e-05 0)
(5.12501e-06 -6.1722e-05 0)
(1.1604e-05 -9.58033e-05 0)
(1.64427e-06 -6.4647e-05 0)
(-4.00641e-05 1.40764e-05 0)
(-0.0001248 0.000126252 0)
(-0.000260447 0.000260732 0)
(-0.000452452 0.000408953 0)
(-0.000704237 0.00056443 0)
(-0.00101751 0.000722262 0)
(-0.00139255 0.000878761 0)
(-0.0018285 0.00103115 0)
(-0.00232359 0.00117736 0)
(-0.0028753 0.00131583 0)
(-0.00348057 0.00144541 0)
(-0.00413588 0.00156528 0)
(-0.00483738 0.00167484 0)
(-0.00558097 0.0017737 0)
(-0.00636238 0.0018616 0)
(-0.0071772 0.00193842 0)
(-0.00802098 0.00200412 0)
(-0.00888922 0.00205875 0)
(-0.00977742 0.00210241 0)
(-0.0106811 0.00213526 0)
(-0.0115959 0.0021575 0)
(-0.0125174 0.00216937 0)
(-0.0134414 0.00217113 0)
(-0.0143637 0.00216306 0)
(-0.0152803 0.00214547 0)
(-0.0161872 0.00211867 0)
(-0.0170807 0.00208301 0)
(-0.0179571 0.00203882 0)
(-0.0188128 0.00198646 0)
(-0.0196445 0.00192628 0)
(-0.020449 0.00185866 0)
(-0.0212232 0.00178396 0)
(-0.0219641 0.00170256 0)
(-0.022669 0.00161484 0)
(-0.0233353 0.0015212 0)
(-0.0239606 0.001422 0)
(-0.0245426 0.00131765 0)
(-0.0250791 0.00120855 0)
(-0.0255683 0.00109509 0)
(-0.0260084 0.000977679 0)
(-0.0263978 0.000856721 0)
(-0.026735 0.000732632 0)
(-0.0270189 0.000605828 0)
(-0.0272484 0.000476732 0)
(-0.0274225 0.000345773 0)
(-0.0275407 0.000213383 0)
(-0.0276025 8.00026e-05 0)
(-0.0276074 -5.39238e-05 0)
(-0.0275553 -0.000187945 0)
(-0.0274465 -0.000321605 0)
(-0.027281 -0.000454441 0)
(-0.0270594 -0.000585987 0)
(-0.0267823 -0.000715768 0)
(-0.0264506 -0.000843308 0)
(-0.0260654 -0.000968124 0)
(-0.0256278 -0.00108973 0)
(-0.0251395 -0.00120765 0)
(-0.0246021 -0.00132138 0)
(-0.0240175 -0.00143044 0)
(-0.0233877 -0.00153434 0)
(-0.0227151 -0.00163259 0)
(-0.0220021 -0.0017247 0)
(-0.0212515 -0.00181022 0)
(-0.0204661 -0.00188865 0)
(-0.019649 -0.00195954 0)
(-0.0188036 -0.00202245 0)
(-0.0179332 -0.00207693 0)
(-0.0170415 -0.00212256 0)
(-0.0161322 -0.00215895 0)
(-0.0152095 -0.00218571 0)
(-0.0142772 -0.00220249 0)
(-0.0133397 -0.00220896 0)
(-0.0124013 -0.00220482 0)
(-0.0114665 -0.00218981 0)
(-0.0105398 -0.00216372 0)
(-0.00962577 -0.00212636 0)
(-0.00872914 -0.00207762 0)
(-0.00785456 -0.00201742 0)
(-0.00700667 -0.00194578 0)
(-0.0061901 -0.00186277 0)
(-0.00540938 -0.00176858 0)
(-0.00466892 -0.00166347 0)
(-0.00397294 -0.00154786 0)
(-0.00332544 -0.00142233 0)
(-0.00273007 -0.00128765 0)
(-0.00219013 -0.00114482 0)
(-0.00170836 -0.000995183 0)
(-0.00128691 -0.000840457 0)
(-0.000927126 -0.000682884 0)
(-0.000629395 -0.000525375 0)
(-0.000392924 -0.000371717 0)
(-0.00021549 -0.000226839 0)
(-9.31521e-05 -9.71521e-05 0)
(-1.99805e-05 9.03696e-06 0)
(1.23003e-05 8.11236e-05 0)
(1.55002e-05 0.000105732 0)
(5.79387e-06 6.50432e-05 0)
(2.2385e-06 -6.5181e-05 0)
(-5.09942e-06 -8.48693e-05 0)
(-4.29596e-05 -2.33374e-05 0)
(-0.000123626 9.78828e-05 0)
(-0.000257056 0.000261704 0)
(-0.00045073 0.000454442 0)
(-0.000709831 0.00066534 0)
(-0.0010376 0.000886038 0)
(-0.00143563 0.00111007 0)
(-0.00190405 0.00133244 0)
(-0.00244186 0.00154931 0)
(-0.00304706 0.00175772 0)
(-0.00371683 0.00195544 0)
(-0.00444775 0.00214078 0)
(-0.00523587 0.00231247 0)
(-0.00607684 0.00246961 0)
(-0.00696602 0.00261155 0)
(-0.00789855 0.00273788 0)
(-0.0088694 0.00284835 0)
(-0.00987345 0.00294286 0)
(-0.0109055 0.00302145 0)
(-0.0119604 0.00308421 0)
(-0.013033 0.00313136 0)
(-0.0141181 0.00316314 0)
(-0.0152107 0.00317988 0)
(-0.0163058 0.00318193 0)
(-0.0173985 0.00316968 0)
(-0.0184842 0.00314358 0)
(-0.0195582 0.00310406 0)
(-0.0206161 0.0030516 0)
(-0.0216535 0.00298669 0)
(-0.0226664 0.00290985 0)
(-0.0236508 0.00282158 0)
(-0.0246028 0.00272243 0)
(-0.0255188 0.00261292 0)
(-0.0263954 0.00249361 0)
(-0.0272294 0.00236505 0)
(-0.0280176 0.00222781 0)
(-0.0287572 0.00208244 0)
(-0.0294455 0.00192953 0)
(-0.0300801 0.00176965 0)
(-0.0306585 0.0016034 0)
(-0.0311789 0.00143136 0)
(-0.0316392 0.00125413 0)
(-0.0320379 0.00107232 0)
(-0.0323734 0.00088654 0)
(-0.0326445 0.000697416 0)
(-0.0328502 0.000505573 0)
(-0.0329896 0.000311648 0)
(-0.0330623 0.000116287 0)
(-0.0330678 -7.98591e-05 0)
(-0.0330059 -0.000276127 0)
(-0.0328768 -0.000471848 0)
(-0.0326808 -0.000666345 0)
(-0.0324184 -0.000858934 0)
(-0.0320905 -0.00104892 0)
(-0.031698 -0.00123561 0)
(-0.0312422 -0.00141829 0)
(-0.0307246 -0.00159627 0)
(-0.030147 -0.00176882 0)
(-0.0295113 -0.00193523 0)
(-0.0288198 -0.0020948 0)
(-0.028075 -0.00224681 0)
(-0.0272795 -0.00239055 0)
(-0.0264363 -0.00252533 0)
(-0.0255486 -0.00265044 0)
(-0.0246198 -0.00276521 0)
(-0.0236535 -0.00286898 0)
(-0.0226535 -0.00296108 0)
(-0.0216239 -0.0030409 0)
(-0.020569 -0.00310782 0)
(-0.0194933 -0.00316128 0)
(-0.0184012 -0.00320073 0)
(-0.0172977 -0.00322567 0)
(-0.0161877 -0.00323562 0)
(-0.0150762 -0.00323018 0)
(-0.0139685 -0.00320899 0)
(-0.0128698 -0.00317175 0)
(-0.0117855 -0.00311822 0)
(-0.010721 -0.00304826 0)
(-0.00968165 -0.00296179 0)
(-0.00867286 -0.00285887 0)
(-0.00769993 -0.00273964 0)
(-0.00676808 -0.00260441 0)
(-0.00588235 -0.00245363 0)
(-0.00504754 -0.00228794 0)
(-0.00426818 -0.00210823 0)
(-0.00354842 -0.00191567 0)
(-0.00289194 -0.00171175 0)
(-0.00230184 -0.00149842 0)
(-0.00178052 -0.00127815 0)
(-0.00132952 -0.00105412 0)
(-0.000949327 -0.000830331 0)
(-0.000639241 -0.000611914 0)
(-0.000397099 -0.000405377 0)
(-0.00021907 -0.000218989 0)
(-9.93922e-05 -6.32273e-05 0)
(-3.00638e-05 4.87819e-05 0)
(-4.0181e-07 0.000100687 0)
(3.01602e-06 7.07077e-05 0)
(-9.13524e-07 -5.93484e-05 0)
(-2.36932e-05 -5.02322e-05 0)
(-9.2831e-05 5.37655e-05 0)
(-0.000216826 0.00022815 0)
(-0.000403766 0.000453365 0)
(-0.000660368 0.000713503 0)
(-0.00099124 0.000995818 0)
(-0.00139917 0.00129021 0)
(-0.00188541 0.00158869 0)
(-0.00244983 0.00188497 0)
(-0.00309114 0.00217411 0)
(-0.00380707 0.00245227 0)
(-0.0045945 0.00271646 0)
(-0.00544963 0.00296437 0)
(-0.00636813 0.00319428 0)
(-0.0073452 0.0034049 0)
(-0.00837572 0.0035953 0)
(-0.0094543 0.00376486 0)
(-0.0105754 0.00391319 0)
(-0.0117332 0.0040401 0)
(-0.012922 0.00414558 0)
(-0.014136 0.00422972 0)
(-0.0153694 0.00429277 0)
(-0.0166164 0.00433502 0)
(-0.0178714 0.00435689 0)
(-0.0191286 0.00435882 0)
(-0.0203828 0.00434134 0)
(-0.0216284 0.00430501 0)
(-0.0228602 0.00425041 0)
(-0.0240733 0.0041782 0)
(-0.0252627 0.00408901 0)
(-0.0264238 0.00398354 0)
(-0.027552 0.00386248 0)
(-0.0286429 0.00372654 0)
(-0.0296925 0.00357647 0)
(-0.0306968 0.003413 0)
(-0.0316521 0.00323689 0)
(-0.032555 0.00304891 0)
(-0.0334021 0.00284982 0)
(-0.0341904 0.00264041 0)
(-0.034917 0.00242148 0)
(-0.0355793 0.00219383 0)
(-0.0361751 0.00195827 0)
(-0.036702 0.00171563 0)
(-0.0371583 0.00146672 0)
(-0.0375423 0.0012124 0)
(-0.0378525 0.000953511 0)
(-0.0380877 0.000690918 0)
(-0.0382471 0.000425494 0)
(-0.0383301 0.000158121 0)
(-0.038336 -0.000110305 0)
(-0.0382649 -0.000378879 0)
(-0.0381169 -0.000646685 0)
(-0.0378922 -0.000912796 0)
(-0.0375915 -0.00117627 0)
(-0.0372158 -0.00143618 0)
(-0.0367662 -0.00169155 0)
(-0.0362441 -0.00194142 0)
(-0.0356514 -0.00218484 0)
(-0.0349899 -0.00242083 0)
(-0.034262 -0.00264843 0)
(-0.0334702 -0.00286665 0)
(-0.0326173 -0.00307454 0)
(-0.0317063 -0.00327113 0)
(-0.0307408 -0.00345547 0)
(-0.0297242 -0.00362662 0)
(-0.0286605 -0.00378366 0)
(-0.0275537 -0.00392568 0)
(-0.0264083 -0.00405182 0)
(-0.0252288 -0.00416122 0)
(-0.0240201 -0.00425307 0)
(-0.0227872 -0.0043266 0)
(-0.0215354 -0.00438108 0)
(-0.0202701 -0.00441585 0)
(-0.0189969 -0.00443028 0)
(-0.0177215 -0.00442384 0)
(-0.0164497 -0.00439606 0)
(-0.0151876 -0.00434656 0)
(-0.0139411 -0.00427505 0)
(-0.0127163 -0.00418135 0)
(-0.0115193 -0.00406543 0)
(-0.0103561 -0.00392737 0)
(-0.00923258 -0.00376743 0)
(-0.00815456 -0.00358605 0)
(-0.00712766 -0.00338391 0)
(-0.00615721 -0.00316194 0)
(-0.00524822 -0.00292137 0)
(-0.00440527 -0.00266382 0)
(-0.00363243 -0.00239134 0)
(-0.00293313 -0.00210655 0)
(-0.00231004 -0.00181275 0)
(-0.00176496 -0.00151405 0)
(-0.00129862 -0.00121563 0)
(-0.000910528 -0.000923932 0)
(-0.000598805 -0.000647003 0)
(-0.00035999 -0.000394869 0)
(-0.000188809 -0.000179998 0)
(-7.79003e-05 -1.77507e-05 0)
(-1.82599e-05 7.30008e-05 0)
(-3.1718e-08 6.74621e-05 0)
(-4.1401e-06 -4.36043e-05 0)
(-4.31794e-05 1.00918e-05 0)
(-0.000145587 0.000169681 0)
(-0.000315674 0.000408568 0)
(-0.000559347 0.000705241 0)
(-0.000882293 0.00104192 0)
(-0.00128829 0.00140414 0)
(-0.00177946 0.00178021 0)
(-0.00235654 0.00216074 0)
(-0.00301899 0.0025382 0)
(-0.00376514 0.00290657 0)
(-0.00459236 0.0032611 0)
(-0.00549719 0.00359803 0)
(-0.00647546 0.00391444 0)
(-0.00752245 0.00420807 0)
(-0.00863294 0.00447723 0)
(-0.00980135 0.00472067 0)
(-0.0110218 0.00493754 0)
(-0.0122883 0.00512726 0)
(-0.0135945 0.00528954 0)
(-0.0149341 0.0054243 0)
(-0.0163008 0.00553164 0)
(-0.0176882 0.00561179 0)
(-0.01909 0.00566512 0)
(-0.0204998 0.00569211 0)
(-0.0219116 0.00569333 0)
(-0.0233192 0.00566941 0)
(-0.0247167 0.00562106 0)
(-0.0260984 0.00554903 0)
(-0.0274587 0.00545413 0)
(-0.0287921 0.00533718 0)
(-0.0300934 0.00519907 0)
(-0.0313576 0.00504069 0)
(-0.03258 0.00486297 0)
(-0.0337558 0.00466684 0)
(-0.0348807 0.00445328 0)
(-0.0359507 0.00422326 0)
(-0.0369618 0.00397777 0)
(-0.0379103 0.00371782 0)
(-0.0387928 0.00344443 0)
(-0.0396063 0.00315864 0)
(-0.0403477 0.0028615 0)
(-0.0410145 0.00255405 0)
(-0.0416043 0.00223737 0)
(-0.0421149 0.00191255 0)
(-0.0425445 0.00158068 0)
(-0.0428915 0.00124288 0)
(-0.0431547 0.000900267 0)
(-0.0433329 0.00055398 0)
(-0.0434255 0.000205175 0)
(-0.043432 -0.000144982 0)
(-0.0433522 -0.000495311 0)
(-0.0431863 -0.000844615 0)
(-0.0429346 -0.00119169 0)
(-0.042598 -0.00153531 0)
(-0.0421773 -0.00187424 0)
(-0.041674 -0.00220725 0)
(-0.0410896 -0.00253309 0)
(-0.0404261 -0.0028505 0)
(-0.0396856 -0.00315822 0)
(-0.0388708 -0.00345499 0)
(-0.0379844 -0.00373955 0)
(-0.0370297 -0.00401064 0)
(-0.0360099 -0.00426703 0)
(-0.0349289 -0.00450748 0)
(-0.0337907 -0.00473078 0)
(-0.0325996 -0.00493573 0)
(-0.0313602 -0.00512118 0)
(-0.0300772 -0.00528599 0)
(-0.0287559 -0.00542908 0)
(-0.0274016 -0.0055494 0)
(-0.0260199 -0.00564597 0)
(-0.0246165 -0.00571786 0)
(-0.0231975 -0.00576423 0)
(-0.0217691 -0.00578429 0)
(-0.0203375 -0.00577737 0)
(-0.0189093 -0.00574289 0)
(-0.017491 -0.00568037 0)
(-0.0160892 -0.0055895 0)
(-0.0147106 -0.00547007 0)
(-0.0133618 -0.00532207 0)
(-0.0120495 -0.00514565 0)
(-0.0107801 -0.0049412 0)
(-0.0095599 -0.00470935 0)
(-0.00839512 -0.00445101 0)
(-0.00729153 -0.00416741 0)
(-0.00625459 -0.0038602 0)
(-0.00528931 -0.00353149 0)
(-0.00440012 -0.00318392 0)
(-0.00359082 -0.00282083 0)
(-0.00286441 -0.00244634 0)
(-0.00222301 -0.00206555 0)
(-0.00166767 -0.00168477 0)
(-0.0011983 -0.00131173 0)
(-0.000813451 -0.000955916 0)
(-0.000510262 -0.000628975 0)
(-0.000284188 -0.00034513 0)
(-0.000128783 -0.000121643 0)
(-3.70681e-05 2.06001e-05 0)
(-3.15832e-06 5.46601e-05 0)
(-7.33902e-06 -1.77262e-05 0)
(-6.29479e-05 9.71135e-05 0)
(-0.000199623 0.000326166 0)
(-0.000417385 0.000641447 0)
(-0.000719786 0.00101997 0)
(-0.0011113 0.00144246 0)
(-0.0015947 0.00189298 0)
(-0.00217127 0.00235846 0)
(-0.00284108 0.00282822 0)
(-0.00360305 0.00329358 0)
(-0.00445503 0.00374751 0)
(-0.00539397 0.00418435 0)
(-0.00641601 0.00459959 0)
(-0.00751658 0.00498967 0)
(-0.00869056 0.00535179 0)
(-0.0099323 0.00568384 0)
(-0.0112358 0.00598423 0)
(-0.0125948 0.00625183 0)
(-0.0140027 0.00648589 0)
(-0.0154528 0.00668598 0)
(-0.0169382 0.00685194 0)
(-0.0184522 0.00698385 0)
(-0.0199878 0.00708194 0)
(-0.0215382 0.00714665 0)
(-0.0230965 0.00717852 0)
(-0.0246562 0.00717822 0)
(-0.0262105 0.00714652 0)
(-0.0277531 0.00708428 0)
(-0.0292777 0.00699241 0)
(-0.0307781 0.0068719 0)
(-0.0322486 0.00672378 0)
(-0.0336833 0.00654912 0)
(-0.0350768 0.00634904 0)
(-0.0364239 0.0061247 0)
(-0.0377195 0.00587726 0)
(-0.0389588 0.00560793 0)
(-0.0401374 0.00531793 0)
(-0.041251 0.00500851 0)
(-0.0422956 0.00468092 0)
(-0.0432675 0.00433646 0)
(-0.0441632 0.00397641 0)
(-0.0449795 0.00360209 0)
(-0.0457136 0.00321484 0)
(-0.0463628 0.002816 0)
(-0.0469248 0.00240694 0)
(-0.0473976 0.00198903 0)
(-0.0477795 0.00156368 0)
(-0.048069 0.0011323 0)
(-0.0482651 0.000696326 0)
(-0.048367 0.000257205 0)
(-0.048374 -0.000183593 0)
(-0.0482861 -0.000624582 0)
(-0.0481034 -0.00106426 0)
(-0.0478264 -0.00150111 0)
(-0.0474558 -0.00193359 0)
(-0.0469928 -0.00236017 0)
(-0.0464387 -0.00277928 0)
(-0.0457955 -0.00318936 0)
(-0.0450651 -0.00358883 0)
(-0.0442501 -0.00397611 0)
(-0.0433531 -0.00434963 0)
(-0.0423774 -0.00470781 0)
(-0.0413263 -0.00504907 0)
(-0.0402036 -0.00537188 0)
(-0.0390133 -0.00567468 0)
(-0.0377599 -0.00595596 0)
(-0.036448 -0.00621425 0)
(-0.0350827 -0.00644808 0)
(-0.0336692 -0.00665607 0)
(-0.0322131 -0.00683685 0)
(-0.0307203 -0.00698915 0)
(-0.0291968 -0.00711173 0)
(-0.027649 -0.00720347 0)
(-0.0260833 -0.00726331 0)
(-0.0245065 -0.00729032 0)
(-0.0229254 -0.00728365 0)
(-0.0213471 -0.00724263 0)
(-0.0197787 -0.0071667 0)
(-0.0182274 -0.00705548 0)
(-0.0167003 -0.00690877 0)
(-0.0152046 -0.00672658 0)
(-0.0137475 -0.00650917 0)
(-0.012336 -0.00625704 0)
(-0.0109769 -0.00597103 0)
(-0.00967688 -0.00565233 0)
(-0.0084421 -0.0053025 0)
(-0.0072785 -0.00492363 0)
(-0.00619149 -0.00451832 0)
(-0.00518593 -0.00408985 0)
(-0.00426597 -0.00364228 0)
(-0.00343503 -0.00318057 0)
(-0.0026956 -0.0027108 0)
(-0.00204919 -0.00224034 0)
(-0.00149618 -0.00177815 0)
(-0.00103576 -0.00133505 0)
(-0.000665808 -0.00092411 0)
(-0.000382698 -0.000561078 0)
(-0.000181086 -0.000264768 0)
(-5.62001e-05 -5.76027e-05 0)
(-6.26109e-06 3.20581e-05 0)
(-1.04598e-05 1.82693e-05 0)
(-8.26198e-05 0.000211196 0)
(-0.000253895 0.000524068 0)
(-0.000520057 0.00092805 0)
(-0.000882246 0.00139913 0)
(-0.00134362 0.00191686 0)
(-0.00190583 0.00246411 0)
(-0.0025692 0.00302659 0)
(-0.003333 0.00359252 0)
(-0.00419549 0.00415215 0)
(-0.00515398 0.00469751 0)
(-0.00620491 0.0052221 0)
(-0.00734396 0.00572067 0)
(-0.00856613 0.00618901 0)
(-0.00986587 0.00662381 0)
(-0.0112371 0.00702252 0)
(-0.0126735 0.00738319 0)
(-0.0141682 0.00770441 0)
(-0.0157142 0.00798525 0)
(-0.0173044 0.00822512 0)
(-0.0189316 0.00842377 0)
(-0.0205883 0.00858124 0)
(-0.0222672 0.00869779 0)
(-0.0239611 0.00877387 0)
(-0.0256625 0.00881012 0)
(-0.0273644 0.00880732 0)
(-0.0290596 0.00876636 0)
(-0.0307413 0.00868824 0)
(-0.0324027 0.00857408 0)
(-0.0340373 0.00842503 0)
(-0.0356388 0.00824234 0)
(-0.0372009 0.00802731 0)
(-0.0387178 0.00778128 0)
(-0.0401838 0.00750564 0)
(-0.0415935 0.00720182 0)
(-0.0429419 0.00687127 0)
(-0.0442239 0.00651548 0)
(-0.0454351 0.00613598 0)
(-0.0465711 0.00573429 0)
(-0.0476279 0.00531198 0)
(-0.0486017 0.00487064 0)
(-0.0494892 0.00441188 0)
(-0.0502872 0.00393731 0)
(-0.0509929 0.0034486 0)
(-0.0516038 0.0029474 0)
(-0.0521177 0.00243541 0)
(-0.0525328 0.00191433 0)
(-0.0528475 0.00138591 0)
(-0.0530606 0.00085189 0)
(-0.0531713 0.000314049 0)
(-0.053179 -0.000225819 0)
(-0.0530836 -0.000765896 0)
(-0.0528851 -0.00130435 0)
(-0.0525842 -0.00183932 0)
(-0.0521815 -0.00236893 0)
(-0.0516785 -0.0028913 0)
(-0.0510765 -0.00340453 0)
(-0.0503775 -0.00390671 0)
(-0.0495839 -0.0043959 0)
(-0.0486982 -0.0048702 0)
(-0.0477234 -0.00532768 0)
(-0.0466628 -0.00576641 0)
(-0.0455203 -0.0061845 0)
(-0.0442997 -0.00658005 0)
(-0.0430055 -0.00695119 0)
(-0.0416425 -0.00729608 0)
(-0.0402157 -0.00761294 0)
(-0.0387305 -0.00789999 0)
(-0.0371925 -0.00815554 0)
(-0.0356078 -0.00837798 0)
(-0.0339826 -0.00856573 0)
(-0.0323235 -0.00871733 0)
(-0.0306372 -0.00883141 0)
(-0.0289308 -0.00890673 0)
(-0.0272115 -0.00894216 0)
(-0.0254865 -0.00893673 0)
(-0.0237636 -0.0088896 0)
(-0.0220502 -0.00880017 0)
(-0.020354 -0.00866798 0)
(-0.0186828 -0.00849285 0)
(-0.0170443 -0.00827482 0)
(-0.015446 -0.00801425 0)
(-0.0138955 -0.00771181 0)
(-0.0124001 -0.00736853 0)
(-0.0109668 -0.00698588 0)
(-0.00960233 -0.00656581 0)
(-0.00831305 -0.00611083 0)
(-0.00710479 -0.00562407 0)
(-0.0059828 -0.00510945 0)
(-0.0049517 -0.00457173 0)
(-0.00401532 -0.00401672 0)
(-0.00317664 -0.00345139 0)
(-0.0024377 -0.00288418 0)
(-0.00179949 -0.00232514 0)
(-0.00126191 -0.00178631 0)
(-0.000823744 -0.00128201 0)
(-0.000482399 -0.000829244 0)
(-0.000233743 -0.000448074 0)
(-7.5274e-05 -0.000162034 0)
(-9.2873e-06 -3.45714e-07 0)
(-1.34775e-05 6.4227e-05 0)
(-0.000101978 0.000352286 0)
(-0.00030774 0.000763593 0)
(-0.000622419 0.0012689 0)
(-0.00104477 0.0018435 0)
(-0.00157661 0.00246609 0)
(-0.00221835 0.00311854 0)
(-0.00296928 0.00378562 0)
(-0.00382779 0.00445451 0)
(-0.00479141 0.00511457 0)
(-0.00585679 0.00575694 0)
(-0.00701981 0.00637434 0)
(-0.00827563 0.00696083 0)
(-0.00961879 0.00751159 0)
(-0.0110433 0.0080228 0)
(-0.0125426 0.00849146 0)
(-0.0141099 0.00891528 0)
(-0.015738 0.00929257 0)
(-0.0174195 0.00962218 0)
(-0.0191468 0.00990338 0)
(-0.0209122 0.0101358 0)
(-0.0227079 0.0103195 0)
(-0.024526 0.0104547 0)
(-0.0263589 0.0105419 0)
(-0.0281988 0.0105818 0)
(-0.0300381 0.0105753 0)
(-0.0318693 0.0105235 0)
(-0.0336851 0.0104274 0)
(-0.0354782 0.0102885 0)
(-0.0372417 0.0101079 0)
(-0.0389689 0.00988731 0)
(-0.0406532 0.00962812 0)
(-0.0422883 0.00933197 0)
(-0.0438683 0.00900048 0)
(-0.0453873 0.00863536 0)
(-0.0468399 0.00823833 0)
(-0.0482208 0.00781117 0)
(-0.0495252 0.00735568 0)
(-0.0507485 0.00687369 0)
(-0.0518864 0.00636708 0)
(-0.0529348 0.00583774 0)
(-0.0538903 0.00528757 0)
(-0.0547493 0.00471854 0)
(-0.0555089 0.00413261 0)
(-0.0561665 0.00353177 0)
(-0.0567197 0.00291804 0)
(-0.0571666 0.00229348 0)
(-0.0575054 0.00166016 0)
(-0.0577349 0.00102016 0)
(-0.0578542 0.00037562 0)
(-0.0578628 -0.00027132 0)
(-0.0577603 -0.000918488 0)
(-0.0575471 -0.00156369 0)
(-0.0572235 -0.00220471 0)
(-0.0567906 -0.00283931 0)
(-0.0562495 -0.00346523 0)
(-0.0556021 -0.00408021 0)
(-0.0548503 -0.00468196 0)
(-0.0539965 -0.0052682 0)
(-0.0530436 -0.00583663 0)
(-0.0519947 -0.00638497 0)
(-0.0508535 -0.00691091 0)
(-0.0496238 -0.00741221 0)