/*--------------------------------*- C++ -*----------------------------------*\
| =========                 |                                                 |
| \\      /  F ield         | OpenFOAM: The Open Source CFD Toolbox           |
|  \\    /   O peration     | Version:  2212                                  |
|   \\  /    A nd           | Website:  www.openfoam.com                      |
|    \\/     M anipulation  |                                                 |
\*---------------------------------------------------------------------------*/
FoamFile
{
    version     2.0;
    format      ascii;
    arch        "LSB;label=32;scalar=64";
    class       volVectorField;
    location    "0.0085";
    object      U_0;
}
// * * * * * * * * * * * * * * * * * * * * * * * * * * * * * * * * * * * * * //

dimensions      [0 1 -1 0 0 0 0];

internalField   nonuniform List<vector> 
10000
(
(3.93441e-06 -3.48022e-06 0)
(1.23054e-05 -5.29217e-06 0)
(1.9706e-05 -4.07408e-06 0)
(2.0081e-05 -1.21143e-06 0)
(1.14585e-05 2.08847e-06 0)
(-6.57689e-06 5.34626e-06 0)
(-3.35474e-05 8.32789e-06 0)
(-6.86779e-05 1.09444e-05 0)
(-0.000111125 1.32172e-05 0)
(-0.000160013 1.51802e-05 0)
(-0.000214502 1.68627e-05 0)
(-0.000273766 1.82454e-05 0)
(-0.000337033 1.93546e-05 0)
(-0.000403569 2.02281e-05 0)
(-0.000472723 2.09034e-05 0)
(-0.000543863 2.14106e-05 0)
(-0.000616422 2.17463e-05 0)
(-0.000689887 2.19088e-05 0)
(-0.000763788 2.19396e-05 0)
(-0.000837734 2.18817e-05 0)
(-0.0009114 2.17628e-05 0)
(-0.000984475 2.15718e-05 0)
(-0.00105668 2.12849e-05 0)
(-0.00112779 2.08904e-05 0)
(-0.00119755 2.04114e-05 0)
(-0.00126578 1.98904e-05 0)
(-0.0013323 1.93519e-05 0)
(-0.00139697 1.87964e-05 0)
(-0.00145962 1.82095e-05 0)
(-0.00152014 1.75785e-05 0)
(-0.00157842 1.68969e-05 0)
(-0.00163434 1.61757e-05 0)
(-0.00168783 1.54302e-05 0)
(-0.00173878 1.46622e-05 0)
(-0.00178712 1.3877e-05 0)
(-0.00183277 1.30708e-05 0)
(-0.00187566 1.22427e-05 0)
(-0.00191574 1.14015e-05 0)
(-0.00195296 1.0538e-05 0)
(-0.00198727 9.66311e-06 0)
(-0.00201864 8.79003e-06 0)
(-0.00204703 7.90604e-06 0)
(-0.0020724 7.02124e-06 0)
(-0.00209474 6.13546e-06 0)
(-0.00211401 5.23128e-06 0)
(-0.00213019 4.32726e-06 0)
(-0.00214329 3.42818e-06 0)
(-0.00215327 2.51552e-06 0)
(-0.00216012 1.60124e-06 0)
(-0.00216385 6.88067e-07 0)
(-0.00216441 -2.41119e-07 0)
(-0.00216182 -1.17162e-06 0)
(-0.00215609 -2.08897e-06 0)
(-0.00214719 -3.00856e-06 0)
(-0.00213515 -3.92952e-06 0)
(-0.00211997 -4.83817e-06 0)
(-0.00210168 -5.74665e-06 0)
(-0.00208026 -6.66592e-06 0)
(-0.00205576 -7.58134e-06 0)
(-0.00202818 -8.48759e-06 0)
(-0.00199753 -9.39864e-06 0)
(-0.00196383 -1.03137e-05 0)
(-0.00192712 -1.12177e-05 0)
(-0.00188743 -1.21096e-05 0)
(-0.0018448 -1.29948e-05 0)
(-0.00179927 -1.38631e-05 0)
(-0.00175094 -1.4701e-05 0)
(-0.00169986 -1.55085e-05 0)
(-0.00164613 -1.6288e-05 0)
(-0.00158984 -1.70342e-05 0)
(-0.00153111 -1.77427e-05 0)
(-0.00147006 -1.84141e-05 0)
(-0.0014068 -1.90463e-05 0)
(-0.00134147 -1.96339e-05 0)
(-0.00127423 -2.01749e-05 0)
(-0.00120524 -2.06673e-05 0)
(-0.00113468 -2.11015e-05 0)
(-0.00106276 -2.14668e-05 0)
(-0.000989706 -2.17623e-05 0)
(-0.000915788 -2.19885e-05 0)
(-0.000841282 -2.21331e-05 0)
(-0.000766508 -2.2175e-05 0)
(-0.000691833 -2.21005e-05 0)
(-0.000617673 -2.19042e-05 0)
(-0.000544482 -2.157e-05 0)
(-0.000472768 -2.10654e-05 0)
(-0.000403099 -2.03587e-05 0)
(-0.00033611 -1.94363e-05 0)
(-0.000272487 -1.82911e-05 0)
(-0.00021297 -1.69035e-05 0)
(-0.000158342 -1.52414e-05 0)
(-0.000109432 -1.3278e-05 0)
(-6.71012e-05 -1.10013e-05 0)
(-3.22144e-05 -8.4101e-06 0)
(-5.58459e-06 -5.51445e-06 0)
(1.21091e-05 -2.36532e-06 0)
(2.04925e-05 8.83704e-07 0)
(1.98845e-05 3.82603e-06 0)
(1.24431e-05 5.47659e-06 0)
(3.7919e-06 3.77603e-06 0)
(5.41053e-06 -1.20521e-05 0)
(1.48767e-05 -1.44364e-05 0)
(1.58134e-05 -4.81613e-06 0)
(-5.66922e-07 1.07896e-05 0)
(-3.83785e-05 2.82941e-05 0)
(-9.85314e-05 4.56636e-05 0)
(-0.000180421 6.20557e-05 0)
(-0.000282765 7.69834e-05 0)
(-0.000403862 9.03326e-05 0)
(-0.000541808 0.000102075 0)
(-0.00069462 0.000112251 0)
(-0.000860294 0.000120905 0)
(-0.00103687 0.000128097 0)
(-0.00122252 0.000133907 0)
(-0.00141547 0.000138458 0)
(-0.00161409 0.000141863 0)
(-0.00181687 0.000144209 0)
(-0.0020224 0.0001456 0)
(-0.00222944 0.000146129 0)
(-0.00243689 0.00014592 0)
(-0.00264372 0.000145078 0)
(-0.00284905 0.000143689 0)
(-0.00305207 0.00014178 0)
(-0.00325205 0.000139386 0)
(-0.00344836 0.00013655 0)
(-0.00364043 0.000133332 0)
(-0.00382777 0.000129788 0)
(-0.00400991 0.000125965 0)
(-0.00418646 0.000121889 0)
(-0.00435702 0.000117574 0)
(-0.00452128 0.000113038 0)
(-0.00467894 0.000108295 0)
(-0.00482973 0.000103372 0)
(-0.00497342 9.82827e-05 0)
(-0.00510976 9.30327e-05 0)
(-0.00523857 8.76523e-05 0)
(-0.00535964 8.21454e-05 0)
(-0.00547282 7.65295e-05 0)
(-0.00557794 7.08277e-05 0)
(-0.00567489 6.50316e-05 0)
(-0.00576351 5.91639e-05 0)
(-0.00584374 5.32347e-05 0)
(-0.00591545 4.72344e-05 0)
(-0.00597856 4.11903e-05 0)
(-0.00603301 3.51079e-05 0)
(-0.00607873 2.89776e-05 0)
(-0.00611565 2.28232e-05 0)
(-0.00614376 1.66487e-05 0)
(-0.00616298 1.04378e-05 0)
(-0.00617328 4.20273e-06 0)
(-0.00617468 -2.04149e-06 0)
(-0.00616713 -8.296e-06 0)
(-0.00615062 -1.45529e-05 0)
(-0.00612518 -2.07944e-05 0)
(-0.00609085 -2.70128e-05 0)
(-0.00604761 -3.32116e-05 0)
(-0.00599551 -3.93887e-05 0)
(-0.00593463 -4.55342e-05 0)
(-0.005865 -5.16464e-05 0)
(-0.00578667 -5.77311e-05 0)
(-0.00569973 -6.37787e-05 0)
(-0.00560429 -6.97676e-05 0)
(-0.00550041 -7.5688e-05 0)
(-0.00538819 -8.15359e-05 0)
(-0.00526783 -8.72886e-05 0)
(-0.00513947 -9.29123e-05 0)
(-0.00500326 -9.83889e-05 0)
(-0.00485941 -0.000103711 0)
(-0.00470821 -0.000108854 0)
(-0.00454989 -0.000113789 0)
(-0.00438472 -0.0001185 0)
(-0.00421301 -0.000122981 0)
(-0.00403516 -0.000127206 0)
(-0.00385154 -0.000131142 0)
(-0.00366254 -0.000134759 0)
(-0.00346863 -0.000138034 0)
(-0.00327037 -0.000140925 0)
(-0.00306836 -0.000143377 0)
(-0.00286325 -0.000145337 0)
(-0.00265576 -0.00014676 0)
(-0.00244677 -0.000147583 0)
(-0.00223721 -0.000147724 0)
(-0.0020281 -0.000147093 0)
(-0.00182056 -0.000145602 0)
(-0.00161588 -0.000143154 0)
(-0.00141549 -0.00013964 0)
(-0.00122092 -0.000134945 0)
(-0.00103383 -0.000128962 0)
(-0.000855988 -0.000121595 0)
(-0.000689342 -0.000112752 0)
(-0.000535895 -0.000102346 0)
(-0.000397677 -9.03197e-05 0)
(-0.000276702 -7.66632e-05 0)
(-0.000174908 -6.14488e-05 0)
(-9.39993e-05 -4.48904e-05 0)
(-3.51619e-05 -2.74628e-05 0)
(1.32319e-06 -1.0122e-05 0)
(1.66879e-05 5.25799e-06 0)
(1.51463e-05 1.50792e-05 0)
(5.49213e-06 1.2462e-05 0)
(3.41086e-06 -1.90673e-05 0)
(5.20569e-06 -1.59637e-05 0)
(-1.05371e-05 1.16981e-05 0)
(-5.28788e-05 5.19379e-05 0)
(-0.000126327 9.65308e-05 0)
(-0.000232133 0.000141287 0)
(-0.000369635 0.000183982 0)
(-0.000537235 0.000223538 0)
(-0.000732659 0.000259347 0)
(-0.000953331 0.000291187 0)
(-0.00119645 0.000319004 0)
(-0.00145915 0.000342866 0)
(-0.00173859 0.000362886 0)
(-0.00203201 0.00037926 0)
(-0.0023368 0.000392215 0)
(-0.00265051 0.000402004 0)
(-0.00297083 0.000408897 0)
(-0.00329566 0.000413147 0)
(-0.00362304 0.000414999 0)
(-0.00395121 0.000414722 0)
(-0.00427857 0.000412552 0)
(-0.0046037 0.000408703 0)
(-0.0049253 0.000403365 0)
(-0.00524221 0.000396675 0)
(-0.0055534 0.000388765 0)
(-0.00585794 0.000379765 0)
(-0.00615502 0.000369794 0)
(-0.00644392 0.000358958 0)
(-0.00672397 0.000347356 0)
(-0.00699459 0.000335067 0)
(-0.00725524 0.000322156 0)
(-0.00750544 0.000308682 0)
(-0.00774476 0.00029469 0)
(-0.00797282 0.000280228 0)
(-0.00818926 0.000265328 0)
(-0.00839376 0.000250028 0)
(-0.00858603 0.000234387 0)
(-0.0087658 0.000218426 0)
(-0.00893281 0.000202185 0)
(-0.00908685 0.000185701 0)
(-0.00922771 0.000168975 0)
(-0.00935521 0.000152043 0)
(-0.00946921 0.000134936 0)
(-0.00956954 0.000117654 0)
(-0.00965608 0.000100238 0)
(-0.00972875 8.27214e-05 0)
(-0.0097874 6.50891e-05 0)
(-0.00983198 4.7369e-05 0)
(-0.00986244 2.95966e-05 0)
(-0.0098787 1.17578e-05 0)
(-0.00988073 -6.13101e-06 0)
(-0.00986856 -2.40164e-05 0)
(-0.00984216 -4.18914e-05 0)
(-0.0098015 -5.97598e-05 0)
(-0.00974668 -7.7576e-05 0)
(-0.00967775 -9.53078e-05 0)
(-0.00959471 -0.000112966 0)
(-0.00949766 -0.000130538 0)
(-0.00938675 -0.000147985 0)
(-0.00926207 -0.000165292 0)
(-0.00912372 -0.000182456 0)
(-0.00897189 -0.000199438 0)
(-0.0088068 -0.000216193 0)
(-0.0086286 -0.000232692 0)
(-0.00843752 -0.000248901 0)
(-0.00823384 -0.000264767 0)
(-0.00801787 -0.000280235 0)
(-0.0077899 -0.000295263 0)
(-0.00755028 -0.000309799 0)
(-0.00729943 -0.000323783 0)
(-0.0070378 -0.00033716 0)
(-0.00676588 -0.000349874 0)
(-0.0064842 -0.000361852 0)
(-0.00619337 -0.000373012 0)
(-0.00589409 -0.000383271 0)
(-0.00558713 -0.000392533 0)
(-0.00527332 -0.000400674 0)
(-0.00495363 -0.000407549 0)
(-0.00462913 -0.000413014 0)
(-0.00430101 -0.000416912 0)
(-0.00397061 -0.00041906 0)
(-0.00363939 -0.00041924 0)
(-0.00330901 -0.000417221 0)
(-0.00298125 -0.000412771 0)
(-0.00265812 -0.000405641 0)
(-0.00234178 -0.000395562 0)
(-0.00203456 -0.000382261 0)
(-0.00173897 -0.000365481 0)
(-0.0014577 -0.000344987 0)
(-0.00119356 -0.000320576 0)
(-0.000949441 -0.000292092 0)
(-0.00072825 -0.000259474 0)
(-0.000532816 -0.000222813 0)
(-0.000365766 -0.000182448 0)
(-0.000229284 -0.000139104 0)
(-0.000124773 -9.41444e-05 0)
(-5.24072e-05 -4.99892e-05 0)
(-1.05211e-05 -1.07576e-05 0)
(5.3862e-06 1.66633e-05 0)
(3.82469e-06 1.99253e-05 0)
(5.59494e-07 -1.98188e-05 0)
(-9.30843e-06 -1.58628e-06 0)
(-4.74407e-05 5.28568e-05 0)
(-0.000120948 0.000126693 0)
(-0.000233734 0.000207686 0)
(-0.000387075 0.000289058 0)
(-0.000580219 0.00036719 0)
(-0.000811223 0.000440029 0)
(-0.00107742 0.000506431 0)
(-0.00137562 0.000565805 0)
(-0.00170244 0.000617938 0)
(-0.00205437 0.000662859 0)
(-0.00242785 0.000700768 0)
(-0.00281946 0.00073195 0)
(-0.00322586 0.000756775 0)
(-0.00364391 0.000775676 0)
(-0.00407069 0.000789114 0)
(-0.00450346 0.000797551 0)
(-0.0049397 0.000801458 0)
(-0.00537708 0.000801246 0)
(-0.0058135 0.000797343 0)
(-0.00624703 0.000790129 0)
(-0.00667597 0.000779964 0)
(-0.00709878 0.000767163 0)
(-0.00751407 0.000752006 0)
(-0.00792061 0.000734737 0)
(-0.00831727 0.000715573 0)
(-0.00870307 0.000694714 0)
(-0.00907711 0.000672342 0)
(-0.0094386 0.000648614 0)
(-0.00978683 0.000623666 0)
(-0.0101211 0.000597624 0)
(-0.0104409 0.000570578 0)
(-0.0107457 0.000542617 0)
(-0.011035 0.000513827 0)
(-0.0113084 0.000484269 0)
(-0.0115654 0.000454026 0)
(-0.0118057 0.000423169 0)
(-0.012029 0.000391744 0)
(-0.0122349 0.000359825 0)
(-0.0124233 0.000327455 0)
(-0.0125938 0.000294655 0)
(-0.0127462 0.000261494 0)
(-0.0128803 0.000228018 0)
(-0.012996 0.000194243 0)
(-0.0130932 0.000160235 0)
(-0.0131716 0.00012604 0)
(-0.0132311 9.16555e-05 0)
(-0.0132717 5.71291e-05 0)
(-0.0132934 2.25214e-05 0)
(-0.013296 -1.21552e-05 0)
(-0.0132796 -4.68696e-05 0)
(-0.0132441 -8.15562e-05 0)
(-0.0131897 -0.000116181 0)
(-0.0131162 -0.000150725 0)
(-0.0130239 -0.000185138 0)
(-0.0129127 -0.000219369 0)
(-0.0127828 -0.000253391 0)
(-0.0126344 -0.000287171 0)
(-0.0124676 -0.00032066 0)
(-0.0122825 -0.000353808 0)
(-0.0120795 -0.000386565 0)
(-0.0118588 -0.000418871 0)
(-0.0116206 -0.00045066 0)
(-0.0113653 -0.000481863 0)
(-0.0110932 -0.000512399 0)
(-0.0108048 -0.000542181 0)
(-0.0105003 -0.000571118 0)
(-0.0101805 -0.000599118 0)
(-0.00984564 -0.000626077 0)
(-0.00949647 -0.000651878 0)
(-0.0091336 -0.000676391 0)
(-0.00875779 -0.000699481 0)
(-0.00836988 -0.000720993 0)
(-0.00797076 -0.000740749 0)
(-0.00756145 -0.000758543 0)
(-0.00714313 -0.00077414 0)
(-0.00671709 -0.000787282 0)
(-0.00628475 -0.000797679 0)
(-0.00584768 -0.000805012 0)
(-0.00540767 -0.000808925 0)
(-0.00496669 -0.000809036 0)
(-0.00452689 -0.000804934 0)
(-0.00409063 -0.000796185 0)
(-0.0036605 -0.000782333 0)
(-0.00323929 -0.000762916 0)
(-0.00283004 -0.000737473 0)
(-0.0024359 -0.000705566 0)
(-0.00206026 -0.000666799 0)
(-0.00170661 -0.000620854 0)
(-0.00137854 -0.000567536 0)
(-0.00107958 -0.000506846 0)
(-0.000813144 -0.000439076 0)
(-0.000582301 -0.000364962 0)
(-0.000389589 -0.000285924 0)
(-0.000236642 -0.000204416 0)
(-0.00012376 -0.000124487 0)
(-4.93597e-05 -5.25265e-05 0)
(-9.80081e-06 1.50599e-06 0)
(9.43475e-07 2.06834e-05 0)
(-2.50165e-06 -1.19094e-05 0)
(-2.5837e-05 3.29409e-05 0)
(-8.97972e-05 0.000123092 0)
(-0.000197738 0.000238319 0)
(-0.000352212 0.000363116 0)
(-0.000554139 0.000488356 0)
(-0.000802469 0.000608857 0)
(-0.00109499 0.000721589 0)
(-0.00142859 0.000824766 0)
(-0.00179971 0.000917389 0)
(-0.00220444 0.000999008 0)
(-0.00263873 0.00106958 0)
(-0.00309854 0.00112934 0)
(-0.00357985 0.00117869 0)
(-0.0040788 0.00121816 0)
(-0.00459169 0.00124836 0)
(-0.00511504 0.00126996 0)
(-0.0056456 0.00128365 0)
(-0.00618037 0.00129013 0)
(-0.00671657 0.00129007 0)
(-0.00725165 0.00128408 0)
(-0.00778328 0.00127277 0)
(-0.00830938 0.00125665 0)
(-0.00882804 0.00123624 0)
(-0.00933758 0.001212 0)
(-0.00983648 0.00118433 0)
(-0.0103234 0.0011536 0)
(-0.010797 0.00112012 0)
(-0.0112563 0.00108418 0)
(-0.0117002 0.00104603 0)
(-0.0121279 0.00100588 0)
(-0.0125385 0.000963938 0)
(-0.0129314 0.000920372 0)
(-0.0133058 0.00087532 0)
(-0.0136613 0.00082893 0)
(-0.0139971 0.000781314 0)
(-0.0143129 0.000732572 0)
(-0.0146082 0.000682829 0)
(-0.0148826 0.000632167 0)
(-0.0151356 0.000580667 0)
(-0.0153671 0.000528434 0)
(-0.0155766 0.000475527 0)
(-0.0157639 0.000421997 0)
(-0.0159287 0.000367946 0)
(-0.0160709 0.000313438 0)
(-0.0161902 0.000258514 0)
(-0.0162865 0.000203256 0)
(-0.0163596 0.000147736 0)
(-0.0164094 9.19868e-05 0)
(-0.0164359 3.60669e-05 0)
(-0.0164391 -1.99388e-05 0)
(-0.0164188 -7.59702e-05 0)
(-0.0163751 -0.000131982 0)
(-0.0163081 -0.000187903 0)
(-0.0162177 -0.000243657 0)
(-0.0161041 -0.000299187 0)
(-0.0159673 -0.000354438 0)
(-0.0158076 -0.000409332 0)
(-0.0156251 -0.000463798 0)
(-0.0154201 -0.00051777 0)
(-0.0151926 -0.00057117 0)
(-0.0149431 -0.000623904 0)
(-0.0146719 -0.000675881 0)
(-0.0143793 -0.000727013 0)
(-0.0140657 -0.000777183 0)
(-0.0137315 -0.000826258 0)
(-0.0133772 -0.000874116 0)
(-0.0130034 -0.000920627 0)
(-0.0126107 -0.000965631 0)
(-0.0121997 -0.00100895 0)
(-0.0117711 -0.0010504 0)
(-0.0113258 -0.00108979 0)
(-0.0108648 -0.00112689 0)
(-0.0103889 -0.00116141 0)
(-0.00989936 -0.00119308 0)
(-0.00939749 -0.00122156 0)
(-0.00888465 -0.0012465 0)
(-0.00836244 -0.00126745 0)
(-0.0078326 -0.00128395 0)
(-0.00729709 -0.00129551 0)
(-0.00675805 -0.00130157 0)
(-0.00621786 -0.00130154 0)
(-0.00567912 -0.00129479 0)
(-0.00514467 -0.00128064 0)
(-0.0046176 -0.00125844 0)
(-0.00410123 -0.00122748 0)
(-0.0035991 -0.00118709 0)
(-0.00311494 -0.00113663 0)
(-0.00265268 -0.00107557 0)
(-0.00221635 -0.0010035 0)
(-0.00181005 -0.000920224 0)
(-0.00143779 -0.00082584 0)
(-0.00110341 -0.00072091 0)
(-0.000810363 -0.000606658 0)
(-0.000561526 -0.000485258 0)
(-0.000358865 -0.000360266 0)
(-0.000203059 -0.000237246 0)
(-9.30617e-05 -0.000124543 0)
(-2.68948e-05 -3.45657e-05 0)
(-2.23023e-06 1.25568e-05 0)
(-5.45324e-06 4.91009e-06 0)
(-4.2804e-05 8.92415e-05 0)
(-0.000133849 0.000224632 0)
(-0.00027771 0.000388857 0)
(-0.00047482 0.000564123 0)
(-0.000725455 0.000739418 0)
(-0.0010281 0.000908109 0)
(-0.00138006 0.00106619 0)
(-0.00177795 0.00121119 0)
(-0.00221778 0.00134171 0)
(-0.00269525 0.00145705 0)
(-0.00320591 0.00155706 0)
(-0.00374525 0.00164195 0)
(-0.00430883 0.00171225 0)
(-0.00489235 0.00176865 0)
(-0.00549166 0.00181197 0)
(-0.00610285 0.00184308 0)
(-0.00672221 0.00186292 0)
(-0.00734634 0.00187241 0)
(-0.00797207 0.0018725 0)
(-0.0085965 0.00186405 0)
(-0.00921695 0.00184789 0)
(-0.00983101 0.00182479 0)
(-0.0104365 0.00179544 0)
(-0.0110314 0.0017605 0)
(-0.0116139 0.00172053 0)
(-0.0121825 0.00167609 0)
(-0.0127357 0.00162762 0)
(-0.0132722 0.00157555 0)
(-0.0137909 0.00152024 0)
(-0.0142906 0.00146202 0)
(-0.0147704 0.00140115 0)
(-0.0152295 0.0013379 0)
(-0.0156672 0.00127249 0)
(-0.0160826 0.0012051 0)
(-0.0164751 0.00113593 0)
(-0.0168442 0.00106512 0)
(-0.0171894 0.000992831 0)
(-0.0175101 0.000919207 0)
(-0.0178059 0.000844356 0)
(-0.0180765 0.000768392 0)
(-0.0183213 0.000691453 0)
(-0.0185403 0.000613629 0)
(-0.0187329 0.000535001 0)
(-0.018899 0.000455695 0)
(-0.0190385 0.000375813 0)
(-0.0191509 0.000295423 0)
(-0.0192363 0.000214617 0)
(-0.0192945 0.000133509 0)
(-0.0193254 5.21737e-05 0)
(-0.019329 -2.93119e-05 0)
(-0.0193052 -0.000110837 0)
(-0.019254 -0.000192304 0)
(-0.0191755 -0.000273637 0)
(-0.0190697 -0.000354736 0)
(-0.0189368 -0.000435489 0)
(-0.0187769 -0.00051581 0)
(-0.0185901 -0.000595609 0)
(-0.0183766 -0.000674769 0)
(-0.0181368 -0.000753174 0)
(-0.0178709 -0.000830722 0)
(-0.0175793 -0.00090729 0)
(-0.0172622 -0.000982735 0)
(-0.0169202 -0.00105691 0)
(-0.0165537 -0.00112967 0)
(-0.0161631 -0.00120085 0)
(-0.0157492 -0.00127024 0)
(-0.0153125 -0.00133766 0)
(-0.0148537 -0.00140288 0)
(-0.0143736 -0.00146565 0)
(-0.0138731 -0.00152572 0)
(-0.0133531 -0.00158276 0)
(-0.0128148 -0.00163645 0)
(-0.0122592 -0.0016864 0)
(-0.0116879 -0.00173218 0)
(-0.0111022 -0.00177331 0)
(-0.0105038 -0.00180925 0)
(-0.00989461 -0.00183939 0)
(-0.00927656 -0.00186308 0)
(-0.00865195 -0.00187961 0)
(-0.00802325 -0.00188819 0)
(-0.00739319 -0.001888 0)
(-0.00676476 -0.00187815 0)
(-0.0061412 -0.00185775 0)
(-0.00552599 -0.00182585 0)
(-0.00492288 -0.00178152 0)
(-0.00433584 -0.00172387 0)
(-0.00376907 -0.00165209 0)
(-0.0032269 -0.00156549 0)
(-0.00271381 -0.00146358 0)
(-0.00223429 -0.00134619 0)
(-0.00179275 -0.00121356 0)
(-0.0013934 -0.00106657 0)
(-0.00104005 -0.000906917 0)
(-0.000735958 -0.000737514 0)
(-0.000483574 -0.000562916 0)
(-0.000284207 -0.000389977 0)
(-0.000137692 -0.000228575 0)
(-4.41164e-05 -9.2842e-05 0)
(-5.32051e-06 -4.76344e-06 0)
(-8.16158e-06 3.03947e-05 0)
(-5.91456e-05 0.000167442 0)
(-0.000177133 0.000357975 0)
(-0.000356747 0.000578792 0)
(-0.000596171 0.0008108 0)
(-0.000894722 0.0010416 0)
(-0.00125019 0.00126346 0)
(-0.00165942 0.00147143 0)
(-0.00211853 0.00166242 0)
(-0.00262319 0.00183462 0)
(-0.00316877 0.00198707 0)
(-0.00375044 0.00211953 0)
(-0.00436335 0.00223222 0)
(-0.00500268 0.00232572 0)
(-0.00566375 0.00240089 0)
(-0.00634208 0.00245876 0)
(-0.00703338 0.00250043 0)
(-0.00773362 0.00252709 0)
(-0.00843901 0.00253993 0)
(-0.00914606 0.00254013 0)
(-0.00985157 0.00252884 0)
(-0.0105526 0.00250715 0)
(-0.0112463 0.00247606 0)
(-0.0119305 0.00243652 0)
(-0.0126027 0.00238938 0)
(-0.0132611 0.00233541 0)
(-0.0139037 0.00227532 0)
(-0.014529 0.00220974 0)
(-0.0151355 0.00213923 0)
(-0.0157218 0.00206429 0)
(-0.0162869 0.00198537 0)
(-0.0168294 0.00190283 0)
(-0.0173486 0.00181704 0)
(-0.0178435 0.00172828 0)
(-0.0183133 0.00163683 0)
(-0.0187572 0.00154292 0)
(-0.0191747 0.0014468 0)
(-0.0195651 0.00134864 0)
(-0.0199278 0.00124864 0)
(-0.0202624 0.00114699 0)
(-0.0205684 0.00104382 0)
(-0.0208453 0.000939272 0)
(-0.0210929 0.000833527 0)
(-0.0213108 0.000726716 0)
(-0.0214986 0.000618949 0)
(-0.0216562 0.000510376 0)
(-0.0217834 0.000401134 0)
(-0.0218799 0.000291327 0)
(-0.0219456 0.000181084 0)
(-0.0219805 7.05453e-05 0)
(-0.0219844 -4.01748e-05 0)
(-0.0219574 -0.000150958 0)
(-0.0218994 -0.000261665 0)
(-0.0218104 -0.000372167 0)
(-0.0216907 -0.000482339 0)
(-0.0215403 -0.000592048 0)
(-0.0213592 -0.000701153 0)
(-0.0211479 -0.000809515 0)
(-0.0209064 -0.000916994 0)
(-0.0206351 -0.00102344 0)
(-0.0203343 -0.0011287 0)
(-0.0200043 -0.00123259 0)
(-0.0196457 -0.00133493 0)
(-0.0192589 -0.00143554 0)
(-0.0188444 -0.00153421 0)
(-0.0184027 -0.00163069 0)
(-0.0179347 -0.00172474 0)
(-0.0174409 -0.0018161 0)
(-0.0169222 -0.00190446 0)
(-0.0163795 -0.00198949 0)
(-0.0158138 -0.00207082 0)
(-0.0152261 -0.00214804 0)
(-0.0146178 -0.00222068 0)
(-0.0139901 -0.00228823 0)
(-0.0133446 -0.00235009 0)
(-0.012683 -0.00240562 0)
(-0.0120071 -0.00245409 0)
(-0.011319 -0.0024947 0)
(-0.010621 -0.00252657 0)
(-0.00991562 -0.00254876 0)
(-0.00920557 -0.00256026 0)
(-0.00849391 -0.00255997 0)
(-0.00778393 -0.00254674 0)
(-0.0070792 -0.00251941 0)
(-0.00638355 -0.00247677 0)
(-0.00570108 -0.00241764 0)
(-0.00503611 -0.00234092 0)
(-0.00439319 -0.00224559 0)
(-0.00377702 -0.00213084 0)
(-0.00319242 -0.00199612 0)
(-0.00264423 -0.00184129 0)
(-0.00213721 -0.00166675 0)
(-0.00167589 -0.00147364 0)
(-0.0012645 -0.00126414 0)
(-0.00090674 -0.0010418 0)
(-0.000605688 -0.00081202 0)
(-0.00036346 -0.000582634 0)
(-0.000180983 -0.0003646 0)
(-6.05624e-05 -0.000173079 0)
(-8.17905e-06 -3.09163e-05 0)
(-1.06039e-05 6.40217e-05 0)
(-7.4413e-05 0.000266689 0)
(-0.000218116 0.000522241 0)
(-0.000432286 0.000807272 0)
(-0.000712707 0.00110205 0)
(-0.00105758 0.00139343 0)
(-0.00146392 0.0016728 0)
(-0.0019279 0.00193454 0)
(-0.00244518 0.002175 0)
(-0.00301104 0.00239197 0)
(-0.00362048 0.00258431 0)
(-0.00426836 0.00275165 0)
(-0.00494953 0.00289422 0)
(-0.00565884 0.0030127 0)
(-0.00639131 0.00310809 0)
(-0.00714215 0.0031816 0)
(-0.00790678 0.00323461 0)
(-0.00868087 0.00326855 0)
(-0.00946036 0.0032849 0)
(-0.0102415 0.00328511 0)
(-0.0110208 0.00327059 0)
(-0.011795 0.00324269 0)
(-0.0125612 0.0032027 0)
(-0.0133167 0.0031518 0)
(-0.0140591 0.00309108 0)
(-0.0147862 0.00302153 0)
(-0.015496 0.00294404 0)
(-0.0161867 0.00285942 0)
(-0.0168567 0.0027684 0)
(-0.0175045 0.0026716 0)
(-0.0181287 0.0025696 0)
(-0.0187281 0.00246292 0)
(-0.0193018 0.00235197 0)
(-0.0198486 0.00223717 0)
(-0.0203677 0.00211887 0)
(-0.0208583 0.00199737 0)
(-0.0213196 0.00187296 0)
(-0.021751 0.00174594 0)
(-0.0221519 0.00161651 0)
(-0.0225215 0.00148489 0)
(-0.0228597 0.00135132 0)
(-0.0231657 0.00121598 0)
(-0.0234392 0.00107905 0)
(-0.0236799 0.000940726 0)
(-0.0238875 0.000801185 0)
(-0.0240616 0.000660584 0)
(-0.024202 0.000519096 0)
(-0.0243086 0.00037689 0)
(-0.0243812 0.000234128 0)
(-0.0244196 9.0967e-05 0)
(-0.0244238 -5.24235e-05 0)
(-0.0243938 -0.000195873 0)
(-0.0243296 -0.000339222 0)
(-0.0242313 -0.000482309 0)
(-0.0240988 -0.000624952 0)
(-0.0239325 -0.000766972 0)
(-0.0237323 -0.000908203 0)
(-0.0234987 -0.00104847 0)
(-0.0232317 -0.00118757 0)
(-0.0229318 -0.0013253 0)
(-0.0225994 -0.00146147 0)
(-0.0222347 -0.00159585 0)
(-0.0218384 -0.00172822 0)
(-0.0214109 -0.00185831 0)
(-0.0209528 -0.00198585 0)
(-0.0204648 -0.00211056 0)
(-0.0199477 -0.00223211 0)
(-0.0194022 -0.00235015 0)
(-0.0188291 -0.00246429 0)
(-0.0182296 -0.0025741 0)
(-0.0176048 -0.00267911 0)
(-0.0169557 -0.00277877 0)
(-0.0162839 -0.00287249 0)
(-0.0155908 -0.00295959 0)
(-0.0148781 -0.00303933 0)
(-0.0141476 -0.00311086 0)
(-0.0134013 -0.00317325 0)
(-0.0126416 -0.00322551 0)
(-0.011871 -0.00326651 0)
(-0.0110922 -0.00329507 0)
(-0.0103081 -0.00330991 0)
(-0.00952211 -0.00330966 0)
(-0.00873775 -0.0032929 0)
(-0.00795884 -0.00325817 0)
(-0.00718952 -0.00320403 0)
(-0.00643416 -0.00312902 0)
(-0.00569739 -0.00303181 0)
(-0.00498405 -0.0029112 0)
(-0.00429914 -0.00276626 0)
(-0.00364779 -0.00259638 0)
(-0.00303515 -0.00240144 0)
(-0.00246629 -0.00218194 0)
(-0.00194611 -0.0019393 0)
(-0.00147928 -0.00167609 0)
(-0.00107003 -0.00139637 0)
(-0.000722144 -0.00110616 0)
(-0.000438672 -0.000813998 0)
(-0.000221724 -0.000531483 0)
(-7.58038e-05 -0.00027423 0)
(-1.07444e-05 -6.52718e-05 0)
(-1.27992e-05 0.000105126 0)
(-8.83706e-05 0.000385654 0)
(-0.00025612 0.00071586 0)
(-0.000502913 0.00107256 0)
(-0.000822343 0.00143607 0)
(-0.0012114 0.00179283 0)
(-0.0016662 0.00213374 0)
(-0.00218222 0.00245268 0)
(-0.00275459 0.00274558 0)
(-0.00337813 0.00300994 0)
(-0.0040475 0.00324442 0)
(-0.00475724 0.00344859 0)
(-0.00550189 0.00362271 0)
(-0.00627606 0.00376755 0)
(-0.0070745 0.00388426 0)
(-0.00789212 0.00397425 0)
(-0.00872411 0.00403916 0)
(-0.00956589 0.00408067 0)
(-0.0104132 0.00410055 0)
(-0.011262 0.00410054 0)
(-0.0121085 0.00408235 0)
(-0.0129494 0.00404759 0)
(-0.0137816 0.00399783 0)
(-0.0146021 0.0039345 0)
(-0.0154084 0.00385892 0)
(-0.016198 0.00377234 0)
(-0.0169688 0.00367584 0)
(-0.017719 0.00357041 0)
(-0.0184466 0.00345696 0)
(-0.0191501 0.00333628 0)
(-0.0198281 0.00320907 0)
(-0.0204792 0.00307597 0)
(-0.0211023 0.00293753 0)
(-0.0216963 0.00279423 0)
(-0.0222602 0.00264653 0)
(-0.0227931 0.00249484 0)
(-0.0232942 0.0023395 0)
(-0.0237628 0.00218084 0)
(-0.0241982 0.00201919 0)
(-0.0245998 0.0018548 0)
(-0.024967 0.00168793 0)
(-0.0252994 0.00151885 0)
(-0.0255966 0.00134779 0)
(-0.025858 0.00117497 0)
(-0.0260834 0.00100061 0)
(-0.0262724 0.000824941 0)
(-0.0264249 0.000648162 0)
(-0.0265406 0.000470471 0)
(-0.0266194 0.000292092 0)
(-0.026661 0.000113231 0)
(-0.0266656 -6.59192e-05 0)
(-0.0266329 -0.000245149 0)
(-0.0265631 -0.000424239 0)
(-0.0264561 -0.000602979 0)
(-0.0263122 -0.00078116 0)
(-0.0261314 -0.000958563 0)
(-0.0259139 -0.00113496 0)
(-0.0256599 -0.00131013 0)
(-0.0253699 -0.00148382 0)
(-0.0250441 -0.0016558 0)
(-0.0246828 -0.00182581 0)
(-0.0242867 -0.00199356 0)
(-0.0238561 -0.00215876 0)
(-0.0233917 -0.0023211 0)
(-0.0228941 -0.00248024 0)
(-0.0223641 -0.00263582 0)
(-0.0218023 -0.00278743 0)
(-0.0212098 -0.00293463 0)
(-0.0205875 -0.00307695 0)
(-0.0199364 -0.00321385 0)
(-0.0192578 -0.00334471 0)
(-0.018553 -0.00346889 0)
(-0.0178235 -0.00358562 0)
(-0.0170709 -0.00369407 0)
(-0.0162971 -0.00379332 0)
(-0.015504 -0.00388232 0)
(-0.0146937 -0.00395995 0)
(-0.0138689 -0.00402496 0)
(-0.0130321 -0.00407601 0)
(-0.0121863 -0.00411164 0)
(-0.0113347 -0.00413029 0)
(-0.0104808 -0.00413031 0)
(-0.00962829 -0.00411 0)
(-0.00878135 -0.00406761 0)
(-0.0079443 -0.00400143 0)
(-0.00712176 -0.00390974 0)
(-0.00631861 -0.00379099 0)
(-0.00553995 -0.00364378 0)
(-0.00479106 -0.00346704 0)
(-0.00407732 -0.00326009 0)
(-0.00340417 -0.00302279 0)
(-0.00277702 -0.00275577 0)
(-0.00220118 -0.00246061 0)
(-0.00168176 -0.00214019 0)
(-0.0012236 -0.00179893 0)
(-0.000831252 -0.00144328 0)
(-0.000508735 -0.00108217 0)
(-0.00025935 -0.000727484 0)
(-8.96753e-05 -0.000394879 0)
(-1.30006e-05 -0.000107098 0)
(-1.47802e-05 0.000153029 0)
(-0.000101014 0.000522785 0)
(-0.000290877 0.000936813 0)
(-0.000568033 0.00137249 0)
(-0.000924077 0.00181051 0)
(-0.00135482 0.00223734 0)
(-0.00185541 0.0026436 0)
(-0.0024206 0.00302289 0)
(-0.00304493 0.00337089 0)
(-0.00372277 0.0036849 0)
(-0.00444838 0.00396344 0)
(-0.00521598 0.00420606 0)
(-0.00601983 0.00441305 0)
(-0.00685429 0.0045853 0)
(-0.00771385 0.00472415 0)
(-0.00859321 0.00483124 0)
(-0.00948732 0.0049084 0)
(-0.0103914 0.00495763 0)
(-0.0113009 0.00498097 0)
(-0.0122117 0.00498045 0)
(-0.0131199 0.00495808 0)
(-0.0140219 0.00491579 0)
(-0.0149143 0.00485539 0)
(-0.0157941 0.00477859 0)
(-0.0166586 0.00468698 0)
(-0.0175052 0.00458201 0)
(-0.0183317 0.00446501 0)
(-0.0191359 0.00433716 0)
(-0.019916 0.00419954 0)
(-0.0206703 0.00405311 0)
(-0.0213972 0.00389873 0)
(-0.0220953 0.00373715 0)
(-0.0227634 0.00356905 0)
(-0.0234003 0.00339505 0)
(-0.0240049 0.00321566 0)
(-0.0245763 0.00303139 0)
(-0.0251136 0.00284268 0)
(-0.025616 0.00264993 0)
(-0.0260828 0.00245349 0)
(-0.0265134 0.00225373 0)
(-0.0269071 0.00205096 0)
(-0.0272635 0.00184548 0)
(-0.027582 0.00163759 0)
(-0.0278623 0.00142756 0)
(-0.0281039 0.00121566 0)
(-0.0283066 0.00100214 0)
(-0.02847 0.000787284 0)
(-0.028594 0.000571333 0)
(-0.0286783 0.000354538 0)
(-0.028723 0.000137154 0)
(-0.0287277 -8.05701e-05 0)
(-0.0286926 -0.000298377 0)
(-0.0286177 -0.00051601 0)
(-0.0285029 -0.000733217 0)
(-0.0283485 -0.000949732 0)
(-0.0281546 -0.00116528 0)
(-0.0279213 -0.00137961 0)
(-0.027649 -0.00159242 0)
(-0.0273379 -0.00180343 0)
(-0.0269885 -0.00201233 0)
(-0.0266012 -0.00221882 0)
(-0.0261764 -0.00242254 0)
(-0.0257147 -0.00262315 0)
(-0.0252168 -0.00282026 0)
(-0.0246833 -0.00301346 0)
(-0.0241149 -0.00320232 0)
(-0.0235127 -0.00338633 0)
(-0.0228774 -0.00356497 0)
(-0.0222102 -0.00373766 0)
(-0.0215122 -0.00390372 0)
(-0.0207847 -0.00406245 0)
(-0.0200292 -0.00421303 0)
(-0.0192472 -0.00435455 0)
(-0.0184404 -0.00448601 0)
(-0.0176108 -0.00460628 0)
(-0.0167606 -0.00471415 0)
(-0.015892 -0.00480824 0)
(-0.0150076 -0.00488709 0)
(-0.0141104 -0.00494907 0)
(-0.0132033 -0.00499247 0)
(-0.0122898 -0.00501544 0)
(-0.0113735 -0.00501604 0)
(-0.0104585 -0.00499229 0)
(-0.00954888 -0.00494214 0)
(-0.00864933 -0.00486358 0)
(-0.00776464 -0.00475466 0)
(-0.00689993 -0.00461357 0)
(-0.00606052 -0.00443873 0)
(-0.00525193 -0.00422889 0)
(-0.00447981 -0.00398327 0)
(-0.00374989 -0.00370172 0)
(-0.00306793 -0.0033849 0)
(-0.00243965 -0.00303453 0)
(-0.00187065 -0.00265363 0)
(-0.0013664 -0.00224688 0)
(-0.000932253 -0.00182093 0)
(-0.000573204 -0.00138487 0)
(-0.000293686 -0.000950579 0)
(-0.000102168 -0.000533472 0)
(-1.49727e-05 -0.000155653 0)
(-1.65322e-05 0.000207026 0)
(-0.000112389 0.000676452 0)
(-0.000322422 0.00118296 0)
(-0.000627558 0.00170461 0)
(-0.00101764 0.0022228 0)
(-0.00148737 0.00272423 0)
(-0.00203097 0.00319953 0)
(-0.0026424 0.00364217 0)
(-0.0033156 0.00404773 0)
(-0.00404446 0.00441338 0)
(-0.00482286 0.00473765 0)
(-0.00564466 0.00502008 0)
(-0.00650384 0.00526104 0)
(-0.00739449 0.00546156 0)
(-0.00831089 0.00562317 0)
(-0.00924753 0.00574773 0)
(-0.0101992 0.00583735 0)
(-0.0111608 0.00589431 0)
(-0.0121278 0.00592093 0)
(-0.0130957 0.00591955 0)
(-0.0140605 0.00589249 0)
(-0.0150185 0.00584196 0)
(-0.0159662 0.00577007 0)
(-0.0169004 0.00567882 0)
(-0.0178182 0.00557004 0)
(-0.0187169 0.00544543 0)
(-0.0195942 0.00530653 0)
(-0.0204479 0.00515476 0)
(-0.021276 0.00499136 0)
(-0.0220766 0.00481747 0)
(-0.0228482 0.00463412 0)
(-0.0235892 0.00444218 0)
(-0.0242983 0.00424247 0)
(-0.0249743 0.0040357 0)
(-0.025616 0.00382253 0)
(-0.0262225 0.00360352 0)
(-0.0267927 0.00337921 0)
(-0.027326 0.00315009 0)
(-0.0278214 0.00291658 0)
(-0.0282784 0.0026791 0)
(-0.0286963 0.00243803 0)
(-0.0290745 0.00219374 0)
(-0.0294125 0.00194656 0)
(-0.0297099 0.00169684 0)
(-0.0299663 0.00144489 0)
(-0.0301814 0.00119104 0)
(-0.0303548 0.000935576 0)
(-0.0304863 0.000678813 0)
(-0.0305758 0.000421054 0)
(-0.0306231 0.000162601 0)
(-0.0306281 -9.62514e-05 0)
(-0.0305908 -0.000355199 0)
(-0.0305112 -0.000613932 0)
(-0.0303894 -0.000872148 0)
(-0.0302254 -0.00112953 0)