/*--------------------------------*- C++ -*----------------------------------*\
| =========                 |                                                 |
| \\      /  F ield         | OpenFOAM: The Open Source CFD Toolbox           |
|  \\    /   O peration     | Version:  2212                                  |
|   \\  /    A nd           | Website:  www.openfoam.com                      |
|    \\/     M anipulation  |                                                 |
\*---------------------------------------------------------------------------*/
FoamFile
{
    version     2.0;
    format      ascii;
    arch        "LSB;label=32;scalar=64";
    class       volVectorField;
    location    "0.0285";
    object      U_0;
}
// * * * * * * * * * * * * * * * * * * * * * * * * * * * * * * * * * * * * * //

dimensions      [0 1 -1 0 0 0 0];

internalField   nonuniform List<vector> 
10000
(
(1.53159e-06 -3.98893e-06 0)
(1.26232e-05 -7.70416e-06 0)
(2.63445e-05 -6.90623e-06 0)
(3.85577e-05 -5.22813e-06 0)
(4.3829e-05 -2.79141e-06 0)
(4.15974e-05 -4.58943e-08 0)
(3.11076e-05 2.78083e-06 0)
(1.21425e-05 5.56153e-06 0)
(-1.52021e-05 8.22659e-06 0)
(-5.0632e-05 1.07407e-05 0)
(-9.37392e-05 1.30855e-05 0)
(-0.000144042 1.52479e-05 0)
(-0.000201006 1.72188e-05 0)
(-0.000264074 1.89977e-05 0)
(-0.000332679 2.05897e-05 0)
(-0.000406246 2.19998e-05 0)
(-0.000484206 2.32318e-05 0)
(-0.000565992 2.42888e-05 0)
(-0.000651053 2.5179e-05 0)
(-0.000738852 2.59113e-05 0)
(-0.000828865 2.64907e-05 0)
(-0.000920592 2.69235e-05 0)
(-0.00101354 2.72123e-05 0)
(-0.00110724 2.73603e-05 0)
(-0.00120124 2.7378e-05 0)
(-0.0012951 2.72722e-05 0)
(-0.0013884 2.70465e-05 0)
(-0.00148076 2.67084e-05 0)
(-0.00157178 2.62636e-05 0)
(-0.00166112 2.5715e-05 0)
(-0.00174842 2.50696e-05 0)
(-0.00183338 2.43356e-05 0)
(-0.00191569 2.35181e-05 0)
(-0.00199506 2.26217e-05 0)
(-0.00207122 2.1651e-05 0)
(-0.00214392 2.06084e-05 0)
(-0.00221292 1.94973e-05 0)
(-0.00227799 1.83246e-05 0)
(-0.00233895 1.70979e-05 0)
(-0.00239559 1.58208e-05 0)
(-0.00244775 1.44952e-05 0)
(-0.00249526 1.3125e-05 0)
(-0.00253799 1.17163e-05 0)
(-0.00257579 1.0273e-05 0)
(-0.00260857 8.79763e-06 0)
(-0.00263621 7.29411e-06 0)
(-0.00265863 5.76833e-06 0)
(-0.00267576 4.22554e-06 0)
(-0.00268753 2.66833e-06 0)
(-0.00269391 1.09797e-06 0)
(-0.00269487 -4.81789e-07 0)
(-0.00269039 -2.0644e-06 0)
(-0.00268046 -3.64371e-06 0)
(-0.00266511 -5.21545e-06 0)
(-0.00264437 -6.77689e-06 0)
(-0.00261827 -8.3251e-06 0)
(-0.0025869 -9.85464e-06 0)
(-0.00255031 -1.13583e-05 0)
(-0.00250862 -1.28302e-05 0)
(-0.00246194 -1.42662e-05 0)
(-0.00241039 -1.56628e-05 0)
(-0.00235413 -1.70153e-05 0)
(-0.00229332 -1.83175e-05 0)
(-0.00222816 -1.95619e-05 0)
(-0.00215885 -2.07421e-05 0)
(-0.00208562 -2.18532e-05 0)
(-0.00200871 -2.28906e-05 0)
(-0.0019284 -2.38484e-05 0)
(-0.00184497 -2.47207e-05 0)
(-0.00175872 -2.55008e-05 0)
(-0.00166998 -2.61822e-05 0)
(-0.00157911 -2.67585e-05 0)
(-0.00148647 -2.72243e-05 0)
(-0.00139244 -2.75744e-05 0)
(-0.00129744 -2.78028e-05 0)
(-0.00120188 -2.79033e-05 0)
(-0.00110623 -2.78698e-05 0)
(-0.00101093 -2.76955e-05 0)
(-0.00091649 -2.73737e-05 0)
(-0.000823398 -2.68979e-05 0)
(-0.000732176 -2.62629e-05 0)
(-0.000643358 -2.5464e-05 0)
(-0.000557489 -2.44972e-05 0)
(-0.000475123 -2.3359e-05 0)
(-0.000396826 -2.20458e-05 0)
(-0.000323167 -2.05542e-05 0)
(-0.000254715 -1.88813e-05 0)
(-0.000192037 -1.70258e-05 0)
(-0.000135688 -1.49892e-05 0)
(-8.62034e-05 -1.27753e-05 0)
(-4.40857e-05 -1.03902e-05 0)
(-9.78286e-06 -7.84597e-06 0)
(1.63373e-05 -5.16632e-06 0)
(3.40343e-05 -2.39513e-06 0)
(4.32718e-05 3.86747e-07 0)
(4.434e-05 3.03248e-06 0)
(3.8035e-05 5.27283e-06 0)
(2.60467e-05 6.60117e-06 0)
(1.2114e-05 6.09754e-06 0)
(2.66112e-06 2.66258e-06 0)
(4.52927e-06 -1.18957e-05 0)
(2.1352e-05 -2.49994e-05 0)
(4.25391e-05 -2.27961e-05 0)
(5.54346e-05 -1.39149e-05 0)
(5.30999e-05 -8.66512e-07 0)
(3.20963e-05 1.43677e-05 0)
(-9.63348e-06 3.05541e-05 0)
(-7.3011e-05 4.69155e-05 0)
(-0.000158134 6.29545e-05 0)
(-0.000264541 7.83576e-05 0)
(-0.000391391 9.29249e-05 0)
(-0.000537574 0.000106528 0)
(-0.000701813 0.000119085 0)
(-0.000882711 0.000130548 0)
(-0.00107881 0.000140896 0)
(-0.0012886 0.000150127 0)
(-0.00151057 0.000158246 0)
(-0.00174319 0.00016527 0)
(-0.00198498 0.000171218 0)
(-0.00223445 0.000176123 0)
(-0.00249015 0.000180017 0)
(-0.00275069 0.000182929 0)
(-0.0030147 0.000184893 0)
(-0.00328086 0.000185942 0)
(-0.00354789 0.000186108 0)
(-0.00381457 0.00018543 0)
(-0.00407973 0.000183948 0)
(-0.00434224 0.0001817 0)
(-0.00460102 0.000178723 0)
(-0.00485505 0.000175051 0)
(-0.00510338 0.000170722 0)
(-0.00534506 0.000165773 0)
(-0.00557923 0.000160238 0)
(-0.00580508 0.00015415 0)
(-0.00602183 0.000147544 0)
(-0.00622875 0.000140451 0)
(-0.00642515 0.000132902 0)
(-0.00661041 0.000124931 0)
(-0.00678395 0.00011657 0)
(-0.0069452 0.00010785 0)
(-0.00709368 9.87992e-05 0)
(-0.00722894 8.94475e-05 0)
(-0.00735055 7.98246e-05 0)
(-0.00745814 6.99588e-05 0)
(-0.00755138 5.98772e-05 0)
(-0.00762998 4.96084e-05 0)
(-0.0076937 3.91831e-05 0)
(-0.00774234 2.86302e-05 0)
(-0.00777571 1.79767e-05 0)
(-0.0077937 7.2488e-06 0)
(-0.00779623 -3.5256e-06 0)
(-0.00778326 -1.43149e-05 0)
(-0.0077548 -2.50872e-05 0)
(-0.00771088 -3.58119e-05 0)
(-0.00765161 -4.64594e-05 0)
(-0.00757711 -5.69987e-05 0)
(-0.00748759 -6.73969e-05 0)
(-0.00738326 -7.76186e-05 0)
(-0.00726442 -8.76287e-05 0)
(-0.00713138 -9.73931e-05 0)
(-0.00698454 -0.000106878 0)
(-0.00682432 -0.000116048 0)
(-0.00665122 -0.000124865 0)
(-0.00646576 -0.000133288 0)
(-0.00626856 -0.000141277 0)
(-0.00606024 -0.000148795 0)
(-0.00584153 -0.000155804 0)
(-0.00561318 -0.000162266 0)
(-0.00537601 -0.000168139 0)
(-0.00513091 -0.000173382 0)
(-0.00487879 -0.000177955 0)
(-0.00462066 -0.000181817 0)
(-0.00435755 -0.000184931 0)
(-0.00409056 -0.000187257 0)
(-0.00382085 -0.000188758 0)
(-0.00354963 -0.000189394 0)
(-0.00327815 -0.000189127 0)
(-0.00300773 -0.000187919 0)
(-0.00273973 -0.000185735 0)
(-0.00247553 -0.000182542 0)
(-0.00221658 -0.000178313 0)
(-0.00196435 -0.00017302 0)
(-0.00172034 -0.000166644 0)
(-0.00148607 -0.000159167 0)
(-0.00126307 -0.000150578 0)
(-0.00105287 -0.000140875 0)
(-0.000856977 -0.00013006 0)
(-0.000676885 -0.000118154 0)
(-0.000514014 -0.000105191 0)
(-0.000369702 -9.12336e-05 0)
(-0.000245151 -7.6375e-05 0)
(-0.000141372 -6.07579e-05 0)
(-5.90959e-05 -4.46005e-05 0)
(1.35051e-06 -2.82382e-05 0)
(4.02252e-05 -1.21948e-05 0)
(5.86292e-05 2.70712e-06 0)
(5.88187e-05 1.51691e-05 0)
(4.47214e-05 2.31392e-05 0)
(2.3442e-05 2.34463e-05 0)
(6.08676e-06 1.2102e-05 0)
(6.08928e-06 -2.55281e-05 0)
(2.18621e-05 -4.44149e-05 0)
(3.59547e-05 -3.68797e-05 0)
(3.57169e-05 -1.29381e-05 0)
(1.25247e-05 2.1118e-05 0)
(-3.84592e-05 6.10234e-05 0)
(-0.000120178 0.000103845 0)
(-0.000234113 0.000147585 0)
(-0.000380624 0.000190884 0)
(-0.000559229 0.000232812 0)
(-0.000768859 0.000272746 0)
(-0.00100801 0.00031026 0)
(-0.00127488 0.000345073 0)
(-0.00156743 0.000377005 0)
(-0.00188352 0.000405952 0)
(-0.00222089 0.000431863 0)
(-0.00257724 0.000454728 0)
(-0.00295025 0.000474566 0)
(-0.00333762 0.000491419 0)
(-0.00373706 0.000505343 0)
(-0.00414632 0.000516417 0)
(-0.0045632 0.000524721 0)
(-0.00498555 0.000530335 0)
(-0.00541129 0.000533352 0)
(-0.00583841 0.000533868 0)
(-0.00626497 0.000531979 0)
(-0.0066891 0.000527788 0)
(-0.00710903 0.000521402 0)
(-0.00752303 0.000512923 0)
(-0.00792946 0.000502451 0)
(-0.00832679 0.000490088 0)
(-0.00871353 0.000475937 0)
(-0.00908828 0.000460091 0)
(-0.00944973 0.000442651 0)
(-0.00979663 0.000423712 0)
(-0.0101278 0.000403367 0)
(-0.0104422 0.000381709 0)
(-0.0107388 0.00035883 0)
(-0.0110165 0.000334822 0)
(-0.0112747 0.000309772 0)
(-0.0115123 0.000283765 0)
(-0.0117288 0.000256888 0)
(-0.0119235 0.000229225 0)
(-0.0120956 0.00020086 0)
(-0.0122448 0.000171875 0)
(-0.0123705 0.000142353 0)
(-0.0124724 0.000112378 0)
(-0.0125501 8.20317e-05 0)
(-0.0126034 5.13969e-05 0)
(-0.012632 2.05559e-05 0)
(-0.0126359 -1.04076e-05 0)
(-0.0126149 -4.14079e-05 0)
(-0.0125691 -7.23565e-05 0)
(-0.0124986 -0.000103164 0)
(-0.0124035 -0.000133742 0)
(-0.0122841 -0.000163998 0)
(-0.0121406 -0.000193838 0)
(-0.0119734 -0.000223164 0)
(-0.011783 -0.000251878 0)
(-0.01157 -0.000279881 0)
(-0.0113348 -0.00030707 0)
(-0.0110784 -0.000333343 0)
(-0.0108013 -0.000358591 0)
(-0.0105045 -0.000382705 0)
(-0.010189 -0.000405573 0)
(-0.0098557 -0.000427086 0)
(-0.00950586 -0.000447131 0)
(-0.00914066 -0.000465597 0)
(-0.00876141 -0.00048237 0)
(-0.0083695 -0.000497335 0)
(-0.00796644 -0.000510377 0)
(-0.0075538 -0.000521384 0)
(-0.00713324 -0.000530245 0)
(-0.00670652 -0.000536853 0)
(-0.00627547 -0.000541098 0)
(-0.00584202 -0.000542876 0)
(-0.00540815 -0.000542083 0)
(-0.00497594 -0.000538622 0)
(-0.00454752 -0.000532401 0)
(-0.00412509 -0.000523338 0)
(-0.0037109 -0.000511361 0)
(-0.00330724 -0.000496407 0)
(-0.00291646 -0.000478428 0)
(-0.00254088 -0.000457391 0)
(-0.00218288 -0.000433284 0)
(-0.00184479 -0.000406119 0)
(-0.00152889 -0.000375941 0)
(-0.00123742 -0.000342836 0)
(-0.000972481 -0.000306944 0)
(-0.000736002 -0.000268485 0)
(-0.000529685 -0.000227778 0)
(-0.000354896 -0.000185286 0)
(-0.000212545 -0.00014168 0)
(-0.000102914 -9.79261e-05 0)
(-2.54325e-05 -5.54333e-05 0)
(2.16227e-05 -1.62535e-05 0)
(4.1444e-05 1.66301e-05 0)
(3.91499e-05 3.89495e-05 0)
(2.3228e-05 4.4747e-05 0)
(6.60426e-06 2.60299e-05 0)
(4.93662e-06 -3.62334e-05 0)
(1.39976e-05 -5.66333e-05 0)
(1.33595e-05 -3.65011e-05 0)
(-9.19494e-06 1.00053e-05 0)
(-6.23483e-05 7.34396e-05 0)
(-0.000151466 0.000147126 0)
(-0.000279903 0.000226253 0)
(-0.000449429 0.000307383 0)
(-0.000660542 0.000388068 0)
(-0.00091276 0.000466566 0)
(-0.00120485 0.000541644 0)
(-0.00153503 0.000612443 0)
(-0.0019011 0.000678372 0)
(-0.00230055 0.000739029 0)
(-0.00273068 0.000794164 0)
(-0.00318862 0.000843636 0)
(-0.00367144 0.000887386 0)
(-0.00417615 0.000925415 0)
(-0.00469974 0.000957777 0)
(-0.00523924 0.000984561 0)
(-0.00579168 0.00100588 0)
(-0.00635416 0.00102187 0)
(-0.00692387 0.0010327 0)
(-0.00749802 0.00103852 0)
(-0.00807395 0.0010395 0)
(-0.00864907 0.00103584 0)
(-0.0092209 0.00102772 0)
(-0.00978702 0.00101533 0)
(-0.0103452 0.000998872 0)
(-0.0108931 0.000978536 0)
(-0.0114288 0.000954515 0)
(-0.0119502 0.000927002 0)
(-0.0124555 0.000896189 0)
(-0.0129429 0.00086226 0)
(-0.0134106 0.000825401 0)
(-0.0138572 0.000785795 0)
(-0.0142811 0.000743625 0)
(-0.014681 0.000699068 0)
(-0.0150556 0.000652298 0)
(-0.0154037 0.000603488 0)
(-0.0157241 0.000552807 0)
(-0.016016 0.000500423 0)
(-0.0162784 0.000446502 0)
(-0.0165106 0.000391207 0)
(-0.0167116 0.000334703 0)
(-0.0168811 0.000277152 0)
(-0.0170183 0.000218715 0)
(-0.017123 0.000159554 0)
(-0.0171946 9.98334e-05 0)
(-0.017233 3.97166e-05 0)
(-0.017238 -2.063e-05 0)
(-0.0172095 -8.10393e-05 0)
(-0.0171476 -0.000141342 0)
(-0.0170523 -0.000201363 0)
(-0.0169238 -0.000260926 0)
(-0.0167625 -0.00031985 0)
(-0.0165688 -0.000377951 0)
(-0.0163432 -0.000435042 0)
(-0.0160864 -0.000490932 0)
(-0.0157989 -0.000545426 0)
(-0.0154818 -0.000598326 0)
(-0.0151359 -0.000649426 0)
(-0.0147623 -0.000698521 0)
(-0.0143622 -0.0007454 0)
(-0.0139368 -0.000789849 0)
(-0.0134876 -0.000831654 0)
(-0.0130162 -0.000870597 0)
(-0.012524 -0.000906461 0)
(-0.012013 -0.000939024 0)
(-0.011485 -0.000968069 0)
(-0.010942 -0.000993376 0)
(-0.0103861 -0.00101473 0)
(-0.0098195 -0.00103192 0)
(-0.00924464 -0.00104473 0)
(-0.00866394 -0.00105296 0)
(-0.00807996 -0.00105642 0)
(-0.00749536 -0.00105491 0)
(-0.00691288 -0.00104826 0)
(-0.00633536 -0.0010363 0)
(-0.00576571 -0.00101889 0)
(-0.0052069 -0.00099589 0)
(-0.00466194 -0.000967208 0)
(-0.0041339 -0.000932765 0)
(-0.00362584 -0.00089252 0)
(-0.00314081 -0.000846475 0)
(-0.00268183 -0.000794685 0)
(-0.00225183 -0.000737273 0)
(-0.00185365 -0.000674445 0)
(-0.00148991 -0.000606523 0)
(-0.00116302 -0.000533971 0)
(-0.000875034 -0.000457456 0)
(-0.000627577 -0.000377909 0)
(-0.000421667 -0.000296628 0)
(-0.000257552 -0.000215423 0)
(-0.000134469 -0.000136806 0)
(-5.03649e-05 -6.42802e-05 0)
(-1.59688e-06 -2.68942e-06 0)
(1.74555e-05 4.13716e-05 0)
(1.55214e-05 5.9069e-05 0)
(5.32696e-06 3.81003e-05 0)
(2.81054e-06 -4.21793e-05 0)
(1.69169e-06 -5.47814e-05 0)
(-1.94388e-05 -1.38637e-05 0)
(-7.08883e-05 6.29582e-05 0)
(-0.000160593 0.000163477 0)
(-0.000293913 0.000278758 0)
(-0.000474234 0.000402147 0)
(-0.000703352 0.000528732 0)
(-0.000981765 0.000654893 0)
(-0.00130892 0.000777973 0)
(-0.00168344 0.00089603 0)
(-0.0021033 0.00100766 0)
(-0.00256597 0.00111188 0)
(-0.00306859 0.00120799 0)
(-0.00360797 0.00129554 0)
(-0.00418077 0.00137423 0)
(-0.0047835 0.00144394 0)
(-0.00541262 0.00150463 0)
(-0.00606452 0.00155632 0)
(-0.00673562 0.00159915 0)
(-0.00742236 0.00163326 0)
(-0.00812122 0.00165885 0)
(-0.00882875 0.00167615 0)
(-0.00954159 0.0016854 0)
(-0.0102565 0.00168689 0)
(-0.0109702 0.00168088 0)
(-0.0116798 0.00166768 0)
(-0.0123822 0.00164759 0)
(-0.0130747 0.0016209 0)
(-0.0137545 0.00158793 0)
(-0.0144191 0.00154899 0)
(-0.015066 0.00150439 0)
(-0.0156928 0.00145442 0)
(-0.0162974 0.00139939 0)
(-0.0168777 0.0013396 0)
(-0.0174318 0.00127535 0)
(-0.0179577 0.00120692 0)
(-0.0184538 0.00113461 0)
(-0.0189184 0.0010587 0)
(-0.0193502 0.000979465 0)
(-0.0197478 0.000897186 0)
(-0.0201098 0.000812133 0)
(-0.0204353 0.000724579 0)
(-0.0207232 0.00063479 0)
(-0.0209725 0.000543035 0)
(-0.0211826 0.000449578 0)
(-0.0213527 0.000354683 0)
(-0.0214824 0.000258615 0)
(-0.0215711 0.000161643 0)
(-0.0216185 6.40328e-05 0)
(-0.0216245 -3.39431e-05 0)
(-0.021589 -0.000132011 0)
(-0.0215119 -0.000229894 0)
(-0.0213934 -0.000327309 0)
(-0.0212338 -0.000423968 0)
(-0.0210335 -0.000519577 0)
(-0.020793 -0.000613837 0)
(-0.020513 -0.000706445 0)
(-0.0201942 -0.000797091 0)
(-0.0198375 -0.000885457 0)
(-0.0194441 -0.000971222 0)
(-0.0190149 -0.00105406 0)
(-0.0185515 -0.00113362 0)
(-0.0180552 -0.00120959 0)
(-0.0175277 -0.0012816 0)
(-0.0169706 -0.00134932 0)
(-0.016386 -0.00141239 0)
(-0.0157757 -0.00147047 0)
(-0.0151421 -0.00152319 0)
(-0.0144874 -0.00157022 0)
(-0.0138141 -0.00161119 0)
(-0.0131249 -0.00164577 0)
(-0.0124224 -0.00167361 0)
(-0.0117096 -0.00169439 0)
(-0.0109895 -0.00170777 0)
(-0.0102652 -0.00171347 0)
(-0.00954003 -0.00171117 0)
(-0.00881727 -0.00170061 0)
(-0.00810042 -0.00168154 0)
(-0.007393 -0.00165374 0)
(-0.00669863 -0.00161702 0)
(-0.00602097 -0.00157125 0)
(-0.00536369 -0.00151631 0)
(-0.00473048 -0.00145219 0)
(-0.00412501 -0.00137891 0)
(-0.00355085 -0.00129661 0)
(-0.00301149 -0.00120552 0)
(-0.00251023 -0.00110604 0)
(-0.00205016 -0.000998714 0)
(-0.00163405 -0.000884352 0)
(-0.00126426 -0.000764051 0)
(-0.000942598 -0.000639317 0)
(-0.000670221 -0.00051219 0)
(-0.000447406 -0.000385425 0)
(-0.000273361 -0.00026273 0)
(-0.00014597 -0.000149092 0)
(-6.15314e-05 -5.11849e-05 0)
(-1.44185e-05 2.21889e-05 0)
(3.49444e-06 5.95104e-05 0)
(3.17609e-06 4.46755e-05 0)
(2.62387e-07 -4.07541e-05 0)
(-1.2965e-05 -3.48255e-05 0)
(-5.82317e-05 3.59631e-05 0)
(-0.000142993 0.000151266 0)
(-0.000273843 0.000296534 0)
(-0.000455732 0.000460812 0)
(-0.00069177 0.000635735 0)
(-0.000983545 0.000814952 0)
(-0.00133139 0.000993671 0)
(-0.00173461 0.00116828 0)
(-0.00219162 0.00133606 0)
(-0.00270017 0.00149503 0)
(-0.00325747 0.00164371 0)
(-0.00386027 0.00178107 0)
(-0.00450506 0.00190639 0)
(-0.00518804 0.00201922 0)
(-0.00590527 0.00211928 0)
(-0.00665272 0.00220648 0)
(-0.00742628 0.00228083 0)
(-0.00822183 0.00234244 0)
(-0.00903529 0.00239152 0)
(-0.00986259 0.00242831 0)
(-0.0106997 0.00245312 0)
(-0.0115429 0.00246628 0)
(-0.0123881 0.00246818 0)
(-0.0132318 0.0024592 0)
(-0.0140705 0.00243976 0)
(-0.0149005 0.00241028 0)
(-0.0157187 0.0023712 0)
(-0.0165219 0.00232296 0)
(-0.017307 0.002266 0)
(-0.0180711 0.00220075 0)
(-0.0188116 0.00212767 0)
(-0.0195258 0.00204719 0)
(-0.0202112 0.00195974 0)
(-0.0208655 0.00186575 0)
(-0.0214867 0.00176565 0)
(-0.0220726 0.00165986 0)
(-0.0226214 0.00154879 0)
(-0.0231314 0.00143285 0)
(-0.0236008 0.00131244 0)
(-0.0240284 0.00118798 0)
(-0.0244127 0.00105984 0)
(-0.0247526 0.000928439 0)
(-0.025047 0.000794151 0)
(-0.025295 0.000657371 0)
(-0.0254957 0.00051849 0)
(-0.0256487 0.000377898 0)
(-0.0257533 0.000235986 0)
(-0.0258091 9.3149e-05 0)
(-0.025816 -5.02151e-05 0)
(-0.0257737 -0.000193704 0)
(-0.0256825 -0.000336908 0)
(-0.0255424 -0.000479412 0)
(-0.0253537 -0.000620796 0)
(-0.025117 -0.000760629 0)
(-0.0248328 -0.000898475 0)
(-0.0245019 -0.00103389 0)
(-0.0241253 -0.00116641 0)
(-0.023704 -0.00129559 0)
(-0.0232393 -0.00142095 0)
(-0.0227324 -0.001542 0)
(-0.0221852 -0.00165827 0)
(-0.0215991 -0.00176926 0)
(-0.0209762 -0.00187447 0)
(-0.0203184 -0.00197339 0)
(-0.0196281 -0.00206552 0)
(-0.0189076 -0.00215035 0)
(-0.0181595 -0.00222736 0)
(-0.0173865 -0.00229605 0)
(-0.0165916 -0.00235592 0)
(-0.0157777 -0.00240647 0)
(-0.0149482 -0.00244721 0)
(-0.0141064 -0.00247768 0)
(-0.0132557 -0.0024974 0)
(-0.0124 -0.00250595 0)
(-0.011543 -0.00250292 0)
(-0.0106886 -0.00248792 0)
(-0.00984073 -0.00246062 0)
(-0.00900362 -0.00242072 0)
(-0.00818139 -0.00236797 0)
(-0.00737827 -0.0023022 0)
(-0.00659847 -0.00222329 0)
(-0.00584624 -0.00213125 0)
(-0.00512573 -0.00202616 0)
(-0.00444105 -0.00190826 0)
(-0.00379611 -0.00177794 0)
(-0.00319466 -0.00163582 0)
(-0.00264015 -0.00148275 0)
(-0.00213567 -0.00131992 0)
(-0.00168385 -0.00114895 0)
(-0.00128672 -0.000971974 0)
(-0.000945591 -0.000791841 0)
(-0.000660874 -0.000612292 0)
(-0.000431908 -0.000438237 0)
(-0.00025676 -0.000276103 0)
(-0.000131976 -0.000134268 0)
(-5.23062e-05 -2.35173e-05 0)
(-1.08365e-05 4.23121e-05 0)
(6.52382e-07 4.41536e-05 0)
(-2.41355e-06 -3.12925e-05 0)
(-2.86903e-05 5.36508e-06 0)
(-0.000100175 0.000116049 0)
(-0.00022097 0.000278476 0)
(-0.000395958 0.000476251 0)
(-0.000629373 0.000696711 0)
(-0.000923808 0.000929969 0)
(-0.00128044 0.00116835 0)
(-0.00169929 0.00140594 0)
(-0.0021794 0.00163817 0)
(-0.00271895 0.00186155 0)
(-0.00331543 0.00207346 0)
(-0.00396576 0.00227192 0)
(-0.00466639 0.00245551 0)
(-0.00541344 0.00262321 0)
(-0.00620277 0.00277436 0)
(-0.00703004 0.00290853 0)
(-0.00789076 0.00302553 0)
(-0.0087804 0.00312534 0)
(-0.00969438 0.00320805 0)
(-0.0106281 0.0032739 0)
(-0.0115771 0.00332319 0)
(-0.0125369 0.0033563 0)
(-0.013503 0.00337366 0)
(-0.0144712 0.00337575 0)
(-0.0154374 0.0033631 0)
(-0.0163975 0.00333623 0)
(-0.0173476 0.00329572 0)
(-0.018284 0.00324214 0)
(-0.019203 0.00317608 0)
(-0.0201013 0.00309813 0)
(-0.0209755 0.00300888 0)
(-0.0218225 0.00290893 0)
(-0.0226394 0.00279887 0)
(-0.0234234 0.00267929 0)
(-0.0241719 0.00255078 0)
(-0.0248823 0.0024139 0)
(-0.0255523 0.00226924 0)
(-0.02618 0.00211736 0)
(-0.0267631 0.00195882 0)
(-0.0272999 0.00179416 0)
(-0.0277888 0.00162395 0)
(-0.0282282 0.00144872 0)
(-0.0286168 0.00126901 0)
(-0.0289534 0.00108536 0)
(-0.0292368 0.000898301 0)
(-0.0294663 0.000708373 0)
(-0.029641 0.000516111 0)
(-0.0297604 0.000322052 0)
(-0.0298241 0.000126736 0)
(-0.0298318 -6.92891e-05 0)
(-0.0297833 -0.000265472 0)
(-0.0296788 -0.000461252 0)
(-0.0295184 -0.00065606 0)
(-0.0293025 -0.000849319 0)
(-0.0290317 -0.00104044 0)
(-0.0287066 -0.00122883 0)
(-0.0283281 -0.00141388 0)
(-0.0278974 -0.00159497 0)
(-0.0274156 -0.00177146 0)
(-0.0268841 -0.00194271 0)
(-0.0263045 -0.00210808 0)
(-0.0256787 -0.00226689 0)
(-0.0250086 -0.00241848 0)
(-0.0242963 -0.00256217 0)
(-0.0235442 -0.00269727 0)
(-0.0227549 -0.0028231 0)
(-0.0219311 -0.00293896 0)
(-0.0210756 -0.00304416 0)
(-0.0201917 -0.00313803 0)
(-0.0192826 -0.00321987 0)
(-0.0183518 -0.00328903 0)
(-0.0174029 -0.00334485 0)
(-0.0164397 -0.0033867 0)
(-0.0154663 -0.00341398 0)
(-0.0144868 -0.0034261 0)
(-0.0135055 -0.00342252 0)
(-0.0125268 -0.00340275 0)
(-0.0115551 -0.00336636 0)
(-0.0105952 -0.00331297 0)
(-0.00965158 -0.00324227 0)
(-0.00872906 -0.00315406 0)
(-0.00783235 -0.00304824 0)
(-0.00696615 -0.00292483 0)
(-0.00613507 -0.00278401 0)
(-0.00534363 -0.00262615 0)
(-0.00459618 -0.00245184 0)
(-0.00389683 -0.00226194 0)
(-0.00324937 -0.00205765 0)
(-0.00265719 -0.00184061 0)
(-0.00212318 -0.00161297 0)
(-0.00164964 -0.00137755 0)
(-0.00123808 -0.00113802 0)
(-0.000889167 -0.000899091 0)
(-0.00060252 -0.000666839 0)
(-0.000376584 -0.00044902 0)
(-0.000208402 -0.000255531 0)
(-9.33894e-05 -9.88525e-05 0)
(-2.62331e-05 5.31773e-06 0)
(-1.98408e-06 3.58e-05 0)
(-5.07126e-06 -1.35521e-05 0)
(-4.47173e-05 6.68527e-05 0)
(-0.000143411 0.000228128 0)
(-0.000301716 0.000446745 0)
(-0.000522593 0.000704947 0)
(-0.000809366 0.000988691 0)
(-0.00116391 0.00128681 0)
(-0.00158683 0.00159045 0)
(-0.00207772 0.00189266 0)
(-0.00263525 0.00218796 0)
(-0.00325729 0.00247211 0)
(-0.00394103 0.00274185 0)
(-0.00468307 0.00299469 0)
(-0.0054796 0.00322878 0)
(-0.00632637 0.0034428 0)
(-0.00721891 0.00363583 0)
(-0.00815251 0.00380729 0)
(-0.00912231 0.00395686 0)
(-0.0101234 0.00408446 0)
(-0.0111507 0.00419018 0)
(-0.0121993 0.00427426 0)
(-0.0132642 0.00433705 0)
(-0.0143406 0.00437901 0)
(-0.0154235 0.00440067 0)
(-0.0165084 0.00440261 0)
(-0.0175905 0.00438548 0)
(-0.0186655 0.00434996 0)
(-0.0197291 0.00429676 0)
(-0.020777 0.00422662 0)
(-0.0218054 0.00414027 0)
(-0.0228104 0.00403849 0)
(-0.0237884 0.00392202 0)
(-0.0247359 0.00379163 0)
(-0.0256495 0.0036481 0)
(-0.0265263 0.00349217 0)
(-0.0273633 0.0033246 0)
(-0.0281577 0.00314615 0)
(-0.0289069 0.00295755 0)
(-0.0296086 0.00275954 0)
(-0.0302606 0.00255284 0)
(-0.0308608 0.00233819 0)
(-0.0314073 0.00211628 0)
(-0.0318985 0.00188783 0)
(-0.0323328 0.00165355 0)
(-0.032709 0.00141413 0)
(-0.0330257 0.00117028 0)
(-0.0332822 0.000922689 0)
(-0.0334774 0.000672062 0)
(-0.0336108 0.000419101 0)
(-0.0336818 0.000164513 0)
(-0.0336903 -9.09862e-05 0)
(-0.033636 -0.000346676 0)
(-0.033519 -0.000601827 0)
(-0.0333396 -0.000855695 0)
(-0.0330982 -0.00110753 0)
(-0.0327953 -0.00135656 0)
(-0.0324318 -0.00160202 0)
(-0.0320087 -0.0018431 0)
(-0.0315271 -0.00207901 0)
(-0.0309884 -0.00230891 0)
(-0.0303943 -0.00253198 0)
(-0.0297464 -0.00274737 0)
(-0.0290468 -0.00295422 0)
(-0.0282977 -0.00315166 0)
(-0.0275014 -0.00333881 0)
(-0.0266606 -0.00351478 0)
(-0.0257781 -0.00367869 0)
(-0.024857 -0.00382964 0)
(-0.0239005 -0.00396674 0)
(-0.022912 -0.00408912 0)
(-0.0218953 -0.0041959 0)
(-0.0208541 -0.00428622 0)
(-0.0197925 -0.00435926 0)
(-0.0187147 -0.00441421 0)
(-0.0176252 -0.00445029 0)
(-0.0165285 -0.00446678 0)
(-0.0154294 -0.004463 0)
(-0.0143326 -0.00443834 0)
(-0.0132432 -0.00439225 0)
(-0.0121661 -0.00432429 0)
(-0.0111066 -0.00423409 0)
(-0.0100698 -0.00412144 0)
(-0.00906081 -0.00398623 0)
(-0.0080848 -0.00382856 0)
(-0.00714679 -0.00364869 0)
(-0.00625169 -0.00344716 0)
(-0.00540422 -0.00322476 0)
(-0.00460882 -0.00298265 0)
(-0.00386962 -0.00272241 0)
(-0.00319032 -0.00244612 0)
(-0.00257409 -0.00215651 0)
(-0.00202351 -0.00185709 0)
(-0.00154042 -0.00155232 0)
(-0.0011258 -0.00124785 0)
(-0.000779689 -0.000950831 0)
(-0.000501084 -0.000670206 0)
(-0.000287703 -0.000417175 0)
(-0.000135823 -0.000205594 0)
(-4.195e-05 -5.25659e-05 0)
(-4.59956e-06 1.93495e-05 0)
(-7.64259e-06 1.24289e-05 0)
(-6.06097e-05 0.000149975 0)
(-0.000186771 0.000372957 0)
(-0.00038316 0.00065716 0)
(-0.000650756 0.000983893 0)
(-0.000991838 0.00133806 0)
(-0.00140743 0.00170744 0)
(-0.00189744 0.00208217 0)
(-0.00246093 0.00245438 0)
(-0.0030961 0.00281776 0)
(-0.00380044 0.00316735 0)
(-0.00457079 0.00349927 0)
(-0.00540345 0.00381052 0)
(-0.00629424 0.00409884 0)
(-0.00723863 0.00436256 0)
(-0.00823179 0.00460052 0)
(-0.00926867 0.00481195 0)
(-0.0103441 0.00499641 0)
(-0.0114527 0.00515375 0)
(-0.0125891 0.00528401 0)
(-0.013748 0.00538746 0)
(-0.014924 0.00546449 0)
(-0.0161119 0.00551562 0)
(-0.0173064 0.00554148 0)
(-0.0185024 0.00554277 0)
(-0.0196949 0.00552028 0)
(-0.0208792 0.00547483 0)
(-0.0220506 0.00540727 0)
(-0.0232045 0.00531852 0)
(-0.0243366 0.00520949 0)
(-0.0254427 0.00508111 0)
(-0.0265189 0.00493432 0)
(-0.0275614 0.00477009 0)
(-0.0285666 0.00458935 0)
(-0.0295312 0.00439305 0)
(-0.0304518 0.00418214 0)
(-0.0313255 0.00395755 0)
(-0.0321495 0.00372022 0)
(-0.0329212 0.00347105 0)
(-0.0336382 0.00321097 0)
(-0.0342981 0.00294088 0)
(-0.0348991 0.00266168 0)
(-0.0354391 0.00237426 0)
(-0.0359167 0.00207949 0)
(-0.0363302 0.00177828 0)
(-0.0366784 0.00147149 0)
(-0.0369603 0.00116002 0)
(-0.0371749 0.000844726 0)
(-0.0373214 0.000526512 0)
(-0.0373995 0.000206265 0)
(-0.0374088 -0.000115116 0)
(-0.037349 -0.000436722 0)
(-0.0372204 -0.000757633 0)
(-0.0370231 -0.00107692 0)
(-0.0367576 -0.00139363 0)
(-0.0364246 -0.0017068 0)
(-0.036025 -0.00201546 0)
(-0.0355598 -0.0023186 0)
(-0.0350303 -0.00261523 0)
(-0.0344381 -0.0029043 0)
(-0.0337848 -0.00318477 0)
(-0.0330725 -0.00345558 0)
(-0.0323033 -0.00371566 0)
(-0.0314796 -0.00396391 0)
(-0.030604 -0.00419923 0)
(-0.0296795 -0.00442053 0)
(-0.028709 -0.00462669 0)
(-0.0276959 -0.00481661 0)
(-0.0266438 -0.00498916 0)
(-0.0255563 -0.00514327 0)
(-0.0244376 -0.00527786 0)
(-0.0232918 -0.00539185 0)
(-0.0221232 -0.00548423 0)
(-0.0209366 -0.005554 0)
(-0.0197366 -0.00560021 0)
(-0.0185283 -0.00562199 0)
(-0.0173167 -0.00561849 0)
(-0.0161072 -0.005589 0)
(-0.0149051 -0.00553286 0)
(-0.0137158 -0.00544953 0)
(-0.0125449 -0.00533863 0)
(-0.011398 -0.00519989 0)
(-0.0102806 -0.00503326 0)
(-0.00919818 -0.00483888 0)
(-0.00815622 -0.00461715 0)
(-0.00715997 -0.00436876 0)
(-0.00621449 -0.00409474 0)
(-0.00532457 -0.00379656 0)
(-0.00449466 -0.00347618 0)
(-0.00372878 -0.00313616 0)
(-0.00303043 -0.00277979 0)
(-0.00240252 -0.00241123 0)
(-0.00184726 -0.00203573 0)
(-0.00136607 -0.00165982 0)
(-0.000959516 -0.00129157 0)
(-0.000627248 -0.000940984 0)
(-0.000367801 -0.000620331 0)
(-0.000178431 -0.000344538 0)
(-5.75509e-05 -0.0001317 0)
(-7.12908e-06 -5.1788e-06 0)
(-1.01e-05 4.64664e-05 0)
(-7.61236e-05 0.000254603 0)
(-0.000229545 0.000550631 0)
(-0.000463983 0.000910051 0)
(-0.000778445 0.00131359 0)
(-0.00117412 0.0017454 0)
(-0.00165109 0.00219241 0)
(-0.00220849 0.00264395 0)
(-0.00284472 0.00309131 0)
(-0.00355749 0.00352748 0)
(-0.00434382 0.00394682 0)
(-0.00520016 0.00434488 0)
(-0.00612243 0.00471815 0)
(-0.00710612 0.00506398 0)
(-0.00814637 0.00538037 0)
(-0.00923801 0.00566589 0)
(-0.0103757 0.00591958 0)
(-0.0115538 0.00614086 0)
(-0.0127667 0.00632951 0)
(-0.0140087 0.00648554 0)
(-0.0152741 0.00660921 0)
(-0.0165572 0.00670095 0)
(-0.0178523 0.00676137 0)
(-0.0191538 0.00679118 0)
(-0.0204564 0.0067912 0)
(-0.0217547 0.00676236 0)
(-0.0230434 0.00670561 0)
(-0.0243177 0.00662201 0)
(-0.0255726 0.00651261 0)
(-0.0268036 0.00637851 0)
(-0.028006 0.00622085 0)
(-0.0291757 0.00604075 0)
(-0.0303086 0.00583937 0)
(-0.0314008 0.00561784 0)
(-0.0324487 0.00537733 0)
(-0.0334488 0.00511898 0)
(-0.0343978 0.00484392 0)
(-0.0352928 0.00455328 0)
(-0.0361309 0.00424819 0)
(-0.0369095 0.00392975 0)
(-0.0376261 0.00359909 0)
(-0.0382786 0.00325728 0)
(-0.038865 0.00290543 0)
(-0.0393835 0.0025446 0)
(-0.0398325 0.00217589 0)
(-0.0402105 0.00180038 0)
(-0.0405166 0.00141913 0)
(-0.0407495 0.00103323 0)
(-0.0409087 0.00064377 0)
(-0.0409935 0.000251833 0)
(-0.0410035 -0.000141478 0)
(-0.0409387 -0.00053505 0)
(-0.0407991 -0.000927757 0)
(-0.040585 -0.00131846 0)
(-0.0402969 -0.001706 0)
(-0.0399354 -0.0020892 0)
(-0.0395017 -0.00246686 0)
(-0.0389967 -0.00283777 0)
(-0.038422 -0.0032007 0)
(-0.0377791 -0.00355439 0)
(-0.0370699 -0.00389755 0)
(-0.0362966 -0.00422891 0)
(-0.0354615 -0.00454715 0)
(-0.0345671 -0.00485094 0)
(-0.0336164 -0.00513895 0)
(-0.0326123 -0.00540984 0)
(-0.0315583 -0.00566226 0)
(-0.0304578 -0.00589487 0)
(-0.0293148 -0.00610632 0)
(-0.0281332 -0.00629529 0)
(-0.0269173 -0.00646049 0)
(-0.0256717 -0.00660062 0)
(-0.0244011 -0.00671447 0)
(-0.0231105 -0.00680083 0)
(-0.0218049 -0.00685858 0)
(-0.0204897 -0.00688666 0)
(-0.0191703 -0.00688409 0)
(-0.0178525 -0.00685002 0)
(-0.0165419 -0.00678368 0)
(-0.0152443 -0.00668446 0)
(-0.0139658 -0.00655192 0)
(-0.0127122 -0.00638581 0)
(-0.0114895 -0.00618607 0)
(-0.0103035 -0.00595294 0)
(-0.00916 -0.00568693 0)
(-0.00806463 -0.00538891 0)
(-0.00702279 -0.00506018 0)
(-0.00603962 -0.0047025 0)
(-0.00511989 -0.00431822 0)
(-0.00426797 -0.00391036 0)
(-0.00348773 -0.00348278 0)
(-0.00278246 -0.00304026 0)
(-0.00215481 -0.00258876 0)
(-0.0016067 -0.00213559 0)
(-0.00113931 -0.00168968 0)
(-0.000753055 -0.00126189 0)
(-0.00044735 -0.000865363 0)
(-0.00022049 -0.000515809 0)
(-7.27897e-05 -0.000231979 0)
(-9.54423e-06 -3.76084e-05 0)
(-1.24303e-05 8.8292e-05 0)
(-9.11392e-05 0.000380339 0)
(-0.00027132 0.000760814 0)
(-0.00054337 0.00120522 0)
(-0.000904387 0.00169399 0)
(-0.00135446 0.00221074 0)
(-0.00189269 0.0027418 0)
(-0.00251736 0.0032758 0)
(-0.00322619 0.00380338 0)
(-0.00401629 0.00431686 0)
(-0.00488418 0.00481003 0)
(-0.00582585 0.00527789 0)
(-0.00683685 0.0057165 0)
(-0.00791228 0.00612279 0)
(-0.00904692 0.00649446 0)
(-0.0102353 0.00682982 0)
(-0.0114716 0.00712772 0)
(-0.0127501 0.00738746 0)
(-0.0140647 0.0076087 0)
(-0.0154094 0.00779144 0)
(-0.0167781 0.00793593 0)
(-0.0181649 0.00804266 0)
(-0.0195636 0.00811228 0)
(-0.0209685 0.00814562 0)
(-0.0223738 0.00814362 0)
(-0.0237738 0.00810733 0)
(-0.025163 0.00803789 0)
(-0.0265361 0.00793649 0)
(-0.0278879 0.00780439 0)
(-0.0292135 0.00764288 0)
(-0.0305082 0.00745328 0)
(-0.0317673 0.00723694 0)
(-0.0329866 0.00699521 0)
(-0.0341619 0.00672945 0)
(-0.0352893 0.00644102 0)
(-0.0363652 0.00613128 0)
(-0.0373861 0.00580158 0)
(-0.0383487 0.00545328 0)
(-0.0392501 0.00508771 0)
(-0.0400874 0.00470619 0)
(-0.040858 0.00431005 0)
(-0.0415597 0.0039006 0)
(-0.0421902 0.00347913 0)
(-0.0427477 0.00304694 0)
(-0.0432305 0.00260533 0)
(-0.043637 0.00215559 0)
(-0.0439661 0.001699 0)
(-0.0442166 0.00123686 0)
(-0.0443879 0.000770459 0)
(-0.0444791 0.000301115 0)
(-0.0444901 -0.00016986 0)
(-0.0444206 -0.000641133 0)
(-0.0442707 -0.00111136 0)
(-0.0440407 -0.00157917 0)
(-0.0437311 -0.00204319 0)
(-0.0433428 -0.002502 0)
(-0.0428766 -0.00295419 0)
(-0.042334 -0.00339829 0)
(-0.0417163 -0.00383284 0)