/*--------------------------------*- C++ -*----------------------------------*\
| =========                 |                                                 |
| \\      /  F ield         | OpenFOAM: The Open Source CFD Toolbox           |
|  \\    /   O peration     | Version:  2212                                  |
|   \\  /    A nd           | Website:  www.openfoam.com                      |
|    \\/     M anipulation  |                                                 |
\*---------------------------------------------------------------------------*/
FoamFile
{
    version     2.0;
    format      ascii;
    arch        "LSB;label=32;scalar=64";
    class       surfaceScalarField;
    location    "0.0295";
    object      phi_0;
}
// * * * * * * * * * * * * * * * * * * * * * * * * * * * * * * * * * * * * * //

dimensions      [0 3 -1 0 0 0 0];

oriented        oriented;

internalField   nonuniform List<scalar> 
19800
(
6.06879e-11
-6.07412e-11
1.91899e-10
-1.31225e-10
3.23662e-10
-1.31753e-10
4.10976e-10
-8.72969e-11
4.3029e-10
-1.93071e-11
3.69968e-10
6.03099e-11
2.25387e-10
1.44582e-10
-4.09223e-12
2.29469e-10
-3.16519e-10
3.12424e-10
-7.08432e-10
3.91916e-10
-1.17541e-09
4.6698e-10
-1.71242e-09
5.37018e-10
-2.31407e-09
6.01641e-10
-2.97473e-09
6.60648e-10
-3.68867e-09
7.13934e-10
-4.45016e-09
7.61482e-10
-5.25351e-09
8.03349e-10
-6.0931e-09
8.39595e-10
-6.96344e-09
8.70346e-10
-7.85918e-09
8.95744e-10
-8.77516e-09
9.15979e-10
-9.70637e-09
9.31216e-10
-1.0648e-08
9.41592e-10
-1.15952e-08
9.47258e-10
-1.25436e-08
9.48403e-10
-1.34888e-08
9.45232e-10
-1.44268e-08
9.37942e-10
-1.53535e-08
9.26729e-10
-1.62653e-08
9.11791e-10
-1.71586e-08
8.93296e-10
-1.803e-08
8.71426e-10
-1.88764e-08
8.46361e-10
-1.96946e-08
8.18276e-10
-2.0482e-08
7.87346e-10
-2.12357e-08
7.53734e-10
-2.19534e-08
7.17616e-10
-2.26325e-08
6.79164e-10
-2.32711e-08
6.3854e-10
-2.3867e-08
5.95908e-10
-2.44184e-08
5.5142e-10
-2.49236e-08
5.05223e-10
-2.53811e-08
4.5747e-10
-2.57894e-08
4.08308e-10
-2.61473e-08
3.57877e-10
-2.64536e-08
3.06335e-10
-2.67074e-08
2.53837e-10
-2.6908e-08
2.00525e-10
-2.70545e-08
1.4655e-10
-2.71466e-08
9.2045e-11
-2.71837e-08
3.71422e-11
-2.71657e-08
-1.80014e-11
-2.70925e-08
-7.32247e-11
-2.69641e-08
-1.28379e-10
-2.67808e-08
-1.83299e-10
-2.6543e-08
-2.37807e-10
-2.62512e-08
-2.91749e-10
-2.59063e-08
-3.44966e-10
-2.5509e-08
-3.97278e-10
-2.50605e-08
-4.48505e-10
-2.4562e-08
-4.9848e-10
-2.4015e-08
-5.47006e-10
-2.34211e-08
-5.93869e-10
-2.27823e-08
-6.3888e-10
-2.21004e-08
-6.81871e-10
-2.13777e-08
-7.2264e-10
-2.06168e-08
-7.60964e-10
-1.98201e-08
-7.96648e-10
-1.89906e-08
-8.29506e-10
-1.81313e-08
-8.59322e-10
-1.72454e-08
-8.85877e-10
-1.63364e-08
-9.08983e-10
-1.5408e-08
-9.2845e-10
-1.44639e-08
-9.44065e-10
-1.35083e-08
-9.55618e-10
-1.25454e-08
-9.62924e-10
-1.15796e-08
-9.65796e-10
-1.06156e-08
-9.64019e-10
-9.65818e-09
-9.57397e-10
-8.7124e-09
-9.45777e-10
-7.78339e-09
-9.2902e-10
-6.87643e-09
-9.0697e-10
-5.99697e-09
-8.79467e-10
-5.15057e-09
-8.46399e-10
-4.34286e-09
-8.07702e-10
-3.57954e-09
-7.63327e-10
-2.8663e-09
-7.13241e-10
-2.20883e-09
-6.57459e-10
-1.61276e-09
-5.96076e-10
-1.08348e-09
-5.29275e-10
-6.26143e-10
-4.5734e-10
-2.45431e-10
-3.8071e-10
5.46391e-11
-3.00068e-10
2.7112e-10
-2.16483e-10
4.02742e-10
-1.31626e-10
4.50902e-10
-4.81622e-11
4.21277e-10
2.96217e-11
3.26532e-10
9.47433e-11
1.91003e-10
1.35528e-10
5.92322e-11
1.31766e-10
5.92298e-11
1.30514e-10
-1.9127e-10
3.38975e-10
-3.39658e-10
5.09885e-10
-3.02687e-10
5.64591e-10
-1.41996e-10
4.52211e-10
9.30719e-11
1.4277e-10
3.69762e-10
-3.79176e-10
6.66526e-10
-1.11897e-09
9.6927e-10
-2.07513e-09
1.26857e-09
-3.24138e-09
1.55816e-09
-4.6082e-09
1.83381e-09
-6.16386e-09
2.09269e-09
-7.89513e-09
2.33293e-09
-9.78779e-09
2.55333e-09
-1.18271e-08
2.75321e-09
-1.39978e-08
2.93224e-09
-1.62849e-08
3.09037e-09
-1.8673e-08
3.22773e-09
-2.11473e-08
3.34463e-09
-2.3693e-08
3.44147e-09
-2.62958e-08
3.51876e-09
-2.89416e-08
3.57705e-09
-3.16169e-08
3.61691e-09
-3.43086e-08
3.63893e-09
-3.7004e-08
3.64377e-09
-3.96909e-08
3.63211e-09
-4.23576e-08
3.60466e-09
-4.4993e-08
3.56212e-09
-4.75864e-08
3.50519e-09
-5.01276e-08
3.43456e-09
-5.26071e-08
3.35092e-09
-5.50157e-08
3.25495e-09
-5.73448e-08
3.14732e-09
-5.95861e-08
3.02867e-09
-6.1732e-08
2.89967e-09
-6.37753e-08
2.76096e-09
-6.57094e-08
2.61319e-09
-6.75278e-08
2.457e-09
-6.92249e-08
2.29299e-09
-7.07953e-08
2.12178e-09
-7.2234e-08
1.94394e-09
-7.35366e-08
1.76006e-09
-7.4699e-08
1.57073e-09
-7.57177e-08
1.37653e-09
-7.65894e-08
1.17802e-09
-7.73113e-08
9.75797e-10
-7.78812e-08
7.70418e-10
-7.82971e-08
5.62441e-10
-7.85575e-08
3.5244e-10
-7.86613e-08
1.40988e-10
-7.8608e-08
-7.13279e-11
-7.83973e-08
-2.83901e-10
-7.80296e-08
-4.96134e-10
-7.75055e-08
-7.07415e-10
-7.68261e-08
-9.17109e-10
-7.59933e-08
-1.12457e-09
-7.50092e-08
-1.32913e-09
-7.38763e-08
-1.53015e-09
-7.25979e-08
-1.72693e-09
-7.11776e-08
-1.91879e-09
-6.96196e-08
-2.10499e-09
-6.79286e-08
-2.28481e-09
-6.611e-08
-2.45751e-09
-6.41695e-08
-2.62235e-09
-6.21136e-08
-2.77857e-09
-5.99492e-08
-2.9254e-09
-5.76838e-08
-3.06206e-09
-5.53255e-08
-3.18779e-09
-5.2883e-08
-3.30181e-09
-5.03655e-08
-3.40333e-09
-4.77829e-08
-3.49159e-09
-4.51456e-08
-3.56581e-09
-4.24644e-08
-3.62523e-09
-3.97509e-08
-3.66913e-09
-3.7017e-08
-3.69676e-09
-3.42755e-08
-3.70739e-09
-3.15392e-08
-3.70033e-09
-2.88216e-08
-3.67491e-09
-2.61369e-08
-3.63054e-09
-2.34992e-08
-3.56667e-09
-2.09234e-08
-3.48279e-09
-1.84244e-08
-3.37849e-09
-1.60174e-08
-3.25344e-09
-1.37177e-08
-3.1074e-09
-1.15407e-08
-2.94032e-09
-9.50162e-09
-2.75227e-09
-7.61554e-09
-2.54355e-09
-5.89692e-09
-2.3147e-09
-4.3595e-09
-2.06669e-09
-3.01589e-09
-1.80095e-09
-1.877e-09
-1.51961e-09
-9.51292e-10
-1.22578e-09
-2.43769e-10
-9.24007e-10
2.45562e-10
-6.20955e-10
5.23874e-10
-3.26475e-10
6.08632e-10
-5.51385e-11
5.32119e-10
1.7126e-10
3.46942e-10
3.20707e-10
1.3173e-10
3.46975e-10
1.9097e-10
1.31199e-10
-3.22457e-10
3.04456e-10
-5.12924e-10
3.82372e-10
-3.8061e-10
2.71143e-10
-3.07637e-11
-9.30695e-11
4.57274e-10
-7.506e-10
1.02728e-09
-1.72419e-09
1.64011e-09
-3.02335e-09
2.26843e-09
-4.64791e-09
2.89314e-09
-6.59049e-09
3.50074e-09
-8.83856e-09
4.08186e-09
-1.13758e-08
4.62991e-09
-1.41832e-08
5.14035e-09
-1.72401e-08
5.61019e-09
-2.05244e-08
6.0375e-09
-2.40133e-08
6.42121e-09
-2.76838e-08
6.76088e-09
-3.15127e-08
7.05655e-09
-3.54766e-08
7.30862e-09
-3.9553e-08
7.51778e-09
-4.37191e-08
7.68494e-09
-4.79532e-08
7.81114e-09
-5.22338e-08
7.89754e-09
-5.65403e-08
7.94537e-09
-6.08525e-08
7.95601e-09
-6.51512e-08
7.93084e-09
-6.94179e-08
7.87133e-09
-7.36347e-08
7.77893e-09
-7.77846e-08
7.65513e-09
-8.18515e-08
7.5014e-09
-8.58198e-08
7.31922e-09
-8.96749e-08
7.11006e-09
-9.3403e-08
6.87537e-09
-9.69909e-08
6.61657e-09
-1.00426e-07
6.33509e-09
-1.03698e-07
6.03233e-09
-1.06794e-07
5.70968e-09
-1.09706e-07
5.36852e-09
-1.12423e-07
5.0102e-09
-1.14937e-07
4.63603e-09
-1.17241e-07
4.24733e-09
-1.19326e-07
3.84538e-09
-1.21187e-07
3.43146e-09
-1.22817e-07
3.00684e-09
-1.24212e-07
2.5728e-09
-1.25366e-07
2.1306e-09
-1.26278e-07
1.6815e-09
-1.26942e-07
1.22675e-09
-1.27357e-07
7.67594e-10
-1.27521e-07
3.0532e-10
-1.27434e-07
-1.58775e-10
-1.27094e-07
-6.23373e-10
-1.26503e-07
-1.08715e-09
-1.25662e-07
-1.54875e-09
-1.24572e-07
-2.00679e-09
-1.23237e-07
-2.45987e-09
-1.2166e-07
-2.90655e-09
-1.19844e-07
-3.34538e-09
-1.17797e-07
-3.77485e-09
-1.15522e-07
-4.19346e-09
-1.13027e-07
-4.59965e-09
-1.1032e-07
-4.99183e-09
-1.07409e-07
-5.36839e-09
-1.04304e-07
-5.72772e-09
-1.01014e-07
-6.06817e-09
-9.75517e-08
-6.38807e-09
-9.3928e-08
-6.68575e-09
-9.01562e-08
-6.95953e-09
-8.62503e-08
-7.20773e-09
-8.2225e-08
-7.42864e-09
-7.8096e-08
-7.62062e-09
-7.38798e-08
-7.78201e-09
-6.95938e-08
-7.91118e-09
-6.52564e-08
-8.00652e-09
-6.08867e-08
-8.0665e-09
-5.65045e-08
-8.0896e-09
-5.21304e-08
-8.07439e-09
-4.77858e-08
-8.01949e-09
-4.34927e-08
-7.92368e-09
-3.92735e-08
-7.78585e-09
-3.51513e-08
-7.60505e-09
-3.11493e-08
-7.38048e-09
-2.72912e-08
-7.11156e-09
-2.36005e-08
-6.79801e-09
-2.0101e-08
-6.43985e-09
-1.68158e-08
-6.03751e-09
-1.37674e-08
-5.59189e-09
-1.09775e-08
-5.10457e-09
-8.46624e-09
-4.57798e-09
-6.25153e-09
-4.01566e-09
-4.34845e-09
-3.42268e-09
-2.76803e-09
-2.80619e-09
-1.51579e-09
-2.17624e-09
-5.89771e-10
-1.54698e-09
2.20897e-11
-9.38339e-10
3.45426e-10
-3.78465e-10
4.23528e-10
9.31676e-11
3.22437e-10
4.21797e-10
1.36003e-10
5.33417e-10
3.26982e-10
8.94039e-11
-4.11854e-10
1.51804e-10
-5.75314e-10
4.72362e-11
-2.7604e-10
-3.22288e-10
3.38764e-10
-1.02507e-09
1.16006e-09
-2.10589e-09
2.10809e-09
-3.59093e-09
3.12515e-09
-5.49194e-09
4.16943e-09
-7.80939e-09
5.21059e-09
-1.05352e-08
6.22653e-09
-1.36545e-08
7.20123e-09
-1.71478e-08
8.1232e-09
-2.09917e-08
8.98426e-09
-2.51603e-08
9.77877e-09
-2.96258e-08
1.0503e-08
-3.43591e-08
1.11546e-08
-3.93307e-08
1.17324e-08
-4.45103e-08
1.22362e-08
-4.98678e-08
1.26662e-08
-5.53734e-08
1.30234e-08
-6.09975e-08
1.3309e-08
-6.67111e-08
1.35248e-08
-7.2486e-08
1.36724e-08
-7.82946e-08
1.3754e-08
-8.41103e-08
1.37717e-08
-8.99073e-08
1.37278e-08
-9.56608e-08
1.36248e-08
-1.01347e-07
1.34651e-08
-1.06943e-07
1.32511e-08
-1.12427e-07
1.29854e-08
-1.17778e-07
1.26705e-08
-1.22977e-07
1.23088e-08
-1.28005e-07
1.19029e-08
-1.32843e-07
1.14553e-08
-1.37476e-07
1.09682e-08
-1.41888e-07
1.04443e-08
-1.46065e-07
9.88587e-09
-1.49991e-07
9.29526e-09
-1.53656e-07
8.67483e-09
-1.57047e-07
8.02687e-09
-1.60153e-07
7.35366e-09
-1.62965e-07
6.65744e-09
-1.65474e-07
5.94043e-09
-1.67672e-07
5.20486e-09
-1.69552e-07
4.45293e-09
-1.71109e-07
3.68684e-09
-1.72336e-07
2.9088e-09
-1.7323e-07
2.12099e-09
-1.73788e-07
1.32562e-09
-1.74008e-07
5.24914e-10
-1.73888e-07
-2.78867e-10
-1.73428e-07
-1.08345e-09
-1.72628e-07
-1.8865e-09
-1.71491e-07
-2.68568e-09
-1.70019e-07
-3.47858e-09
-1.68217e-07
-4.26277e-09
-1.66087e-07
-5.03577e-09
-1.63638e-07
-5.79504e-09
-1.60875e-07
-6.53801e-09
-1.57806e-07
-7.26203e-09
-1.54441e-07
-7.96444e-09
-1.5079e-07
-8.6425e-09
-1.46865e-07
-9.29346e-09
-1.42679e-07
-9.9145e-09
-1.38244e-07
-1.05028e-08
-1.33577e-07
-1.10555e-08
-1.28693e-07
-1.15697e-08
-1.2361e-07
-1.20426e-08
-1.18346e-07
-1.24711e-08
-1.12922e-07
-1.28526e-08
-1.07359e-07
-1.3184e-08
-1.01678e-07
-1.34627e-08
-9.59035e-08
-1.36858e-08
-9.00595e-08
-1.38506e-08
-8.41715e-08
-1.39545e-08
-7.82661e-08
-1.3995e-08
-7.23707e-08
-1.39697e-08
-6.65137e-08
-1.38765e-08
-6.07242e-08
-1.37132e-08
-5.50318e-08
-1.34782e-08
-4.9467e-08
-1.31699e-08
-4.40602e-08
-1.27872e-08
-3.88424e-08
-1.23294e-08
-3.38444e-08
-1.1796e-08
-2.90966e-08
-1.11876e-08
-2.46289e-08
-1.05052e-08
-2.04702e-08
-9.75064e-09
-1.66476e-08
-8.92716e-09
-1.31862e-08
-8.03933e-09
-1.01082e-08
-7.09371e-09
-7.43152e-09
-6.09935e-09
-5.16897e-09
-5.06874e-09
-3.32633e-09
-4.01888e-09
-1.90036e-09
-2.97295e-09
-8.76211e-10
-1.96248e-09
-2.24323e-10
-1.03034e-09
1.03382e-10
-2.34539e-10
1.77578e-10
3.47596e-10
9.66378e-11
6.14365e-10
4.23618e-10
2.46499e-11
-4.365e-10
-7.43498e-11
-4.76311e-10
-4.2468e-10
7.42776e-11
-1.11956e-09
1.03364e-09
-2.22542e-09
2.26592e-09
-3.78683e-09
3.6695e-09
-5.83033e-09
5.16864e-09
-8.36785e-09
6.70695e-09
-1.13996e-08
8.24229e-09
-1.49162e-08
9.74314e-09
-1.89011e-08
1.11861e-08
-2.33318e-08
1.25539e-08
-2.81815e-08
1.3834e-08
-3.34201e-08
1.50174e-08
-3.90151e-08
1.60979e-08
-4.49321e-08
1.70716e-08
-5.1136e-08
1.79363e-08
-5.75908e-08
1.8691e-08
-6.42604e-08
1.93358e-08
-7.11088e-08
1.98717e-08
-7.81002e-08
2.03004e-08
-8.51995e-08
2.0624e-08
-9.23722e-08
2.08451e-08
-9.95848e-08
2.09666e-08
-1.06805e-07
2.09915e-08
-1.14e-07
2.09233e-08
-1.21141e-07
2.07655e-08
-1.28197e-07
2.05215e-08
-1.35141e-07
2.01953e-08
-1.41946e-07
1.97903e-08
-1.48586e-07
1.93105e-08
-1.55037e-07
1.87595e-08
-1.61275e-07
1.81412e-08
-1.67279e-07
1.74591e-08
-1.73028e-07
1.6717e-08
-1.78502e-07
1.59186e-08
-1.83684e-07
1.50676e-08
-1.88556e-07
1.41674e-08
-1.93103e-07
1.32216e-08
-1.9731e-07
1.22338e-08
-2.01164e-07
1.12074e-08
-2.04652e-07
1.01459e-08
-2.07764e-07
9.05268e-09
-2.10491e-07
7.93108e-09
-2.12822e-07
6.78453e-09
-2.14752e-07
5.61637e-09
-2.16273e-07
4.42998e-09
-2.17381e-07
3.22875e-09
-2.18071e-07
2.01605e-09
-2.18341e-07
7.95294e-10
-2.1819e-07
-4.30055e-10
-2.17617e-07
-1.6565e-09
-2.16623e-07
-2.88051e-09
-2.1521e-07
-4.09849e-09
-2.13382e-07
-5.30677e-09
-2.11143e-07
-6.50162e-09
-2.085e-07
-7.67926e-09
-2.05459e-07
-8.83583e-09
-2.0203e-07
-9.96742e-09
-1.98222e-07
-1.107e-08
-1.94047e-07
-1.21395e-08
-1.89517e-07
-1.31718e-08
-1.84648e-07
-1.41627e-08
-1.79455e-07
-1.51079e-08
-1.73954e-07
-1.60032e-08
-1.68165e-07
-1.68443e-08
-1.62109e-07
-1.76266e-08
-1.55805e-07
-1.8346e-08
-1.49278e-07
-1.89981e-08
-1.42552e-07
-1.95785e-08
-1.35653e-07
-2.00829e-08
-1.28609e-07
-2.05071e-08
-1.21448e-07
-2.0847e-08
-1.142e-07
-2.10986e-08
-1.06896e-07
-2.12579e-08
-9.957e-08
-2.13214e-08
-9.22543e-08
-2.12854e-08
-8.49839e-08
-2.11469e-08
-7.77942e-08
-2.0903e-08
-7.07213e-08
-2.05511e-08
-6.3802e-08
-2.00892e-08
-5.70733e-08
-1.95159e-08
-5.05723e-08
-1.88303e-08
-4.4336e-08
-1.80323e-08
-3.84008e-08
-1.71229e-08
-3.28021e-08
-1.61039e-08
-2.75739e-08
-1.49789e-08
-2.27481e-08
-1.3753e-08
-1.83537e-08
-1.24337e-08
-1.44162e-08
-1.10312e-08
-1.09561e-08
-9.55946e-09
-7.98773e-09
-8.03712e-09
-5.51756e-09
-6.48905e-09
-3.54229e-09
-4.94823e-09
-2.04647e-09
-3.45829e-09
-9.99915e-10
-2.0769e-09
-3.54608e-10
-8.79857e-10
-4.14419e-11
3.44306e-11
3.38728e-11
5.39051e-10
4.57484e-10
-5.18389e-11
-3.84677e-10
-3.43054e-10
-1.85082e-10
-9.81126e-10
7.12345e-10
-2.04782e-09
2.10032e-09
-3.60295e-09
3.82105e-09
-5.68722e-09
5.75376e-09
-8.32479e-09
7.80622e-09
-1.15259e-08
9.90808e-09
-1.52892e-08
1.20056e-08
-1.96036e-08
1.40576e-08
-2.44505e-08
1.60329e-08
-2.98047e-08
1.79081e-08
-3.56363e-08
1.96656e-08
-4.19116e-08
2.12927e-08
-4.8594e-08
2.27803e-08
-5.56448e-08
2.41225e-08
-6.30241e-08
2.53156e-08
-7.06909e-08
2.63577e-08
-7.86038e-08
2.72487e-08
-8.67214e-08
2.79894e-08
-9.50027e-08
2.85817e-08
-1.03407e-07
2.90283e-08
-1.11894e-07
2.93325e-08
-1.20426e-07
2.9498e-08
-1.28963e-07
2.9529e-08
-1.3747e-07
2.94301e-08
-1.4591e-07
2.92059e-08
-1.5425e-07
2.88613e-08
-1.62456e-07
2.84014e-08
-1.70497e-07
2.78312e-08
-1.78343e-07
2.7156e-08
-1.85964e-07
2.63809e-08
-1.93334e-07
2.55112e-08
-2.00427e-07
2.45519e-08
-2.07218e-07
2.35083e-08
-2.13685e-07
2.23855e-08
-2.19806e-07
2.11885e-08
-2.25561e-07
1.99224e-08
-2.30932e-07
1.85922e-08
-2.35901e-07
1.72028e-08
-2.40452e-07
1.57591e-08
-2.44572e-07
1.42659e-08
-2.48248e-07
1.2728e-08
-2.51467e-07
1.11502e-08
-2.5422e-07
9.53733e-09
-2.56497e-07
7.89408e-09
-2.58293e-07
6.22521e-09
-2.59599e-07
4.53549e-09
-2.60413e-07
2.82971e-09
-2.6073e-07
1.1127e-09
-2.6055e-07
-6.10648e-10
-2.59871e-07
-2.33543e-09
-2.58695e-07
-4.05665e-09
-2.57024e-07
-5.76922e-09
-2.54863e-07
-7.46799e-09
-2.52217e-07
-9.14773e-09
-2.49093e-07
-1.08031e-08
-2.455e-07
-1.24287e-08
-2.41448e-07
-1.4019e-08
-2.3695e-07
-1.55684e-08
-2.32018e-07
-1.70711e-08
-2.26669e-07
-1.85215e-08
-2.20918e-07
-1.99135e-08
-2.14784e-07
-2.12413e-08
-2.08289e-07
-2.24989e-08
-2.01453e-07
-2.36801e-08
-1.943e-07
-2.4779e-08
-1.86857e-07
-2.57895e-08
-1.7915e-07
-2.67055e-08
-1.71207e-07
-2.7521e-08
-1.6306e-07
-2.82301e-08
-1.5474e-07
-2.88269e-08
-1.46281e-07
-2.93057e-08
-1.37719e-07
-2.9661e-08
-1.29089e-07
-2.98875e-08
-1.20431e-07
-2.99802e-08
-1.11782e-07
-2.99343e-08
-1.03183e-07
-2.97458e-08
-9.46751e-08
-2.94106e-08
-8.63005e-08
-2.89257e-08
-7.81012e-08
-2.82885e-08
-7.01201e-08
-2.74971e-08
-6.23996e-08
-2.65508e-08
-5.49822e-08
-2.54498e-08
-4.79091e-08
-2.41959e-08
-4.12208e-08
-2.27922e-08
-3.49555e-08
-2.12441e-08
-2.91492e-08
-1.95593e-08
-2.38345e-08
-1.77485e-08
-1.90395e-08
-1.58262e-08
-1.47873e-08
-1.38117e-08
-1.1094e-08
-1.17304e-08
-7.96753e-09
-9.61552e-09
-5.40586e-09
-7.5099e-09
-3.39498e-09
-5.46917e-09
-1.90688e-09
-3.565e-09
-8.97262e-10
-1.88948e-09
-3.03246e-10
-5.59577e-10
-4.07836e-11
2.76585e-10
4.16703e-10
-1.3353e-10
-2.51146e-10
-6.33711e-10
3.15098e-10
-1.58473e-09
1.66337e-09
-3.05314e-09
3.56872e-09
-5.08867e-09
5.85658e-09
-7.72527e-09
8.39036e-09
-1.09825e-08
1.10634e-08
-1.48671e-08
1.37927e-08
-1.9375e-08
1.65134e-08
-2.44926e-08
1.91752e-08
-3.01986e-08
2.1739e-08
-3.64654e-08
2.41748e-08
-4.32599e-08
2.64601e-08
-5.05451e-08
2.85779e-08
-5.82809e-08
3.05161e-08
-6.64246e-08
3.22662e-08
-7.49321e-08
3.38231e-08
-8.3758e-08
3.51836e-08
-9.28564e-08
3.63471e-08
-1.02181e-07
3.73142e-08
-1.11687e-07
3.8087e-08
-1.21327e-07
3.86686e-08
-1.31057e-07
3.9063e-08
-1.40834e-07
3.92749e-08
-1.50615e-07
3.93095e-08
-1.60357e-07
3.91725e-08
-1.70021e-07
3.887e-08
-1.79568e-07
3.84083e-08
-1.88961e-07
3.77939e-08
-1.98163e-07
3.70335e-08
-2.07141e-07
3.61337e-08
-2.15861e-07
3.51013e-08
-2.24293e-07
3.39433e-08
-2.32408e-07
3.26664e-08
-2.40177e-07
3.12773e-08
-2.47574e-07
2.9783e-08
-2.54576e-07
2.819e-08
-2.61158e-07
2.65051e-08
-2.67301e-07
2.47349e-08
-2.72984e-07
2.28859e-08
-2.78189e-07
2.09645e-08
-2.82901e-07
1.89773e-08
-2.87104e-07
1.69307e-08
-2.90784e-07
1.4831e-08
-2.93932e-07
1.26846e-08
-2.96535e-07
1.04978e-08
-2.98587e-07
8.27693e-09
-3.0008e-07
6.02843e-09
-3.01009e-07
3.75866e-09
-3.0137e-07
1.47406e-09
-3.01162e-07
-8.18885e-10
-3.00384e-07
-3.11358e-09
-2.99037e-07
-5.40337e-09
-2.97125e-07
-7.6815e-09
-2.94652e-07
-9.94112e-09
-2.91624e-07
-1.21753e-08
-2.8805e-07
-1.43768e-08
-2.83941e-07
-1.65386e-08
-2.79306e-07
-1.86533e-08
-2.74161e-07
-2.07134e-08
-2.68521e-07
-2.27114e-08
-2.62403e-07
-2.46396e-08
-2.55826e-07
-2.64902e-08
-2.48812e-07
-2.82553e-08
-2.41384e-07
-2.99271e-08
-2.33567e-07
-3.14975e-08
-2.25387e-07
-3.29585e-08
-2.16875e-07
-3.43022e-08
-2.0806e-07
-3.55205e-08
-1.98975e-07
-3.66055e-08
-1.89656e-07
-3.75496e-08
-1.80138e-07
-3.83449e-08
-1.70459e-07
-3.89842e-08
-1.6066e-07
-3.94602e-08
-1.50781e-07
-3.9766e-08
-1.40866e-07
-3.98953e-08
-1.30959e-07
-3.98419e-08
-1.21104e-07
-3.96006e-08
-1.11348e-07
-3.91665e-08
-1.01738e-07
-3.85357e-08
-9.23214e-08
-3.77051e-08
-8.31458e-08
-3.66727e-08
-7.42587e-08
-3.54379e-08
-6.5707e-08
-3.40015e-08
-5.75366e-08
-3.23662e-08
-4.9792e-08
-3.05368e-08
-4.25156e-08
-2.85206e-08
-3.57468e-08
-2.63281e-08
-2.95213e-08
-2.3974e-08
-2.38703e-08
-2.14771e-08
-1.88193e-08
-1.88627e-08
-1.43868e-08
-1.61629e-08
-1.0583e-08
-1.34193e-08
-7.40849e-09
-1.06844e-08
-4.85249e-09
-8.02518e-09
-2.89142e-09
-5.52606e-09
-1.48747e-09
-3.29343e-09
-5.87223e-10
-1.45982e-09
-1.20673e-10
-1.89963e-10
2.96039e-10
-2.16471e-10
-3.46859e-11
-9.33012e-10
1.03164e-09
-2.21017e-09
2.94052e-09
-4.09748e-09
5.45602e-09
-6.6325e-09
8.3916e-09
-9.84035e-09
1.15982e-08
-1.37341e-08
1.49572e-08
-1.83156e-08
1.83742e-08
-2.35769e-08
2.17747e-08
-2.9501e-08
2.50993e-08
-3.60635e-08
2.83015e-08
-4.32337e-08
3.13451e-08
-5.09756e-08
3.4202e-08
-5.9249e-08
3.68513e-08
-6.80103e-08
3.92773e-08
-7.72132e-08
4.14692e-08
-8.681e-08
4.34198e-08
-9.67511e-08
4.51248e-08
-1.06987e-07
4.65827e-08
-1.17467e-07
4.7794e-08
-1.2814e-07
4.87607e-08
-1.38958e-07
4.94863e-08
-1.49871e-07
4.99757e-08
-1.6083e-07
5.02343e-08
-1.71789e-07
5.02685e-08
-1.82702e-07
5.00853e-08
-1.93524e-07
4.96921e-08
-2.04212e-07
4.90967e-08
-2.14725e-07
4.83072e-08
-2.25024e-07
4.73319e-08
-2.3507e-07
4.61793e-08
-2.44826e-07
4.4858e-08
-2.54259e-07
4.33764e-08
-2.63336e-07
4.17433e-08
-2.72026e-07
3.99672e-08
-2.803e-07
3.80566e-08
-2.8813e-07
3.60203e-08
-2.95491e-07
3.38665e-08
-3.0236e-07
3.16038e-08
-3.08715e-07
2.92405e-08
-3.14535e-07
2.67848e-08
-3.19803e-07
2.4245e-08
-3.24501e-07
2.16293e-08
-3.28616e-07
1.89458e-08
-3.32134e-07
1.62026e-08
-3.35044e-07
1.34079e-08
-3.37337e-07
1.05699e-08
-3.39005e-07
7.69653e-09
-3.40043e-07
4.79612e-09
-3.40445e-07
1.87688e-09
-3.40212e-07
-1.05285e-09
-3.3934e-07
-3.98469e-09
-3.37834e-07
-6.91012e-09
-3.35695e-07
-9.82049e-09
-3.32929e-07
-1.2707e-08
-3.29543e-07
-1.55609e-08
-3.25547e-07
-1.8373e-08
-3.20951e-07
-2.11341e-08
-3.1577e-07
-2.38349e-08
-3.10017e-07
-2.6466e-08
-3.03711e-07
-2.90176e-08
-2.96871e-07
-3.148e-08
-2.89518e-07
-3.38433e-08
-2.81675e-07
-3.60976e-08
-2.7337e-07
-3.82327e-08
-2.64629e-07
-4.02385e-08
-2.55482e-07
-4.21049e-08
-2.45963e-07
-4.38218e-08
-2.36104e-07
-4.53791e-08
-2.25943e-07
-4.67669e-08
-2.15517e-07
-4.79752e-08
-2.04867e-07
-4.89946e-08
-1.94036e-07
-4.98156e-08
-1.83067e-07
-5.04294e-08
-1.72005e-07
-5.08274e-08
-1.60899e-07
-5.10016e-08
-1.49796e-07
-5.09446e-08
-1.38747e-07
-5.06499e-08
-1.27802e-07
-5.01116e-08
-1.17013e-07
-4.9325e-08
-1.06431e-07
-4.82868e-08
-9.61089e-08
-4.69946e-08
-8.60986e-08
-4.54482e-08
-7.64511e-08
-4.36491e-08
-6.72163e-08
-4.1601e-08
-5.84426e-08
-3.93105e-08
-5.01758e-08
-3.67873e-08
-4.24588e-08
-3.40451e-08
-3.53306e-08
-3.11022e-08
-2.88253e-08
-2.79825e-08
-2.29711e-08
-2.47168e-08
-1.77897e-08
-2.13444e-08
-1.32945e-08
-1.79145e-08
-9.48964e-09
-1.44892e-08
-6.36921e-09
-1.11456e-08
-3.91584e-09
-7.97942e-09
-2.10013e-09
-5.10913e-09
-8.80202e-10
-2.67975e-09
-2.01925e-10
-8.68231e-10
9.41166e-11
-2.98472e-10
2.63791e-10
-1.2327e-09
1.96587e-09
-2.84079e-09
4.54861e-09
-5.15488e-09
7.77012e-09
-8.19921e-09
1.14359e-08
-1.19887e-08
1.53877e-08
-1.65288e-08
1.94972e-08
-2.1815e-08
2.36605e-08
-2.78345e-08
2.77941e-08
-3.45661e-08
3.18309e-08
-4.19819e-08
3.57173e-08
-5.00476e-08
3.94108e-08
-5.8724e-08
4.28784e-08
-6.79676e-08
4.60949e-08
-7.77315e-08
4.90412e-08
-8.79661e-08
5.17039e-08
-9.86199e-08
5.40736e-08
-1.0964e-07
5.61449e-08
-1.20973e-07
5.79154e-08
-1.32564e-07
5.9385e-08
-1.44359e-07
6.05559e-08
-1.56305e-07
6.14321e-08
-1.68348e-07
6.20189e-08
-1.80436e-07
6.23227e-08
-1.92519e-07
6.23511e-08
-2.04546e-07
6.21123e-08
-2.16469e-07
6.16153e-08
-2.28242e-07
6.08693e-08
-2.39819e-07
5.98843e-08
-2.51157e-07
5.86702e-08
-2.62215e-07
5.72374e-08
-2.72954e-07
5.55962e-08
-2.83334e-07
5.37572e-08
-2.93322e-07
5.17309e-08
-3.02883e-07
4.95278e-08
-3.11985e-07
4.71587e-08
-3.20598e-07
4.46338e-08
-3.28696e-07
4.19638e-08
-3.36251e-07
3.91588e-08
-3.43239e-07
3.62294e-08
-3.4964e-07
3.31857e-08
-3.55433e-07
3.00378e-08
-3.606e-07
2.6796e-08
-3.65124e-07
2.34703e-08
-3.68993e-07
2.00708e-08
-3.72192e-07
1.66076e-08
-3.74713e-07
1.30907e-08
-3.76547e-07
9.53027e-09
-3.77687e-07
5.93642e-09
-3.7813e-07
2.31937e-09
-3.77872e-07
-1.31055e-09
-3.76914e-07
-4.94293e-09
-3.75257e-07
-8.56719e-09
-3.72905e-07
-1.21727e-08
-3.69863e-07
-1.57485e-08
-3.6614e-07
-1.92837e-08
-3.61746e-07
-2.2767e-08
-3.56693e-07
-2.61871e-08
-3.50996e-07
-2.95325e-08
-3.4467e-07
-3.27914e-08
-3.37736e-07
-3.59518e-08
-3.30214e-07
-3.90019e-08
-3.22128e-07
-4.19294e-08
-3.13504e-07
-4.47219e-08
-3.04369e-07
-4.73671e-08
-2.94755e-07
-4.98526e-08
-2.84694e-07
-5.21659e-08
-2.74222e-07
-5.42945e-08
-2.63375e-07
-5.62261e-08
-2.52193e-07
-5.79486e-08
-2.40718e-07
-5.94498e-08
-2.28995e-07
-6.07183e-08
-2.17068e-07
-6.17425e-08
-2.04986e-07
-6.25116e-08
-1.92798e-07
-6.30153e-08
-1.80556e-07
-6.3244e-08
-1.68311e-07
-6.31888e-08
-1.56119e-07
-6.28419e-08
-1.44034e-07
-6.21966e-08
-1.32112e-07
-6.12474e-08
-1.20408e-07
-5.99903e-08
-1.0898e-07
-5.84232e-08
-9.78818e-08
-5.65461e-08
-8.71698e-08
-5.43611e-08
-7.68973e-08
-5.18735e-08
-6.71163e-08
-4.90915e-08
-5.78761e-08
-4.60275e-08
-4.92228e-08
-4.26983e-08
-4.11988e-08
-3.91262e-08
-3.38414e-08
-3.53399e-08
-2.71822e-08
-3.1376e-08
-2.12463e-08
-2.72803e-08
-1.60511e-08
-2.31097e-08
-1.16058e-08
-1.89346e-08
-7.91013e-09
-1.48412e-08
-4.95434e-09
-1.09352e-08
-2.71872e-09
-7.34477e-09
-1.17396e-09
-4.22451e-09
-2.82331e-10
-1.75985e-09
-1.88222e-10
-3.7834e-10
6.42132e-10
-1.52786e-09
3.11538e-09
-3.46606e-09
6.48682e-09
-6.20817e-09
1.05122e-08
-9.76478e-09
1.49925e-08
-1.41399e-08
1.97629e-08
-1.93302e-08
2.46874e-08
-2.53243e-08
2.96546e-08
-3.21035e-08
3.45733e-08
-3.96417e-08
3.93692e-08
-4.79067e-08
4.39823e-08
-5.68606e-08
4.83647e-08
-6.64605e-08
5.24783e-08
-7.66594e-08
5.62938e-08
-8.74071e-08
5.97889e-08
-9.86507e-08
6.29474e-08
-1.10335e-07
6.57581e-08
-1.22404e-07
6.82139e-08
-1.348e-07
7.03117e-08
-1.47466e-07
7.20509e-08
-1.60344e-07
7.34338e-08
-1.73377e-07
7.44645e-08
-1.86507e-07
7.51491e-08
-1.99679e-07
7.5495e-08
-2.12839e-07
7.55108e-08
-2.25933e-07
7.52061e-08
-2.38909e-07
7.45914e-08
-2.51717e-07
7.36777e-08
-2.64309e-07
7.24765e-08
-2.76639e-07
7.09998e-08
-2.88661e-07
6.92597e-08
-3.00334e-07
6.72688e-08
-3.11616e-07
6.50394e-08
-3.2247e-07
6.25844e-08
-3.32858e-07
5.99162e-08
-3.42747e-07
5.70476e-08
-3.52104e-07
5.39912e-08
-3.609e-07
5.07595e-08
-3.69106e-07
4.7365e-08
-3.76697e-07
4.38202e-08
-3.83649e-07
4.01374e-08
-3.8994e-07
3.63289e-08
-3.95551e-07
3.24069e-08
-4.00464e-07
2.83837e-08
-4.04664e-07
2.42714e-08
-4.08139e-07
2.00822e-08
-4.10876e-07
1.58282e-08
-4.12868e-07
1.15217e-08
-4.14106e-07
7.1749e-09
-4.14587e-07
2.80024e-09
-4.14308e-07
-1.58983e-09
-4.13268e-07
-5.98272e-09
-4.1147e-07
-1.03657e-08
-4.08917e-07
-1.47258e-08
-4.05615e-07
-1.905e-08
-4.01574e-07
-2.33249e-08
-3.96804e-07
-2.7537e-08
-3.91318e-07
-3.16728e-08
-3.85133e-07
-3.57181e-08
-3.78265e-07
-3.96589e-08
-3.70736e-07
-4.34808e-08
-3.62569e-07
-4.71695e-08
-3.53788e-07
-5.07101e-08
-3.44422e-07
-5.4088e-08
-3.34501e-07
-5.72881e-08
-3.24058e-07
-6.02957e-08
-3.13128e-07
-6.30957e-08
-3.01749e-07
-6.56732e-08
-2.89962e-07
-6.80136e-08
-2.77808e-07
-7.01021e-08
-2.65333e-07
-7.19245e-08
-2.52585e-07
-7.34669e-08
-2.39611e-07
-7.47158e-08
-2.26465e-07
-7.56582e-08
-2.13198e-07
-7.62821e-08
-1.99866e-07
-7.6576e-08
-1.86525e-07
-7.65296e-08
-1.73233e-07
-7.61338e-08
-1.60049e-07
-7.53808e-08
-1.47032e-07
-7.42644e-08
-1.34242e-07
-7.27803e-08
-1.21739e-07
-7.09262e-08
-1.09583e-07
-6.87025e-08
-9.78314e-08
-6.61123e-08
-8.65428e-08
-6.31621e-08
-7.57721e-08
-5.98622e-08
-6.55722e-08
-5.62274e-08
-5.59926e-08
-5.22779e-08
-4.70791e-08
-4.80397e-08
-3.88725e-08
-4.35465e-08
-3.14083e-08
-3.88402e-08
-2.47157e-08
-3.39729e-08
-1.88169e-08
-2.90085e-08
-1.37265e-08
-2.40249e-08
-9.45134e-09
-1.91164e-08
-5.98982e-09
-1.43967e-08
-3.33266e-09
-1.00019e-08
-1.46352e-09
-6.09365e-09
-3.60668e-10
-2.86271e-09
-5.48895e-10
-4.55486e-10
1.09762e-09
-1.81571e-09
4.47561e-09
-4.07964e-09
8.75075e-09
-7.24653e-09
1.36791e-08
-1.13135e-08
1.90595e-08
-1.62735e-08
2.47229e-08
-2.21136e-08
3.05276e-08
-2.88151e-08
3.63561e-08
-3.63526e-08
4.21108e-08
-4.46948e-08
4.77114e-08
-5.38045e-08
5.3092e-08
-6.36396e-08
5.81997e-08
-7.41533e-08
6.2992e-08
-8.5295e-08
6.74355e-08
-9.7011e-08
7.15049e-08
-1.09245e-07
7.51813e-08
-1.21938e-07
7.84516e-08
-1.35032e-07
8.13074e-08
-1.48465e-07
8.37444e-08
-1.62176e-07
8.57619e-08
-1.76104e-07
8.7362e-08
-1.90189e-07
8.85492e-08
-2.0437e-07
8.93302e-08
-2.18588e-07
8.97133e-08
-2.32785e-07
8.97084e-08
-2.46906e-07
8.93265e-08
-2.60894e-07
8.85795e-08
-2.74697e-07
8.74803e-08
-2.88262e-07
8.60423e-08
-3.01542e-07
8.42792e-08
-3.14487e-07
8.22053e-08
-3.27054e-07
7.98352e-08
-3.39198e-07
7.71836e-08
-3.50879e-07
7.42652e-08
-3.62058e-07
7.10949e-08
-3.72698e-07
6.76876e-08
-3.82765e-07
6.40582e-08
-3.92227e-07
6.02214e-08
-4.01054e-07
5.61921e-08
-4.09218e-07
5.19848e-08
-4.16695e-07
4.76143e-08
-4.23461e-07
4.30949e-08
-4.29496e-07
3.84413e-08
-4.3478e-07
3.36679e-08
-4.39298e-07
2.8789e-08
-4.43035e-07
2.38191e-08
-4.45979e-07
1.87726e-08
-4.48121e-07
1.3664e-08
-4.49454e-07
8.50789e-09
-4.49973e-07
3.31882e-09
-4.49674e-07
-1.8884e-09
-4.48558e-07
-7.09884e-09
-4.46627e-07
-1.22974e-08
-4.43884e-07
-1.74688e-08
-4.40336e-07
-2.25974e-08
-4.35993e-07
-2.76677e-08
-4.30867e-07
-3.26636e-08
-4.24971e-07
-3.75688e-08
-4.18322e-07
-4.2367e-08
-4.10939e-07
-4.70415e-08
-4.02845e-07
-5.15753e-08
-3.94063e-07
-5.59513e-08
-3.84621e-07
-6.01522e-08
-3.74548e-07
-6.41606e-08
-3.63877e-07
-6.7959e-08
-3.52643e-07
-7.15297e-08
-3.40884e-07
-7.48552e-08
-3.28639e-07
-7.79179e-08
-3.15952e-07
-8.07006e-08
-3.02868e-07
-8.31862e-08
-2.89435e-07
-8.53577e-08
-2.75703e-07
-8.71991e-08
-2.61724e-07
-8.86945e-08
-2.47553e-07
-8.98289e-08
-2.33247e-07
-9.05882e-08
-2.18864e-07
-9.09592e-08
-2.04464e-07
-9.093e-08
-1.90107e-07
-9.04902e-08
-1.75857e-07
-8.96308e-08
-1.61777e-07
-8.8345e-08
-1.47929e-07
-8.6628e-08
-1.34378e-07
-8.44775e-08
-1.21186e-07
-8.18944e-08
-1.08416e-07
-7.88825e-08
-9.61279e-08
-7.54498e-08
-8.43817e-08
-7.16085e-08
-7.32332e-08
-6.73759e-08
-6.27357e-08
-6.27754e-08
-5.29384e-08
-5.7837e-08
-4.38862e-08
-5.25987e-08
-3.56187e-08
-4.71077e-08
-2.81698e-08
-4.14218e-08
-2.15671e-08
-3.56112e-08
-1.58316e-08
-2.97605e-08
-1.09772e-08
-2.39708e-08
-7.01143e-09
-1.83625e-08
-3.93557e-09
-1.30778e-08
-1.74606e-09
-8.28316e-09
-4.36322e-10
-4.17245e-09
-9.8521e-10
-5.297e-10
1.62732e-09
-2.09491e-09
6.04084e-09
-4.67809e-09
1.13339e-08
-8.26367e-09
1.72647e-08
-1.28358e-08
2.36317e-08
-1.83764e-08
3.02634e-08
-2.4863e-08
3.70142e-08
-3.22687e-08
4.37618e-08
-4.05612e-08
5.04034e-08
-4.97034e-08
5.68535e-08
-5.96527e-08
6.30414e-08
-7.03624e-08
6.89094e-08
-8.17815e-08
7.44111e-08
-9.38556e-08
7.95096e-08
-1.06527e-07
8.41765e-08
-1.19736e-07
8.83905e-08
-1.33421e-07
9.21367e-08
-1.4752e-07
9.54054e-08
-1.61967e-07
9.81915e-08
-1.76698e-07
1.00494e-07
-1.91651e-07
1.02314e-07
-2.06759e-07
1.03658e-07
-2.21961e-07
1.04532e-07
-2.37195e-07
1.04946e-07
-2.52398e-07
1.04911e-07
-2.67511e-07
1.0444e-07
-2.82477e-07
1.03546e-07
-2.9724e-07
1.02243e-07
-3.11744e-07
1.00547e-07
-3.25938e-07
9.84735e-08
-3.39773e-07
9.60395e-08
-3.53199e-07
9.32613e-08
-3.66171e-07
9.0156e-08
-3.78646e-07
8.67405e-08
-3.90584e-07
8.30322e-08
-4.01944e-07
7.90482e-08
-4.12692e-07
7.48058e-08
-4.22793e-07
7.03221e-08
-4.32215e-07
6.56143e-08
-4.40929e-07
6.06994e-08
-4.48909e-07
5.55944e-08
-4.56131e-07
5.03162e-08
-4.62571e-07
4.48816e-08
-4.68211e-07
3.93076e-08
-4.73032e-07
3.36108e-08
-4.77021e-07
2.78081e-08
-4.80165e-07
2.19162e-08
-4.82453e-07
1.59521e-08
-4.83878e-07
9.93262e-09
-4.84434e-07
3.8749e-09
-4.84118e-07
-2.20385e-09
-4.82931e-07
-8.28625e-09
-4.80874e-07
-1.43547e-08
-4.77951e-07
-2.03914e-08
-4.7417e-07
-2.63784e-08
-4.6954e-07
-3.22972e-08
-4.64075e-07
-3.81293e-08
-4.57788e-07
-4.38559e-08