/*--------------------------------*- C++ -*----------------------------------*\
| =========                 |                                                 |
| \\      /  F ield         | OpenFOAM: The Open Source CFD Toolbox           |
|  \\    /   O peration     | Version:  2212                                  |
|   \\  /    A nd           | Website:  www.openfoam.com                      |
|    \\/     M anipulation  |                                                 |
\*---------------------------------------------------------------------------*/
FoamFile
{
    version     2.0;
    format      ascii;
    arch        "LSB;label=32;scalar=64";
    class       volVectorField;
    location    "0.0935";
    object      U;
}
// * * * * * * * * * * * * * * * * * * * * * * * * * * * * * * * * * * * * * //

dimensions      [0 1 -1 0 0 0 0];

internalField   nonuniform List<vector> 
10000
(
(3.01748e-06 -3.0049e-06 0)
(1.49938e-05 -7.74899e-06 0)
(3.40935e-05 -8.95952e-06 0)
(5.20765e-05 -7.73725e-06 0)
(6.3898e-05 -5.22576e-06 0)
(6.7106e-05 -2.08508e-06 0)
(6.04271e-05 1.31798e-06 0)
(4.32792e-05 4.77337e-06 0)
(1.55383e-05 8.16228e-06 0)
(-2.26252e-05 1.14173e-05 0)
(-7.08499e-05 1.44995e-05 0)
(-0.000128649 1.73852e-05 0)
(-0.000195453 2.00612e-05 0)
(-0.000270635 2.252e-05 0)
(-0.000353535 2.47583e-05 0)
(-0.00044347 2.67759e-05 0)
(-0.000539749 2.85745e-05 0)
(-0.000641672 3.01568e-05 0)
(-0.000748548 3.15271e-05 0)
(-0.000859688 3.26902e-05 0)
(-0.000974414 3.36512e-05 0)
(-0.00109206 3.44156e-05 0)
(-0.00121198 3.49889e-05 0)
(-0.00133353 3.53767e-05 0)
(-0.00145611 3.55853e-05 0)
(-0.00157911 3.56214e-05 0)
(-0.00170194 3.54913e-05 0)
(-0.00182407 3.52016e-05 0)
(-0.00194494 3.4759e-05 0)
(-0.00206404 3.41697e-05 0)
(-0.00218087 3.344e-05 0)
(-0.00229496 3.25764e-05 0)
(-0.00240586 3.1585e-05 0)
(-0.00251313 3.04724e-05 0)
(-0.00261636 2.9245e-05 0)
(-0.00271517 2.79095e-05 0)
(-0.00280918 2.64715e-05 0)
(-0.00289805 2.49372e-05 0)
(-0.00298146 2.33132e-05 0)
(-0.0030591 2.16056e-05 0)
(-0.0031307 1.98214e-05 0)
(-0.003196 1.79666e-05 0)
(-0.00325476 1.6047e-05 0)
(-0.00330678 1.40695e-05 0)
(-0.00335185 1.20407e-05 0)
(-0.00338983 9.96728e-06 0)
(-0.00342055 7.85616e-06 0)
(-0.00344392 5.71392e-06 0)
(-0.00345982 3.54738e-06 0)
(-0.00346819 1.36369e-06 0)
(-0.00346899 -8.30076e-07 0)
(-0.00346219 -3.02665e-06 0)
(-0.0034478 -5.21866e-06 0)
(-0.00342585 -7.39906e-06 0)
(-0.0033964 -9.56043e-06 0)
(-0.00335952 -1.16947e-05 0)
(-0.00331534 -1.37941e-05 0)
(-0.00326398 -1.58509e-05 0)
(-0.00320562 -1.78567e-05 0)
(-0.00314044 -1.98035e-05 0)
(-0.00306866 -2.16836e-05 0)
(-0.00299055 -2.34888e-05 0)
(-0.00290636 -2.52104e-05 0)
(-0.00281641 -2.68399e-05 0)
(-0.00272104 -2.83694e-05 0)
(-0.00262059 -2.97905e-05 0)
(-0.00251547 -3.10949e-05 0)
(-0.00240609 -3.22746e-05 0)
(-0.0022929 -3.33219e-05 0)
(-0.00217636 -3.42288e-05 0)
(-0.00205697 -3.49873e-05 0)
(-0.00193526 -3.55899e-05 0)
(-0.00181176 -3.60298e-05 0)
(-0.00168705 -3.63004e-05 0)
(-0.00156172 -3.63949e-05 0)
(-0.00143637 -3.6307e-05 0)
(-0.00131164 -3.60306e-05 0)
(-0.00118817 -3.55599e-05 0)
(-0.00106662 -3.48898e-05 0)
(-0.00094768 -3.40161e-05 0)
(-0.000832022 -3.29348e-05 0)
(-0.000720345 -3.16424e-05 0)
(-0.000613346 -3.01365e-05 0)
(-0.000511726 -2.84156e-05 0)
(-0.000416181 -2.64793e-05 0)
(-0.000327398 -2.43285e-05 0)
(-0.00024605 -2.19652e-05 0)
(-0.000172787 -1.93936e-05 0)
(-0.000108223 -1.66215e-05 0)
(-5.29253e-05 -1.36607e-05 0)
(-7.39046e-06 -1.05295e-05 0)
(2.79807e-05 -7.25601e-06 0)
(5.29268e-05 -3.8845e-06 0)
(6.73896e-05 -4.88582e-07 0)
(7.1616e-05 2.80796e-06 0)
(6.63201e-05 5.793e-06 0)
(5.2909e-05 8.0994e-06 0)
(3.39476e-05 9.07644e-06 0)
(1.45336e-05 7.62513e-06 0)
(2.78646e-06 2.78668e-06 0)
(7.76161e-06 -1.49819e-05 0)
(3.14824e-05 -3.14508e-05 0)
(6.33351e-05 -3.36379e-05 0)
(8.88791e-05 -2.57254e-05 0)
(9.85392e-05 -1.15838e-05 0)
(8.67713e-05 6.16419e-06 0)
(5.01648e-05 2.58048e-05 0)
(-1.31648e-05 4.62155e-05 0)
(-0.000103959 6.66599e-05 0)
(-0.00022215 8.66531e-05 0)
(-0.000367096 0.000105871 0)
(-0.000537751 0.000124093 0)
(-0.000732781 0.000141172 0)
(-0.00095065 0.000157011 0)
(-0.00118968 0.000171545 0)
(-0.00144809 0.000184738 0)
(-0.00172406 0.000196572 0)
(-0.00201572 0.000207041 0)
(-0.00232118 0.000216151 0)
(-0.00263856 0.000223917 0)
(-0.00296599 0.00023036 0)
(-0.00330164 0.000235504 0)
(-0.00364368 0.000239378 0)
(-0.00399035 0.000242016 0)
(-0.00433991 0.000243451 0)
(-0.00469067 0.000243721 0)
(-0.005041 0.000242864 0)
(-0.00538931 0.00024092 0)
(-0.00573408 0.00023793 0)
(-0.00607383 0.000233935 0)
(-0.00640714 0.000228977 0)
(-0.00673265 0.000223097 0)
(-0.00704908 0.000216337 0)
(-0.00735517 0.000208741 0)
(-0.00764976 0.000200351 0)
(-0.00793173 0.000191209 0)
(-0.00820002 0.00018136 0)
(-0.00845364 0.000170847 0)
(-0.00869167 0.000159712 0)
(-0.00891323 0.000148 0)
(-0.00911753 0.000135756 0)
(-0.00930383 0.000123024 0)
(-0.00947145 0.000109847 0)
(-0.00961978 9.62721e-05 0)
(-0.00974829 8.23441e-05 0)
(-0.00985651 6.81096e-05 0)
(-0.00994402 5.36162e-05 0)
(-0.0100105 3.89113e-05 0)
(-0.0100556 2.40428e-05 0)
(-0.0100793 9.05994e-06 0)
(-0.0100813 -5.98774e-06 0)
(-0.0100616 -2.10505e-05 0)
(-0.0100202 -3.60773e-05 0)
(-0.00995728 -5.10164e-05 0)
(-0.00987294 -6.58159e-05 0)
(-0.00976742 -8.04224e-05 0)
(-0.00964106 -9.47817e-05 0)
(-0.00949427 -0.000108839 0)
(-0.0093275 -0.000122541 0)
(-0.00914134 -0.000135831 0)
(-0.0089364 -0.000148653 0)
(-0.00871342 -0.000160953 0)
(-0.00847318 -0.000172675 0)
(-0.00821657 -0.000183761 0)
(-0.00794453 -0.000194156 0)
(-0.00765812 -0.000203806 0)
(-0.00735844 -0.000212655 0)
(-0.00704669 -0.000220649 0)
(-0.00672412 -0.000227736 0)
(-0.00639208 -0.000233864 0)
(-0.00605198 -0.000238984 0)
(-0.00570531 -0.000243046 0)
(-0.00535359 -0.000246006 0)
(-0.00499846 -0.000247819 0)
(-0.00464156 -0.000248443 0)
(-0.00428462 -0.000247842 0)
(-0.00392941 -0.000245979 0)
(-0.00357774 -0.000242822 0)
(-0.00323147 -0.000238343 0)
(-0.00289247 -0.000232521 0)
(-0.00256265 -0.000225337 0)
(-0.00224392 -0.000216782 0)
(-0.00193821 -0.000206851 0)
(-0.00164742 -0.000195549 0)
(-0.00137343 -0.000182889 0)
(-0.00111809 -0.000168899 0)
(-0.000883164 -0.000153621 0)
(-0.000670345 -0.000137117 0)
(-0.000481185 -0.000119474 0)
(-0.000317065 -0.000100818 0)
(-0.000179132 -8.13213e-05 0)
(-6.82088e-05 -6.1228e-05 0)
(1.53125e-05 -4.08872e-05 0)
(7.1637e-05 -2.08067e-05 0)
(0.000101798 -1.73719e-06 0)
(0.000107975 1.51963e-05 0)
(9.38559e-05 2.83005e-05 0)
(6.51973e-05 3.50207e-05 0)
(3.16712e-05 3.16672e-05 0)
(7.61788e-06 1.45213e-05 0)
(8.9906e-06 -3.41057e-05 0)
(3.37961e-05 -6.33467e-05 0)
(6.22534e-05 -6.19647e-05 0)
(7.7087e-05 -3.88014e-05 0)
(6.67395e-05 -1.08703e-06 0)
(2.40252e-05 4.57776e-05 0)
(-5.58106e-05 9.79047e-05 0)
(-0.000175609 0.000152546 0)
(-0.000336671 0.000207767 0)
(-0.000539136 0.000262204 0)
(-0.000782278 0.000314895 0)
(-0.00106472 0.000365159 0)
(-0.00138461 0.000412513 0)
(-0.00173974 0.000456622 0)
(-0.00212764 0.000497254 0)
(-0.00254568 0.000534261 0)
(-0.00299107 0.000567549 0)
(-0.00346098 0.000597074 0)
(-0.00395251 0.000622825 0)
(-0.00446273 0.00064482 0)
(-0.00498876 0.000663096 0)
(-0.0055277 0.000677711 0)
(-0.0060767 0.000688733 0)
(-0.00663297 0.000696244 0)
(-0.00719377 0.000700334 0)
(-0.00775643 0.000701099 0)
(-0.00831834 0.000698642 0)
(-0.00887699 0.000693071 0)
(-0.00942994 0.000684497 0)
(-0.00997483 0.000673034 0)
(-0.0105094 0.000658799 0)
(-0.0110315 0.00064191 0)
(-0.0115389 0.000622486 0)
(-0.0120299 0.000600648 0)
(-0.0125023 0.000576518 0)
(-0.0129545 0.000550219 0)
(-0.0133848 0.000521876 0)
(-0.0137916 0.000491614 0)
(-0.0141733 0.000459557 0)
(-0.0145286 0.000425834 0)
(-0.0148561 0.000390572 0)
(-0.0151548 0.000353899 0)
(-0.0154235 0.000315947 0)
(-0.0156613 0.000276846 0)
(-0.0158672 0.00023673 0)
(-0.0160405 0.000195731 0)
(-0.0161806 0.000153988 0)
(-0.016287 0.000111639 0)
(-0.0163591 6.88227e-05 0)
(-0.0163967 2.56816e-05 0)
(-0.0163996 -1.76407e-05 0)
(-0.0163677 -6.09986e-05 0)
(-0.0163011 -0.000104245 0)
(-0.0161998 -0.000147231 0)
(-0.0160642 -0.000189803 0)
(-0.0158947 -0.000231809 0)
(-0.0156918 -0.000273095 0)
(-0.0154562 -0.000313501 0)
(-0.0151885 -0.000352872 0)
(-0.0148898 -0.000391048 0)
(-0.0145611 -0.000427871 0)
(-0.0142034 -0.000463179 0)
(-0.0138182 -0.000496814 0)
(-0.0134067 -0.000528615 0)
(-0.0129706 -0.000558424 0)
(-0.0125116 -0.000586084 0)
(-0.0120313 -0.000611439 0)
(-0.0115317 -0.000634337 0)
(-0.0110148 -0.000654629 0)
(-0.0104828 -0.00067217 0)
(-0.00993792 -0.00068682 0)
(-0.00938251 -0.000698444 0)
(-0.00881904 -0.000706914 0)
(-0.00825006 -0.000712108 0)
(-0.00767822 -0.000713914 0)
(-0.00710625 -0.000712229 0)
(-0.00653694 -0.000706957 0)
(-0.00597316 -0.000698018 0)
(-0.00541782 -0.000685341 0)
(-0.00487388 -0.000668875 0)
(-0.00434432 -0.000648581 0)
(-0.00383212 -0.000624445 0)
(-0.00334028 -0.000596472 0)
(-0.00287173 -0.000564697 0)
(-0.00242938 -0.000529183 0)
(-0.00201602 -0.000490036 0)
(-0.00163435 -0.000447409 0)
(-0.00128686 -0.00040152 0)
(-0.000975833 -0.000352666 0)
(-0.000703249 -0.00030125 0)
(-0.000470682 -0.000247817 0)
(-0.000279185 -0.000193111 0)
(-0.000129125 -0.000138152 0)
(-1.99716e-05 -8.43439e-05 0)
(4.99836e-05 -3.36461e-05 0)
(8.39846e-05 1.12035e-05 0)
(8.71528e-05 4.63886e-05 0)
(6.69563e-05 6.66838e-05 0)
(3.51466e-05 6.5221e-05 0)
(9.08828e-06 3.39378e-05 0)
(7.83304e-06 -5.22338e-05 0)
(2.619e-05 -8.91728e-05 0)
(3.97732e-05 -7.69438e-05 0)
(3.09689e-05 -2.9746e-05 0)
(-1.23495e-05 4.16204e-05 0)
(-9.81151e-05 0.000128813 0)
(-0.000231752 0.00022554 0)
(-0.000416628 0.000327151 0)
(-0.000654393 0.000430226 0)
(-0.000945333 0.000532258 0)
(-0.00128867 0.00063141 0)
(-0.00168281 0.000726337 0)
(-0.00212551 0.000816062 0)
(-0.00261406 0.000899878 0)
(-0.00314536 0.000977286 0)
(-0.00371608 0.00104794 0)
(-0.00432266 0.00111162 0)
(-0.00496144 0.00116819 0)
(-0.00562865 0.0012176 0)
(-0.00632049 0.00125985 0)
(-0.00703314 0.00129499 0)
(-0.00776281 0.0013231 0)
(-0.00850574 0.0013443 0)
(-0.0092582 0.00135873 0)
(-0.0100166 0.00136654 0)
(-0.0107773 0.00136793 0)
(-0.0115368 0.00136306 0)
(-0.0122919 0.00135215 0)
(-0.0130391 0.0013354 0)
(-0.0137754 0.00131303 0)
(-0.0144977 0.00128525 0)
(-0.0152031 0.0012523 0)
(-0.0158887 0.00121441 0)
(-0.016552 0.00117181 0)
(-0.0171903 0.00112473 0)
(-0.0178012 0.00107341 0)
(-0.0183824 0.0010181 0)
(-0.0189318 0.000959034 0)
(-0.0194474 0.000896465 0)
(-0.0199273 0.000830639 0)
(-0.0203697 0.000761805 0)
(-0.020773 0.000690215 0)
(-0.0211358 0.000616126 0)
(-0.0214567 0.000539795 0)
(-0.0217347 0.000461483 0)
(-0.0219686 0.000381453 0)
(-0.0221575 0.000299974 0)
(-0.0223009 0.000217316 0)
(-0.022398 0.000133752 0)
(-0.0224484 4.95626e-05 0)
(-0.022452 -3.49724e-05 0)
(-0.0224085 -0.000119567 0)
(-0.0223181 -0.000203934 0)
(-0.022181 -0.000287778 0)
(-0.0219975 -0.000370805 0)
(-0.0217683 -0.000452713 0)
(-0.0214939 -0.000533202 0)
(-0.0211754 -0.000611964 0)
(-0.0208137 -0.000688694 0)
(-0.02041 -0.000763081 0)
(-0.0199659 -0.000834815 0)
(-0.0194828 -0.000903587 0)
(-0.0189625 -0.000969085 0)
(-0.0184068 -0.001031 0)
(-0.017818 -0.00108903 0)
(-0.0171981 -0.00114286 0)
(-0.0165496 -0.00119221 0)
(-0.0158751 -0.00123676 0)
(-0.0151774 -0.00127625 0)
(-0.0144592 -0.00131039 0)
(-0.0137236 -0.0013389 0)
(-0.0129737 -0.00136155 0)
(-0.012213 -0.00137807 0)
(-0.0114447 -0.00138826 0)
(-0.0106724 -0.00139188 0)
(-0.00989978 -0.00138875 0)
(-0.00913054 -0.0013787 0)
(-0.0083685 -0.00136158 0)
(-0.0076175 -0.00133727 0)
(-0.00688147 -0.00130568 0)
(-0.00616434 -0.00126677 0)
(-0.00547003 -0.00122052 0)
(-0.00480247 -0.00116696 0)
(-0.00416548 -0.00110619 0)
(-0.00356284 -0.00103837 0)
(-0.00299815 -0.000963735 0)
(-0.00247485 -0.000882626 0)
(-0.00199611 -0.000795507 0)
(-0.00156479 -0.000702998 0)
(-0.00118331 -0.000605927 0)
(-0.000853554 -0.000505386 0)
(-0.000576734 -0.000402828 0)
(-0.00035318 -0.000300179 0)
(-0.000182131 -0.000200015 0)
(-6.14445e-05 -0.000105785 0)
(1.27312e-05 -2.21077e-05 0)
(4.62662e-05 4.48545e-05 0)
(4.74534e-05 8.70409e-05 0)
(2.87569e-05 9.41681e-05 0)
(8.17454e-06 5.30118e-05 0)
(5.42311e-06 -6.44047e-05 0)
(1.24979e-05 -9.95304e-05 0)
(3.03068e-06 -6.72312e-05 0)
(-3.88853e-05 1.33177e-05 0)
(-0.000124866 0.000127861 0)
(-0.000262962 0.000265206 0)
(-0.000458751 0.000416684 0)
(-0.000715747 0.000575684 0)
(-0.0010357 0.000737193 0)
(-0.00141893 0.000897423 0)
(-0.00186456 0.00105352 0)
(-0.00237079 0.00120334 0)
(-0.00293508 0.00134528 0)
(-0.00355427 0.00147816 0)
(-0.00422479 0.00160112 0)
(-0.00494269 0.00171354 0)
(-0.00570379 0.00181501 0)
(-0.00650371 0.00190526 0)
(-0.00733794 0.00198417 0)
(-0.00820192 0.00205169 0)
(-0.00909104 0.00210787 0)
(-0.0100007 0.00215281 0)
(-0.0109263 0.00218666 0)
(-0.0118633 0.00220964 0)
(-0.0128073 0.00222197 0)
(-0.0137539 0.00222393 0)
(-0.0146989 0.00221581 0)
(-0.015638 0.00219791 0)
(-0.0165673 0.00217056 0)
(-0.0174828 0.00213411 0)
(-0.0183809 0.0020889 0)
(-0.0192578 0.0020353 0)
(-0.0201101 0.00197367 0)
(-0.0209345 0.00190438 0)
(-0.0217278 0.00182783 0)
(-0.022487 0.00174439 0)
(-0.0232093 0.00165445 0)
(-0.0238921 0.00155842 0)
(-0.0245327 0.00145668 0)
(-0.0251289 0.00134965 0)
(-0.0256785 0.00123772 0)
(-0.0261795 0.00112132 0)
(-0.0266301 0.00100085 0)
(-0.0270286 0.000876743 0)
(-0.0273737 0.000749417 0)
(-0.0276641 0.000619306 0)
(-0.0278985 0.000486844 0)
(-0.0280763 0.000352474 0)
(-0.0281966 0.000216643 0)
(-0.0282589 7.9804e-05 0)
(-0.028263 -5.75836e-05 0)
(-0.0282086 -0.000195055 0)
(-0.0280959 -0.00033214 0)
(-0.0279252 -0.000468361 0)
(-0.0276969 -0.000603237 0)
(-0.0274117 -0.000736281 0)
(-0.0270706 -0.000867 0)
(-0.0266745 -0.0009949 0)
(-0.026225 -0.00111948 0)
(-0.0257233 -0.00124024 0)
(-0.0251714 -0.00135669 0)
(-0.0245711 -0.0014683 0)
(-0.0239247 -0.0015746 0)
(-0.0232344 -0.00167507 0)
(-0.0225028 -0.00176922 0)
(-0.0217328 -0.00185657 0)
(-0.0209273 -0.00193662 0)
(-0.0200895 -0.00200893 0)
(-0.0192227 -0.00207301 0)
(-0.0183305 -0.00212844 0)
(-0.0174167 -0.00217477 0)
(-0.016485 -0.00221161 0)
(-0.0155397 -0.00223857 0)
(-0.0145849 -0.00225529 0)
(-0.0136248 -0.00226143 0)
(-0.0126641 -0.00225671 0)
(-0.0117072 -0.00224085 0)
(-0.0107589 -0.00221363 0)
(-0.00982373 -0.00217489 0)
(-0.00890657 -0.00212451 0)
(-0.00801217 -0.00206241 0)
(-0.00714529 -0.00198862 0)
(-0.00631065 -0.00190323 0)
(-0.00551288 -0.00180641 0)
(-0.00475647 -0.00169847 0)
(-0.00404572 -0.00157983 0)
(-0.0033847 -0.0014511 0)
(-0.00277714 -0.00131306 0)
(-0.00222637 -0.00116676 0)
(-0.00173518 -0.00101357 0)
(-0.00130573 -0.000855266 0)
(-0.000939374 -0.000694142 0)
(-0.000636459 -0.000533188 0)
(-0.000396141 -0.000376283 0)
(-0.000216104 -0.000228477 0)
(-9.22768e-05 -9.63285e-05 0)
(-1.85547e-05 1.16706e-05 0)
(1.35629e-05 8.46908e-05 0)
(1.62038e-05 0.000109095 0)
(5.98024e-06 6.6769e-05 0)
(2.41107e-06 -6.8242e-05 0)
(-4.72566e-06 -8.89769e-05 0)
(-4.27625e-05 -2.57213e-05 0)
(-0.000124502 9.82848e-05 0)
(-0.000260236 0.000265691 0)
(-0.000457635 0.000462681 0)
(-0.000722025 0.000678334 0)
(-0.00105674 0.000904128 0)
(-0.0014634 0.00113344 0)
(-0.00194219 0.00136116 0)
(-0.00249208 0.00158332 0)
(-0.00311102 0.00179691 0)
(-0.00379618 0.0019996 0)
(-0.00454403 0.00218965 0)
(-0.00535054 0.00236577 0)
(-0.00621128 0.002527 0)
(-0.0071215 0.00267269 0)
(-0.00807621 0.0028024 0)
(-0.00907027 0.00291587 0)
(-0.0100984 0.00301301 0)
(-0.0111554 0.00309381 0)
(-0.0122359 0.00315841 0)
(-0.0133345 0.00320699 0)
(-0.014446 0.00323982 0)
(-0.0155654 0.00325721 0)
(-0.0166873 0.00325953 0)
(-0.0178069 0.00324719 0)
(-0.0189194 0.00322062 0)
(-0.0200199 0.00318027 0)
(-0.0211039 0.00312665 0)
(-0.022167 0.00306024 0)
(-0.023205 0.00298156 0)
(-0.0242137 0.00289115 0)
(-0.0251893 0.00278955 0)
(-0.026128 0.00267731 0)
(-0.0270263 0.00255499 0)
(-0.0278809 0.00242317 0)
(-0.0286885 0.00228241 0)
(-0.0294463 0.00213331 0)
(-0.0301514 0.00197645 0)
(-0.0308014 0.00181242 0)
(-0.0313939 0.00164185 0)
(-0.0319266 0.00146532 0)
(-0.0323978 0.00128346 0)
(-0.0328057 0.0010969 0)
(-0.0331488 0.000906271 0)
(-0.0334258 0.000712206 0)
(-0.0336357 0.000515359 0)
(-0.0337777 0.000316385 0)
(-0.033851 0.00011595 0)
(-0.0338555 -8.52729e-05 0)
(-0.0337908 -0.000286601 0)
(-0.0336572 -0.000487345 0)
(-0.033455 -0.000686805 0)
(-0.0331846 -0.000884276 0)
(-0.0328471 -0.00107904 0)
(-0.0324434 -0.00127039 0)
(-0.0319748 -0.0014576 0)
(-0.0314429 -0.00163992 0)
(-0.0308495 -0.00181665 0)
(-0.0301967 -0.00198703 0)
(-0.0294867 -0.00215035 0)
(-0.0287221 -0.00230587 0)
(-0.0279057 -0.00245287 0)
(-0.0270405 -0.00259062 0)
(-0.0261299 -0.00271843 0)
(-0.0251772 -0.00283558 0)
(-0.0241863 -0.00294141 0)
(-0.0231611 -0.00303525 0)
(-0.0221057 -0.00311646 0)
(-0.0210246 -0.00318443 0)
(-0.0199223 -0.00323856 0)
(-0.0188035 -0.00327831 0)
(-0.0176732 -0.00330318 0)
(-0.0165365 -0.00331268 0)
(-0.0153985 -0.00330641 0)
(-0.0142646 -0.00328399 0)
(-0.0131402 -0.00324514 0)
(-0.0120307 -0.00318963 0)
(-0.0109418 -0.0031173 0)
(-0.00987878 -0.0030281 0)
(-0.0088473 -0.00292209 0)
(-0.00785274 -0.00279943 0)
(-0.00690042 -0.00266044 0)
(-0.00599548 -0.00250559 0)
(-0.00514282 -0.00233556 0)
(-0.00434705 -0.00215126 0)
(-0.00361239 -0.00195389 0)
(-0.00294257 -0.00174501 0)
(-0.00234074 -0.00152661 0)
(-0.00180931 -0.00130123 0)
(-0.00134982 -0.00107213 0)
(-0.00096274 -0.000843428 0)
(-0.000647298 -0.000620371 0)
(-0.000401245 -0.000409624 0)
(-0.000220617 -0.000219649 0)
(-9.94762e-05 -6.11577e-05 0)
(-2.95973e-05 5.24425e-05 0)
(5.79516e-09 0.00010447 0)
(3.15084e-06 7.2761e-05 0)
(-8.53966e-07 -6.24947e-05 0)
(-2.38585e-05 -5.40901e-05 0)
(-9.3965e-05 5.24305e-05 0)
(-0.000220059 0.000230775 0)
(-0.00041054 0.000461002 0)
(-0.000672319 0.000726991 0)
(-0.00101014 0.00101578 0)
(-0.00142688 0.00131704 0)
(-0.00192382 0.00162262 0)
(-0.00250087 0.00192607 0)
(-0.00315671 0.00222231 0)
(-0.00388902 0.00250738 0)
(-0.00469464 0.00277822 0)
(-0.00556968 0.00303245 0)
(-0.00650971 0.00326828 0)
(-0.00750983 0.00348439 0)
(-0.0085648 0.00367982 0)
(-0.0096691 0.00385391 0)
(-0.010817 0.00400627 0)
(-0.0120027 0.00413669 0)
(-0.0132203 0.00424515 0)
(-0.0144637 0.00433174 0)
(-0.0157271 0.0043967 0)
(-0.0170046 0.00444034 0)
(-0.0182902 0.00446307 0)
(-0.0195784 0.00446534 0)
(-0.0208633 0.0044477 0)
(-0.0221396 0.0044107 0)
(-0.0234019 0.00435496 0)
(-0.024645 0.00428112 0)
(-0.0258638 0.00418985 0)
(-0.0270536 0.00408185 0)
(-0.0282098 0.00395783 0)
(-0.0293277 0.00381854 0)
(-0.0304033 0.00366471 0)
(-0.0314324 0.0034971 0)
(-0.0324113 0.00331651 0)
(-0.0333364 0.0031237 0)
(-0.0342043 0.00291948 0)
(-0.0350118 0.00270466 0)
(-0.0357561 0.00248004 0)
(-0.0364344 0.00224646 0)
(-0.0370444 0.00200475 0)
(-0.0375837 0.00175576 0)
(-0.0380506 0.00150034 0)
(-0.0384432 0.00123937 0)
(-0.0387601 0.000973711 0)
(-0.0390001 0.00070426 0)
(-0.0391623 0.000431918 0)
(-0.039246 0.000157596 0)
(-0.0392508 -0.000117785 0)
(-0.0391765 -0.000393289 0)
(-0.0390232 -0.000667972 0)
(-0.0387913 -0.000940877 0)
(-0.0384816 -0.00121104 0)
(-0.0380949 -0.00147749 0)
(-0.0376324 -0.00173924 0)
(-0.0370957 -0.0019953 0)
(-0.0364866 -0.00224468 0)
(-0.035807 -0.00248638 0)
(-0.0350594 -0.0027194 0)
(-0.0342464 -0.00294276 0)
(-0.0333709 -0.00315545 0)
(-0.032436 -0.00335649 0)
(-0.0314453 -0.00354491 0)
(-0.0304024 -0.00371975 0)
(-0.0293114 -0.00388006 0)
(-0.0281765 -0.00402492 0)
(-0.0270021 -0.00415344 0)
(-0.0257931 -0.00426476 0)
(-0.0245543 -0.00435804 0)
(-0.023291 -0.00443252 0)
(-0.0220086 -0.00448744 0)
(-0.0207126 -0.00452213 0)
(-0.0194087 -0.00453598 0)
(-0.0181028 -0.00452843 0)
(-0.016801 -0.00449902 0)
(-0.0155093 -0.00444737 0)
(-0.0142338 -0.00437319 0)
(-0.0129809 -0.00427632 0)
(-0.0117566 -0.00415673 0)
(-0.0105671 -0.00401453 0)
(-0.00941855 -0.00384998 0)
(-0.00831677 -0.00366356 0)
(-0.0072675 -0.00345597 0)
(-0.00627619 -0.00322817 0)
(-0.00534792 -0.00298145 0)
(-0.00448737 -0.00271747 0)
(-0.00369866 -0.00243835 0)
(-0.00298526 -0.00214679 0)
(-0.00234988 -0.00184615 0)
(-0.00179431 -0.00154069 0)
(-0.00131925 -0.00123569 0)
(-0.000924169 -0.000937765 0)
(-0.000607082 -0.000655152 0)
(-0.00036441 -0.000398109 0)
(-0.000190708 -0.000179384 0)
(-7.84016e-05 -1.46741e-05 0)
(-1.82134e-05 7.67603e-05 0)
(4.11561e-08 6.96682e-05 0)
(-4.18309e-06 -4.65483e-05 0)
(-4.38858e-05 7.16066e-06 0)
(-0.000148107 0.000170357 0)
(-0.000321422 0.000414614 0)
(-0.000569995 0.000717943 0)
(-0.000899688 0.00106229 0)
(-0.00131441 0.00143289 0)
(-0.00181635 0.00181782 0)
(-0.00240629 0.00220745 0)
(-0.00308368 0.00259407 0)
(-0.00384685 0.00297151 0)
(-0.00469311 0.00333486 0)
(-0.00561892 0.00368028 0)
(-0.00662005 0.00400475 0)
(-0.00769164 0.00430595 0)
(-0.00882838 0.00458212 0)
(-0.0100246 0.00483199 0)
(-0.0112742 0.00505464 0)
(-0.012571 0.00524951 0)
(-0.0139086 0.00541628 0)
(-0.0152807 0.00555484 0)
(-0.0166805 0.00566529 0)
(-0.0181016 0.00574787 0)
(-0.0195376 0.00580295 0)
(-0.0209819 0.00583102 0)
(-0.0224283 0.00583264 0)
(-0.0238705 0.00580847 0)
(-0.0253024 0.00575922 0)
(-0.0267182 0.00568565 0)
(-0.0281121 0.0055886 0)
(-0.0294784 0.00546891 0)
(-0.0308119 0.00532748 0)
(-0.0321074 0.00516522 0)
(-0.03336 0.00498308 0)
(-0.0345648 0.00478203 0)
(-0.0357176 0.00456306 0)
(-0.0368139 0.00432717 0)
(-0.0378498 0.00407537 0)
(-0.0388215 0.00380872 0)
(-0.0397256 0.00352825 0)
(-0.0405587 0.00323502 0)
(-0.041318 0.00293013 0)
(-0.0420006 0.00261464 0)
(-0.0426043 0.00228968 0)
(-0.0431266 0.00195636 0)
(-0.0435659 0.0016158 0)
(-0.0439204 0.00126916 0)
(-0.0441888 0.000917594 0)
(-0.0443701 0.000562279 0)
(-0.0444636 0.000204404 0)
(-0.0444687 -0.000154828 0)
(-0.0443852 -0.000514197 0)
(-0.0442135 -0.000872472 0)
(-0.0439538 -0.00122841 0)
(-0.0436069 -0.00158075 0)
(-0.043174 -0.00192822 0)
(-0.0426563 -0.00226955 0)
(-0.0420555 -0.00260345 0)
(-0.0413736 -0.00292863 0)
(-0.0406129 -0.00324379 0)
(-0.0397761 -0.00354764 0)
(-0.0388661 -0.00383889 0)
(-0.037886 -0.00411626 0)
(-0.0368395 -0.00437846 0)
(-0.0357303 -0.00462423 0)
(-0.0345628 -0.00485234 0)
(-0.0333411 -0.00506156 0)
(-0.0320702 -0.00525072 0)
(-0.0307549 -0.00541865 0)
(-0.0294005 -0.00556426 0)
(-0.0280126 -0.00568647 0)
(-0.0265968 -0.0057843 0)
(-0.0251591 -0.00585679 0)
(-0.0237057 -0.0059031 0)
(-0.0222429 -0.00592244 0)
(-0.0207772 -0.00591412 0)
(-0.0193152 -0.00587757 0)
(-0.0178637 -0.00581232 0)
(-0.0164293 -0.00571804 0)
(-0.015019 -0.00559456 0)
(-0.0136394 -0.00544187 0)
(-0.0122975 -0.00526016 0)
(-0.0109997 -0.00504982 0)
(-0.0097526 -0.00481151 0)
(-0.00856237 -0.0045462 0)
(-0.00743496 -0.00425517 0)
(-0.00637593 -0.0039401 0)
(-0.00539036 -0.00360318 0)
(-0.00448276 -0.00324714 0)
(-0.00365698 -0.0028754 0)
(-0.00291605 -0.0024922 0)
(-0.00226209 -0.00210277 0)
(-0.00169614 -0.00171358 0)
(-0.00121803 -0.00133254 0)
(-0.000826265 -0.000969384 0)
(-0.000517854 -0.000636014 0)
(-0.0002881 -0.00034698 0)
(-0.000130359 -0.000119925 0)
(-3.74204e-05 2.38237e-05 0)
(-3.15219e-06 5.68198e-05 0)
(-7.47646e-06 -2.01917e-05 0)
(-6.41812e-05 9.58057e-05 0)
(-0.000203547 0.000329872 0)
(-0.00042572 0.000652192 0)
(-0.000734448 0.00103925 0)
(-0.00113436 0.00147142 0)
(-0.00162833 0.00193243 0)
(-0.0022177 0.00240893 0)
(-0.00290257 0.00288997 0)
(-0.00368184 0.00336665 0)
(-0.00455335 0.00383176 0)
(-0.00551398 0.00427948 0)
(-0.00655978 0.00470519 0)
(-0.00768611 0.0051052 0)
(-0.0088877 0.00547665 0)
(-0.0101588 0.00581734 0)
(-0.0114933 0.00612564 0)
(-0.0128847 0.00640038 0)
(-0.0143263 0.00664078 0)
(-0.0158113 0.00684639 0)
(-0.0173326 0.00701703 0)
(-0.0188832 0.00715276 0)
(-0.0204561 0.00725383 0)
(-0.0220443 0.00732066 0)
(-0.0236407 0.00735381 0)
(-0.0252385 0.00735396 0)
(-0.0268309 0.00732189 0)
(-0.0284114 0.00725846 0)
(-0.0299735 0.00716462 0)
(-0.0315109 0.00704136 0)
(-0.0330176 0.00688975 0)
(-0.0344876 0.00671087 0)
(-0.0359155 0.00650589 0)
(-0.0372958 0.00627596 0)
(-0.0386233 0.0060223 0)
(-0.0398931 0.00574614 0)
(-0.0411007 0.00544873 0)
(-0.0422416 0.00513135 0)
(-0.0433116 0.00479531 0)
(-0.0443071 0.0044419 0)
(-0.0452244 0.00407249 0)
(-0.0460602 0.00368841 0)
(-0.0468117 0.00329103 0)
(-0.047476 0.00288176 0)
(-0.0480509 0.00246198 0)
(-0.0485343 0.00203313 0)
(-0.0489244 0.00159665 0)
(-0.0492197 0.001154 0)
(-0.0494191 0.000706663 0)
(-0.0495218 0.000256127 0)
(-0.0495273 -0.00019609 0)
(-0.0494354 -0.000648455 0)
(-0.0492463 -0.00109942 0)
(-0.0489604 -0.00154742 0)
(-0.0485786 -0.00199087 0)
(-0.048102 -0.00242819 0)
(-0.0475322 -0.00285776 0)
(-0.0468709 -0.00327798 0)
(-0.0461204 -0.00368722 0)
(-0.0452831 -0.00408387 0)
(-0.044362 -0.0044663 0)
(-0.0433603 -0.00483289 0)
(-0.0422814 -0.00518204 0)
(-0.0411292 -0.00551216 0)
(-0.0399081 -0.00582166 0)
(-0.0386223 -0.00610901 0)
(-0.037277 -0.00637267 0)
(-0.035877 -0.00661119 0)
(-0.034428 -0.00682312 0)
(-0.0329356 -0.0070071 0)
(-0.0314058 -0.0071618 0)
(-0.0298448 -0.007286 0)
(-0.0282592 -0.00737854 0)
(-0.0266557 -0.00743836 0)
(-0.025041 -0.00746451 0)
(-0.0234224 -0.00745616 0)
(-0.0218068 -0.00741261 0)
(-0.0202017 -0.00733332 0)
(-0.0186144 -0.00721792 0)
(-0.0170522 -0.00706621 0)
(-0.0155225 -0.00687825 0)
(-0.0140325 -0.00665429 0)
(-0.0125895 -0.0063949 0)
(-0.0112004 -0.00610094 0)
(-0.00987188 -0.00577364 0)
(-0.0086104 -0.00541464 0)
(-0.00742194 -0.00502608 0)
(-0.006312 -0.00461066 0)
(-0.0052855 -0.00417175 0)
(-0.00434667 -0.00371352 0)
(-0.00349895 -0.00324106 0)
(-0.00274485 -0.00276062 0)
(-0.00208586 -0.00227975 0)
(-0.00152233 -0.00180763 0)
(-0.00105336 -0.00135534 0)
(-0.000676755 -0.000936253 0)
(-0.00038874 -0.000566477 0)
(-0.000183797 -0.000265248 0)
(-5.69702e-05 -5.54677e-05 0)
(-6.32338e-06 3.39593e-05 0)
(-1.06829e-05 1.65479e-05 0)
(-8.43663e-05 0.000212209 0)
(-0.000259212 0.000531841 0)
(-0.000530989 0.000944824 0)
(-0.000900969 0.00142655 0)
(-0.00137243 0.00195619 0)
(-0.0019471 0.00251623 0)
(-0.00262533 0.00309206 0)
(-0.00340641 0.0036716 0)
(-0.00428859 0.00424486 0)
(-0.00526911 0.00480366 0)
(-0.00634435 0.00534131 0)
(-0.00750991 0.00585243 0)
(-0.00876068 0.00633269 0)
(-0.010091 0.00677867 0)
(-0.0114946 0.00718775 0)
(-0.012965 0.0075579 0)
(-0.0144953 0.00788769 0)
(-0.0160783 0.00817611 0)
(-0.0177067 0.00842258 0)
(-0.019373 0.00862682 0)
(-0.0210698 0.00878885 0)
(-0.0227893 0.00890893 0)
(-0.0245243 0.00898751 0)
(-0.0262671 0.00902524 0)
(-0.0280105 0.0090229 0)
(-0.0297471 0.00898141 0)
(-0.03147 0.00890179 0)
(-0.0331721 0.00878515 0)
(-0.0348468 0.00863269 0)
(-0.0364875 0.00844569 0)
(-0.038088 0.00822546 0)
(-0.0396421 0.00797338 0)
(-0.0411441 0.00769087 0)
(-0.0425885 0.0073794 0)
(-0.0439698 0.00704046 0)
(-0.0452832 0.00667558 0)
(-0.0465238 0.00628631 0)
(-0.0476874 0.00587425 0)
(-0.0487697 0.00544099 0)
(-0.0497669 0.00498816 0)
(-0.0506755 0.00451743 0)
(-0.0514923 0.00403046 0)
(-0.0522144 0.00352896 0)
(-0.0528392 0.00301464 0)
(-0.0533645 0.00248925 0)
(-0.0537884 0.00195456 0)
(-0.0541093 0.00141234 0)
(-0.054326 0.000864411 0)
(-0.0544376 0.0003126 0)
(-0.0544436 -0.00024124 0)
(-0.0543438 -0.000795236 0)
(-0.0541383 -0.00134749 0)
(-0.0538277 -0.0018961 0)
(-0.0534129 -0.00243913 0)
(-0.0528952 -0.00297464 0)
(-0.0522761 -0.00350066 0)
(-0.0515576 -0.00401524 0)
(-0.0507421 -0.00451639 0)
(-0.0498323 -0.00500214 0)
(-0.0488313 -0.00547052 0)
(-0.0477426 -0.00591955 0)
(-0.04657 -0.00634729 0)
(-0.0453176 -0.00675179 0)
(-0.0439899 -0.00713113 0)
(-0.042592 -0.00748346 0)
(-0.0411288 -0.00780691 0)
(-0.0396061 -0.00809971 0)
(-0.0380295 -0.00836012 0)
(-0.0364054 -0.00858648 0)
(-0.0347401 -0.00877722 0)
(-0.0330404 -0.00893084 0)
(-0.0313132 -0.00904596 0)
(-0.0295656 -0.00912132 0)
(-0.0278052 -0.00915578 0)
(-0.0260394 -0.00914835 0)
(-0.0242759 -0.00909823 0)
(-0.0225225 -0.00900479 0)
(-0.0207872 -0.00886761 0)
(-0.0190777 -0.0086865 0)
(-0.0174019 -0.00846155 0)
(-0.0157677 -0.00819314 0)
(-0.0141826 -0.00788198 0)
(-0.0126542 -0.00752916 0)
(-0.0111896 -0.0071362 0)
(-0.0097956 -0.00670513 0)
(-0.00847875 -0.00623852 0)
(-0.00724495 -0.00573964 0)
(-0.00609953 -0.00521248 0)
(-0.00504718 -0.00466196 0)
(-0.00409176 -0.00409403 0)
(-0.00323628 -0.00351586 0)
(-0.00248278 -0.00293609 0)
(-0.00183221 -0.00236502 0)
(-0.00128443 -0.00181498 0)
(-0.000838135 -0.00130061 0)
(-0.000490624 -0.000839323 0)
(-0.000237613 -0.000451625 0)
(-7.64676e-05 -0.000161561 0)
(-9.4178e-06 1.07955e-06 0)
(-1.37795e-05 6.35072e-05 0)
(-0.000104218 0.000356306 0)
(-0.000314419 0.000776482 0)
(-0.000635919 0.00129304 0)
(-0.00106753 0.00188065 0)
(-0.00161115 0.00251759 0)
(-0.00226724 0.00318532 0)
(-0.00303511 0.00386823 0)
(-0.00391313 0.00455322 0)
(-0.00489879 0.00522935 0)
(-0.00598868 0.00588754 0)
(-0.0071786 0.0065203 0)
(-0.00846363 0.00712153 0)
(-0.00983816 0.00768628 0)
(-0.0112961 0.00821061 0)
(-0.0128307 0.00869143 0)
(-0.0144351 0.00912637 0)
(-0.0161018 0.00951369 0)
(-0.0178234 0.00985219 0)
(-0.019592 0.0101411 0)
(-0.0213996 0.0103801 0)
(-0.0232385 0.0105691 0)
(-0.0251005 0.0107084 0)
(-0.0269777 0.0107984 0)
(-0.0288621 0.01084 0)
(-0.0307461 0.010834 0)
(-0.0326218 0.0107814 0)
(-0.0344817 0.0106835 0)
(-0.0363185 0.0105415 0)
(-0.0381251 0.0103568 0)
(-0.0398944 0.0101309 0)
(-0.0416198 0.00986548 0)
(-0.0432949 0.00956203 0)
(-0.0449134 0.00922229 0)
(-0.0464694 0.00884797 0)
(-0.0479573 0.00844086 0)
(-0.0493718 0.00800279 0)
(-0.0507078 0.00753559 0)
(-0.0519606 0.00704116 0)
(-0.0531257 0.00652141 0)
(-0.0541992 0.0059783 0)
(-0.0551772 0.00541379 0)
(-0.0560563 0.0048299 0)
(-0.0568334 0.00422866 0)
(-0.0575059 0.00361211 0)
(-0.0580712 0.00298234 0)
(-0.0585275 0.00234147 0)
(-0.0588729 0.00169164 0)
(-0.0591062 0.00103499 0)
(-0.0592265 0.000373735 0)
(-0.0592331 -0.000289924 0)
(-0.059126 -0.000953745 0)
(-0.0589051 -0.00161546 0)
(-0.0585713 -0.0022728 0)
(-0.0581253 -0.00292344 0)
(-0.0575685 -0.00356507 0)
(-0.0569027 -0.00419536 0)
(-0.05613 -0.00481195 0)
(-0.0552528 -0.00541248 0)
(-0.0542741 -0.00599462 0)
(-0.0531972 -0.00655599 0)
(-0.0520258 -0.00709426 0)
(-0.0507639 -0.0076071 0)
(-0.0494159 -0.0080922 0)