/*--------------------------------*- C++ -*----------------------------------*\
| =========                 |                                                 |
| \\      /  F ield         | OpenFOAM: The Open Source CFD Toolbox           |
|  \\    /   O peration     | Version:  2212                                  |
|   \\  /    A nd           | Website:  www.openfoam.com                      |
|    \\/     M anipulation  |                                                 |
\*---------------------------------------------------------------------------*/
FoamFile
{
    version     2.0;
    format      ascii;
    arch        "LSB;label=32;scalar=64";
    class       volScalarField;
    location    "0.0355";
    object      p;
}
// * * * * * * * * * * * * * * * * * * * * * * * * * * * * * * * * * * * * * //

dimensions      [0 2 -2 0 0 0 0];

internalField   nonuniform List<scalar> 
10000
(
2.17715e-07
-7.66229e-05
-0.000483239
-0.00117114
-0.00206703
-0.0031361
-0.00433592
-0.00562481
-0.00696516
-0.00832368
-0.00967116
-0.0109823
-0.0122346
-0.0134084
-0.0144871
-0.0154568
-0.0163056
-0.0170236
-0.0176019
-0.0180337
-0.0183136
-0.0184373
-0.0184018
-0.0182048
-0.0178454
-0.0173234
-0.0166398
-0.0157959
-0.0147939
-0.0136365
-0.0123273
-0.0108705
-0.00927063
-0.00753277
-0.00566236
-0.00366518
-0.00154736
0.000684544
0.00302368
0.00546301
0.00799515
0.0106123
0.0133065
0.0160697
0.0188939
0.0217707
0.0246913
0.0276468
0.0306284
0.0336272
0.0366343
0.0396405
0.0426365
0.0456132
0.0485616
0.0514724
0.0543365
0.0571447
0.0598881
0.0625581
0.0651459
0.0676431
0.0700411
0.0723318
0.0745077
0.0765613
0.0784859
0.0802748
0.0819217
0.0834207
0.0847666
0.085955
0.0869822
0.0878452
0.088542
0.089071
0.0894316
0.089624
0.0896497
0.0895116
0.0892138
0.0887617
0.088162
0.0874231
0.0865545
0.0855679
0.0844766
0.0832967
0.0820465
0.0807472
0.0794232
0.0781023
0.0768161
0.0756006
0.0744966
0.0735492
0.0728057
0.0723138
0.0721172
0.0721845
-0.000191161
-0.000260331
-0.000614379
-0.00120632
-0.00197872
-0.00289904
-0.00393457
-0.00505191
-0.00621938
-0.00740767
-0.00859072
-0.00974539
-0.0108511
-0.0118894
-0.0128443
-0.0137019
-0.0144505
-0.0150803
-0.0155826
-0.0159504
-0.0161781
-0.016261
-0.0161959
-0.0159804
-0.0156132
-0.0150938
-0.0144226
-0.0136007
-0.0126298
-0.0115123
-0.0102515
-0.00885111
-0.0073152
-0.00564845
-0.00385599
-0.00194319
8.42664e-05
0.00222018
0.00445803
0.00679121
0.00921275
0.0117153
0.0142911
0.0169327
0.0196324
0.0223821
0.0251734
0.0279979
0.0308472
0.0337127
0.0365861
0.0394584
0.0423208
0.0451647
0.0479813
0.050762
0.053498
0.0561805
0.0588013
0.0613519
0.0638243
0.0662103
0.0685018
0.0706914
0.0727718
0.0747363
0.0765785
0.0782921
0.0798713
0.0813107
0.0826056
0.083752
0.0847468
0.0855874
0.0862721
0.0867996
0.0871698
0.0873831
0.0874415
0.0873478
0.0871066
0.0867234
0.086205
0.0855596
0.0847967
0.0839275
0.0829653
0.0819251
0.0808246
0.0796837
0.078525
0.0773736
0.0762578
0.0752086
0.0742601
0.0734479
0.0728071
0.0723715
0.0721842
0.0722518
-0.000173569
-0.000214738
-0.00051945
-0.00104662
-0.00173812
-0.00256142
-0.00348752
-0.00448755
-0.00553393
-0.00660082
-0.00766446
-0.00870363
-0.00969954
-0.0106352
-0.0114953
-0.0122666
-0.0129376
-0.0134986
-0.0139413
-0.0142586
-0.0144448
-0.0144953
-0.0144065
-0.014176
-0.0138024
-0.0132848
-0.0126234
-0.0118189
-0.0108728
-0.00978737
-0.00856544
-0.00721049
-0.00572628
-0.00411714
-0.00238783
-0.000543439
0.00141063
0.00346853
0.00562408
0.00787095
0.0102024
0.0126115
0.0150909
0.0176333
0.0202315
0.0228776
0.0255636
0.0282813
0.0310227
0.0337798
0.0365441
0.0393075
0.0420612
0.0447971
0.0475066
0.0501815
0.0528134
0.0553941
0.0579154
0.0603695
0.0627484
0.0650444
0.0672499
0.0693578
0.0713613
0.0732541
0.0750299
0.0766831
0.078208
0.0795996
0.0808537
0.0819666
0.0829355
0.0837583
0.0844334
0.0849599
0.0853376
0.0855675
0.0856514
0.0855927
0.0853958
0.0850662
0.0846109
0.0840377
0.0833558
0.0825763
0.0817115
0.0807761
0.0797865
0.0787614
0.0777214
0.0766896
0.075691
0.0747526
0.0739035
0.0731733
0.0725907
0.0721835
0.0719968
0.0720565
0.000153851
8.84602e-05
-0.000211034
-0.000709639
-0.00135742
-0.00212335
-0.0029806
-0.00390305
-0.00486624
-0.0058473
-0.00682469
-0.00777882
-0.00869223
-0.00954932
-0.010336
-0.0110397
-0.0116494
-0.0121556
-0.0125505
-0.0128271
-0.0129797
-0.0130036
-0.0128955
-0.0126527
-0.0122737
-0.0117577
-0.0111044
-0.0103144
-0.00938905
-0.00833032
-0.007141
-0.0058242
-0.0043834
-0.00282267
-0.00114662
0.000639954
0.00253197
0.00452391
0.00660984
0.0087836
0.0110388
0.0133686
0.0157661
0.0182244
0.0207365
0.0232947
0.0258914
0.0285185
0.0311684
0.0338333
0.0365054
0.0391765
0.0418383
0.0444827
0.0471016
0.0496871
0.0522313
0.0547261
0.0571637
0.0595364
0.0618366
0.0640569
0.0661903
0.0682298
0.070169
0.0720017
0.0737222
0.0753248
0.0768044
0.0781562
0.0793763
0.0804614
0.0814089
0.0822169
0.0828839
0.0834093
0.083793
0.084036
0.0841405
0.0841097
0.0839481
0.0836612
0.0832556
0.082739
0.0821203
0.0814098
0.0806195
0.0797631
0.0788559
0.0779152
0.0769599
0.0760108
0.0750902
0.0742218
0.0734309
0.072743
0.0721828
0.0717755
0.0715614
0.0715674
0.000770697
0.000616929
0.00027833
-0.000224049
-0.000855969
-0.00159056
-0.00240356
-0.00327171
-0.00417337
-0.00508827
-0.00599744
-0.00688312
-0.00772906
-0.00852086
-0.00924565
-0.0098917
-0.0104487
-0.0109077
-0.0112608
-0.0115017
-0.0116247
-0.0116254
-0.0115002
-0.0112466
-0.0108631
-0.0103486
-0.00970274
-0.00892609
-0.00801981
-0.00698576
-0.00582644
-0.00454472
-0.00314387
-0.00162778
-8.62826e-07
0.00173236
0.00356709
0.00549806
0.00751956
0.00962565
0.0118102
0.0140666
0.0163883
0.0187688
0.021201
0.0236779
0.0261917
0.0287349
0.0313
0.0338798
0.0364666
0.0390524
0.0416291
0.044189
0.0467242
0.0492272
0.0516905
0.0541062
0.0564667
0.0587644
0.0609923
0.0631431
0.0652102
0.0671871
0.0690674
0.0708452
0.0725149
0.0740713
0.0755094
0.0768248
0.078014
0.0790737
0.0800016
0.0807958
0.0814552
0.0819791
0.0823677
0.0826221
0.0827443
0.0827378
0.0826068
0.0823567
0.0819938
0.0815256
0.0809604
0.080308
0.0795797
0.0787882
0.0779477
0.077074
0.0761844
0.0752972
0.0744325
0.0736108
0.072854
0.072184
0.0716224
0.0711912
0.0709199
0.0708269
0.00161408
0.00133417
0.000924495
0.000390857
-0.000250652
-0.000977429
-0.00176839
-0.00260354
-0.00346374
-0.00433107
-0.00518882
-0.00602128
-0.00681384
-0.00755315
-0.00822731
-0.00882562
-0.00933848
-0.00975748
-0.0100753
-0.0102857
-0.0103833
-0.0103639
-0.010224
-0.00996139
-0.00957417
-0.00906128
-0.00842239
-0.00765802
-0.00676925
-0.00575773
-0.00462577
-0.00337605
-0.00201168
-0.000536414
0.00104558
0.00273001
0.00451238
0.00638758
0.00835006
0.0103941
0.0125138
0.0147029
0.0169552
0.0192643
0.0216234
0.0240255
0.0264633
0.0289296
0.0314171
0.0339189
0.0364275
0.0389352
0.041434
0.0439165
0.0463753
0.0488031
0.0511926
0.0535361
0.0558263
0.0580557
0.0602177
0.0623054
0.0643124
0.0662323
0.0680592
0.0697871
0.0714109
0.0729253
0.0743259
0.0756085
0.0767696
0.0778063
0.0787162
0.0794979
0.08015
0.0806722
0.0810646
0.0813283
0.0814655
0.0814794
0.0813742
0.0811551
0.0808279
0.0803998
0.0798787
0.0792738
0.0785954
0.0778554
0.0770668
0.0762439
0.0754022
0.0745583
0.0737295
0.0729339
0.0721899
0.0715165
0.0709323
0.0704566
0.0701039
0.06988
0.00263179
0.00220316
0.00170007
0.00111317
0.000440285
-0.000299679
-0.00108856
-0.00190984
-0.00274696
-0.00358417
-0.00440667
-0.00520061
-0.00595316
-0.00665224
-0.00728679
-0.00784707
-0.00832438
-0.00871087
-0.00899964
-0.00918475
-0.00926122
-0.00922511
-0.00907324
-0.00880315
-0.00841313
-0.00790209
-0.00726978
-0.00651669
-0.00564379
-0.0046526
-0.00354527
-0.00232435
-0.00099286
0.000445575
0.00198703
0.00362749
0.00536265
0.00718751
0.00909664
0.0110845
0.0131456
0.015274
0.0174636
0.019708
0.022001
0.0243355
0.0267045
0.0291012
0.0315187
0.0339501
0.0363882
0.0388252
0.0412538
0.0436665
0.0460565
0.0484168
0.0507399
0.0530185
0.0552453
0.0574135
0.0595164
0.0615475
0.0635008
0.0653699
0.0671489
0.0688323
0.0704149
0.071892
0.0732591
0.0745124
0.0756485
0.0766646
0.0775584
0.0783285
0.0789738
0.0794938
0.0798889
0.08016
0.0803092
0.0803398
0.0802556
0.0800615
0.0797631
0.079367
0.0788807
0.0783127
0.0776725
0.076971
0.0762201
0.0754327
0.0746226
0.0738044
0.0729934
0.0722051
0.0714553
0.0707597
0.0701349
0.0695972
0.0691452
0.0687705
0.0037777
0.0031873
0.00257586
0.00191938
0.00119782
0.000427049
-0.000376912
-0.00120061
-0.00203042
-0.00285257
-0.00365414
-0.00442296
-0.00514759
-0.00581735
-0.00642237
-0.00695368
-0.00740333
-0.00776411
-0.00802965
-0.00819445
-0.00825397
-0.00820448
-0.00804295
-0.00776701
-0.00737507
-0.00686617
-0.00624011
-0.00549738
-0.00463883
-0.00366589
-0.00258062
-0.00138552
-8.35522e-05
0.00132187
0.00282707
0.00442818
0.00612101
0.00790065
0.00976184
0.0116994
0.0137079
0.0157817
0.017915
0.0201015
0.0223349
0.0246087
0.0269161
0.0292504
0.0316051
0.0339734
0.0363481
0.0387219
0.0410875
0.043438
0.0457665
0.0480663
0.0503301
0.0525508
0.0547212
0.0568348
0.0588851
0.0608661
0.0627716
0.0645955
0.0663321
0.067976
0.0695222
0.0709662
0.0723038
0.0735312
0.0746451
0.0756428
0.0765223
0.0772818
0.0779206
0.0784381
0.0788347
0.0791113
0.07927
0.0793136
0.0792458
0.0790712
0.0787951
0.0784236
0.0779635
0.0774228
0.0768102
0.0761355
0.0754096
0.074644
0.0738509
0.0730433
0.0722344
0.0714375
0.070666
0.0699328
0.0692527
0.0686397
0.0680758
0.0675388
0.00501216
0.0042534
0.00352402
0.00278625
0.00200289
0.00118729
0.000353894
-0.000486246
-0.00132215
-0.0021423
-0.0029354
-0.00369079
-0.00439839
-0.00504879
-0.00563328
-0.00614379
-0.00657302
-0.00691437
-0.0071621
-0.00731126
-0.00735766
-0.00729784
-0.00712888
-0.00684862
-0.00645566
-0.00594922
-0.00532915
-0.00459586
-0.00375018
-0.00279352
-0.00172793
-0.000555895
0.000719799
0.00209592
0.00356895
0.00513513
0.00679024
0.00852956
0.0103481
0.0122408
0.0142026
0.0162279
0.018311
0.0204458
0.0226262
0.0248459
0.0270985
0.0293775
0.0316763
0.0339884
0.0363068
0.0386245
0.0409342
0.0432295
0.0455036
0.0477499
0.0499613
0.0521307
0.0542513
0.0563167
0.0583207
0.0602575
0.062121
0.0639053
0.0656046
0.0672139
0.0687281
0.0701432
0.0714549
0.0726596
0.0737541
0.0747357
0.0756023
0.0763524
0.076985
0.0774997
0.0778968
0.0781772
0.0783427
0.0783961
0.0783406
0.0781805
0.0779206
0.0775667
0.0771251
0.076603
0.0760084
0.0753501
0.0746378
0.0738819
0.0730933
0.0722831
0.0714628
0.070644
0.0698377
0.0690544
0.0683075
0.0676091
0.0669253
0.0662204
0.00630204
0.00537276
0.00451948
0.00369184
0.00283689
0.00196573
0.00109131
0.000222762
-0.000630868
-0.0014602
-0.00225564
-0.00300787
-0.0037081
-0.00434813
-0.00492025
-0.00541729
-0.00583262
-0.00616035
-0.00639536
-0.00653321
-0.00657003
-0.0065026
-0.00632828
-0.00604518
-0.00565212
-0.00514843
-0.004534
-0.00380925
-0.00297505
-0.00203283
-0.000984679
0.000167011
0.00141961
0.00277003
0.00421481
0.0057502
0.00737209
0.00907589
0.0108568
0.0127102
0.0146308
0.0166135
0.0186523
0.0207415
0.0228753
0.0250475
0.027252
0.0294822
0.031732
0.0339947
0.0362637
0.0385321
0.040793
0.0430399
0.0452665
0.0474659
0.0496315
0.0517561
0.0538333
0.0558568
0.0578207
0.0597191
0.0615462
0.0632961
0.0649632
0.0665424
0.0680292
0.0694193
0.0707087
0.0718939
0.0729716
0.0739392
0.0747946
0.0755362
0.076163
0.0766748
0.0770715
0.0773541
0.0775243
0.0775843
0.0775372
0.0773869
0.0771379
0.0767954
0.0763652
0.0758538
0.0752685
0.0746172
0.0739085
0.0731518
0.0723565
0.0715324
0.0706895
0.0698375
0.0689855
0.0681421
0.0673196
0.0665286
0.06572
0.0648457
0.00761962
0.00652029
0.00553999
0.00461658
0.00368247
0.00274731
0.0018228
0.000916125
3.47452e-05
-0.000813456
-0.00162053
-0.00237857
-0.00307998
-0.00371762
-0.00428469
-0.00477481
-0.00518216
-0.00550161
-0.00572859
-0.00585905
-0.00588946
-0.00581693
-0.00563921
-0.00535468
-0.00496232
-0.00446157
-0.0038524
-0.0031353
-0.00231125
-0.00138176
-0.000348839
0.000785206
0.00201783
0.003346
0.00476626
0.00627488
0.0078679
0.00954092
0.0112893
0.0131085
0.0149935
0.0169391
0.0189395
0.0209892
0.0230825
0.0252136
0.0273763
0.0295645
0.0317717
0.0339917
0.036218
0.0384438
0.0406626
0.042868
0.0450535
0.0472128
0.0493389
0.0514252
0.0534652
0.0554529
0.0573825
0.0592483
0.0610444
0.0627651
0.0644048
0.0659587
0.0674222
0.0687913
0.0700619
0.0712306
0.0722942
0.07325
0.0740957
0.07483
0.0754516
0.0759603
0.076356
0.0766395
0.0768121
0.076876
0.0768338
0.0766892
0.0764461
0.0761094
0.0756842
0.0751765
0.0745927
0.07394
0.0732262
0.0724593
0.0716478
0.0708002
0.069925
0.0690303
0.0681239
0.0672126
0.0663078
0.0654192
0.0644833
0.0634403
0.00894116
0.00767417
0.00656584
0.00554274
0.00452382
0.00351804
0.0025361
0.00158349
0.00066614
-0.000209252
-0.00103606
-0.00180773
-0.00251782
-0.00316008
-0.00372852
-0.00421762
-0.00462243
-0.00493844
-0.00516155
-0.00528808
-0.00531495
-0.00523969
-0.00506038
-0.00477565
-0.00438465
-0.00388692
-0.00328259
-0.00257232
-0.00175716
-0.000838647
0.000181234
0.00130028
0.00251594
0.00382518
0.00522452
0.00671033
0.00827877
0.00992562
0.0116464
0.0134365
0.0152911
0.017205
0.0191727
0.0211888
0.0232478
0.025344
0.0274713
0.0296237
0.0317948
0.0339787
0.0361688
0.0383587
0.0405419
0.0427122
0.0448633
0.0469887
0.0490817
0.0511359
0.0531448
0.0551027
0.0570039
0.0588426
0.060613
0.0623096
0.0639268
0.0654599
0.0669044
0.0682562
0.0695116
0.0706669
0.071719
0.0726651
0.0735029
0.0742309
0.074848
0.0753536
0.0757478
0.076031
0.0762043
0.0762696
0.0762293
0.0760865
0.0758451
0.0755091
0.0750833
0.0745729
0.0739838
0.0733224
0.0725956
0.0718106
0.0709746
0.0700952
0.0691795
0.0682346
0.0672666
0.0662811
0.065289
0.0642996
0.0632355
0.0620263
0.0102469
0.00881533
0.0075792
0.00645427
0.0053466
0.00426498
0.00321965
0.00221468
0.00125468
0.000345118
-0.000508456
-0.00130059
-0.00202582
-0.00267875
-0.00325428
-0.00374775
-0.00415489
-0.00447172
-0.00469459
-0.0048203
-0.00484626
-0.00477042
-0.00459113
-0.00430723
-0.00391806
-0.00342337
-0.00282347
-0.00211916
-0.00131161
-0.00040232
0.000606747
0.00171337
0.00291499
0.0042085
0.00559048
0.00705737
0.00860546
0.0102306
0.0119285
0.0136946
0.0155239
0.0174116
0.0193522
0.0213405
0.0233711
0.0254384
0.0275365
0.0296593
0.0318007
0.0339546
0.036115
0.0382755
0.0404297
0.0425713
0.0446942
0.046792
0.0488582
0.0508863
0.0528702
0.0548042
0.0566825
0.0584996
0.0602497
0.0619271
0.0635266
0.0650434
0.066473
0.0678115
0.0690551
0.0702001
0.0712434
0.0721821
0.0730138
0.0737368
0.07435
0.0748529
0.0752451
0.075527
0.0756996
0.0757642
0.0757231
0.075579
0.0753351
0.0749954
0.0745639
0.0740453
0.0734449
0.0727684
0.072022
0.0712118
0.0703444
0.0694261
0.0684632
0.0674615
0.0664262
0.0653618
0.0642788
0.0631863
0.0619942
0.0606218
0.0115206
0.00992749
0.00856429
0.0073365
0.00613746
0.00497601
0.00386259
0.00280002
0.00179175
0.000842163
-4.41445e-05
-0.000862571
-0.0016085
-0.00227744
-0.00286517
-0.00336777
-0.00378149
-0.00410283
-0.00432868
-0.0044564
-0.00448383
-0.00440927
-0.00423132
-0.00394908
-0.00356209
-0.00307038
-0.00247444
-0.0017752
-0.00097387
-7.199e-05
0.000928468
0.00202523
0.00321564
0.00449659
0.00586472
0.00731657
0.0088485
0.0104564
0.0121361
0.0138828
0.0156921
0.0175588
0.0194778
0.0214439
0.023452
0.0254964
0.0275713
0.0296706
0.0317884
0.0339188
0.0360558
0.0381932
0.0403246
0.0424438
0.0445448
0.0466212
0.0486666
0.0506747
0.0526395
0.0545553
0.0564165
0.0582173
0.0599522
0.0616156
0.0632021
0.0647069
0.0661259
0.0674549
0.0686902
0.0698281
0.0708653
0.0717988
0.0726261
0.0733456
0.0739559
0.0744564
0.0748466
0.0751266
0.0752971
0.0753593
0.075315
0.0751667
0.0749172
0.0745697
0.0741281
0.0735965
0.0729796
0.0722825
0.0715105
0.0706693
0.0697643
0.0688012
0.0677853
0.0667217
0.0656145
0.0644673
0.0632909
0.0620939
0.0607746
0.0592423
0.0127482
0.0109967
0.00950735
0.00817602
0.00688394
0.00563991
0.00445462
0.00333012
0.00226886
0.00127433
0.000350308
-0.000499335
-0.00127081
-0.00196051
-0.00256495
-0.00308074
-0.00350465
-0.00383373
-0.00406546
-0.00419768
-0.00422864
-0.00415691
-0.00398137
-0.00370139
-0.00331683
-0.00282793
-0.00223537
-0.00154017
-0.000743606
0.000152743
0.00114682
0.00223622
0.00341825
0.00468983
0.00604764
0.00748829
0.00900815
0.0106032
0.0122692
0.0140015
0.0157956
0.0176466
0.0195494
0.0214991
0.0234903
0.0255176
0.0275752
0.029657
0.0317574
0.0338704
0.0359903
0.0381107
0.0402255
0.0423286
0.0444137
0.0464747
0.0485054
0.0504995
0.052451
0.0543543
0.0562038
0.0579938
0.0597187
0.0613729
0.0629511
0.0644485
0.065861
0.0671844
0.068415
0.0695489
0.0705827
0.0715134
0.0723384
0.0730558
0.0736643
0.0741629
0.0745512
0.0748289
0.0749965
0.0750548
0.0750055
0.0748505
0.0745923
0.0742338
0.0737782
0.0732294
0.0725915
0.0718689
0.0710665
0.070189
0.0692414
0.0682284
0.0671547
0.0660248
0.0648419
0.063609
0.0623371
0.0610351
0.0595895
0.0579006
0.0139172
0.0120106
0.0103963
0.00896098
0.0075746
0.00624597
0.00498587
0.00379589
0.00267773
0.00163417
0.000668293
-0.000216795
-0.00101808
-0.00173267
-0.00235762
-0.00289005
-0.00332727
-0.00366695
-0.0039071
-0.00404597
-0.00408212
-0.00401443
-0.00384213
-0.00356488
-0.00318282
-0.00269642
-0.00210651
-0.00141417
-0.00062077
0.000271953
0.00126184
0.00234643
0.00352297
0.00478839
0.00613943
0.0075727
0.0090846
0.0106711
0.0123279
0.0140505
0.0158344
0.0176749
0.019567
0.0215057
0.0234857
0.0255017
0.0275477
0.029618
0.0317069
0.0338087
0.0359175
0.0380271
0.0401314
0.0422243
0.0442997
0.0463514
0.0483733
0.0503592
0.0523033
0.0541997
0.056043
0.0578275
0.0595475
0.0611974
0.062772
0.0642665
0.0656767
0.0669984
0.0682278
0.069361
0.0703943
0.0713246
0.0721493
0.0728662
0.0734741
0.0739717
0.0743584
0.0746336
0.0747977
0.0748511
0.0747951
0.0746314
0.074362
0.0739896
0.0735169
0.0729473
0.0722844
0.0715322
0.070695
0.0697768
0.0687821
0.067715
0.0665795
0.0653796
0.064118
0.0627972
0.0614283
0.0600206
0.05845
0.0566075
0.0150166
0.012958
0.01122
0.00968068
0.00819899
0.00678405
0.00544691
0.00418859
0.00301033
0.00191436
0.000903085
-2.11155e-05
-0.000855887
-0.0015988
-0.00224743
-0.00279941
-0.0032527
-0.00360549
-0.00385618
-0.00400343
-0.0040461
-0.0039834
-0.00381493
-0.00354068
-0.00316103
-0.00267662
-0.00208839
-0.00139758
-0.000605714
0.000285361
0.00127335
0.00235572
0.0035297
0.00479224
0.00614009
0.00756982
0.00907779
0.01066
0.0123121
0.0140298
0.0158086
0.0176437
0.0195303
0.0214634
0.0234378
0.0254481
0.0274884
0.0295531
0.0316365
0.033733
0.0358367
0.0379416
0.0400415
0.0421302
0.0442017
0.0462501
0.0482691
0.0502527
0.052195
0.0540902
0.0559327
0.0577169
0.0594371
0.0610877
0.0626634
0.0641595
0.0655717
0.0668956
0.0681274
0.0692631
0.0702988
0.0712313
0.0720578
0.0727761
0.0733848
0.0738824
0.074268
0.0745409
0.074701
0.0747487
0.0746848
0.0745107
0.0742282
0.0738394
0.0733468
0.0727533
0.0720622
0.0712769
0.070401
0.0694384
0.0683928
0.0672679
0.0660673
0.0647944
0.0634515
0.0620407
0.0605736
0.0590602
0.0573655
0.0553722
0.0160364
0.0138287
0.0119684
0.0103251
0.00874739
0.00724471
0.00582869
0.00449979
0.00325885
0.0021076
0.00104784
8.13915e-05
-0.000789863
-0.00156394
-0.00223891
-0.00281301
-0.00328471
-0.00365267
-0.00391564
-0.00407259
-0.00412276
-0.00406578
-0.00390155
-0.00363035
-0.00325275
-0.00276959
-0.00218194
-0.00149122
-0.000699112
0.000192353
0.00118079
0.00226363
0.00343809
0.00470108
0.00604932
0.00747931
0.00898741
0.0105696
0.0122216
0.0139391
0.0157176
0.0175525
0.0194389
0.0213719
0.0233461
0.0253562
0.0273966
0.0294614
0.0315453
0.0336425
0.0357472
0.0378533
0.0399546
0.0420451
0.0441188
0.0461698
0.0481918
0.0501789
0.0521251
0.0540246
0.0558718
0.057661
0.0593865
0.0610427
0.0626243
0.0641265
0.0655449
0.0668751
0.0681129
0.0692544
0.0702955
0.0712328
0.0720635
0.0727852
0.0733963
0.073895
0.0742803
0.0745513
0.0747074
0.0747489
0.0746762
0.0744905
0.0741931
0.0737859
0.0732711
0.0726512
0.071929
0.0711074
0.0701898
0.0691795
0.0680797
0.0668939
0.0656251
0.0642766
0.0628502
0.0613477
0.0597815
0.058162
0.0563443
0.0542025
0.0169681
0.0146134
0.0126321
0.010885
0.0092106
0.00761912
0.00612265
0.00472134
0.00341554
0.00220654
0.00109571
8.44564e-05
-0.000825736
-0.00163334
-0.00233694
-0.00293533
-0.00342742
-0.00381215
-0.00408868
-0.00425635
-0.0043148
-0.004264
-0.00410416
-0.00383581
-0.00345969
-0.00297681
-0.00238847
-0.00169627
-0.000902094
-8.09715e-06
0.000983278
0.00206941
0.00324744
0.00451424
0.00586645
0.00730056
0.00881286
0.0103993
0.0120557
0.0137778
0.015561
0.0174007
0.0192922
0.0212303
0.0232098
0.0252253
0.0272714
0.0293422
0.0314324
0.0335362
0.0356477
0.037761
0.0398698
0.041968
0.0440499
0.0461094
0.0481403
0.0501367
0.0520925
0.0540019
0.0558592
0.0576587
0.0593947
0.0610615
0.0626538
0.0641666
0.0655955
0.066936
0.0681837
0.0693343
0.0703839
0.0713289
0.0721663
0.0728936
0.0735088
0.0740101
0.0743961
0.0746657
0.0748181
0.0748531
0.0747712
0.0745729
0.0742594
0.0738323
0.0732934
0.0726448
0.071889
0.0710287
0.0700665
0.0690056
0.0678489
0.0665993
0.0652599
0.0638333
0.0623215
0.060726
0.0590598
0.057334
0.0553939
0.0531054
0.017804
0.015304
0.0132022
0.0113514
0.00958003
0.00789888
0.00632066
0.00484533
0.00347278
0.00220394
0.00103991
-1.82169e-05
-0.00096935
-0.0018125
-0.00254672
-0.00317116
-0.00368509
-0.00408785
-0.00437893
-0.00455806
-0.00462529
-0.00458089
-0.00442534
-0.00415935
-0.00378388
-0.00330016
-0.00270973
-0.00201439
-0.00121619
-0.000317368
0.000679549
0.00177186
0.00295662
0.00423062
0.00559045
0.00703253
0.00855311
0.0101482
0.0118135
0.0135448
0.0153377
0.0171873
0.0190889
0.0210374
0.0230277
0.0250542
0.0271116
0.0291943
0.0312965
0.0334128
0.0355371
0.0376634
0.0397856
0.0418976
0.0439936
0.0460675
0.0481133
0.0501248
0.0520959
0.0540208
0.0558937
0.0577089
0.0594606
0.061143
0.0627508
0.064279
0.0657229
0.0670778
0.0683391
0.0695026
0.070564
0.0715197
0.0723665
0.0731016
0.073723
0.0742285
0.0746165
0.0748856
0.0750347
0.0750636
0.074972
0.0747606
0.0744302
0.0739819
0.0734174
0.0727384
0.0719471
0.0710457
0.0700366
0.0689227
0.0677065
0.0663908
0.0649784
0.0634718
0.0618728
0.0601829
0.0584158
0.0565834
0.0545213
0.0520872
0.018537
0.0158927
0.013671
0.0117164
0.00984754
0.00807591
0.00641482
0.00486399
0.00342303
0.00209267
0.000873762
-0.000232964
-0.00122681
-0.00210718
-0.00287357
-0.00352543
-0.00406235
-0.00448403
-0.00479035
-0.00498147
-0.00505772
-0.00501967
-0.00486801
-0.00460365
-0.00422782
-0.003742
-0.00314796
-0.00244767
-0.00164331
-0.00073724
0.000267928
0.00136939
0.00256409
0.00384874
0.00521984
0.00667378
0.00820678
0.0098148
0.0114937
0.013239
0.0150463
0.0169108
0.0188277
0.0207919
0.0227983
0.0248414
0.0269158
0.0290159
0.0311361
0.0332707
0.0354136
0.0375589
0.0397005
0.0418323
0.0439484
0.0460428
0.0481093
0.0501417
0.052134
0.0540801
0.0559742
0.0578105
0.0595831
0.0612863
0.0629147
0.064463
0.0659263
0.0672999
0.068579
0.069759
0.0708357
0.0718053
0.0726644
0.0734101
0.0740398
0.0745514
0.074943
0.0752127
0.0753595
0.0753826
0.0752816
0.0750569
0.0747089
0.0742386
0.0736473
0.0729366
0.072108
0.0711637
0.0701058
0.0689367
0.0676589
0.066275
0.0647875
0.0631991
0.0615113
0.0597256
0.0578567
0.0559172
0.053733
0.051154
0.0191604
0.0163724
0.0140308
0.0119721
0.0100054
0.00814243
0.00639734
0.00476971
0.003259
0.00186573
0.000590495
-0.000566287
-0.0016043
-0.00252331
-0.00332306
-0.00400334
-0.00456405
-0.00500529
-0.00532735
-0.0055307
-0.00561595
-0.00558388
-0.00543543
-0.00517179
-0.00479443
-0.0043051
-0.00370576
-0.00299854
-0.00218575
-0.00126988
-0.00025364
0.000860025
0.00206794
0.00336672
0.00475283
0.00622258
0.00777217
0.00939754
0.0110945
0.0128585
0.0146851
0.0165695
0.0185069
0.0204921
0.0225199
0.0245852
0.0266822
0.0288056
0.0309494
0.0331081
0.0352756
0.0374459
0.0396128
0.0417704
0.0439127
0.0460335
0.0481267
0.050186
0.0522052
0.0541783
0.0560992
0.0579622
0.0597612
0.0614905
0.0631445
0.0647178
0.0662053
0.0676019
0.0689029
0.0701035
0.0711993
0.0721863
0.0730608
0.0738197
0.0744604
0.0749803
0.0753772
0.0756492
0.0757948
0.0758129
0.075703
0.075465
0.0750992
0.0746065
0.0739877
0.073244
0.072377
0.0713882
0.0702798
0.0690537
0.0677124
0.0662584
0.0646941
0.0630221
0.061244
0.0593612
0.0573893
0.0553419
0.0530352
0.0503109
0.0196678
0.0167362
0.0142746
0.0121114
0.0100459
0.00809077
0.00626066
0.00455509
0.00297344
0.00151607
0.000183269
-0.00102484
-0.00210824
-0.00306692
-0.00390091
-0.00461031
-0.0051954
-0.00565664
-0.00599465
-0.00621018
-0.00630408
-0.00627737
-0.00613127
-0.00586724
-0.00548703
-0.0049926
-0.00438609
-0.00366978
-0.00284612
-0.00191774
-0.000887517
0.000241482
0.00146596
0.00278246
0.00418738
0.005677
0.00724742
0.00889456
0.0106141
0.0124016
0.0142524
0.0161617
0.0181247
0.0201361
0.022191
0.0242838
0.0264092
0.0285614
0.0307348
0.0329234
0.0351213
0.0373225
0.0395209
0.0417103
0.0438848
0.0460381
0.0481641
0.0502562
0.0523083
0.0543142
0.0562677
0.058163
0.0599939
0.0617547
0.0634395
0.0650428
0.0665593
0.0679837
0.069311
0.0705364
0.0716552
0.0726631
0.0735565
0.0743318
0.0749862
0.0755169
0.0759213
0.0761973
0.0763431
0.0763574
0.0762393
0.0759885
0.0756052
0.0750898
0.074443
0.0736657
0.0727592
0.0717248
0.0705643
0.0692798
0.0678734
0.0663475
0.0647047
0.0629476
0.0610775
0.0590962
0.0570201
0.0548635
0.0524333
0.049563
0.0200532
0.0169775
0.0143953
0.0121269
0.00996177
0.00791345
0.00599733
0.00421284
0.00255921
0.00103662
-0.000354872
-0.00161538
-0.00274508
-0.00374421
-0.00461306
-0.00535209
-0.00596192
-0.00644335
-0.00679725
-0.0070246
-0.00712653
-0.00710434
-0.00695952
-0.00669383
-0.00630924
-0.00580792
-0.00519217
-0.00446441
-0.00362728
-0.00268359
-0.00163635
-0.000488776
0.000755745
0.00209367
0.00352133
0.00503493
0.0066305
0.00830389
0.0100507
0.0118665
0.0137464
0.0156856
0.0176793
0.0197224
0.0218097
0.0239357
0.026095
0.0282819
0.0304905
0.032715
0.0349493
0.0371875
0.0394233
0.0416507
0.0438635
0.0460555
0.0482202
0.0503512
0.0524422
0.0544867
0.0564787
0.058412
0.0602806
0.0620783
0.0637993
0.0654378
0.0669882
0.0684452
0.0698035
0.071058
0.072204
0.0732369
0.0741527
0.0749478
0.075619
0.0761632
0.0765776
0.0768598
0.0770075
0.0770193
0.0768941
0.0766314
0.0762309
0.075693
0.075018
0.0742067
0.0732599
0.0721789
0.0709653
0.0696209
0.068148
0.0665488
0.0648259
0.0629819
0.0610183
0.0589369
0.0567549
0.0544878
0.0519325
0.0489145
0.0203106
0.0170899
0.0143862
0.0120115
0.00974578
0.00760323
0.00560011
0.00373572
0.00200906
0.0004202
-0.00103095
-0.00234468
-0.00352139
-0.00456152
-0.00546569
-0.00623467
-0.00686938
-0.00737089
-0.00774031
-0.00797888
-0.00808801
-0.00806929
-0.00792451
-0.00765569
-0.00726498
-0.00675474
-0.00612745
-0.00538572
-0.00453239
-0.00357045
-0.00250304
-0.00133349
-6.53176e-05
0.00129786
0.0027523
0.0042941
0.00591922
0.00762341
0.00940223
0.011251
0.013165
0.0151393
0.0171691
0.0192492
0.0213744
0.0235393
0.0257383
0.0279655
0.0302152
0.0324815
0.0347583
0.0370394
0.0393189
0.0415903
0.0438476
0.0460843
0.0482939
0.0504699
0.0526057
0.054695
0.0567313
0.0587086
0.0606206
0.062461
0.0642237
0.0659026
0.0674922
0.0689868
0.0703809
0.0716692
0.0728467
0.0739088
0.074851
0.0756695
0.0763608
0.0769216
0.0773487
0.0776393
0.0777911
0.0778022
0.0776713
0.0773976
0.0769808
0.0764207
0.0757177
0.0748721
0.0738846
0.0727563
0.0714886
0.0700833
0.0685425
0.0668685
0.0650639
0.0631314
0.0610725
0.0588891
0.0565995
0.0542199
0.0515376
0.0483698
0.0204343
0.0170669
0.0142403
0.0117582
0.00939079
0.00715296
0.00506174
0.00311637
0.00131566
-0.000340408
-0.00185204
-0.00321967
-0.00444389
-0.00552545
-0.00646521
-0.00726424
-0.00792372
-0.00844493
-0.00882924
-0.00907819
-0.00919347
-0.00917699
-0.00903081
-0.00875713
-0.00835833
-0.00783693
-0.00719563
-0.00643726
-0.00556485
-0.00458156
-0.00349066
-0.00229561
-0.00100002
0.000392362
0.00187773
0.00345206
0.0051112
0.00685081
0.00866635
0.0105531
0.0125062
0.0145209
0.0165921
0.0187147
0.0208834
0.0230928
0.0253371
0.0276106
0.0299074
0.0322214
0.0345467
0.0368771
0.0392063
0.041528
0.0438359
0.0461236
0.0483843
0.0506114
0.0527982
0.0549383
0.0570251
0.0590523
0.0610135
0.0629023
0.0647124
0.0664374
0.0680715
0.0696089
0.0710438
0.0723708
0.0735846
0.0746802
0.075653
0.0764988
0.0772139
0.0777945
0.0782373
0.078539
0.0786971
0.0787095
0.0785746
0.0782914
0.0778593
0.0772778
0.0765471
0.0756672
0.0746388
0.0734626
0.0721401
0.0706729
0.069063
0.0673129
0.065425
0.0634021
0.0612459
0.0589586
0.0565592
0.054065
0.0512532
0.0479328
0.0204183
0.0169021
0.0139509
0.0113601
0.00888972
0.00655538
0.00437486
0.00234736
0.000471613
-0.00125251
-0.00282531
-0.00424739
-0.00551954
-0.00664277
-0.00761823
-0.00844718
-0.00913104
-0.00967131
-0.0100697
-0.0103279
-0.0104482
-0.0104325
-0.0102832
-0.0100028
-0.00959364
-0.00905865
-0.00840073
-0.00762289
-0.00672837
-0.00572048
-0.00460262
-0.00337836
-0.00205148
-0.000625817
0.000894725
0.002506
0.00420371
0.00598342
0.00784054
0.00977027
0.0117677
0.0138279
0.015946
0.0181167
0.0203346
0.0225942
0.0248897
0.0272154
0.0295652
0.0319331
0.034313
0.0366987
0.0390839
0.0414622
0.0438271
0.0461719
0.04849
0.0507744
0.0530186
0.0552156
0.0573591
0.0594424
0.061459
0.0634021
0.0652653
0.0670421
0.0687264
0.070312
0.0717931
0.0731639
0.0744188
0.0755527
0.0765605
0.0774379
0.0781806
0.0787846
0.0792463
0.0795621
0.0797293
0.0797453
0.0796085
0.0793174
0.0788713
0.0782694
0.0775116
0.0765978
0.0755284
0.0743041
0.0729261
0.0713961
0.0697161
0.0678883
0.0659154
0.0638003
0.0615449
0.0591512
0.0566397
0.0540284
0.0510844
0.0476081
0.0202566
0.0165893
0.0135115
0.0108103
0.00823536
0.00580308
0.00353195
0.00142116
-0.000530582
-0.00232353
-0.00395811
-0.00543509
-0.00675548
-0.00792052
-0.00893155
-0.00979004
-0.0104976
-0.0110561
-0.0114675
-0.0117339
-0.0118577
-0.0118412
-0.0116869
-0.0113974
-0.0109756
-0.0104244
-0.00974712
-0.00894684
-0.00802701
-0.0069911
-0.00584266
-0.00458539
-0.00322321
-0.00176007
-0.000200014
0.00145268
0.00319358
0.00501817
0.00692181
0.00889961
0.0109466
0.0130578
0.0152283
0.0174526
0.0197254
0.022041
0.0243936
0.0267774
0.0291863
0.0316143
0.0340551
0.0365024
0.03895
0.0413911
0.0438193
0.0462277
0.0486094
0.0509576
0.0532654
0.0555259
0.0577324
0.0598781
0.0619562
0.0639599
0.0658823
0.0677168