/*--------------------------------*- C++ -*----------------------------------*\
| =========                 |                                                 |
| \\      /  F ield         | OpenFOAM: The Open Source CFD Toolbox           |
|  \\    /   O peration     | Version:  2212                                  |
|   \\  /    A nd           | Website:  www.openfoam.com                      |
|    \\/     M anipulation  |                                                 |
\*---------------------------------------------------------------------------*/
FoamFile
{
    version     2.0;
    format      ascii;
    arch        "LSB;label=32;scalar=64";
    class       volVectorField;
    location    "0.0355";
    object      U;
}
// * * * * * * * * * * * * * * * * * * * * * * * * * * * * * * * * * * * * * //

dimensions      [0 1 -1 0 0 0 0];

internalField   nonuniform List<vector> 
10000
(
(2.01561e-06 -3.46144e-06 0)
(1.2958e-05 -7.42645e-06 0)
(2.81022e-05 -7.42932e-06 0)
(4.19168e-05 -5.9779e-06 0)
(4.93401e-05 -3.58965e-06 0)
(4.91392e-05 -7.93564e-07 0)
(4.04251e-05 2.13807e-06 0)
(2.28666e-05 5.0549e-06 0)
(-3.51934e-06 7.87475e-06 0)
(-3.84879e-05 1.05555e-05 0)
(-8.16683e-05 1.30743e-05 0)
(-0.000132603 1.54131e-05 0)
(-0.000190766 1.7559e-05 0)
(-0.000255606 1.95095e-05 0)
(-0.000326547 2.12689e-05 0)
(-0.000403005 2.28434e-05 0)
(-0.000484394 2.42363e-05 0)
(-0.000570125 2.54479e-05 0)
(-0.000659619 2.64826e-05 0)
(-0.000752307 2.73456e-05 0)
(-0.000847631 2.80428e-05 0)
(-0.00094505 2.85816e-05 0)
(-0.00104404 2.89653e-05 0)
(-0.00114408 2.91988e-05 0)
(-0.00124468 2.92905e-05 0)
(-0.00134537 2.92455e-05 0)
(-0.00144569 2.90683e-05 0)
(-0.0015452 2.87661e-05 0)
(-0.00164347 2.8344e-05 0)
(-0.00174011 2.7806e-05 0)
(-0.00183472 2.71585e-05 0)
(-0.00192694 2.64081e-05 0)
(-0.00201643 2.55602e-05 0)
(-0.00210285 2.4621e-05 0)
(-0.0021859 2.35957e-05 0)
(-0.00226528 2.24881e-05 0)
(-0.00234071 2.13028e-05 0)
(-0.00241195 2.00461e-05 0)
(-0.00247874 1.87241e-05 0)
(-0.00254087 1.73402e-05 0)
(-0.00259812 1.5898e-05 0)
(-0.00265032 1.44035e-05 0)
(-0.00269728 1.28633e-05 0)
(-0.00273886 1.12821e-05 0)
(-0.00277491 9.66263e-06 0)
(-0.00280531 8.00883e-06 0)
(-0.00282997 6.3272e-06 0)
(-0.00284878 4.62398e-06 0)
(-0.00286169 2.90402e-06 0)
(-0.00286864 1.17115e-06 0)
(-0.00286959 -5.70559e-07 0)
(-0.00286454 -2.31522e-06 0)
(-0.00285348 -4.05624e-06 0)
(-0.00283643 -5.78824e-06 0)
(-0.00281343 -7.50644e-06 0)
(-0.00278454 -9.20603e-06 0)
(-0.00274984 -1.08817e-05 0)
(-0.00270943 -1.25272e-05 0)
(-0.00266341 -1.41357e-05 0)
(-0.00261194 -1.57016e-05 0)
(-0.00255517 -1.72193e-05 0)
(-0.00249327 -1.8683e-05 0)
(-0.00242645 -2.00869e-05 0)
(-0.00235493 -2.14243e-05 0)
(-0.00227895 -2.26883e-05 0)
(-0.00219878 -2.38723e-05 0)
(-0.00211471 -2.49703e-05 0)
(-0.00202704 -2.59758e-05 0)
(-0.00193611 -2.68824e-05 0)
(-0.00184227 -2.76836e-05 0)
(-0.0017459 -2.83724e-05 0)
(-0.00164739 -2.89414e-05 0)
(-0.00154716 -2.93842e-05 0)
(-0.00144566 -2.96947e-05 0)
(-0.00134333 -2.9867e-05 0)
(-0.00124068 -2.98955e-05 0)
(-0.00113818 -2.97745e-05 0)
(-0.00103635 -2.94984e-05 0)
(-0.00093573 -2.90615e-05 0)
(-0.000836864 -2.84586e-05 0)
(-0.000740308 -2.76853e-05 0)
(-0.000646636 -2.6738e-05 0)
(-0.000556425 -2.56131e-05 0)
(-0.000470264 -2.43074e-05 0)
(-0.000388741 -2.28185e-05 0)
(-0.000312446 -2.1145e-05 0)
(-0.000241965 -1.9286e-05 0)
(-0.000177872 -1.72426e-05 0)
(-0.000120721 -1.50181e-05 0)
(-7.10363e-05 -1.26189e-05 0)
(-2.92993e-05 -1.00551e-05 0)
(4.07684e-06 -7.34423e-06 0)
(2.87779e-05 -4.51699e-06 0)
(4.46386e-05 -1.62635e-06 0)
(5.17274e-05 1.23432e-06 0)
(5.04783e-05 3.90044e-06 0)
(4.18768e-05 6.0787e-06 0)
(2.78609e-05 7.2305e-06 0)
(1.25089e-05 6.40816e-06 0)
(2.60327e-06 2.60462e-06 0)
(5.474e-06 -1.25027e-05 0)
(2.40785e-05 -2.62923e-05 0)
(4.82179e-05 -2.58123e-05 0)
(6.51067e-05 -1.76091e-05 0)
(6.71368e-05 -4.66269e-06 0)
(5.02716e-05 1.08723e-05 0)
(1.20727e-05 2.76355e-05 0)
(-4.86826e-05 4.47673e-05 0)
(-0.00013231 6.1713e-05 0)
(-0.000238519 7.8118e-05 0)
(-0.000366582 9.3749e-05 0)
(-0.00051547 0.000108454 0)
(-0.000683948 0.000122129 0)
(-0.000870635 0.000134708 0)
(-0.00107407 0.000146157 0)
(-0.00129271 0.00015646 0)
(-0.001525 0.000165615 0)
(-0.00176938 0.000173628 0)
(-0.00202425 0.000180508 0)
(-0.00228806 0.000186279 0)
(-0.00255929 0.000190965 0)
(-0.00283641 0.000194595 0)
(-0.00311796 0.000197201 0)
(-0.00340251 0.000198812 0)
(-0.00368868 0.000199462 0)
(-0.00397511 0.000199186 0)
(-0.00426052 0.000198021 0)
(-0.00454365 0.000196003 0)
(-0.0048233 0.000193166 0)
(-0.00509834 0.000189546 0)
(-0.00536767 0.000185182 0)
(-0.00563023 0.00018011 0)
(-0.00588504 0.000174367 0)
(-0.00613115 0.00016799 0)
(-0.00636768 0.000161013 0)
(-0.00659378 0.000153472 0)
(-0.00680866 0.0001454 0)
(-0.00701159 0.000136833 0)
(-0.00720186 0.000127806 0)
(-0.00737885 0.000118352 0)
(-0.00754195 0.000108505 0)
(-0.00769063 9.82998e-05 0)
(-0.0078244 8.77709e-05 0)
(-0.0079428 7.69516e-05 0)
(-0.00804544 6.58742e-05 0)
(-0.00813197 5.45716e-05 0)
(-0.00820211 4.30793e-05 0)
(-0.0082556 3.14328e-05 0)
(-0.00829224 1.96665e-05 0)
(-0.00831188 7.815e-06 0)
(-0.00831444 -4.08704e-06 0)
(-0.00829986 -1.60033e-05 0)
(-0.00826816 -2.78962e-05 0)
(-0.00821939 -3.97291e-05 0)
(-0.00815368 -5.14653e-05 0)
(-0.00807119 -6.30665e-05 0)
(-0.00797215 -7.44937e-05 0)
(-0.00785683 -8.57074e-05 0)
(-0.00772559 -9.66668e-05 0)
(-0.00757882 -0.000107332 0)
(-0.00741698 -0.000117661 0)
(-0.00724057 -0.000127614 0)
(-0.0070502 -0.000137146 0)
(-0.00684648 -0.000146216 0)
(-0.00663012 -0.000154781 0)
(-0.00640188 -0.000162796 0)
(-0.00616259 -0.000170218 0)
(-0.00591313 -0.000177005 0)
(-0.00565445 -0.000183111 0)
(-0.00538756 -0.000188495 0)
(-0.00511353 -0.000193111 0)
(-0.00483349 -0.000196917 0)
(-0.00454861 -0.000199873 0)
(-0.00426016 -0.000201938 0)
(-0.00396942 -0.000203073 0)
(-0.00367774 -0.000203242 0)
(-0.00338653 -0.000202411 0)
(-0.00309723 -0.000200545 0)
(-0.00281133 -0.000197615 0)
(-0.00253033 -0.000193593 0)
(-0.0022558 -0.000188455 0)
(-0.00198931 -0.000182184 0)
(-0.00173246 -0.000174765 0)
(-0.00148684 -0.00016619 0)
(-0.00125407 -0.000156458 0)
(-0.00103572 -0.000145576 0)
(-0.000833338 -0.000133563 0)
(-0.000648424 -0.000120453 0)
(-0.000482392 -0.0001063 0)
(-0.00033654 -9.11858e-05 0)
(-0.000212001 -7.52275e-05 0)
(-0.000109677 -5.85994e-05 0)
(-3.01443e-05 -4.15591e-05 0)
(2.64755e-05 -2.44919e-05 0)
(6.07124e-05 -7.98257e-06 0)
(7.40173e-05 7.07014e-06 0)
(6.90729e-05 1.9277e-05 0)
(5.03101e-05 2.64891e-05 0)
(2.54751e-05 2.54755e-05 0)
(6.39792e-06 1.24977e-05 0)
(6.79944e-06 -2.74698e-05 0)
(2.51542e-05 -4.93753e-05 0)
(4.38482e-05 -4.44189e-05 0)
(4.90474e-05 -2.16794e-05 0)
(3.14224e-05 1.23432e-05 0)
(-1.44868e-05 5.31107e-05 0)
(-9.21264e-05 9.74767e-05 0)
(-0.000203395 0.000143281 0)
(-0.000348979 0.00018903 0)
(-0.000528647 0.000233685 0)
(-0.000741512 0.000276538 0)
(-0.0009862 0.000317091 0)
(-0.00126097 0.000355003 0)
(-0.00156383 0.000390043 0)
(-0.00189262 0.000422061 0)
(-0.00224505 0.000450973 0)
(-0.00261876 0.000476735 0)
(-0.00301133 0.00049934 0)
(-0.00342036 0.000518803 0)
(-0.00384342 0.00053516 0)
(-0.00427813 0.000548472 0)
(-0.00472213 0.000558805 0)
(-0.0051731 0.000566233 0)
(-0.0056288 0.00057084 0)
(-0.00608703 0.000572714 0)
(-0.00654566 0.000571947 0)
(-0.00700264 0.000568635 0)
(-0.00745597 0.000562879 0)
(-0.00790376 0.000554778 0)
(-0.00834416 0.000544434 0)
(-0.00877544 0.000531949 0)
(-0.00919591 0.000517426 0)
(-0.00960398 0.000500969 0)
(-0.00999814 0.000482681 0)
(-0.010377 0.000462662 0)
(-0.0107391 0.000441013 0)
(-0.0110833 0.000417833 0)
(-0.0114083 0.000393222 0)
(-0.0117131 0.000367281 0)
(-0.0119965 0.000340109 0)
(-0.0122578 0.000311802 0)
(-0.0124959 0.000282459 0)
(-0.0127101 0.00025218 0)
(-0.0128997 0.000221062 0)
(-0.013064 0.000189201 0)
(-0.0132025 0.000156696 0)
(-0.0133147 0.000123645 0)
(-0.0134003 9.01493e-05 0)
(-0.0134588 5.63095e-05 0)
(-0.0134901 2.22269e-05 0)
(-0.013494 -1.19953e-05 0)
(-0.0134705 -4.62532e-05 0)
(-0.0134195 -8.04415e-05 0)
(-0.0133412 -0.000114453 0)
(-0.0132357 -0.00014818 0)
(-0.0131034 -0.000181512 0)
(-0.0129446 -0.000214335 0)
(-0.0127597 -0.000246536 0)
(-0.0125494 -0.000277999 0)
(-0.0123142 -0.000308608 0)
(-0.0120549 -0.000338244 0)
(-0.0117723 -0.000366786 0)
(-0.0114674 -0.000394113 0)
(-0.0111411 -0.000420101 0)
(-0.0107947 -0.000444629 0)
(-0.0104293 -0.000467572 0)
(-0.0100463 -0.000488806 0)
(-0.00964706 -0.000508208 0)
(-0.00923311 -0.000525654 0)
(-0.00880607 -0.000541021 0)
(-0.00836765 -0.000554189 0)
(-0.00791964 -0.000565041 0)
(-0.00746395 -0.00057346 0)
(-0.00700254 -0.000579336 0)
(-0.00653748 -0.000582563 0)
(-0.0060709 -0.00058304 0)
(-0.00560502 -0.000580674 0)
(-0.00514212 -0.000575375 0)
(-0.00468454 -0.000567067 0)
(-0.00423465 -0.00055568 0)
(-0.00379491 -0.000541157 0)
(-0.00336775 -0.000523457 0)
(-0.00295568 -0.000502553 0)
(-0.00256115 -0.00047844 0)
(-0.00218664 -0.000451133 0)
(-0.00183455 -0.000420679 0)
(-0.00150724 -0.000387163 0)
(-0.00120693 -0.000350716 0)
(-0.000935715 -0.000311531 0)
(-0.000695462 -0.000269884 0)
(-0.000487756 -0.000226165 0)
(-0.000313792 -0.00018092 0)
(-0.000174243 -0.000134919 0)
(-6.90828e-05 -8.92507e-05 0)
(2.65154e-06 -4.54651e-05 0)
(4.31662e-05 -5.77979e-06 0)
(5.62254e-05 2.66419e-05 0)
(4.75935e-05 4.73616e-05 0)
(2.65939e-05 5.03335e-05 0)
(7.23628e-06 2.78474e-05 0)
(5.70537e-06 -4.03544e-05 0)
(1.77827e-05 -6.60117e-05 0)
(2.24052e-05 -4.96463e-05 0)
(5.86221e-06 -4.72864e-06 0)
(-4.14296e-05 5.9004e-05 0)
(-0.000125532 0.000134491 0)
(-0.000250383 0.000216611 0)
(-0.000418244 0.000301665 0)
(-0.000630006 0.000386986 0)
(-0.000885493 0.000470645 0)
(-0.0011837 0.000551253 0)
(-0.001523 0.000627816 0)
(-0.00190129 0.000699633 0)
(-0.00231612 0.000766204 0)
(-0.00276475 0.000827194 0)
(-0.00324429 0.000882391 0)
(-0.00375172 0.000931672 0)
(-0.00428393 0.000974986 0)
(-0.00483778 0.00101234 0)
(-0.00541011 0.00104378 0)
(-0.00599779 0.00106939 0)
(-0.00659772 0.00108927 0)
(-0.00720684 0.00110358 0)
(-0.00782216 0.00111244 0)
(-0.00844076 0.00111602 0)
(-0.00905981 0.00111449 0)
(-0.00967656 0.00110803 0)
(-0.0102883 0.00109682 0)
(-0.0108926 0.00108106 0)
(-0.0114869 0.00106093 0)
(-0.0120689 0.00103664 0)
(-0.0126362 0.00100837 0)
(-0.0131869 0.000976334 0)
(-0.0137188 0.000940719 0)
(-0.01423 0.000901724 0)
(-0.0147186 0.000859544 0)
(-0.0151831 0.000814375 0)
(-0.0156217 0.000766412 0)
(-0.0160329 0.000715847 0)
(-0.0164154 0.000662873 0)
(-0.0167679 0.000607683 0)
(-0.0170891 0.00055047 0)
(-0.0173781 0.000491425 0)
(-0.0176338 0.000430739 0)
(-0.0178555 0.000368606 0)
(-0.0180422 0.000305217 0)
(-0.0181935 0.000240767 0)
(-0.0183088 0.00017545 0)
(-0.0183876 0.000109464 0)
(-0.0184296 4.30086e-05 0)
(-0.0184346 -2.3714e-05 0)
(-0.0184027 -9.05001e-05 0)
(-0.0183337 -0.000157144 0)
(-0.0182278 -0.000223437 0)
(-0.0180852 -0.000289166 0)
(-0.0179065 -0.000354113 0)
(-0.017692 -0.000418061 0)
(-0.0174424 -0.000480786 0)
(-0.0171584 -0.000542063 0)
(-0.016841 -0.000601664 0)
(-0.016491 -0.000659358 0)
(-0.0161097 -0.000714909 0)
(-0.0156983 -0.000768082 0)
(-0.0152582 -0.000818639 0)
(-0.0147909 -0.00086634 0)
(-0.0142981 -0.000910948 0)
(-0.0137815 -0.000952221 0)
(-0.0132431 -0.000989922 0)
(-0.012685 -0.00102381 0)
(-0.0121092 -0.00105366 0)
(-0.011518 -0.00107923 0)
(-0.010914 -0.00110031 0)
(-0.0102996 -0.00111666 0)
(-0.0096774 -0.00112809 0)
(-0.00905027 -0.00113439 0)
(-0.00842101 -0.00113538 0)
(-0.00779258 -0.00113088 0)
(-0.007168 -0.00112073 0)
(-0.00655037 -0.00110479 0)
(-0.00594285 -0.00108293 0)
(-0.00534866 -0.00105507 0)
(-0.00477103 -0.00102115 0)
(-0.0042132 -0.000981119 0)
(-0.00367842 -0.000935001 0)
(-0.00316987 -0.000882854 0)
(-0.00269066 -0.000824799 0)
(-0.00224381 -0.000761036 0)
(-0.00183214 -0.000691858 0)
(-0.00145827 -0.000617684 0)
(-0.00112451 -0.000539094 0)
(-0.000832781 -0.000456883 0)
(-0.000584475 -0.000372135 0)
(-0.00038032 -0.000286324 0)
(-0.000220184 -0.000201465 0)
(-0.00010283 -0.000120309 0)
(-2.56334e-05 -4.662e-05 0)
(1.57131e-05 1.44796e-05 0)
(2.75746e-05 5.61353e-05 0)
(1.96778e-05 6.93481e-05 0)
(6.14266e-06 4.19599e-05 0)
(3.59804e-06 -4.82883e-05 0)
(5.59323e-06 -6.87508e-05 0)
(-1.02295e-05 -3.27931e-05 0)
(-5.58371e-05 4.22706e-05 0)
(-0.000140197 0.000143749 0)
(-0.000269428 0.000262183 0)
(-0.000447552 0.000390487 0)
(-0.000676904 0.000523385 0)
(-0.00095842 0.000656942 0)
(-0.00129188 0.000788229 0)
(-0.00167617 0.000915072 0)
(-0.00210944 0.00103586 0)
(-0.00258928 0.00114944 0)
(-0.00311286 0.00125495 0)
(-0.00367699 0.00135181 0)
(-0.00427828 0.00143962 0)
(-0.00491314 0.00151814 0)
(-0.00557788 0.00158724 0)
(-0.00626873 0.0016469 0)
(-0.0069819 0.00169716 0)
(-0.00771361 0.00173811 0)
(-0.0084601 0.00176992 0)
(-0.00921764 0.00179276 0)
(-0.0099826 0.00180687 0)
(-0.0107514 0.00181247 0)
(-0.0115206 0.00180984 0)
(-0.0122868 0.00179926 0)
(-0.0130467 0.001781 0)
(-0.0137971 0.00175538 0)
(-0.0145352 0.00172269 0)
(-0.0152579 0.00168324 0)
(-0.0159624 0.00163736 0)
(-0.0166461 0.00158535 0)
(-0.0173065 0.00152753 0)
(-0.0179412 0.00146421 0)
(-0.0185479 0.00139573 0)
(-0.0191245 0.00132238 0)
(-0.019669 0.00124448 0)
(-0.0201796 0.00116236 0)
(-0.0206544 0.00107632 0)
(-0.0210919 0.000986673 0)
(-0.0214907 0.000893734 0)
(-0.0218494 0.000797817 0)
(-0.0221667 0.000699234 0)
(-0.0224417 0.000598298 0)
(-0.0226735 0.000495324 0)
(-0.0228611 0.000390626 0)
(-0.023004 0.000284526 0)
(-0.0231016 0.000177345 0)
(-0.0231536 6.94082e-05 0)
(-0.0231597 -3.89571e-05 0)
(-0.0231197 -0.000147418 0)
(-0.0230338 -0.000255639 0)
(-0.0229022 -0.000363278 0)
(-0.022725 -0.000469989 0)
(-0.0225029 -0.000575419 0)
(-0.0222365 -0.000679213 0)
(-0.0219265 -0.00078101 0)
(-0.0215739 -0.000880444 0)
(-0.0211797 -0.000977143 0)
(-0.0207452 -0.00107073 0)
(-0.0202719 -0.00116083 0)
(-0.0197612 -0.00124706 0)
(-0.019215 -0.00132903 0)
(-0.0186351 -0.00140637 0)
(-0.0180235 -0.00147867 0)
(-0.0173824 -0.00154557 0)
(-0.0167143 -0.00160666 0)
(-0.0160217 -0.00166158 0)
(-0.0153072 -0.00170995 0)
(-0.0145736 -0.00175141 0)
(-0.013824 -0.00178559 0)
(-0.0130615 -0.00181215 0)
(-0.0122892 -0.00183075 0)
(-0.0115107 -0.0018411 0)
(-0.0107294 -0.00184288 0)
(-0.0099489 -0.00183583 0)
(-0.0091729 -0.00181971 0)
(-0.0084052 -0.00179431 0)
(-0.00764964 -0.00175944 0)
(-0.00691013 -0.00171498 0)
(-0.00619057 -0.00166085 0)
(-0.00549489 -0.00159703 0)
(-0.00482698 -0.00152355 0)
(-0.00419066 -0.00144057 0)
(-0.00358963 -0.0013483 0)
(-0.00302745 -0.00124712 0)
(-0.00250746 -0.00113755 0)
(-0.0020327 -0.0010203 0)
(-0.00160584 -0.000896359 0)
(-0.00122907 -0.000767018 0)
(-0.000903969 -0.000634017 0)
(-0.00063134 -0.000499658 0)
(-0.000411037 -0.000366994 0)
(-0.000241743 -0.00024007 0)
(-0.000120714 -0.00012424 0)
(-4.35185e-05 -2.65623e-05 0)
(-3.70936e-06 4.37907e-05 0)
(7.96121e-06 7.50023e-05 0)
(4.06637e-06 5.0869e-05 0)
(1.01875e-06 -4.88758e-05 0)
(-9.28329e-06 -5.32196e-05 0)
(-4.97357e-05 1.16558e-05 0)
(-0.000129484 0.000125355 0)
(-0.00025622 0.000272636 0)
(-0.0004357 0.000441868 0)
(-0.000671709 0.000624122 0)
(-0.000966402 0.000812566 0)
(-0.00132057 0.001002 0)
(-0.00173388 0.00118843 0)
(-0.00220501 0.00136885 0)
(-0.00273191 0.00154098 0)
(-0.00331188 0.0017031 0)
(-0.00394176 0.00185396 0)
(-0.00461798 0.00199267 0)
(-0.0053367 0.00211859 0)
(-0.00609386 0.00223132 0)
(-0.00688527 0.00233062 0)
(-0.00770661 0.00241641 0)
(-0.00855354 0.00248871 0)
(-0.0094217 0.00254763 0)
(-0.0103068 0.00259335 0)
(-0.0112044 0.00262612 0)
(-0.0121104 0.00264624 0)
(-0.0130206 0.00265404 0)
(-0.013931 0.00264988 0)
(-0.0148376 0.00263415 0)
(-0.0157366 0.00260725 0)
(-0.0166243 0.00256961 0)
(-0.0174971 0.00252167 0)
(-0.0183517 0.00246387 0)
(-0.0191848 0.00239667 0)
(-0.0199932 0.00232051 0)
(-0.020774 0.00223585 0)
(-0.0215243 0.00214316 0)
(-0.0222415 0.00204289 0)
(-0.0229231 0.0019355 0)
(-0.0235667 0.00182146 0)
(-0.0241702 0.00170123 0)
(-0.0247314 0.00157525 0)
(-0.0252485 0.001444 0)
(-0.0257197 0.00130792 0)
(-0.0261435 0.00116748 0)
(-0.0265185 0.00102314 0)
(-0.0268435 0.000875354 0)
(-0.0271172 0.000724586 0)
(-0.0273388 0.0005713 0)
(-0.0275075 0.000415968 0)
(-0.0276227 0.000259059 0)
(-0.0276839 0.000101052 0)
(-0.0276909 -5.75724e-05 0)
(-0.0276435 -0.000216327 0)
(-0.0275418 -0.000374717 0)
(-0.027386 -0.000532243 0)
(-0.0271765 -0.000688395 0)
(-0.0269138 -0.000842659 0)
(-0.0265988 -0.000994515 0)
(-0.0262323 -0.00114343 0)
(-0.0258155 -0.00128888 0)
(-0.0253496 -0.00143031 0)
(-0.0248361 -0.00156718 0)
(-0.0242767 -0.00169893 0)
(-0.0236732 -0.00182501 0)
(-0.0230277 -0.00194485 0)
(-0.0223424 -0.00205791 0)
(-0.0216197 -0.00216361 0)
(-0.0208623 -0.00226139 0)
(-0.0200728 -0.00235071 0)
(-0.0192543 -0.00243101 0)
(-0.0184099 -0.00250176 0)
(-0.017543 -0.00256242 0)
(-0.016657 -0.00261249 0)
(-0.0157556 -0.00265146 0)
(-0.0148426 -0.00267887 0)
(-0.013922 -0.00269428 0)
(-0.0129978 -0.00269726 0)
(-0.0120742 -0.00268743 0)
(-0.0111556 -0.00266447 0)
(-0.0102463 -0.00262809 0)
(-0.0093508 -0.00257805 0)
(-0.00847363 -0.00251419 0)
(-0.0076193 -0.00243643 0)
(-0.00679231 -0.00234476 0)
(-0.00599712 -0.00223929 0)
(-0.0052381 -0.00212026 0)
(-0.00451946 -0.00198806 0)
(-0.00384525 -0.00184326 0)
(-0.00321922 -0.00168666 0)
(-0.0026448 -0.00151934 0)
(-0.00212497 -0.00134276 0)
(-0.00166218 -0.00115879 0)
(-0.00125819 -0.000969894 0)
(-0.000913959 -0.000779273 0)
(-0.00062944 -0.000591065 0)
(-0.000403419 -0.00041062 0)
(-0.000233293 -0.000244839 0)
(-0.000114838 -0.000102604 0)
(-4.19276e-05 4.79513e-06 0)
(-6.44438e-06 6.30583e-05 0)
(1.5392e-06 5.27367e-05 0)
(-1.73208e-06 -4.12537e-05 0)
(-2.55078e-05 -1.69012e-05 0)
(-9.31162e-05 8.73016e-05 0)
(-0.000210286 0.000248695 0)
(-0.000383013 0.000449988 0)
(-0.000616364 0.000677683 0)
(-0.000913625 0.000921192 0)
(-0.00127655 0.00117225 0)
(-0.00170563 0.0014244 0)
(-0.00220028 0.00167264 0)
(-0.00275893 0.00191306 0)
(-0.00337928 0.00214269 0)
(-0.00405836 0.00235923 0)
(-0.00479265 0.00256098 0)
(-0.00557827 0.00274667 0)
(-0.00641096 0.00291542 0)
(-0.00728626 0.00306661 0)
(-0.00819951 0.00319988 0)
(-0.00914594 0.00331506 0)
(-0.0101207 0.00341214 0)
(-0.011119 0.00349121 0)
(-0.0121358 0.00355249 0)
(-0.0131665 0.00359628 0)
(-0.0142062 0.00362295 0)
(-0.0152502 0.00363293 0)
(-0.0162941 0.00362668 0)
(-0.0173333 0.00360471 0)
(-0.0183635 0.00356757 0)
(-0.0193806 0.00351581 0)
(-0.0203805 0.00345001 0)
(-0.0213593 0.00337078 0)
(-0.0223134 0.00327871 0)
(-0.0232391 0.00317442 0)
(-0.024133 0.00305853 0)
(-0.0249921 0.00293166 0)
(-0.0258131 0.00279444 0)
(-0.0265934 0.00264748 0)
(-0.0273301 0.00249143 0)
(-0.0280207 0.00232691 0)
(-0.028663 0.00215453 0)
(-0.0292548 0.00197493 0)
(-0.0297941 0.00178874 0)
(-0.0302791 0.00159659 0)
(-0.0307081 0.00139909 0)
(-0.0310799 0.00119689 0)
(-0.031393 0.000990615 0)
(-0.0316465 0.000780904 0)
(-0.0318394 0.000568399 0)
(-0.0319711 0.000353749 0)
(-0.032041 0.000137605 0)
(-0.0320488 -7.93704e-05 0)
(-0.0319944 -0.00029651 0)
(-0.0318779 -0.000513138 0)
(-0.0316994 -0.000728568 0)
(-0.0314596 -0.000942105 0)
(-0.0311589 -0.00115304 0)
(-0.0307983 -0.00136068 0)
(-0.0303788 -0.00156427 0)
(-0.0299018 -0.00176311 0)
(-0.0293686 -0.00195644 0)
(-0.028781 -0.00214353 0)
(-0.0281409 -0.00232361 0)
(-0.0274503 -0.00249593 0)
(-0.0267117 -0.00265973 0)
(-0.0259275 -0.00281424 0)
(-0.0251005 -0.00295872 0)
(-0.0242337 -0.00309239 0)
(-0.0233302 -0.0032145 0)
(-0.0223934 -0.00332432 0)
(-0.0214269 -0.00342112 0)
(-0.0204345 -0.00350419 0)
(-0.0194201 -0.00357284 0)
(-0.0183879 -0.00362641 0)
(-0.0173421 -0.00366427 0)
(-0.0162873 -0.00368583 0)
(-0.0152281 -0.00369054 0)
(-0.0141691 -0.00367791 0)
(-0.0131153 -0.0036475 0)
(-0.0120717 -0.00359894 0)
(-0.0110431 -0.00353196 0)
(-0.0100347 -0.00344636 0)
(-0.00905151 -0.00334206 0)
(-0.00809859 -0.0032191 0)
(-0.00718089 -0.00307767 0)
(-0.00630325 -0.00291813 0)
(-0.00547037 -0.00274107 0)
(-0.00468668 -0.00254729 0)
(-0.00395635 -0.00233794 0)
(-0.00328313 -0.0021145 0)
(-0.00267033 -0.00187894 0)
(-0.00212065 -0.00163376 0)
(-0.0016361 -0.00138221 0)
(-0.00121784 -0.00112839 0)
(-0.000866064 -0.000877519 0)
(-0.000579823 -0.000636213 0)
(-0.000356874 -0.000412824 0)
(-0.000193465 -0.000217876 0)
(-8.40961e-05 -6.45029e-05 0)
(-2.22165e-05 3.09526e-05 0)
(-1.15639e-06 4.6649e-05 0)
(-4.49995e-06 -2.50459e-05 0)
(-4.22515e-05 4.15842e-05 0)
(-0.000138363 0.00019633 0)
(-0.000294902 0.000414986 0)
(-0.00051591 0.000678721 0)
(-0.000805544 0.000972496 0)
(-0.00116637 0.0012843 0)
(-0.00159959 0.00160459 0)
(-0.00210523 0.00192574 0)
(-0.00268234 0.00224176 0)
(-0.00332905 0.00254789 0)
(-0.00404274 0.00284042 0)
(-0.00482011 0.00311649 0)
(-0.00565736 0.0033739 0)
(-0.00655024 0.003611 0)
(-0.00749413 0.00382661 0)
(-0.00848419 0.00401989 0)
(-0.00951536 0.00419033 0)
(-0.0105824 0.00433763 0)
(-0.0116801 0.00446174 0)
(-0.0128031 0.00456275 0)
(-0.0139461 0.00464088 0)
(-0.0151038 0.00469649 0)
(-0.0162709 0.00473002 0)
(-0.0174424 0.00474198 0)
(-0.0186131 0.00473296 0)
(-0.0197782 0.0047036 0)
(-0.0209329 0.00465457 0)
(-0.0220726 0.00458659 0)
(-0.0231927 0.0045004 0)
(-0.0242891 0.00439674 0)
(-0.0253575 0.00427641 0)
(-0.026394 0.00414019 0)
(-0.0273949 0.00398888 0)
(-0.0283566 0.00382327 0)
(-0.0292756 0.00364419 0)
(-0.0301489 0.00345245 0)
(-0.0309734 0.00324884 0)
(-0.0317463 0.0030342 0)
(-0.0324651 0.00280933 0)
(-0.0331272 0.00257505 0)
(-0.0337306 0.00233218 0)
(-0.0342732 0.00208154 0)
(-0.0347532 0.00182394 0)
(-0.0351691 0.00156022 0)
(-0.0355193 0.00129119 0)
(-0.0358028 0.00101769 0)
(-0.0360186 0.000740557 0)
(-0.0361658 0.000460639 0)
(-0.0362439 0.000178788 0)
(-0.0362526 -0.000104134 0)
(-0.0361917 -0.000387256 0)
(-0.0360612 -0.000669693 0)
(-0.0358615 -0.000950554 0)
(-0.0355931 -0.00122893 0)
(-0.0352567 -0.00150391 0)
(-0.0348533 -0.00177456 0)
(-0.034384 -0.00203994 0)
(-0.0338503 -0.0022991 0)
(-0.0332538 -0.00255108 0)
(-0.0325965 -0.00279491 0)
(-0.0318803 -0.00302961 0)
(-0.0311078 -0.0032542 0)
(-0.0302814 -0.00346769 0)
(-0.029404 -0.00366909 0)
(-0.0284786 -0.00385743 0)
(-0.0275087 -0.00403172 0)
(-0.0264976 -0.00419099 0)
(-0.0254491 -0.00433429 0)
(-0.0243672 -0.00446068 0)
(-0.0232562 -0.00456925 0)
(-0.0221202 -0.00465913 0)
(-0.0209641 -0.00472946 0)
(-0.0197925 -0.00477945 0)
(-0.0186103 -0.00480835 0)
(-0.0174227 -0.00481547 0)
(-0.0162349 -0.00480018 0)
(-0.0150523 -0.00476196 0)
(-0.0138802 -0.00470036 0)
(-0.0127243 -0.00461504 0)
(-0.01159 -0.0045058 0)
(-0.0104828 -0.00437255 0)
(-0.00940835 -0.00421541 0)
(-0.00837198 -0.00403465 0)
(-0.00737901 -0.00383081 0)
(-0.00643453 -0.00360465 0)
(-0.00554337 -0.0033573 0)
(-0.00471005 -0.00309023 0)
(-0.00393868 -0.00280538 0)
(-0.00323286 -0.00250526 0)
(-0.00259561 -0.00219304 0)
(-0.00202921 -0.00187272 0)
(-0.00153515 -0.00154931 0)
(-0.00111394 -0.00122908 0)
(-0.000765056 -0.000919818 0)
(-0.000486791 -0.000631186 0)
(-0.000276065 -0.000375145 0)
(-0.000128223 -0.000166354 0)
(-3.85408e-05 -2.27458e-05 0)
(-3.87055e-06 3.22039e-05 0)
(-7.2094e-06 -1.89198e-07 0)
(-5.90293e-05 0.000122836 0)
(-0.000184188 0.000339867 0)
(-0.000381058 0.000625776 0)
(-0.000651634 0.000960624 0)
(-0.000999008 0.00132817 0)
(-0.00142488 0.00171523 0)
(-0.00192973 0.0021111 0)
(-0.00251304 0.00250717 0)
(-0.00317339 0.00289648 0)
(-0.00390851 0.00327348 0)
(-0.0047154 0.00363377 0)
(-0.00559044 0.00397388 0)
(-0.00652948 0.00429113 0)
(-0.00752791 0.00458347 0)
(-0.00858079 0.0048494 0)
(-0.00968288 0.00508786 0)
(-0.0108287 0.00529814 0)
(-0.0120128 0.00547985 0)
(-0.0132293 0.00563285 0)
(-0.0144727 0.00575721 0)
(-0.015737 0.00585316 0)
(-0.0170167 0.00592111 0)
(-0.018306 0.00596157 0)
(-0.0195993 0.00597515 0)
(-0.0208913 0.00596255 0)
(-0.0221766 0.00592455 0)
(-0.02345 0.00586195 0)
(-0.0247064 0.00577565 0)
(-0.0259409 0.00566654 0)
(-0.027149 0.00553556 0)
(-0.0283261 0.00538367 0)
(-0.0294678 0.00521185 0)
(-0.0305702 0.0050211 0)
(-0.0316292 0.00481242 0)
(-0.0326411 0.00458681 0)
(-0.0336026 0.00434529 0)
(-0.0345103 0.00408887 0)
(-0.0353611 0.00381859 0)
(-0.0361522 0.00353545 0)
(-0.036881 0.0032405 0)
(-0.0375451 0.00293474 0)
(-0.0381422 0.00261922 0)
(-0.0386704 0.00229496 0)
(-0.039128 0.001963 0)
(-0.0395134 0.00162438 0)
(-0.0398254 0.00128015 0)
(-0.0400628 0.000931365 0)
(-0.0402247 0.000579088 0)
(-0.0403107 0.000224394 0)
(-0.0403202 -0.000131633 0)
(-0.0402532 -0.000487895 0)
(-0.0401097 -0.000843282 0)
(-0.03989 -0.00119667 0)
(-0.0395947 -0.00154692 0)
(-0.0392246 -0.00189288 0)
(-0.0387808 -0.00223338 0)
(-0.0382645 -0.00256725 0)
(-0.0376773 -0.00289329 0)
(-0.0370211 -0.00321029 0)
(-0.0362978 -0.00351705 0)
(-0.0355098 -0.00381232 0)
(-0.0346597 -0.00409489 0)
(-0.0337503 -0.00436352 0)
(-0.0327847 -0.00461698 0)
(-0.0317663 -0.00485404 0)
(-0.0306986 -0.00507348 0)
(-0.0295855 -0.00527408 0)
(-0.028431 -0.00545468 0)
(-0.0272396 -0.0056141 0)
(-0.0260157 -0.00575121 0)
(-0.0247642 -0.00586493 0)
(-0.0234901 -0.00595421 0)
(-0.0221985 -0.00601807 0)
(-0.0208947 -0.0060556 0)
(-0.0195845 -0.00606594 0)
(-0.0182733 -0.00604837 0)
(-0.0169671 -0.00600223 0)
(-0.0156717 -0.00592699 0)
(-0.014393 -0.00582228 0)
(-0.0131371 -0.00568787 0)
(-0.01191 -0.00552371 0)
(-0.0107175 -0.00532996 0)
(-0.00956561 -0.00510704 0)
(-0.0084599 -0.00485563 0)
(-0.0074059 -0.00457675 0)
(-0.00640881 -0.0042718 0)
(-0.00547352 -0.00394266 0)
(-0.00460448 -0.00359171 0)
(-0.00380562 -0.00322203 0)
(-0.0030803 -0.00283743 0)
(-0.00243116 -0.00244268 0)
(-0.00186006 -0.00204366 0)
(-0.00136796 -0.00164761 0)
(-0.000954872 -0.00126338 0)
(-0.000619761 -0.000901795 0)
(-0.000360365 -0.000576025 0)
(-0.000173014 -0.00030195 0)
(-5.49278e-05 -9.86696e-05 0)
(-6.52653e-06 9.31739e-06 0)
(-9.82458e-06 3.32126e-05 0)
(-7.55568e-05 0.00022692 0)
(-0.000229785 0.000518314 0)
(-0.000467268 0.000881776 0)
(-0.000787945 0.00129664 0)
(-0.00119378 0.00174578 0)
(-0.00168549 0.00221502 0)
(-0.00226276 0.00269275 0)
(-0.0029244 0.00316941 0)
(-0.00366844 0.00363724 0)
(-0.00449214 0.00408991 0)
(-0.00539207 0.00452237 0)
(-0.00636424 0.00493059 0)
(-0.00740412 0.00531138 0)
(-0.00850675 0.00566233 0)
(-0.00966682 0.0059816 0)
(-0.0108787 0.00626787 0)
(-0.0121367 0.00652026 0)
(-0.0134348 0.00673826 0)
(-0.0147669 0.00692163 0)
(-0.0161269 0.00707043 0)
(-0.0175086 0.00718489 0)
(-0.0189061 0.00726545 0)
(-0.0203131 0.00731271 0)
(-0.0217238 0.00732737 0)
(-0.0231323 0.00731024 0)
(-0.0245329 0.00726224 0)
(-0.0259199 0.00718434 0)
(-0.0272881 0.00707759 0)
(-0.0286321 0.00694307 0)
(-0.029947 0.0067819 0)
(-0.0312278 0.00659524 0)
(-0.0324699 0.00638428 0)
(-0.0336689 0.00615021 0)
(-0.0348207 0.00589425 0)
(-0.0359211 0.00561763 0)
(-0.0369665 0.00532158 0)
(-0.0379534 0.00500734 0)
(-0.0388783 0.00467615 0)
(-0.0397383 0.00432926 0)
(-0.0405304 0.00396792 0)
(-0.0412522 0.00359339 0)
(-0.0419012 0.00320692 0)
(-0.0424753 0.00280978 0)
(-0.0429726 0.00240323 0)
(-0.0433915 0.00198855 0)
(-0.0437305 0.00156701 0)
(-0.0439885 0.00113992 0)
(-0.0441646 0.000708574 0)
(-0.0442581 0.000274283 0)
(-0.0442686 -0.000161623 0)
(-0.0441959 -0.000597801 0)
(-0.0440401 -0.00103289 0)
(-0.0438016 -0.00146553 0)
(-0.0434809 -0.00189431 0)
(-0.043079 -0.00231783 0)
(-0.0425969 -0.00273467 0)
(-0.0420362 -0.00314339 0)
(-0.0413983 -0.00354253 0)
(-0.0406854 -0.00393061 0)
(-0.0398997 -0.00430617 0)
(-0.0390435 -0.0046677 0)
(-0.0381198 -0.0050137 0)
(-0.0371315 -0.00534269 0)
(-0.0360821 -0.00565315 0)
(-0.034975 -0.0059436 0)
(-0.0338143 -0.00621256 0)
(-0.0326039 -0.00645856 0)
(-0.0313485 -0.00668017 0)
(-0.0300525 -0.00687598 0)
(-0.0287209 -0.00704462 0)
(-0.0273588 -0.0071848 0)
(-0.0259717 -0.00729525 0)
(-0.024565 -0.0073748 0)
(-0.0231446 -0.00742235 0)
(-0.0217164 -0.00743691 0)
(-0.0202864 -0.00741758 0)
(-0.018861 -0.00736363 0)
(-0.0174463 -0.00727445 0)
(-0.0160488 -0.0071496 0)
(-0.0146749 -0.00698884 0)
(-0.013331 -0.00679217 0)
(-0.0120233 -0.00655981 0)
(-0.0107583 -0.00629232 0)
(-0.00954186 -0.00599054 0)
(-0.00837996 -0.00565576 0)
(-0.00727814 -0.00528969 0)
(-0.00624166 -0.00489458 0)
(-0.00527532 -0.0044733 0)
(-0.00438343 -0.00402945 0)
(-0.00356972 -0.00356751 0)
(-0.00283726 -0.00309296 0)
(-0.00218834 -0.0026125 0)
(-0.00162448 -0.00213426 0)
(-0.00114629 -0.00166804 0)
(-0.000753538 -0.00122567 0)
(-0.00044486 -0.000821294 0)
(-0.00021765 -0.000471746 0)
(-7.10918e-05 -0.000196932 0)
(-9.08801e-06 -2.19125e-05 0)
(-1.23263e-05 7.49456e-05 0)
(-9.16841e-05 0.000353595 0)
(-0.000274664 0.00073158 0)
(-0.000552589 0.00118311 0)
(-0.00092338 0.00168709 0)
(-0.00138785 0.00222576 0)
(-0.0019457 0.0027842 0)
(-0.00259571 0.00335001 0)
(-0.00333597 0.00391285 0)
(-0.00416388 0.00446422 0)
(-0.00507617 0.00499713 0)
(-0.00606894 0.00550589 0)
(-0.00713776 0.00598594 0)
(-0.00827771 0.00643364 0)
(-0.00948344 0.00684619 0)
(-0.0107493 0.00722142 0)
(-0.0120693 0.00755778 0)
(-0.0134373 0.0078542 0)
(-0.014847 0.00811002 0)
(-0.0162919 0.00832495 0)
(-0.0177656 0.00849898 0)
(-0.0192616 0.00863238 0)
(-0.0207733 0.00872561 0)
(-0.0222945 0.00877933 0)
(-0.0238187 0.00879436 0)
(-0.0253397 0.00877163 0)
(-0.0268515 0.0087122 0)
(-0.0283481 0.00861719 0)
(-0.0298238 0.00848784 0)
(-0.031273 0.0083254 0)
(-0.0326904 0.0081312 0)
(-0.0340707 0.00790662 0)
(-0.0354091 0.00765305 0)
(-0.0367008 0.0073719 0)
(-0.0379414 0.00706463 0)
(-0.0391266 0.00673268 0)
(-0.0402523 0.00637752 0)
(-0.0413148 0.00600063 0)
(-0.0423106 0.0056035 0)
(-0.0432364 0.0051876 0)
(-0.0440891 0.00475444 0)
(-0.044866 0.00430552 0)
(-0.0455646 0.00384232 0)
(-0.0461825 0.00336637 0)
(-0.0467178 0.00287919 0)
(-0.0471687 0.00238228 0)
(-0.0475337 0.0018772 0)
(-0.0478115 0.00136548 0)
(-0.0480012 0.000848684 0)
(-0.048102 0.00032838 0)
(-0.0481136 -0.000193842 0)
(-0.0480357 -0.000716376 0)
(-0.0478683 -0.0012376 0)
(-0.047612 -0.00175587 0)
(-0.0472673 -0.00226952 0)
(-0.0468352 -0.00277687 0)
(-0.0463169 -0.00327622 0)
(-0.0457138 -0.00376586 0)
(-0.0450278 -0.00424403 0)
(-0.044261 -0.00470899 0)
(-0.0434157 -0.00515897 0)