/*--------------------------------*- C++ -*----------------------------------*\
| =========                 |                                                 |
| \\      /  F ield         | OpenFOAM: The Open Source CFD Toolbox           |
|  \\    /   O peration     | Version:  2212                                  |
|   \\  /    A nd           | Website:  www.openfoam.com                      |
|    \\/     M anipulation  |                                                 |
\*---------------------------------------------------------------------------*/
FoamFile
{
    version     2.0;
    format      ascii;
    arch        "LSB;label=32;scalar=64";
    class       surfaceScalarField;
    location    "0.005";
    object      phi_0;
}
// * * * * * * * * * * * * * * * * * * * * * * * * * * * * * * * * * * * * * //

dimensions      [0 3 -1 0 0 0 0];

oriented        oriented;

internalField   nonuniform List<scalar> 
19800
(
7.57789e-11
-7.59467e-11
8.6272e-12
6.71336e-11
-2.58273e-10
2.66916e-10
-5.92788e-10
3.345e-10
-9.49335e-10
3.5656e-10
-1.33689e-09
3.87559e-10
-1.76534e-09
4.28455e-10
-2.23923e-09
4.73886e-10
-2.75706e-09
5.17829e-10
-3.31449e-09
5.57424e-10
-3.90592e-09
5.91432e-10
-4.52454e-09
6.18619e-10
-5.16371e-09
6.39163e-10
-5.81735e-09
6.53647e-10
-6.48016e-09
6.62801e-10
-7.14764e-09
6.67472e-10
-7.81522e-09
6.67581e-10
-8.47931e-09
6.64077e-10
-9.13696e-09
6.57648e-10
-9.78583e-09
6.48872e-10
-1.0424e-08
6.38213e-10
-1.10502e-08
6.26125e-10
-1.16625e-08
6.12333e-10
-1.22597e-08
5.97241e-10
-1.28412e-08
5.81475e-10
-1.34062e-08
5.6501e-10
-1.39539e-08
5.4773e-10
-1.44838e-08
5.29837e-10
-1.49951e-08
5.11321e-10
-1.54872e-08
4.92051e-10
-1.59593e-08
4.72147e-10
-1.64113e-08
4.51971e-10
-1.68429e-08
4.31627e-10
-1.72537e-08
4.10747e-10
-1.76428e-08
3.89116e-10
-1.80096e-08
3.66821e-10
-1.83536e-08
3.44008e-10
-1.86743e-08
3.20719e-10
-1.89712e-08
2.96886e-10
-1.92438e-08
2.72613e-10
-1.94919e-08
2.48015e-10
-1.97148e-08
2.22964e-10
-1.99122e-08
1.97371e-10
-2.00836e-08
1.71386e-10
-2.02288e-08
1.45267e-10
-2.03479e-08
1.19054e-10
-2.04405e-08
9.2624e-11
-2.05066e-08
6.60334e-11
-2.05459e-08
3.93063e-11
-2.05583e-08
1.23936e-11
-2.05437e-08
-1.45231e-11
-2.05023e-08
-4.14486e-11
-2.04337e-08
-6.86193e-11
-2.03379e-08
-9.57399e-11
-2.02155e-08
-1.22458e-10
-2.00663e-08
-1.4913e-10
-1.98904e-08
-1.75941e-10
-1.9688e-08
-2.02447e-10
-1.94594e-08
-2.28592e-10
-1.92047e-08
-2.54704e-10
-1.89241e-08
-2.80549e-10
-1.86183e-08
-3.05791e-10
-1.82875e-08
-3.30764e-10
-1.79319e-08
-3.55674e-10
-1.75519e-08
-3.7999e-10
-1.71484e-08
-4.03471e-10
-1.67218e-08
-4.26644e-10
-1.62721e-08
-4.49676e-10
-1.58001e-08
-4.71951e-10
-1.53069e-08
-4.93203e-10
-1.4793e-08
-5.13922e-10
-1.42587e-08
-5.3434e-10
-1.37046e-08
-5.54042e-10
-1.31318e-08
-5.7283e-10
-1.25407e-08
-5.91073e-10
-1.19318e-08
-6.08918e-10
-1.13059e-08
-6.25892e-10
-1.06643e-08
-6.41595e-10
-1.00082e-08
-6.56152e-10
-9.33855e-09
-6.69634e-10
-8.65706e-09
-6.81489e-10
-7.96609e-09
-6.90973e-10
-7.26828e-09
-6.97809e-10
-6.56631e-09
-7.0197e-10
-5.86334e-09
-7.02964e-10
-5.16364e-09
-6.99709e-10
-4.47251e-09
-6.9113e-10
-3.796e-09
-6.765e-10
-3.14096e-09
-6.55044e-10
-2.51541e-09
-6.25548e-10
-1.9288e-09
-5.86612e-10
-1.39168e-09
-5.37109e-10
-9.15434e-10
-4.76254e-10
-5.12053e-10
-4.03384e-10
-1.93992e-10
-3.18056e-10
2.69875e-11
-2.20974e-10
1.42578e-10
-1.15591e-10
1.52836e-10
-1.02704e-11
7.95268e-11
7.32713e-11
7.94935e-11
2.02441e-10
-2.78406e-10
1.85443e-10
8.41586e-11
-2.25025e-10
6.77381e-10
-9.13222e-10
1.0227e-09
-1.81049e-09
1.25383e-09
-2.88606e-09
1.46314e-09
-4.12506e-09
1.66745e-09
-5.51218e-09
1.86102e-09
-7.0297e-09
2.03536e-09
-8.65782e-09
2.18556e-09
-1.03757e-08
2.30928e-09
-1.21641e-08
2.40702e-09
-1.40048e-08
2.47984e-09
-1.5881e-08
2.52994e-09
-1.77786e-08
2.56035e-09
-1.96846e-08
2.5735e-09
-2.15886e-08
2.57152e-09
-2.34815e-08
2.55702e-09
-2.53556e-08
2.53176e-09
-2.72045e-08
2.49773e-09
-2.90229e-08
2.4566e-09
-3.08061e-08
2.40933e-09
-3.25503e-08
2.35646e-09
-3.42521e-08
2.29909e-09
-3.59087e-08
2.23808e-09
-3.75175e-08
2.17372e-09
-3.90761e-08
2.10634e-09
-4.05827e-08
2.03647e-09
-4.20355e-08
1.96417e-09
-4.34329e-08
1.88943e-09
-4.47734e-08
1.81257e-09
-4.60554e-08
1.73401e-09
-4.72776e-08
1.65379e-09
-4.84384e-08
1.57158e-09
-4.95366e-08
1.48726e-09
-5.05708e-08
1.40106e-09
-5.15399e-08
1.31305e-09
-5.24424e-08
1.22323e-09
-5.32772e-08
1.13173e-09
-5.40433e-08
1.03873e-09
-5.47397e-08
9.44398e-10
-5.53655e-08
8.48706e-10
-5.59198e-08
7.51651e-10
-5.64018e-08
6.53427e-10
-5.68109e-08
5.54395e-10
-5.71466e-08
4.547e-10
-5.74082e-08
3.54205e-10
-5.75952e-08
2.53043e-10
-5.77074e-08
1.5157e-10
-5.77449e-08
4.98275e-11
-5.77072e-08
-5.21733e-11
-5.75945e-08
-1.54196e-10
-5.74069e-08
-2.56187e-10
-5.71446e-08
-3.58092e-10
-5.68075e-08
-4.59544e-10
-5.63962e-08
-5.60438e-10
-5.59111e-08
-6.61028e-10
-5.53523e-08
-7.6117e-10
-5.47205e-08
-8.60406e-10
-5.40166e-08
-9.58639e-10
-5.32412e-08
-1.05596e-09
-5.23948e-08
-1.15218e-09
-5.14786e-08
-1.24698e-09
-5.0494e-08
-1.34028e-09
-4.94419e-08
-1.43204e-09
-4.83233e-08
-1.52209e-09
-4.71397e-08
-1.61029e-09
-4.58927e-08
-1.69662e-09
-4.45837e-08
-1.78096e-09
-4.32139e-08
-1.86306e-09
-4.1785e-08
-1.94279e-09
-4.02992e-08
-2.02012e-09
-3.87582e-08
-2.09504e-09
-3.71637e-08
-2.16738e-09
-3.55178e-08
-2.2369e-09
-3.38235e-08
-2.30326e-09
-3.20833e-08
-2.36605e-09
-3.03001e-08
-2.42486e-09
-2.8477e-08
-2.47917e-09
-2.66186e-08
-2.52807e-09
-2.47297e-08
-2.57038e-09
-2.28159e-08
-2.60483e-09
-2.08837e-08
-2.63003e-09
-1.89414e-08
-2.64423e-09
-1.69993e-08
-2.64511e-09
-1.5069e-08
-2.62996e-09
-1.31643e-08
-2.59583e-09
-1.13013e-08
-2.53954e-09
-9.49875e-09
-2.45758e-09
-7.77807e-09
-2.34623e-09
-6.16277e-09
-2.2019e-09
-4.6784e-09
-2.02149e-09
-3.35218e-09
-1.80247e-09
-2.21208e-09
-1.54348e-09
-1.28468e-09
-1.24547e-09
-5.91742e-10
-9.13913e-10
-1.44829e-10
-5.62472e-10
6.3662e-11
-2.18698e-10
7.52154e-11
6.18128e-11
1.54676e-10
2.44157e-10
-5.22548e-10
2.3807e-10
9.02471e-11
-2.64786e-10
1.18026e-09
-1.21685e-09
1.97477e-09
-2.55345e-09
2.59044e-09
-4.22283e-09
3.13254e-09
-6.18258e-09
3.6272e-09
-8.3933e-09
4.07175e-09
-1.08173e-08
4.4593e-09
-1.34171e-08
4.78543e-09
-1.6158e-08
5.05013e-09
-1.90073e-08
5.25636e-09
-2.19362e-08
5.40871e-09
-2.4919e-08
5.51272e-09
-2.79331e-08
5.57445e-09
-3.09591e-08
5.5995e-09
-3.39807e-08
5.59312e-09
-3.69836e-08
5.55993e-09
-3.99564e-08
5.50459e-09
-4.2889e-08
5.43035e-09
-4.5773e-08
5.34057e-09
-4.86011e-08
5.23745e-09
-5.13675e-08
5.12282e-09
-5.40669e-08
4.99849e-09
-5.66945e-08
4.86576e-09
-5.92464e-08
4.72561e-09
-6.1719e-08
4.57886e-09
-6.41087e-08
4.42619e-09
-6.64126e-08
4.26804e-09
-6.86279e-08
4.10476e-09
-7.07522e-08
3.93691e-09
-7.27831e-08
3.76492e-09
-7.47182e-08
3.58881e-09
-7.65552e-08
3.40857e-09
-7.82921e-08
3.22417e-09
-7.99269e-08
3.03588e-09
-8.14578e-08
2.84394e-09
-8.2883e-08
2.6484e-09
-8.42008e-08
2.44959e-09
-8.54099e-08
2.24786e-09
-8.65088e-08
2.04329e-09
-8.74962e-08
1.83604e-09
-8.83709e-08
1.62633e-09
-8.91319e-08
1.41444e-09
-8.97782e-08
1.20075e-09
-9.0309e-08
9.85457e-10
-9.07235e-08
7.68722e-10
-9.10213e-08
5.5083e-10
-9.12018e-08
3.32085e-10
-9.12648e-08
1.12818e-10
-9.12103e-08
-1.06698e-10
-9.10381e-08
-3.26382e-10
-9.07483e-08
-5.45995e-10
-9.03413e-08
-7.65053e-10
-8.98175e-08
-9.83359e-10
-8.9177e-08
-1.20097e-09
-8.84204e-08
-1.41759e-09
-8.75488e-08
-1.63274e-09
-8.65629e-08
-1.84633e-09
-8.54634e-08
-2.05819e-09
-8.42515e-08
-2.26779e-09
-8.29289e-08
-2.47476e-09
-8.14968e-08
-2.67913e-09
-7.99565e-08
-2.88062e-09
-7.83099e-08
-3.07856e-09
-7.65593e-08
-3.27273e-09
-7.47063e-08
-3.46329e-09
-7.27529e-08
-3.65001e-09
-7.07017e-08
-3.83222e-09
-6.85552e-08
-4.00958e-09
-6.63158e-08
-4.18215e-09
-6.39862e-08
-4.34974e-09
-6.15695e-08
-4.51174e-09
-5.90692e-08
-4.66767e-09
-5.64889e-08
-4.81721e-09
-5.38323e-08
-4.95984e-09
-5.11038e-08
-5.09452e-09
-4.83086e-08
-5.22009e-09
-4.54524e-08
-5.3354e-09
-4.25416e-08
-5.43889e-09
-3.95837e-08
-5.52825e-09
-3.65879e-08
-5.60059e-09
-3.35653e-08
-5.65267e-09
-3.05287e-08
-5.68077e-09
-2.74936e-08
-5.68029e-09
-2.44779e-08
-5.64567e-09
-2.15029e-08
-5.57078e-09
-1.85933e-08
-5.44913e-09
-1.5777e-08
-5.27393e-09
-1.3085e-08
-5.03818e-09
-1.05517e-08
-4.73519e-09
-8.21401e-09
-4.35921e-09
-6.11018e-09
-3.9063e-09
-4.27816e-09
-3.3755e-09
-2.75267e-09
-2.77097e-09
-1.56112e-09
-2.10547e-09
-7.17594e-10
-1.40605e-09
-2.13787e-10
-7.22529e-10
-7.58443e-12
-1.44355e-10
1.47092e-10
1.07835e-10
-6.304e-10
-9.03696e-11
2.88453e-10
-8.16919e-10
1.90681e-09
-2.08072e-09
3.23857e-09
-3.83906e-09
4.34878e-09
-6.03978e-09
5.33328e-09
-8.62873e-09
6.21614e-09
-1.15525e-08
6.99554e-09
-1.47591e-08
7.66588e-09
-1.81985e-08
8.22483e-09
-2.18241e-08
8.67572e-09
-2.55933e-08
9.02558e-09
-2.94679e-08
9.28327e-09
-3.3414e-08
9.45885e-09
-3.74023e-08
9.56275e-09
-4.14074e-08
9.60453e-09
-4.54075e-08
9.5933e-09
-4.93846e-08
9.53694e-09
-5.33225e-08
9.44256e-09
-5.72083e-08
9.31607e-09
-6.10305e-08
9.16275e-09
-6.47795e-08
8.98651e-09
-6.84474e-08
8.79072e-09
-7.2027e-08
8.57812e-09
-7.55121e-08
8.3508e-09
-7.8897e-08
8.11056e-09
-8.2177e-08
7.85887e-09
-8.53476e-08
7.59675e-09
-8.84046e-08
7.32502e-09
-9.13442e-08
7.04438e-09
-9.41629e-08
6.75556e-09
-9.68571e-08
6.45917e-09
-9.94238e-08
6.15547e-09
-1.0186e-07
5.84479e-09
-1.04163e-07
5.52742e-09
-1.06331e-07
5.20353e-09
-1.0836e-07
4.87343e-09
-1.10249e-07
4.53749e-09
-1.11996e-07
4.19614e-09
-1.13598e-07
3.84993e-09
-1.15054e-07
3.49922e-09
-1.16362e-07
3.14423e-09
-1.17521e-07
2.78529e-09
-1.1853e-07
2.42287e-09
-1.19386e-07
2.05743e-09
-1.2009e-07
1.68931e-09
-1.2064e-07
1.31889e-09
-1.21036e-07
9.46758e-10
-1.21278e-07
5.73357e-10
-1.21364e-07
1.98946e-10
-1.21294e-07
-1.7603e-10
-1.2107e-07
-5.51055e-10
-1.2069e-07
-9.25836e-10
-1.20155e-07
-1.29998e-09
-1.19465e-07
-1.67292e-09
-1.18622e-07
-2.04435e-09
-1.17625e-07
-2.41413e-09
-1.16476e-07
-2.78173e-09
-1.15176e-07
-3.14643e-09
-1.13727e-07
-3.5079e-09
-1.12129e-07
-3.86586e-09
-1.10384e-07
-4.21972e-09
-1.08494e-07
-4.56885e-09
-1.06462e-07
-4.9128e-09
-1.04289e-07
-5.25121e-09
-1.01978e-07
-5.5836e-09
-9.95319e-08
-5.90954e-09
-9.69534e-08
-6.22858e-09
-9.42454e-08
-6.54023e-09
-9.1411e-08
-6.84398e-09
-8.84538e-08
-7.13932e-09
-8.53778e-08
-7.42571e-09
-8.2187e-08
-7.70255e-09
-7.88856e-08
-7.96907e-09
-7.54785e-08
-8.22433e-09
-7.19712e-08
-8.46713e-09
-6.83696e-08
-8.69605e-09
-6.46804e-08
-8.90938e-09
-6.09109e-08
-9.10485e-09
-5.70703e-08
-9.27947e-09
-5.31691e-08
-9.42946e-09
-4.92194e-08
-9.55032e-09
-4.52354e-08
-9.63669e-09
-4.12341e-08
-9.68205e-09
-3.72357e-08
-9.67865e-09
-3.32638e-08
-9.61764e-09
-2.93452e-08
-9.48933e-09
-2.55111e-08
-9.28328e-09
-2.17964e-08
-8.98858e-09
-1.82402e-08
-8.59439e-09
-1.48847e-08
-8.09071e-09
-1.17745e-08
-7.4694e-09
-8.95545e-09
-6.72536e-09
-6.47233e-09
-5.85861e-09
-4.36588e-09
-4.87738e-09
-2.66871e-09
-3.80262e-09
-1.39968e-09
-2.67507e-09
-5.57486e-10
-1.56475e-09
-1.13135e-10
-5.88695e-10
3.39663e-11
-7.62901e-11
-5.54099e-10
-5.53223e-10
7.65383e-10
-1.58756e-09
2.94117e-09
-3.20991e-09
4.86091e-09
-5.39436e-09
6.53323e-09
-8.09344e-09
8.03236e-09
-1.12501e-08
9.37279e-09
-1.48041e-08
1.05495e-08
-1.86951e-08
1.1557e-08
-2.28651e-08
1.23948e-08
-2.72593e-08
1.30699e-08
-3.18271e-08
1.35934e-08
-3.65233e-08
1.39794e-08
-4.13076e-08
1.42432e-08
-4.61445e-08
1.43996e-08
-5.10034e-08
1.44635e-08
-5.58581e-08
1.4448e-08
-6.06863e-08
1.43651e-08
-6.54688e-08
1.42251e-08
-7.01896e-08
1.40368e-08
-7.48345e-08
1.38077e-08
-7.93919e-08
1.35439e-08
-8.38517e-08
1.32506e-08
-8.82051e-08
1.29315e-08
-9.24443e-08
1.259e-08
-9.65624e-08
1.22287e-08
-1.00553e-07
1.18497e-08
-1.04411e-07
1.14547e-08
-1.08131e-07
1.1045e-08
-1.11709e-07
1.06218e-08
-1.15139e-07
1.0186e-08
-1.18418e-07
9.73834e-09
-1.21542e-07
9.27943e-09
-1.24507e-07
8.80989e-09
-1.2731e-07
8.33037e-09
-1.29948e-07
7.84129e-09
-1.32418e-07
7.34299e-09
-1.34716e-07
6.83613e-09
-1.36841e-07
6.32138e-09
-1.38791e-07
5.79931e-09
-1.40562e-07
5.27054e-09
-1.42154e-07
4.73563e-09
-1.43563e-07
4.19514e-09
-1.4479e-07
3.64964e-09
-1.45832e-07
3.09968e-09
-1.46689e-07
2.54587e-09
-1.47359e-07
1.98885e-09
-1.47841e-07
1.42925e-09
-1.48136e-07
8.67778e-10
-1.48242e-07
3.05011e-10
-1.48159e-07
-2.58605e-10
-1.47888e-07
-8.22481e-10
-1.47428e-07
-1.38585e-09
-1.4678e-07
-1.9481e-09
-1.45944e-07
-2.5088e-09
-1.44921e-07
-3.06744e-09
-1.43712e-07
-3.62328e-09
-1.42318e-07
-4.17557e-09
-1.4074e-07
-4.7238e-09
-1.38981e-07
-5.26735e-09
-1.37041e-07
-5.80541e-09
-1.34924e-07
-6.33722e-09
-1.32631e-07
-6.86217e-09
-1.30164e-07
-7.37955e-09
-1.27527e-07
-7.88852e-09
-1.24722e-07
-8.38844e-09
-1.21753e-07
-8.87879e-09
-1.18622e-07
-9.35886e-09
-1.15335e-07
-9.82773e-09
-1.11894e-07
-1.02846e-08
-1.08305e-07
-1.07288e-08
-1.04571e-07
-1.11597e-08
-1.00697e-07
-1.15759e-08
-9.66901e-08
-1.19762e-08
-9.25551e-08
-1.23594e-08
-8.82986e-08
-1.27236e-08
-8.3928e-08
-1.30667e-08
-7.94516e-08
-1.33858e-08
-7.4879e-08
-1.36775e-08
-7.02209e-08
-1.39375e-08
-6.54902e-08
-1.41602e-08
-6.07015e-08
-1.4339e-08
-5.58725e-08
-1.44657e-08
-5.10236e-08
-1.4531e-08
-4.61786e-08
-1.45237e-08
-4.13651e-08
-1.44312e-08
-3.66149e-08
-1.42395e-08
-3.19642e-08
-1.3934e-08
-2.74536e-08
-1.34993e-08
-2.31273e-08
-1.29206e-08
-1.90335e-08
-1.21845e-08
-1.52226e-08
-1.12803e-08
-1.1746e-08
-1.0202e-08
-8.6537e-09
-8.95091e-09
-5.99169e-09
-7.53939e-09
-3.79844e-09
-5.99587e-09
-2.10092e-09
-4.37257e-09
-9.10537e-10
-2.75516e-09
-2.19266e-10
-1.27996e-09
-1.85303e-10
-2.37529e-10
-3.16568e-10
-1.00259e-09
1.53045e-09
-2.37136e-09
4.30996e-09
-4.37007e-09
6.85962e-09
-6.97824e-09
9.1414e-09
-1.01507e-08
1.12049e-08
-1.38297e-08
1.30518e-08
-1.79517e-08
1.46715e-08
-2.24514e-08
1.60567e-08
-2.72658e-08
1.72092e-08
-3.23342e-08
1.81383e-08
-3.76007e-08
1.88599e-08
-4.30147e-08
1.93934e-08
-4.85305e-08
1.9759e-08
-5.41084e-08
1.99775e-08
-5.97133e-08
2.00684e-08
-6.5315e-08
2.00497e-08
-7.08877e-08
1.99378e-08
-7.64093e-08
1.97467e-08
-8.18611e-08
1.94886e-08
-8.72268e-08
1.91734e-08
-9.24927e-08
1.88098e-08
-9.76468e-08
1.84047e-08
-1.02679e-07
1.79635e-08
-1.0758e-07
1.74909e-08
-1.12341e-07
1.69903e-08
-1.16956e-07
1.64648e-08
-1.21418e-07
1.59165e-08
-1.25721e-07
1.53476e-08
-1.29859e-07
1.47596e-08
-1.33827e-07
1.41539e-08
-1.3762e-07
1.35314e-08
-1.41233e-07
1.28931e-08
-1.44663e-07
1.224e-08
-1.47906e-07
1.15729e-08
-1.50957e-07
1.08925e-08
-1.53814e-07
1.01996e-08
-1.56473e-07
9.49494e-09
-1.58931e-07
8.77953e-09
-1.61185e-07
8.05408e-09
-1.63234e-07
7.31939e-09
-1.65075e-07
6.57632e-09
-1.66706e-07
5.82571e-09
-1.68124e-07
5.0684e-09
-1.6933e-07
4.30514e-09
-1.70321e-07
3.53662e-09
-1.71096e-07
2.76383e-09
-1.71654e-07
1.98774e-09
-1.71995e-07
1.20898e-09
-1.72119e-07
4.28263e-10
-1.72024e-07
-3.53433e-10
-1.71711e-07
-1.13522e-09
-1.7118e-07
-1.91645e-09
-1.70432e-07
-2.69633e-09
-1.69467e-07
-3.47393e-09
-1.68286e-07
-4.24851e-09
-1.6689e-07
-5.01928e-09
-1.6528e-07
-5.7852e-09
-1.63459e-07
-6.54533e-09
-1.61427e-07
-7.29891e-09
-1.59188e-07
-8.04502e-09
-1.56742e-07
-8.78253e-09
-1.54094e-07
-9.51045e-09
-1.51246e-07
-1.02279e-08
-1.482e-07
-1.09339e-08
-1.44961e-07
-1.16275e-08
-1.41532e-07
-1.23076e-08
-1.37918e-07
-1.29735e-08
-1.34122e-07
-1.36238e-08
-1.30149e-07
-1.42576e-08
-1.26004e-07
-1.48738e-08
-1.21692e-07
-1.54711e-08
-1.1722e-07
-1.6048e-08
-1.12594e-07
-1.66028e-08
-1.0782e-07
-1.71333e-08
-1.02906e-07
-1.76373e-08
-9.78612e-08
-1.81115e-08
-9.26948e-08
-1.85522e-08
-8.74179e-08
-1.89544e-08
-8.20433e-08
-1.93121e-08
-7.65856e-08
-1.96179e-08
-7.10621e-08
-1.98625e-08
-6.54925e-08
-2.00353e-08
-5.99e-08
-2.01234e-08
-5.43117e-08
-2.0112e-08
-4.87585e-08
-1.99844e-08
-4.32759e-08
-1.97222e-08
-3.79038e-08
-1.9306e-08
-3.26869e-08
-1.87162e-08
-2.76737e-08
-1.79337e-08
-2.29167e-08
-1.69415e-08
-1.84705e-08
-1.57264e-08
-1.43911e-08
-1.42814e-08
-1.07331e-08
-1.26089e-08
-7.54808e-09
-1.07244e-08
-4.88176e-09
-8.66219e-09
-2.77156e-09
-6.48275e-09
-1.2446e-09
-4.28213e-09
-3.17038e-10
-2.20753e-09
-5.02348e-10
-3.66753e-10
5.01913e-11
-1.39425e-09
2.55795e-09
-3.08878e-09
6.0045e-09
-5.45809e-09
9.22894e-09
-8.47644e-09
1.21598e-08
-1.20964e-08
1.48248e-08
-1.62582e-08
1.72136e-08
-2.0896e-08
1.93093e-08
-2.59421e-08
2.11027e-08
-3.1329e-08
2.25962e-08
-3.69931e-08
2.38023e-08
-4.28742e-08
2.47411e-08
-4.89174e-08
2.54366e-08
-5.50737e-08
2.59152e-08
-6.12992e-08
2.6203e-08
-6.75557e-08
2.63249e-08
-7.38099e-08
2.6304e-08
-8.00331e-08
2.6161e-08
-8.62006e-08
2.59142e-08
-9.22913e-08
2.55793e-08
-9.82872e-08
2.51693e-08
-1.04173e-07
2.46953e-08
-1.09934e-07
2.41662e-08
-1.1556e-07
2.35893e-08
-1.2104e-07
2.29707e-08
-1.26365e-07
2.23151e-08
-1.31526e-07
2.16261e-08
-1.36516e-07
2.0907e-08
-1.41329e-07
2.01604e-08
-1.45958e-07
1.93882e-08
-1.50396e-07
1.85924e-08
-1.54639e-07
1.77744e-08
-1.58682e-07
1.69356e-08
-1.62519e-07
1.60773e-08
-1.66147e-07
1.52004e-08
-1.6956e-07
1.4306e-08
-1.72756e-07
1.33952e-08
-1.7573e-07
1.24693e-08
-1.7848e-07
1.15294e-08
-1.81002e-07
1.05763e-08
-1.83294e-07
9.61125e-09
-1.85353e-07
8.63543e-09
-1.87177e-07
7.64984e-09
-1.88764e-07
6.65545e-09
-1.90113e-07
5.65345e-09
-1.91221e-07
4.64497e-09
-1.92088e-07
3.63097e-09
-1.92713e-07
2.61252e-09
-1.93095e-07
1.59074e-09
-1.93233e-07
5.66582e-10
-1.93127e-07
-4.58921e-10
-1.92778e-07
-1.48457e-09
-1.92185e-07
-2.50935e-09
-1.91349e-07
-3.53229e-09
-1.90271e-07
-4.55233e-09
-1.88951e-07
-5.56836e-09
-1.87391e-07
-6.57924e-09
-1.85593e-07
-7.58373e-09
-1.83557e-07
-8.58068e-09
-1.81287e-07
-9.56904e-09
-1.78785e-07
-1.05475e-08
-1.76052e-07
-1.15148e-08
-1.73093e-07
-1.24695e-08
-1.69911e-07
-1.34105e-08
-1.66508e-07
-1.43366e-08
-1.62889e-07
-1.52464e-08
-1.59058e-07
-1.61386e-08
-1.5502e-07
-1.7012e-08
-1.50778e-07
-1.78651e-08
-1.4634e-07
-1.86964e-08
-1.41709e-07
-1.95044e-08
-1.36892e-07
-2.02877e-08
-1.31896e-07
-2.10439e-08
-1.26728e-07
-2.17709e-08
-1.21396e-07
-2.24659e-08
-1.15908e-07
-2.31256e-08
-1.10273e-07
-2.37459e-08
-1.04504e-07
-2.43218e-08
-9.86112e-08
-2.48467e-08
-9.26103e-08
-2.5313e-08
-8.65172e-08
-2.5711e-08
-8.03508e-08
-2.60289e-08
-7.41331e-08
-2.6253e-08
-6.78894e-08
-2.63671e-08
-6.16492e-08
-2.63523e-08
-5.5446e-08
-2.61876e-08
-4.9318e-08
-2.58501e-08
-4.33084e-08
-2.53157e-08
-3.74645e-08
-2.456e-08
-3.18385e-08
-2.35598e-08
-2.64859e-08
-2.22941e-08
-2.14651e-08
-2.07472e-08
-1.68358e-08
-1.89107e-08
-1.26575e-08
-1.67872e-08
-8.98783e-09
-1.43941e-08
-5.88076e-09
-1.17693e-08
-3.38553e-09
-8.978e-09
-1.54616e-09
-6.12148e-09
-4.03033e-10
-3.35066e-09
-9.05377e-10
-4.67342e-10
5.17526e-10
-1.72306e-09
3.81367e-09
-3.7184e-09
7.99984e-09
-6.43708e-09
1.19476e-08
-9.84223e-09
1.55649e-08
-1.38799e-08
1.88625e-08
-1.8487e-08
2.18207e-08
-2.35945e-08
2.44169e-08
-2.91321e-08
2.66403e-08
-3.50303e-08
2.84944e-08
-4.12223e-08
2.99943e-08
-4.76454e-08
3.11642e-08
-5.42419e-08
3.20331e-08
-6.09595e-08
3.26329e-08
-6.77518e-08
3.29953e-08
-7.45777e-08
3.31508e-08
-8.14016e-08
3.31278e-08
-8.81924e-08
3.29518e-08
-9.49233e-08
3.26452e-08
-1.01571e-07
3.22274e-08
-1.08117e-07
3.17149e-08
-1.14543e-07
3.11212e-08
-1.20834e-07
3.04576e-08
-1.26978e-07
2.97334e-08
-1.32964e-07
2.89559e-08
-1.3878e-07
2.81313e-08
-1.44418e-07
2.72642e-08
-1.4987e-07
2.63588e-08
-1.55128e-07
2.54182e-08
-1.60184e-07
2.44451e-08
-1.65034e-07
2.34418e-08
-1.6967e-07
2.24104e-08
-1.74087e-07
2.13525e-08
-1.78279e-07
2.02698e-08
-1.82242e-07
1.91637e-08
-1.85972e-07
1.80356e-08
-1.89464e-07
1.6887e-08
-1.92714e-07
1.57192e-08
-1.95718e-07
1.45338e-08
-1.98474e-07
1.33321e-08
-2.00978e-07
1.21154e-08
-2.03228e-07
1.08852e-08
-2.05221e-07
9.64279e-09
-2.06955e-07
8.38955e-09
-2.08428e-07
7.12679e-09
-2.09639e-07
5.85594e-09
-2.10587e-07
4.57834e-09
-2.11269e-07
3.29528e-09
-2.11687e-07
2.008e-09
-2.11838e-07
7.17778e-10
-2.11723e-07
-5.73972e-10
-2.11342e-07
-1.86584e-09
-2.10694e-07
-3.15664e-09
-2.09781e-07
-4.44513e-09
-2.08604e-07
-5.72985e-09
-2.07163e-07
-7.00937e-09
-2.0546e-07
-8.28237e-09
-2.03496e-07
-9.54736e-09
-2.01274e-07
-1.08028e-08
-1.98796e-07
-1.20474e-08
-1.96064e-07
-1.32796e-08
-1.93081e-07
-1.44975e-08
-1.89851e-07
-1.56997e-08
-1.86376e-07
-1.68848e-08
-1.82662e-07
-1.80511e-08
-1.78711e-07
-1.91969e-08
-1.74529e-07
-2.03205e-08
-1.70121e-07
-2.14203e-08
-1.65491e-07
-2.24946e-08
-1.60646e-07
-2.35415e-08
-1.55592e-07
-2.4559e-08
-1.50335e-07
-2.5545e-08
-1.44882e-07
-2.64968e-08
-1.39241e-07
-2.74115e-08
-1.33421e-07
-2.82856e-08
-1.27432e-07
-2.9115e-08
-1.21283e-07
-2.98945e-08
-1.14987e-07
-3.06175e-08
-1.08558e-07
-3.12761e-08
-1.02011e-07
-3.18605e-08
-9.53626e-08
-3.23589e-08
-8.86346e-08
-3.2757e-08
-8.185e-08
-3.30376e-08
-7.5036e-08
-3.3181e-08
-6.8224e-08
-3.31643e-08
-6.14495e-08
-3.29621e-08
-5.47528e-08
-3.25467e-08
-4.81793e-08
-3.18892e-08
-4.17789e-08
-3.09604e-08
-3.56062e-08
-2.97325e-08
-2.97195e-08
-2.81808e-08
-2.41805e-08
-2.62862e-08
-1.90527e-08
-2.40385e-08
-1.44006e-08
-2.14393e-08
-1.02881e-08
-1.85066e-08
-6.77801e-09
-1.52793e-08
-3.93191e-09
-1.18241e-08
-1.81053e-09
-8.24286e-09
-4.76522e-10
-4.68467e-09
-1.38189e-09
-5.46298e-10
1.06383e-09
-1.99617e-09
5.26355e-09
-4.26064e-09
1.02643e-08
-7.29939e-09
1.49864e-08
-1.10617e-08
1.93272e-08
-1.54849e-08
2.32857e-08
-2.04996e-08
2.68354e-08
-2.6034e-08
2.99512e-08
-3.20148e-08
3.26212e-08
-3.83702e-08
3.48499e-08
-4.50315e-08
3.66556e-08
-5.19338e-08
3.80665e-08
-5.90174e-08
3.91167e-08
-6.62278e-08
3.98434e-08
-7.35165e-08
4.02839e-08
-8.08404e-08
4.04747e-08
-8.81617e-08
4.04491e-08
-9.54477e-08
4.02378e-08
-1.0267e-07
3.98675e-08
-1.09804e-07
3.93614e-08
-1.16828e-07
3.87394e-08
-1.23725e-07
3.80179e-08
-1.30478e-07
3.72106e-08
-1.37074e-07
3.63288e-08
-1.43499e-07
3.53813e-08
-1.49743e-07
3.43755e-08
-1.55796e-07
3.33176e-08
-1.6165e-07
3.22123e-08
-1.67295e-07
3.10636e-08
-1.72725e-07
2.98749e-08
-1.77932e-07
2.8649e-08
-1.8291e-07
2.73884e-08
-1.87653e-07
2.60954e-08
-1.92155e-07
2.47718e-08
-1.96411e-07
2.34195e-08
-2.00416e-07
2.20405e-08
-2.04165e-07
2.06364e-08
-2.07655e-07
1.92091e-08
-2.10881e-07
1.77601e-08
-2.13841e-07
1.62913e-08
-2.1653e-07
1.48044e-08
-2.18946e-07
1.33011e-08
-2.21086e-07
1.1783e-08
-2.22948e-07
1.02517e-08
-2.2453e-07
8.70893e-09
-2.25831e-07
7.15649e-09
-2.26848e-07
5.59581e-09
-2.27581e-07
4.02845e-09
-2.28029e-07
2.45609e-09
-2.28192e-07
8.80303e-10
-2.28069e-07
-6.97289e-10
-2.27659e-07
-2.27503e-09
-2.26965e-07
-3.85141e-09
-2.25985e-07
-5.42489e-09
-2.24721e-07
-6.99365e-09
-2.23174e-07
-8.55599e-09
-2.21346e-07
-1.01103e-08
-2.19239e-07
-1.16548e-08
-2.16854e-07
-1.31877e-08
-2.14194e-07
-1.47072e-08
-2.11262e-07
-1.62115e-08
-2.08061e-07
-1.76985e-08
-2.04595e-07
-1.91663e-08
-2.00866e-07
-2.06132e-08
-1.9688e-07
-2.20372e-08
-1.92641e-07
-2.34361e-08
-1.88154e-07
-2.4808e-08
-1.83423e-07
-2.61508e-08
-1.78455e-07
-2.74624e-08
-1.73256e-07
-2.87405e-08
-1.67833e-07
-2.99827e-08
-1.62191e-07
-3.11862e-08
-1.5634e-07
-3.23478e-08
-1.50288e-07
-3.34638e-08
-1.44044e-07
-3.453e-08
-1.37617e-07
-3.55413e-08
-1.31021e-07
-3.64913e-08
-1.24266e-07
-3.73719e-08
-1.17369e-07
-3.81738e-08
-1.10344e-07
-3.8885e-08
-1.03212e-07
-3.94915e-08
-9.59925e-08
-3.9976e-08
-8.87118e-08
-4.03183e-08
-8.13981e-08
-4.04947e-08
-7.4084e-08
-4.04784e-08
-6.68067e-08
-4.02394e-08
-5.96083e-08
-3.97451e-08
-5.25357e-08
-3.89618e-08
-4.5641e-08
-3.78552e-08
-3.89807e-08
-3.63928e-08
-3.2616e-08
-3.45455e-08
-2.66114e-08
-3.22908e-08
-2.10345e-08
-2.96154e-08
-1.59545e-08
-2.65193e-08
-1.14421e-08
-2.3019e-08
-7.5692e-09
-1.91522e-08
-4.40898e-09
-1.49843e-08
-2.0379e-09
-1.06139e-08
-5.38015e-10
-6.18455e-09
-1.9199e-09
-6.09048e-10
1.67287e-09
-2.22242e-09
6.87693e-09
-4.72373e-09
1.27656e-08
-8.05027e-09
1.83129e-08
-1.21369e-08
2.34139e-08
-1.69109e-08
2.80597e-08
-2.22968e-08
3.22213e-08
-2.82178e-08
3.58722e-08
-3.45979e-08
3.90013e-08
-4.13631e-08
4.16151e-08
-4.84426e-08
4.37351e-08
-5.57699e-08
4.53938e-08
-6.32836e-08
4.66304e-08
-7.09278e-08
4.74876e-08
-7.86523e-08
4.80084e-08
-8.64123e-08
4.82347e-08
-9.41687e-08
4.82055e-08
-1.01887e-07
4.79564e-08
-1.09538e-07
4.75185e-08
-1.17096e-07
4.69191e-08
-1.24538e-07
4.61814e-08
-1.31845e-07
4.53249e-08
-1.39e-07
4.43657e-08
-1.45989e-07
4.33171e-08
-1.52797e-07
4.21898e-08
-1.59414e-07
4.09925e-08
-1.65829e-07
3.97325e-08
-1.72032e-07
3.84155e-08
-1.78015e-07
3.70464e-08
-1.83769e-07
3.56292e-08
-1.89288e-07
3.41675e-08
-1.94563e-07
3.26641e-08
-1.9959e-07
3.11218e-08
-2.04361e-07
2.9543e-08
-2.08871e-07
2.79299e-08
-2.13116e-07
2.62849e-08
-2.1709e-07
2.46102e-08
-2.20788e-07
2.29076e-08
-2.24207e-07
2.11794e-08
-2.27344e-07
1.94277e-08
-2.30194e-07
1.76544e-08
-2.32754e-07
1.58616e-08
-2.35022e-07
1.40512e-08
-2.36996e-07
1.22253e-08
-2.38673e-07
1.03859e-08
-2.40051e-07
8.53495e-09
-2.4113e-07
6.67422e-09
-2.41907e-07
4.80562e-09
-2.42382e-07
2.93117e-09
-2.42555e-07
1.05274e-09
-2.42424e-07
-8.27796e-10
-2.41991e-07
-2.70846e-09
-2.41255e-07
-4.58743e-09
-2.40217e-07
-6.46283e-09
-2.38878e-07
-8.33253e-09
-2.37239e-07
-1.01945e-08
-2.35303e-07
-1.20468e-08
-2.3307e-07
-1.38875e-08
-2.30544e-07
-1.57142e-08
-2.27726e-07
-1.75249e-08
-2.2462e-07
-1.93174e-08
-2.21229e-07
-2.10893e-08
-2.17557e-07
-2.28385e-08
-2.13608e-07
-2.45627e-08
-2.09385e-07
-2.62596e-08
-2.04895e-07
-2.79267e-08
-2.00141e-07
-2.95615e-08
-1.9513e-07
-3.11617e-08
-1.89868e-07
-3.27248e-08
-1.84361e-07
-3.42479e-08
-1.78615e-07
-3.5728e-08
-1.7264e-07
-3.71618e-08
-1.66442e-07
-3.85456e-08
-1.60031e-07
-3.98749e-08
-1.53416e-07
-4.11445e-08
-1.46609e-07
-4.23485e-08
-1.39621e-07
-4.3479e-08
-1.32466e-07
-4.45268e-08
-1.2516e-07
-4.54806e-08
-1.17718e-07
-4.63265e-08
-1.10162e-07
-4.70481e-08
-1.02512e-07
-4.76251e-08
-9.47967e-08
-4.8034e-08
-8.7044e-08
-4.82475e-08
-7.9288e-08
-4.82344e-08
-7.15673e-08
-4.79601e-08
-6.39251e-08
-4.73873e-08
-5.641e-08
-4.64769e-08
-4.90756e-08
-4.51896e-08
-4.19806e-08
-4.34878e-08
-3.51885e-08
-4.13376e-08
-2.87669e-08
-3.87123e-08
-2.27872e-08
-3.55951e-08
-1.73238e-08
-3.19828e-08
-1.2454e-08
-2.78888e-08
-8.2581e-09
-2.33481e-08
-4.82037e-09
-1.8422e-08
-2.23113e-09
-1.32032e-08
-5.88844e-10
-7.82683e-09
-2.50875e-09
-6.59084e-10
2.33195e-09
-2.41031e-09
8.62816e-09
-5.11721e-09
1.54725e-08
-8.69906e-09
2.18947e-08
-1.30766e-08
2.77914e-08
-1.81676e-08
3.31508e-08
-2.38891e-08
3.79427e-08
-3.01594e-08
4.21425e-08
-3.68992e-08
4.57411e-08
-4.40321e-08
4.8748e-08
-5.14854e-08
5.11884e-08
-5.91912e-08
5.30995e-08
-6.70865e-08
5.45257e-08
-7.51142e-08
5.55152e-08
-8.32228e-08
5.6117e-08
-9.13664e-08
5.63784e-08
-9.95049e-08
5.6344e-08
-1.07603e-07
5.60542e-08
-1.15629e-07
5.5545e-08
-1.23558e-07
5.48475e-08
-1.31365e-07
5.39885e-08
-1.3903e-07
5.29905e-08
-1.46536e-07
5.18721e-08
-1.53868e-07
5.06486e-08
-1.61011e-07
4.93326e-08
-1.67953e-07
4.79346e-08
-1.74683e-07
4.64627e-08
-1.81191e-07
4.49237e-08
-1.87468e-07
4.33233e-08
-1.93505e-07
4.16665e-08
-1.99295e-07
3.99573e-08
-2.0483e-07
3.81992e-08
-2.10104e-07
3.63953e-08
-2.1511e-07
3.45487e-08
-2.19842e-07
3.26621e-08
-2.24295e-07
3.07381e-08
-2.28464e-07
2.87792e-08
-2.32344e-07
2.6788e-08
-2.35932e-07
2.47669e-08
-2.39222e-07
2.27183e-08
-2.42212e-07
2.06445e-08
-2.44899e-07
1.8548e-08
-2.47279e-07
1.64312e-08
-2.4935e-07
1.42962e-08
-2.51109e-07
1.21455e-08
-2.52556e-07
9.98136e-09
-2.53687e-07
7.80586e-09
-2.54503e-07
5.62122e-09
-2.55002e-07
3.42986e-09
-2.55183e-07
1.23393e-09
-2.55046e-07
-9.64418e-10
-2.54592e-07
-3.16288e-09
-2.5382e-07
-5.35925e-09
-2.52732e-07
-7.55132e-09
-2.51327e-07
-9.73665e-09
-2.49609e-07
-1.19129e-08
-2.47578e-07
-1.40778e-08
-2.45236e-07
-1.6229e-08
-2.42587e-07
-1.83639e-08
-2.39632e-07
-2.048e-08
-2.36374e-07
-2.25748e-08
-2.32818e-07
-2.46455e-08
-2.28967e-07
-2.66897e-08
-2.24825e-07
-2.87048e-08
-2.20396e-07
-3.06879e-08
-2.15687e-07
-3.26363e-08
-2.10701e-07
-3.4547e-08
-2.05446e-07
-3.64173e-08
-1.99927e-07
-3.82441e-08
-1.9415e-07
-4.00242e-08
-1.88124e-07
-4.1754e-08
-1.81857e-07
-4.34295e-08
-1.75356e-07
-4.50464e-08
-1.68631e-07
-4.65995e-08
-1.61693e-07
-4.80827e-08
-1.54553e-07
-4.94888e-08
-1.47223e-07
-5.0809e-08
-1.39717e-07
-5.20325e-08
-1.32052e-07
-5.3146e-08
-1.24244e-07
-5.41339e-08
-1.16315e-07
-5.4977e-08
-1.08288e-07
-5.56524e-08
-1.00189e-07
-5.61329e-08
-9.20491e-08
-5.63875e-08
-8.39026e-08
-5.63809e-08
-7.5789e-08
-5.60737e-08
-6.7753e-08
-5.54234e-08
-5.98442e-08
-5.43857e-08
-5.21179e-08
-5.29159e-08
-4.46348e-08
-5.09709e-08
-3.74607e-08
-4.85117e-08
-3.06663e-08
-4.55067e-08
-2.43268e-08
-4.19346e-08
-1.85216e-08
-3.77879e-08
-1.33344e-08
-3.3076e-08
-8.85334e-09
-2.78291e-08
-5.1727e-09
-2.21027e-08
-2.3946e-09
-1.59813e-08
-6.30981e-10
-9.59045e-09
-3.13973e-09
-6.99283e-10
3.03123e-09
-2.56594e-09
1.04948e-08
-5.45056e-09
1.83571e-08
-9.25714e-09
2.57013e-08
-1.38939e-08
3.24281e-08
-1.92692e-08
3.8526e-08
-2.5293e-08
4.39665e-08
-3.18786e-08
4.87281e-08
-3.89429e-08
5.28054e-08
-4.64068e-08
5.62119e-08
-5.41958e-08
5.89774e-08
-6.22403e-08
6.1144e-08
-7.04762e-08
6.27616e-08
-7.88452e-08
6.38842e-08
-8.72948e-08
6.45666e-08
-9.57783e-08
6.48618e-08
-1.04254e-07
6.48201e-08
-1.12687e-07
6.44867e-08
-1.21044e-07
6.39023e-08
-1.29299e-07
6.31021e-08
-1.37427e-07
6.21165e-08
-1.45407e-07
6.09709e-08
-1.53222e-07
5.96866e-08
-1.60854e-07
5.82812e-08
-1.68291e-07
5.6769e-08
-1.75518e-07
5.51617e-08
-1.82524e-07
5.34691e-08
-1.893e-07
5.1699e-08
-1.95834e-07
4.9858e-08
-2.02119e-07
4.79516e-08
-2.08147e-07
4.59846e-08
-2.13909e-07
4.39612e-08
-2.19398e-07
4.18851e-08
-2.24609e-07
3.97596e-08
-2.29535e-07
3.75882e-08
-2.34171e-07
3.53737e-08
-2.38511e-07
3.31191e-08
-2.4255e-07
3.08274e-08
-2.46285e-07
2.85013e-08
-2.4971e-07
2.61437e-08
-2.52823e-07
2.37573e-08
-2.5562e-07
2.13447e-08
-2.58097e-07
1.89088e-08
-2.60253e-07
1.64521e-08
-2.62085e-07
1.39774e-08
-2.63591e-07
1.14872e-08
-2.64769e-07
8.98408e-09
-2.65618e-07
6.47053e-09
-2.66138e-07
3.94932e-09
-2.66327e-07
1.42291e-09
-2.66185e-07
-1.10624e-09
-2.65713e-07
-3.63547e-09
-2.6491e-07
-6.16217e-09
-2.63777e-07
-8.6838e-09
-2.62316e-07
-1.11976e-08
-2.60528e-07
-1.37009e-08
-2.58415e-07