/*--------------------------------*- C++ -*----------------------------------*\
| =========                 |                                                 |
| \\      /  F ield         | OpenFOAM: The Open Source CFD Toolbox           |
|  \\    /   O peration     | Version:  2212                                  |
|   \\  /    A nd           | Website:  www.openfoam.com                      |
|    \\/     M anipulation  |                                                 |
\*---------------------------------------------------------------------------*/
FoamFile
{
    version     2.0;
    format      ascii;
    arch        "LSB;label=32;scalar=64";
    class       volScalarField;
    location    "0.0185";
    object      p;
}
// * * * * * * * * * * * * * * * * * * * * * * * * * * * * * * * * * * * * * //

dimensions      [0 2 -2 0 0 0 0];

internalField   nonuniform List<scalar> 
10000
(
8.37708e-08
7.44096e-06
-0.000221695
-0.000669622
-0.0013034
-0.00208707
-0.00297599
-0.00392655
-0.00490025
-0.00586479
-0.00679311
-0.00766335
-0.00845662
-0.00915701
-0.00975132
-0.0102285
-0.0105801
-0.0107994
-0.0108808
-0.0108202
-0.0106157
-0.0102656
-0.00976925
-0.00912659
-0.00833854
-0.00740672
-0.00633326
-0.00512092
-0.00377299
-0.00229314
-0.000685549
0.00104492
0.00289327
0.00485471
0.00692447
0.0090974
0.011368
0.0137306
0.0161794
0.0187076
0.0213087
0.0239766
0.0267053
0.029489
0.0323207
0.035193
0.038099
0.0410318
0.0439842
0.0469493
0.0499201
0.0528899
0.0558519
0.0587988
0.0617232
0.0646177
0.0674759
0.070291
0.0730561
0.0757641
0.0784079
0.0809806
0.0834756
0.0858863
0.0882061
0.0904282
0.0925464
0.0945544
0.0964462
0.0982159
0.0998582
0.101368
0.102742
0.103975
0.105065
0.106009
0.106804
0.107448
0.107941
0.10828
0.108468
0.108505
0.108395
0.108142
0.107752
0.107232
0.106591
0.10584
0.104991
0.104061
0.10307
0.102041
0.101
0.099979
0.0990152
0.0981518
0.0974375
0.0969256
0.0966734
0.0966801
2.86532e-06
5.67519e-05
-0.000123149
-0.00049754
-0.00102891
-0.00168934
-0.00244137
-0.00324902
-0.00407964
-0.00490501
-0.00570112
-0.00644733
-0.00712667
-0.00772452
-0.00822759
-0.00862489
-0.00890783
-0.00906918
-0.00910314
-0.00900552
-0.00877342
-0.00840526
-0.00790022
-0.00725809
-0.00647921
-0.00556443
-0.00451521
-0.00333383
-0.00202321
-0.000586707
0.000971747
0.00264771
0.00443667
0.00633432
0.00833606
0.0104369
0.0126316
0.014915
0.0172815
0.0197247
0.0222382
0.0248164
0.0274537
0.0301438
0.03288
0.0356552
0.0384631
0.0412971
0.0441502
0.0470154
0.0498859
0.0527551
0.0556164
0.058463
0.0612877
0.0640836
0.0668444
0.0695632
0.0722332
0.0748479
0.0774008
0.0798851
0.0822945
0.0846227
0.086863
0.0890092
0.0910555
0.0929963
0.0948257
0.0965382
0.0981289
0.0995933
0.100928
0.102128
0.103193
0.10412
0.104906
0.105549
0.10605
0.106409
0.106625
0.106701
0.106641
0.106448
0.106131
0.105695
0.105149
0.104504
0.103773
0.102972
0.102119
0.101236
0.100347
0.0994796
0.0986657
0.0979402
0.0973401
0.0969035
0.096679
0.0966864
0.000286442
0.000334098
0.000163607
-0.000179567
-0.0006579
-0.00124562
-0.00191151
-0.00262479
-0.00335757
-0.00408572
-0.0047873
-0.0054435
-0.00603888
-0.00655959
-0.00699335
-0.0073296
-0.00755925
-0.00767532
-0.00767212
-0.00754516
-0.00729117
-0.00690841
-0.00639598
-0.00575355
-0.0049812
-0.00407925
-0.00304877
-0.00189166
-0.000610501
0.000791496
0.00231052
0.00394259
0.00568376
0.00753006
0.00947709
0.01152
0.0136538
0.0158735
0.0181733
0.0205473
0.0229897
0.0254952
0.0280582
0.0306725
0.033331
0.0360275
0.0387556
0.0415093
0.0442815
0.0470655
0.0498547
0.0526426
0.0554224
0.0581876
0.0609314
0.0636475
0.0663296
0.0689708
0.0715643
0.0741038
0.0765834
0.0789968
0.0813375
0.0835994
0.0857761
0.0878616
0.0898506
0.0917377
0.0935175
0.0951846
0.0967343
0.098163
0.0994668
0.100643
0.101688
0.102601
0.103379
0.104023
0.104531
0.104904
0.105143
0.105251
0.10523
0.105085
0.104824
0.104451
0.103978
0.103413
0.102769
0.102062
0.101309
0.100529
0.0997441
0.0989785
0.0982591
0.0976156
0.0970776
0.0966755
0.0964516
0.0964328
0.000868205
0.000838398
0.000629663
0.000276652
-0.000189098
-0.000744215
-0.00136252
-0.00201773
-0.00268662
-0.0033481
-0.00398301
-0.00457486
-0.00510851
-0.00557123
-0.00595209
-0.00624074
-0.00642849
-0.00650857
-0.00647542
-0.00632463
-0.0060531
-0.00565868
-0.00514025
-0.00449734
-0.00372979
-0.00283784
-0.0018224
-0.000685012
0.000571972
0.00194541
0.00343166
0.00502721
0.00672857
0.00853187
0.010433
0.0124275
0.0145106
0.0166771
0.018921
0.0212368
0.0236194
0.0260637
0.028564
0.0311141
0.0337073
0.0363374
0.0389986
0.0416844
0.0443883
0.0471038
0.0498246
0.0525442
0.0552558
0.0579527
0.0606286
0.0632776
0.0658935
0.0684697
0.0709993
0.0734765
0.0758952
0.0782494
0.0805329
0.0827395
0.0848633
0.0868986
0.0888402
0.0906831
0.0924219
0.0940517
0.0955682
0.0969678
0.0982469
0.0994023
0.100432
0.101334
0.102106
0.102749
0.103263
0.103649
0.103907
0.104039
0.10405
0.103944
0.103726
0.103403
0.102984
0.102479
0.101901
0.101263
0.100581
0.099872
0.0991556
0.098453
0.0977879
0.0971851
0.0966697
0.0962673
0.0960095
0.0959173
0.00166532
0.00150969
0.00122932
0.000841483
0.000365108
-0.000180397
-0.000772836
-0.00139121
-0.00201546
-0.00262755
-0.0032117
-0.00375282
-0.00423716
-0.00465298
-0.00498988
-0.0052385
-0.00539076
-0.00543989
-0.00538064
-0.00520888
-0.00492174
-0.00451712
-0.00399364
-0.00335049
-0.00258725
-0.00170424
-0.000702277
0.0004173
0.00165223
0.00299952
0.00445598
0.00601845
0.00768364
0.00944778
0.011307
0.0132572
0.0152938
0.0174113
0.019604
0.0218667
0.0241946
0.0265829
0.0290255
0.0315164
0.0340494
0.0366188
0.0392185
0.0418422
0.0444835
0.0471361
0.0497941
0.0524509
0.0550997
0.0577343
0.0603485
0.0629363
0.0654917
0.0680082
0.0704795
0.0728998
0.0752634
0.0775637
0.0797949
0.0819512
0.084027
0.0860167
0.0879155
0.0897185
0.0914203
0.0930165
0.0945032
0.0958768
0.0971336
0.0982705
0.0992854
0.100177
0.100945
0.101588
0.102107
0.102503
0.102777
0.102932
0.10297
0.102896
0.102715
0.102434
0.102061
0.101606
0.10108
0.100497
0.0998697
0.0992133
0.0985451
0.0978841
0.0972502
0.0966642
0.0961471
0.0957203
0.0954004
0.0951962
0.00260742
0.00230034
0.00192765
0.00148769
0.00098241
0.000428474
-0.000156712
-0.000755906
-0.00135261
-0.00193175
-0.0024793
-0.00298231
-0.00342886
-0.00380783
-0.00410949
-0.00432549
-0.00444836
-0.00447176
-0.00439065
-0.00420124
-0.00390072
-0.00348727
-0.0029595
-0.00231626
-0.00155705
-0.00068209
0.000307876
0.0014115
0.00262647
0.00395008
0.00537968
0.00691239
0.00854499
0.0102739
0.0120956
0.014006
0.0160004
0.0180731
0.0202192
0.0224341
0.0247129
0.0270503
0.0294406
0.0318778
0.0343564
0.0368705
0.0394143
0.0419817
0.0445664
0.0471624
0.0497635
0.0523631
0.0549551
0.0575335
0.0600921
0.0626248
0.0651257
0.0675885
0.0700071
0.0723762
0.0746898
0.0769418
0.079126
0.0812371
0.0832699
0.085219
0.0870797
0.0888469
0.0905157
0.092082
0.0935422
0.0948926
0.0961294
0.0972497
0.0982518
0.0991346
0.0998976
0.100541
0.101064
0.10147
0.101758
0.101931
0.101991
0.101944
0.101794
0.101547
0.101211
0.100796
0.100312
0.0997697
0.0991814
0.098561
0.0979237
0.0972856
0.0966634
0.0960739
0.0955351
0.0950644
0.0946619
0.0943224
0.00364421
0.00317587
0.00269824
0.00219307
0.00164461
0.00106593
0.000472349
-0.000123215
-0.000707863
-0.00126857
-0.00179299
-0.00227014
-0.00268957
-0.00304117
-0.00331609
-0.00350666
-0.00360607
-0.00360869
-0.00350994
-0.00330633
-0.00299517
-0.00257464
-0.00204334
-0.00140022
-0.000644785
0.000223013
0.0012024
0.0022918
0.00348906
0.00479182
0.00619772
0.007704
0.00930755
0.0110054
0.012794
0.014669
0.0166256
0.0186585
0.0207633
0.0229356
0.0251706
0.0274627
0.0298063
0.032196
0.0346262
0.037091
0.0395849
0.042102
0.0446364
0.0471819
0.0497324
0.0522815
0.054823
0.0573514
0.0598607
0.0623447
0.0647973
0.0672125
0.0695846
0.0719083
0.0741778
0.0763867
0.0785295
0.080601
0.0825963
0.0845099
0.086337
0.0880728
0.0897129
0.0912531
0.0926899
0.0940197
0.0952389
0.0963448
0.0973361
0.0982117
0.0989711
0.099614
0.100141
0.100554
0.100853
0.10104
0.101119
0.101093
0.100967
0.100748
0.100441
0.100056
0.0996014
0.0990872
0.0985245
0.0979255
0.0973034
0.0966717
0.0960442
0.0954345
0.0948579
0.0943284
0.0938299
0.0933426
0.00473686
0.00410489
0.00351578
0.00293657
0.00233374
0.00171804
0.00110264
0.000497255
-8.80024e-05
-0.000642418
-0.00115552
-0.0016175
-0.00201918
-0.0023519
-0.00260767
-0.00277942
-0.002861
-0.00284747
-0.00273495
-0.00252024
-0.0022009
-0.00177505
-0.00124123
-0.000598539
0.000153506
0.00101492
0.00198483
0.00306156
0.00424329
0.00552791
0.00691306
0.00839619
0.00997446
0.011645
0.0134045
0.0152483
0.0171714
0.0191693
0.0212381
0.0233731
0.0255693
0.0278214
0.0301239
0.0324717
0.0348592
0.0372808
0.0397308
0.0422036
0.0446936
0.0471947
0.0497006
0.0522052
0.0547027
0.0571876
0.0596536
0.0620947
0.0645049
0.0668787
0.0692102
0.0714942
0.0737249
0.0758963
0.078003
0.0800403
0.0820031
0.0838859
0.085684
0.0873928
0.0890079
0.0905255
0.0919419
0.0932537
0.0944577
0.0955514
0.0965337
0.0974036
0.09816
0.0988026
0.0993323
0.0997501
0.100057
0.100256
0.100349
0.10034
0.100233
0.100034
0.0997482
0.0993838
0.0989485
0.0984515
0.0979027
0.0973127
0.0966927
0.0960539
0.0954076
0.0947647
0.094138
0.0935394
0.0929369
0.0922975
0.00585234
0.00505997
0.00435684
0.00369719
0.00303233
0.00237036
0.00172229
0.00109605
0.000499586
-5.8818e-05
-0.000570385
-0.0010263
-0.00141856
-0.0017398
-0.00198294
-0.00214169
-0.00221072
-0.00218554
-0.00206287
-0.00183999
-0.00151465
-0.001085
-0.000549672
9.22665e-05
0.000841249
0.00169697
0.00265843
0.0037241
0.00489234
0.00616126
0.00752845
0.00899155
0.0105482
0.0121955
0.0139295
0.0157457
0.0176398
0.0196074
0.0216449
0.0237476
0.0259102
0.0281274
0.0303943
0.0327058
0.0350563
0.0374402
0.0398521
0.0422869
0.0447384
0.0472007
0.0496678
0.052134
0.0545937
0.057041
0.0594697
0.0618738
0.0642476
0.0665855
0.0688821
0.0711318
0.0733292
0.0754684
0.0775444
0.0795525
0.0814876
0.0833441
0.0851174
0.0868031
0.088397
0.0898951
0.091294
0.0925906
0.0937818
0.0948655
0.0958405
0.0967056
0.0974593
0.0981013
0.0986324
0.0990541
0.0993675
0.0995745
0.0996781
0.0996815
0.0995883
0.099403
0.0991308
0.0987787
0.0983541
0.0978652
0.0973203
0.0967287
0.0960998
0.0954431
0.0947675
0.0940815
0.0933961
0.0927216
0.0920112
0.0912199
0.00696443
0.00601715
0.00519978
0.00445602
0.00372355
0.00300808
0.00231939
0.0016636
0.00104689
0.000475919
-4.20825e-05
-0.000499678
-0.000889849
-0.00120605
-0.00144225
-0.00159316
-0.0016542
-0.00162157
-0.00149223
-0.00126387
-0.000934494
-0.000502424
3.36059e-05
0.000674544
0.00142067
0.00227123
0.00322526
0.00428158
0.0054384
0.00669379
0.00804575
0.00949209
0.0110305
0.012658
0.0143702
0.0161627
0.018032
0.0199742
0.0219851
0.0240599
0.0261937
0.0283815
0.0306182
0.0328987
0.0352176
0.0375695
0.0399492
0.0423515
0.0447703
0.0471997
0.0496341
0.0520678
0.0544954
0.0569109
0.0593081
0.0616809
0.064024
0.0663319
0.068599
0.0708199
0.0729893
0.0751017
0.0771521
0.0791358
0.0810477
0.0828823
0.084635
0.0863015
0.0878776
0.0893595
0.090744
0.092028
0.0932089
0.0942846
0.0952537
0.0961146
0.0968659
0.097507
0.098039
0.0984632
0.098781
0.0989941
0.0991049
0.0991165
0.0990317
0.0988542
0.098589
0.0982425
0.0978214
0.0973325
0.0967831
0.0961808
0.0955339
0.0948505
0.0941376
0.093401
0.092651
0.0918964
0.0910769
0.0901371
0.00805069
0.00695498
0.00602566
0.00519609
0.0043915
0.00361754
0.00288243
0.00219026
0.00154608
0.000955546
0.000424371
-4.13713e-05
-0.000435537
-0.000752371
-0.000986802
-0.00113447
-0.00119158
-0.00115507
-0.00102218
-0.000790767
-0.00045917
-2.58801e-05
0.000510341
0.00115011
0.00189339
0.00273944
0.00368718
0.00473562
0.00588299
0.00712716
0.00846654
0.00989944
0.011423
0.0130336
0.0147274
0.0165006
0.0183496
0.0202706
0.0222594
0.0243111
0.0264209
0.0285842
0.0307958
0.0330507
0.0353434
0.0376689
0.040022
0.0423974
0.0447892
0.0471914
0.0495989
0.052006
0.0544072
0.0567965
0.0591677
0.061515
0.0638331
0.0661166
0.0683597
0.0705572
0.072704
0.0747948
0.0768246
0.0787887
0.0806818
0.0824986
0.0842347
0.085886
0.0874481
0.0889172
0.0902904
0.0915648
0.0927376
0.093807
0.0947713
0.095629
0.0963782
0.0970185
0.0975509
0.0979769
0.0982977
0.0985147
0.0986297
0.0986451
0.0985637
0.0983888
0.0981253
0.0977786
0.0973546
0.0968589
0.0962975
0.0956771
0.095005
0.094288
0.0935311
0.0927386
0.0919199
0.0910829
0.0901552
0.0890718
0.00909223
0.00785526
0.0068171
0.00590124
0.00502244
0.00418628
0.00340021
0.00266673
0.00198971
0.00137386
0.000823864
0.000344699
-5.84939e-05
-0.000380888
-0.000618188
-0.000766782
-0.000823704
-0.00078634
-0.000652497
-0.000420173
-8.78483e-05
0.000345714
0.000881638
0.00152011
0.00226068
0.0031029
0.00404573
0.00508764
0.00622715
0.0074627
0.00879258
0.0102148
0.0117264
0.0133236
0.0150027
0.0167605
0.0185935
0.0204977
0.0224686
0.0245017
0.0265925
0.0287361
0.0309276
0.0331619
0.0354339
0.0377384
0.0400704
0.0424245
0.0447946
0.0471753
0.0495615
0.0519477
0.054328
0.0566966
0.0590474
0.0613748
0.0636736
0.0659382
0.0681629
0.0703425
0.0724721
0.0745464
0.0765605
0.0785095
0.0803882
0.0821914
0.0839151
0.0855551
0.0871071
0.0885672
0.0899322
0.0911995
0.0923666
0.0934314
0.0943922
0.0952474
0.0959951
0.0966349
0.0971678
0.0975952
0.0979176
0.0981361
0.0982519
0.0982673
0.0981852
0.0980088
0.0977425
0.0973906
0.096958
0.0964492
0.0958695
0.0952251
0.0945221
0.0937659
0.0929602
0.0921079
0.091218
0.0902979
0.0892644
0.0880432
0.0100744
0.00870235
0.00755839
0.00655762
0.00560391
0.00470295
0.00386264
0.00308429
0.00237036
0.00172466
0.00115132
0.000654351
0.000237863
-9.42298e-05
-0.000338411
-0.000491692
-0.000551749
-0.000516311
-0.000383661
-0.000152161
0.000179741
0.000612943
0.00114798
0.001785
0.00252346
0.0033626
0.00430145
0.00533852
0.00647225
0.00770148
0.00902466
0.0104392
0.0119416
0.0135286
0.015197
0.0169437
0.0187647
0.0206561
0.0226135
0.0246326
0.026709
0.0288377
0.0310139
0.0332327
0.0354891
0.0377782
0.0400944
0.0424323
0.0447863
0.0471511
0.0495217
0.0518922
0.054257
0.0566104
0.0589464
0.0612595
0.0635445
0.0657957
0.0680073
0.0701745
0.0722922
0.0743551
0.0763583
0.0782968
0.0801654
0.0819595
0.083675
0.0853078
0.0868535
0.0883079
0.0896678
0.0909307
0.0920942
0.0931562
0.0941149
0.0949685
0.0957153
0.0963552
0.0968888
0.0973169
0.0976395
0.0978569
0.0979706
0.097983
0.0978971
0.0977159
0.0974426
0.097081
0.0966346
0.0961075
0.0955047
0.0948314
0.0940929
0.0932933
0.0924351
0.0915204
0.0905581
0.0895554
0.0884189
0.087066
0.0109848
0.00948333
0.00823692
0.00715278
0.00612435
0.00515758
0.00426086
0.00343484
0.00268086
0.00200194
0.00140159
0.000883074
0.000449615
0.000104277
-0.000150196
-0.000311374
-0.000377299
-0.000346287
-0.000216673
1.2753e-05
0.000343189
0.000775442
0.00130941
0.00194491
0.00268172
0.00351884
0.00445482
0.00548848
0.00661882
0.00784448
0.00916341
0.0105727
0.0120691
0.0136496
0.0153112
0.0170506
0.0188636
0.0207463
0.0226946
0.0247043
0.0267708
0.0288894
0.0310551
0.0332635
0.0355096
0.0377881
0.0400937
0.0424209
0.0447643
0.0471187
0.0494789
0.0518392
0.0541939
0.0565374
0.0588642
0.0611686
0.0634451
0.0656882
0.0678921
0.0700521
0.0721632
0.0742198
0.0762167
0.0781491
0.0800121
0.0818014
0.0835131
0.0851428
0.0866857
0.0881376
0.0894954
0.0907566
0.0919188
0.0929799
0.093938
0.0947912
0.0955382
0.0961786
0.0967127
0.0971406
0.0974616
0.0976761
0.0977856
0.097793
0.0977008
0.0975115
0.0972275
0.0968516
0.0963871
0.0958377
0.0952077
0.0945018
0.0937241
0.0928776
0.0919644
0.0909857
0.0899507
0.0888666
0.0876302
0.0861516
0.0118129
0.010188
0.0088423
0.00767597
0.00657374
0.00554111
0.00458665
0.00371088
0.00291456
0.00219985
0.0015695
0.00102625
0.000572584
0.000210869
-5.68284e-05
-0.00022856
-0.000302613
-0.000277939
-0.000153009
7.34145e-05
0.000401739
0.000832217
0.00136495
0.00199957
0.00273529
0.00357099
0.00450548
0.00553785
0.00666712
0.00789155
0.00920859
0.0106153
0.012109
0.0136867
0.0153454
0.0170812
0.0188903
0.0207686
0.0227123
0.024717
0.0267782
0.0288912
0.0310515
0.0332546
0.0354954
0.0377685
0.0400685
0.0423903
0.0447286
0.047078
0.0494333
0.0517886
0.0541385
0.0564777
0.0588007
0.0611017
0.063375
0.0656151
0.0678166
0.0699747
0.0720842
0.0741393
0.0761346
0.0780655
0.0799276
0.0817166
0.0834286
0.0850588
0.0866023
0.088055
0.0894138
0.0906762
0.0918396
0.0929018
0.0938609
0.0947153
0.0954635
0.0961048
0.0966392
0.0970659
0.0973842
0.0975944
0.0976986
0.0976993
0.0975986
0.0973982
0.0970998
0.096706
0.0962198
0.0956448
0.0949845
0.0942427
0.0934226
0.0925268
0.0915566
0.0905131
0.0894055
0.0882413
0.0869082
0.0853093
0.0125501
0.0108076
0.00936572
0.00811884
0.0069435
0.00584516
0.0048324
0.00390554
0.00306507
0.00231244
0.00164975
0.00107912
0.000602415
0.000221595
-6.17036e-05
-0.000246194
-0.00033051
-0.000313452
-0.000194188
2.80672e-05
0.000353575
0.000782151
0.00131369
0.0019477
0.002683
0.00351837
0.00445304
0.00548631
0.00661674
0.00784204
0.00915961
0.0105669
0.0120613
0.0136398
0.0152991
0.0170352
0.0188444
0.0207227
0.0226662
0.0246704
0.0267309
0.0288432
0.0310031
0.0332059
0.0354464
0.0377191
0.0400188
0.0423406
0.0446792
0.0470289
0.0493844
0.0517402
0.0540909
0.0564314
0.058756
0.0610587
0.0633339
0.0655762
0.0677805
0.0699418
0.0720546
0.074113
0.0761115
0.0780458
0.0799117
0.0817048
0.083421
0.0850554
0.0866029
0.0880598
0.0894228
0.0906895
0.0918567
0.0929224
0.0938845
0.0947416
0.095492
0.0961346
0.0966688
0.0970938
0.0974089
0.0976145
0.0977125
0.0977051
0.0975936
0.0973791
0.0970633
0.0966487
0.0961382
0.095535
0.0948417
0.0940611
0.0931961
0.0922489
0.0912205
0.0901116
0.088932
0.0876888
0.0862621
0.0845479
0.013189
0.0113341
0.00979976
0.00847404
0.00722622
0.00606239
0.00499112
0.00401229
0.00312621
0.00233387
0.00163675
0.00103654
0.000534677
0.000132496
-0.000168588
-0.000367482
-0.00046343
-0.000455338
-0.000342645
-0.000125252
0.000196858
0.000623489
0.00115413
0.00178784
0.00252343
0.00336001
0.00429692
0.0053331
0.00646661
0.00769497
0.00901579
0.0104268
0.0119253
0.0135081
0.0151716
0.0169119
0.0187253
0.0206079
0.0225556
0.0245638
0.0266284
0.028745
0.0309095
0.0331168
0.0353619
0.0376393
0.0399441
0.0422713
0.0446155
0.0469708
0.049332
0.0516938
0.054051
0.0563983
0.0587297
0.0610391
0.0633213
0.0655712
0.0677834
0.069953
0.0720739
0.0741404
0.0761472
0.07809
0.0799643
0.0817659
0.0834901
0.0851323
0.0866876
0.0881521
0.0895228
0.0907967
0.0919707
0.0930423
0.0940096
0.0948709
0.0956243
0.0962687
0.0968029
0.0972264
0.0975383
0.0977391
0.0978302
0.097813
0.0976886
0.0974577
0.0971222
0.0966847
0.0961479
0.0955141
0.0947853
0.0939637
0.0930518
0.0920517
0.0909641
0.0897897
0.0885382
0.0872175
0.0856998
0.0838749
0.013724
0.0117612
0.0101376
0.00873487
0.00741541
0.00618624
0.0050563
0.00402485
0.00309185
0.00225828
0.00152507
0.000893364
0.000364507
-6.06038e-05
-0.000381056
-0.000595866
-0.000704337
-0.000706135
-0.00060104
-0.000389067
-7.04568e-05
0.000354274
0.000884189
0.00151816
0.0022553
0.00309493
0.00403605
0.00507697
0.00621548
0.00744932
0.0087764
0.0101944
0.0117003
0.0132906
0.0149618
0.0167103
0.0185321
0.0204233
0.0223794
0.0243963
0.0264698
0.0285958
0.0307697
0.0329865
0.0352411
0.0375285
0.0398437
0.0421817
0.0445366
0.046903
0.0492755
0.051649
0.0540182
0.0563777
0.058721
0.0610425
0.0633371
0.0655996
0.0678249
0.0700076
0.0721417
0.0742214
0.0762415
0.0781976
0.0800851
0.0818992
0.0836355
0.0852892
0.086856
0.0883318
0.0897136
0.0909979
0.0921814
0.0932614
0.0942359
0.0951028
0.0958605
0.0965073
0.0970424
0.0974649
0.097774
0.0979697
0.098053
0.0980246
0.0978855
0.0976367
0.0972801
0.0968182
0.0962532
0.0955867
0.0948202
0.0939556
0.0929953
0.0919411
0.0907938
0.0895536
0.0882308
0.0868337
0.0852273
0.0832956
0.0141512
0.012084
0.0103732
0.00889523
0.00750516
0.00621075
0.00502167
0.00393699
0.00295615
0.0020799
0.00130917
0.000644705
8.73284e-05
-0.000362138
-0.000702949
-0.000934569
-0.00105658
-0.00106909
-0.000972163
-0.000765906
-0.000450829
-2.79294e-05
0.000501612
0.00113692
0.00187733
0.00272187
0.00366889
0.00471633
0.00586211
0.00710427
0.00844068
0.00986866
0.011385
0.0129863
0.0146691
0.0164296
0.018264
0.0201678
0.0221369
0.0241672
0.0262546
0.0283948
0.0305829
0.032814
0.0350834
0.037386
0.0397169
0.0420708
0.0444419
0.0468248
0.0492143
0.0516051
0.0539919
0.0563688
0.0587295
0.0610684
0.0633806
0.0656611
0.0679044
0.0701051
0.0722573
0.0743552
0.0763937
0.0783679
0.0802728
0.0821037
0.0838561
0.0855255
0.0871076
0.0885985
0.0899946
0.0912924
0.0924881
0.0935789
0.0945625
0.0954369
0.0962002
0.0968508
0.0973879
0.0978103
0.0981169
0.0983073
0.0983819
0.0983415
0.0981869
0.0979192
0.0975405
0.0970529
0.096458
0.0957568
0.0949508
0.0940418
0.0930319
0.0919228
0.0907151
0.0894089
0.0880151
0.0865426
0.0848492
0.0828136
0.0144674
0.0122977
0.0105015
0.00894949
0.00748957
0.00613011
0.00488149
0.00374276
0.00271325
0.00179339
0.000983932
0.000285537
-0.00030133
-0.000776064
-0.00113813
-0.00138727
-0.00152368
-0.00154755
-0.00145901
-0.00125853
-0.00094706
-0.000525794
4.31575e-06
0.000642583
0.00138804
0.00223906
0.00319361
0.00424969
0.00540547
0.00665892
0.00800759
0.00944855
0.0109786
0.0125945
0.0142926
0.0160692
0.0179199
0.0198406
0.0218273
0.0238758
0.025982
0.028141
0.0303482
0.0325988
0.0348882
0.0372114
0.0395633
0.0419383
0.044331
0.0467359
0.049148
0.0515618
0.0539715
0.0563712
0.0587547
0.0611165
0.0634517
0.0657553
0.0680216
0.0702453
0.0724205
0.0745416
0.0766032
0.0786001
0.0805269
0.0823789
0.0841516
0.085841
0.0874424
0.088952
0.0903658
0.0916798
0.0928903
0.0939943
0.0949894
0.0958734
0.0966443
0.0973005
0.0978409
0.098264
0.0985684
0.0987534
0.0988192
0.0987665
0.0985962
0.0983094
0.0979077
0.097393
0.0967665
0.0960292
0.0951824
0.0942278
0.0931672
0.0920024
0.0907336
0.0893611
0.0878964
0.0863489
0.0845698
0.0824327
0.0146688
0.0123988
0.0105181
0.00889249
0.00736313
0.0059386
0.00463012
0.00343674
0.00235773
0.00139351
0.000544536
-0.000188716
-0.000805807
-0.0013064
-0.00169044
-0.00195794
-0.00210927
-0.00214472
-0.00206471
-0.00187012
-0.00156212
-0.00114169
-0.000609533
3.3382e-05
0.000785397
0.00164442
0.00260845
0.00367576
0.00484442
0.00611204
0.00747587
0.00893295
0.0104802
0.0121143
0.0138316
0.015628
0.0174991
0.0194412
0.0214501
0.0235217
0.0256512
0.027834
0.0300653
0.0323406
0.0346553
0.0370043
0.0393823
0.0417839
0.0442036
0.0466362
0.0490764
0.0515185
0.0539565
0.0563844
0.0587964
0.0611867
0.0635505
0.0658822
0.0681767
0.0704283
0.0726315
0.0747806
0.07687
0.0788941
0.0808474
0.082725
0.0845228
0.0862363
0.0878612
0.089393
0.0908276
0.0921609
0.093389
0.0945089
0.0955181
0.0964141
0.0971948
0.0978584
0.0984033
0.098828
0.0991308
0.0993108
0.0993682
0.0993037
0.0991178
0.0988115
0.098386
0.097843
0.0971837
0.0964092
0.0955205
0.0945191
0.0934068
0.0921852
0.0908546
0.0894155
0.0878798
0.0862573
0.0843934
0.0821562
0.0147521
0.0123834
0.0104188
0.00871961
0.00712079
0.00563107
0.00426226
0.00301376
0.0018847
0.000875394
-1.37574e-05
-0.000782408
-0.00143029
-0.00195747
-0.00236413
-0.00265053
-0.00281701
-0.00286417
-0.00279284
-0.00260404
-0.00229875
-0.00187776
-0.00134199
-0.000693065
6.68816e-05
0.000935744
0.00191173
0.00299303
0.00417735
0.00546196
0.00684401
0.00832065
0.00988879
0.0115449
0.013285
0.015105
0.0170009
0.0189688
0.0210047
0.0231039
0.0252615
0.0274729
0.0297335
0.0320389
0.0343843
0.0367643
0.0391738
0.0416073
0.0440596
0.0465255
0.0489992
0.0514749
0.0539466
0.0564085
0.0588546
0.0612792
0.0636769
0.0660423
0.06837
0.0706547
0.072891
0.075073
0.0771949
0.0792508
0.0812352
0.0831433
0.0849708
0.086713
0.0883653
0.0899229
0.0913815
0.0927371
0.0939859
0.0951246
0.0961507
0.0970613
0.0978538
0.0985263
0.0990771
0.0995044
0.0998065
0.0999825
0.100033
0.0999567
0.0997554
0.099429
0.0989789
0.0984068
0.097714
0.0969013
0.0959695
0.0949201
0.0937549
0.0924756
0.0910825
0.089576
0.0879687
0.0862712
0.0843229
0.0819866
0.014714
0.0122475
0.0101997
0.00842662
0.00675782
0.00520264
0.00377316
0.00246902
0.00128934
0.000234381
-0.000695481
-0.00150006
-0.00217939
-0.00273385
-0.00316362
-0.00346912
-0.00365089
-0.00370992
-0.00364719
-0.00346347
-0.00315955
-0.00273648
-0.00219583
-0.00153967
-0.000770136
0.000110866
0.00110146
0.00219942
0.00340209
0.00470665
0.0061103
0.00761014
0.00920279
0.0108844
0.0126511
0.0144989
0.0164241
0.0184225
0.0204898
0.0226211
0.0248116
0.0270567
0.0293519
0.0316928
0.034074
0.0364905
0.0389368
0.0414079
0.0438985
0.046403
0.0489155
0.0514303
0.0539413
0.0564429
0.058929
0.0613937
0.063831
0.0662354
0.0686018
0.070925
0.0731995
0.0754194
0.0775786
0.0796712
0.0816916
0.083635
0.0854969
0.0872722
0.0889558
0.0905427
0.0920288
0.0934101
0.0946828
0.0958436
0.0968893
0.0978167
0.0986231
0.0993061
0.0998642
0.100295
0.100598
0.100772
0.100815
0.100729
0.100512
0.100165
0.09969
0.0990884
0.0983614
0.0975095
0.0965334
0.0954347
0.0942155
0.0928774
0.0914208
0.0898462
0.0881665
0.0863938
0.084361
0.081926
0.0145517
0.0119873
0.00985622
0.00800918
0.00626989
0.00464877
0.00315821
0.00179782
0.000566924
-0.000534211
-0.00150535
-0.00234657
-0.00305813
-0.0036403
-0.00409346
-0.00441818
-0.00461541
-0.00468623
-0.00463137
-0.00445145
-0.00414748
-0.00372113
-0.00317446
-0.00250955
-0.00172828
-0.000832649
0.000175058
0.00129223
0.00251609
0.00384386
0.00527268
0.00679928
0.00841996
0.0101308
0.0119281
0.0138081
0.015767
0.0178003
0.0199035
0.0220716
0.0242998
0.0265839
0.0289191
0.0313005
0.033723
0.0361812
0.0386701
0.0411846
0.0437189
0.0462674
0.0488241
0.0513834
0.0539396
0.0564868
0.0590188
0.0615291
0.0640117
0.0664609
0.0688716
0.0712388
0.0735569
0.0758198
0.0780213
0.0801555
0.0822169
0.0842006
0.0861016
0.0879142
0.089633
0.0912531
0.0927705
0.0941813
0.0954816
0.0966676
0.0977356
0.0986821
0.0995042
0.1002
0.100767
0.101204
0.10151
0.101682
0.10172
0.101623
0.101391
0.101024
0.100524
0.0998926
0.0991308
0.0982386
0.097217
0.0960678
0.0947934
0.0933955
0.0918743
0.0902303
0.0884775
0.0866288
0.0845109
0.0819768
0.0142627
0.0115995
0.00938458
0.0074632
0.0056529
0.00396507
0.00241271
0.000995424
-0.00028732
-0.00143536
-0.00244864
-0.0033273
-0.0040716
-0.00468181
-0.00515857
-0.00550273
-0.00571533
-0.00579719
-0.00574893
-0.00557144
-0.0052663
-0.00483565
-0.00428154
-0.00360581
-0.00281045
-0.00189783
-0.000870626
0.000268441
0.00151665
0.00287108
0.00432852
0.00588531
0.00753761
0.00928168
0.0111139
0.0130306
0.0150275
0.0171
0.0192435
0.0214532
0.0237244
0.0260526
0.0284329
0.0308602
0.0333292
0.0358349
0.0383722
0.0409355
0.043519
0.0461169
0.0487233
0.0513328
0.05394
0.0565388
0.0591223
0.0616838
0.0642174
0.0667172
0.0691783
0.0715953
0.0739625
0.0762736
0.0785226
0.0807037
0.0828113
0.0848401
0.0867846
0.0886389
0.0903973
0.092055
0.0936079
0.0950523
0.0963838
0.0975982
0.0986913
0.0996594
0.1005
0.10121
0.101789
0.102235
0.102545
0.102717
0.10275
0.102643
0.102396
0.10201
0.101486
0.100825
0.100027
0.0990937
0.0980256
0.0968251
0.0954945
0.0940355
0.0924482
0.0907336
0.0889066
0.0869806
0.0847766
0.0821419
0.013845
0.0110812
0.00878126
0.00678475
0.00490252
0.00314698
0.00153191
5.68983e-05
-0.00127867
-0.00247466
-0.00353099
-0.00444773
-0.00522513
-0.00586377
-0.0063644
-0.00672794
-0.0069552
-0.00704689
-0.00700393
-0.00682782
-0.00652055
-0.00608422
-0.00552069
-0.00483188
-0.00402016
-0.00308829
-0.00203903
-0.000875033
0.000400843
0.0017853
0.00327468
0.00486515
0.00655298
0.00833457
0.0102062
0.0121638
0.0142031
0.0163192
0.0185078
0.0207641
0.0230834
0.0254609
0.0278913
0.0303696
0.0328909
0.0354498
0.0380411
0.0406588
0.043297
0.0459498
0.0486116
0.0512773
0.0539412
0.056597
0.0592376
0.0618561
0.0644465
0.0670031
0.0695206
0.0719934
0.0744153
0.0767802
0.0790823
0.0813157
0.0834747
0.0855535
0.0875463
0.0894469
0.0912495
0.0929495
0.0945427
0.0960249
0.0973913
0.0986374
0.0997586
0.100751
0.101613
0.102342
0.102935
0.103391
0.103707
0.10388
0.103909
0.103794
0.103533
0.103128
0.10258
0.101889
0.101055
0.10008
0.0989643
0.0977115
0.0963235
0.0948019
0.0931472
0.0913604
0.0894576
0.0874528
0.085161
0.0824235
0.0132962
0.0104294
0.00804262
0.00596958
0.00401417
0.00218967
0.000510673
-0.00102332
-0.00241298
-0.00365801
-0.00475817
-0.00571355
-0.00652457
-0.00719202
-0.00771653
-0.0080988
-0.0083396
-0.00843997
-0.0084014
-0.00822573
-0.00791497
-0.00747104
-0.00689587
-0.00619177
-0.0053615
-0.00440789
-0.00333363
-0.00214148
-0.000834681
0.000583036
0.00210778
0.00373578
0.00546339
0.0072869
0.00920226
0.0112052
0.0132911
0.0154557
0.0176944
0.0200025
0.0223749
0.0248066
0.0272923
0.0298273
0.0324064
0.0350244
0.0376752
0.0403529
0.0430513
0.0457649
0.0484881
0.0512158
0.053942
0.0566603
0.0593636
0.062045
0.0646983
0.0673179
0.069898
0.0724324
0.0749151
0.0773397
0.0797007
0.081992
0.0842076
0.0863416
0.0883876
0.0903394
0.0921914
0.0939387
0.0955768
0.0971011
0.0985063
0.0997875
0.10094
0.101961
0.102848
0.103598
0.104209
0.104677
0.105
0.105176
0.105202
0.105079
0.104806
0.104383
0.103811
0.103089
0.102218
0.1012
0.100037
0.0987312
0.0972844
0.0956987
0.0939748
0.0921142
0.0901336
0.0880481
0.0856659
0.0828231
0.0126132
0.00964062
0.00716461
0.00501317
0.00298295
0.00108785
-0.00065677
-0.00225133
-0.00369635
-0.00499136
-0.00613614
-0.00713086
-0.00797607
-0.00867235
-0.00922021
-0.00962028
-0.00987366
-0.00998197
-0.00994695
-0.00977042
-0.00945428
-0.00900056
-0.00841159
-0.00769005
-0.00683878
-0.00586053
-0.0047581
-0.00353462
-0.00219374
-0.000739424
0.000824465
0.0024942
0.00426599
0.00613577
0.00809918
0.0101518
0.0122894
0.0145075
0.0168015
0.0191663
0.0215969
0.0240879
0.0266345
0.0292318
0.0318746
0.0345571
0.0372732
0.0400165
0.0427811
0.0455615
0.0483523
0.0511478
0.053942
0.0567285
0.0595002
0.0622504
0.0649729
0.0676616
0.0703103
0.0729126
0.0754621
0.0779527
0.0803784
0.0827334
0.0850111
0.0872055
0.08931
0.0913185
0.0932251
0.0950247
0.0967125
0.0982831
0.0997311
0.101052
0.10224
0.103294
0.104209
0.104983
0.105614
0.106096
0.106428
0.106608
0.106634
0.106505
0.10622
0.10578
0.105182
0.104429
0.103522
0.102461
0.10125
0.0998891
0.0983818
0.0967302
0.0949353
0.0929987
0.090938
0.0887695
0.0862941
0.0833428
0.0117923
0.00871083
0.0061429
0.00391069
0.00180347
-0.000164357
-0.00197653
-0.00363322
-0.00513481