/*--------------------------------*- C++ -*----------------------------------*\
| =========                 |                                                 |
| \\      /  F ield         | OpenFOAM: The Open Source CFD Toolbox           |
|  \\    /   O peration     | Version:  2212                                  |
|   \\  /    A nd           | Website:  www.openfoam.com                      |
|    \\/     M anipulation  |                                                 |
\*---------------------------------------------------------------------------*/
FoamFile
{
    version     2.0;
    format      ascii;
    arch        "LSB;label=32;scalar=64";
    class       volVectorField;
    location    "0.0185";
    object      U_0;
}
// * * * * * * * * * * * * * * * * * * * * * * * * * * * * * * * * * * * * * //

dimensions      [0 1 -1 0 0 0 0];

internalField   nonuniform List<vector> 
10000
(
(1.24334e-06 -4.71225e-06 0)
(1.24222e-05 -7.96044e-06 0)
(2.38995e-05 -6.07659e-06 0)
(3.29015e-05 -3.88094e-06 0)
(3.37926e-05 -1.16853e-06 0)
(2.68471e-05 1.67267e-06 0)
(1.16353e-05 4.46635e-06 0)
(-1.17765e-05 7.12566e-06 0)
(-4.30731e-05 9.60489e-06 0)
(-8.17933e-05 1.18815e-05 0)
(-0.000127401 1.39512e-05 0)
(-0.000179322 1.58169e-05 0)
(-0.000236962 1.74801e-05 0)
(-0.00029972 1.89435e-05 0)
(-0.000367006 2.02206e-05 0)
(-0.000438243 2.13273e-05 0)
(-0.000512875 2.22714e-05 0)
(-0.00059036 2.30507e-05 0)
(-0.000670172 2.3666e-05 0)
(-0.000751813 2.41268e-05 0)
(-0.000834805 2.44451e-05 0)
(-0.000918696 2.46365e-05 0)
(-0.00100306 2.47088e-05 0)
(-0.00108748 2.46637e-05 0)
(-0.00117159 2.45107e-05 0)
(-0.00125503 2.42577e-05 0)
(-0.00133747 2.39086e-05 0)
(-0.00141858 2.34718e-05 0)
(-0.00149809 2.29539e-05 0)
(-0.00157571 2.23574e-05 0)
(-0.00165118 2.16898e-05 0)
(-0.00172428 2.09598e-05 0)
(-0.00179478 2.017e-05 0)
(-0.00186247 1.93216e-05 0)
(-0.00192716 1.84181e-05 0)
(-0.00198867 1.74621e-05 0)
(-0.00204684 1.64575e-05 0)
(-0.00210153 1.54126e-05 0)
(-0.00215258 1.43349e-05 0)
(-0.00219988 1.32252e-05 0)
(-0.00224332 1.20814e-05 0)
(-0.00228279 1.09066e-05 0)
(-0.0023182 9.70896e-06 0)
(-0.00234948 8.49455e-06 0)
(-0.00237656 7.26422e-06 0)
(-0.00239937 6.01771e-06 0)
(-0.00241788 4.75746e-06 0)
(-0.00243203 3.48769e-06 0)
(-0.00244179 2.21086e-06 0)
(-0.00244714 9.27558e-07 0)
(-0.00244805 -3.61109e-07 0)
(-0.00244453 -1.65255e-06 0)
(-0.00243655 -2.94339e-06 0)
(-0.00242413 -4.23123e-06 0)
(-0.00240729 -5.51481e-06 0)
(-0.00238605 -6.79207e-06 0)
(-0.00236044 -8.05971e-06 0)
(-0.00233051 -9.31384e-06 0)
(-0.00229631 -1.05505e-05 0)
(-0.0022579 -1.17667e-05 0)
(-0.00221538 -1.296e-05 0)
(-0.00216882 -1.41274e-05 0)
(-0.00211833 -1.52644e-05 0)
(-0.00206403 -1.63656e-05 0)
(-0.00200604 -1.74257e-05 0)
(-0.00194453 -1.844e-05 0)
(-0.00187966 -1.94042e-05 0)
(-0.00181161 -2.03132e-05 0)
(-0.00174058 -2.11607e-05 0)
(-0.00166679 -2.19406e-05 0)
(-0.00159048 -2.26471e-05 0)
(-0.00151191 -2.32752e-05 0)
(-0.00143134 -2.38207e-05 0)
(-0.00134908 -2.42793e-05 0)
(-0.00126542 -2.46456e-05 0)
(-0.00118072 -2.49123e-05 0)
(-0.00109532 -2.50712e-05 0)
(-0.0010096 -2.51134e-05 0)
(-0.000923976 -2.50307e-05 0)
(-0.000838862 -2.48163e-05 0)
(-0.000754712 -2.44646e-05 0)
(-0.000671997 -2.39693e-05 0)
(-0.000591209 -2.33224e-05 0)
(-0.000512863 -2.25153e-05 0)
(-0.000437494 -2.15399e-05 0)
(-0.000365657 -2.03882e-05 0)
(-0.000297924 -1.90525e-05 0)
(-0.000234881 -1.75256e-05 0)
(-0.000177125 -1.58023e-05 0)
(-0.000125253 -1.38796e-05 0)
(-7.9851e-05 -1.17569e-05 0)
(-4.14819e-05 -9.43736e-06 0)
(-1.06588e-05 -6.93156e-06 0)
(1.21884e-05 -4.26595e-06 0)
(2.67826e-05 -1.49546e-06 0)
(3.31108e-05 1.2625e-06 0)
(3.15914e-05 3.77492e-06 0)
(2.34581e-05 5.57624e-06 0)
(1.19092e-05 5.75334e-06 0)
(2.93786e-06 2.94031e-06 0)
(3.50267e-06 -1.14526e-05 0)
(1.74284e-05 -2.26118e-05 0)
(3.27298e-05 -1.7302e-05 0)
(3.71545e-05 -6.47533e-06 0)
(2.4703e-05 7.68592e-06 0)
(-7.13633e-06 2.32907e-05 0)
(-5.96605e-05 3.92377e-05 0)
(-0.000133117 5.48705e-05 0)
(-0.000227054 6.98049e-05 0)
(-0.000340559 8.38083e-05 0)
(-0.000472439 9.67533e-05 0)
(-0.000621328 0.000108573 0)
(-0.00078575 0.000119242 0)
(-0.000964181 0.000128752 0)
(-0.00115508 0.000137116 0)
(-0.00135692 0.000144367 0)
(-0.0015682 0.000150541 0)
(-0.00178744 0.000155677 0)
(-0.00201323 0.000159802 0)
(-0.00224417 0.00016296 0)
(-0.00247898 0.000165198 0)
(-0.00271638 0.000166562 0)
(-0.00295518 0.000167107 0)
(-0.00319424 0.000166879 0)
(-0.0034325 0.000165919 0)
(-0.00366893 0.000164274 0)
(-0.00390261 0.000161988 0)
(-0.00413261 0.0001591 0)
(-0.00435811 0.000155647 0)
(-0.00457832 0.000151664 0)
(-0.00479252 0.00014719 0)
(-0.005 0.000142262 0)
(-0.00520014 0.000136911 0)
(-0.00539235 0.000131166 0)
(-0.00557608 0.000125055 0)
(-0.00575081 0.000118604 0)
(-0.00591608 0.000111838 0)
(-0.00607147 0.000104786 0)
(-0.00621659 9.74752e-05 0)
(-0.00635106 8.99311e-05 0)
(-0.00647456 8.21739e-05 0)
(-0.00658681 7.42256e-05 0)
(-0.00668754 6.611e-05 0)
(-0.00677652 5.78488e-05 0)
(-0.00685354 4.94599e-05 0)
(-0.00691843 4.096e-05 0)
(-0.00697104 3.23664e-05 0)
(-0.00701124 2.36968e-05 0)
(-0.00703893 1.49666e-05 0)
(-0.00705403 6.19034e-06 0)
(-0.00705648 -2.6151e-06 0)
(-0.00704628 -1.14321e-05 0)
(-0.00702339 -2.02434e-05 0)
(-0.00698786 -2.90325e-05 0)
(-0.00693972 -3.77835e-05 0)
(-0.00687906 -4.64778e-05 0)
(-0.00680598 -5.50933e-05 0)
(-0.00672062 -6.36078e-05 0)
(-0.00662313 -7.19993e-05 0)
(-0.00651373 -8.02457e-05 0)
(-0.00639263 -8.83246e-05 0)
(-0.00626011 -9.62112e-05 0)
(-0.00611648 -0.000103876 0)
(-0.00596208 -0.00011129 0)
(-0.00579729 -0.000118419 0)
(-0.00562256 -0.000125234 0)
(-0.00543835 -0.000131702 0)
(-0.00524519 -0.00013779 0)
(-0.00504365 -0.000143464 0)
(-0.00483435 -0.000148685 0)
(-0.00461797 -0.000153416 0)
(-0.00439523 -0.000157621 0)
(-0.00416691 -0.000161264 0)
(-0.00393384 -0.000164305 0)
(-0.00369692 -0.000166706 0)
(-0.0034571 -0.000168424 0)
(-0.00321539 -0.000169412 0)
(-0.00297286 -0.000169624 0)
(-0.00273064 -0.000169015 0)
(-0.00248993 -0.000167539 0)
(-0.00225197 -0.000165154 0)
(-0.00201807 -0.000161819 0)
(-0.00178959 -0.000157492 0)
(-0.00156796 -0.000152133 0)
(-0.00135461 -0.000145703 0)
(-0.00115107 -0.000138167 0)
(-0.000958844 -0.000129497 0)
(-0.000779484 -0.000119675 0)
(-0.000614526 -0.000108697 0)
(-0.000465483 -9.65766e-05 0)
(-0.000333798 -8.33574e-05 0)
(-0.000220797 -6.91224e-05 0)
(-0.000127611 -5.40175e-05 0)
(-5.50663e-05 -3.82916e-05 0)
(-3.51468e-06 -2.23618e-05 0)
(2.74183e-05 -6.93071e-06 0)
(3.91591e-05 6.82798e-06 0)
(3.47323e-05 1.6956e-05 0)
(2.02163e-05 2.02322e-05 0)
(5.73728e-06 1.18922e-05 0)
(4.91679e-06 -2.27269e-05 0)
(1.57271e-05 -3.53236e-05 0)
(2.01962e-05 -2.19284e-05 0)
(7.4658e-06 6.1162e-06 0)
(-2.99213e-05 4.25012e-05 0)
(-9.57631e-05 8.30831e-05 0)
(-0.000192006 0.000125118 0)
(-0.000319226 0.000166838 0)
(-0.000477004 0.000207118 0)
(-0.000664218 0.000245237 0)
(-0.000879275 0.000280746 0)
(-0.00112027 0.000313383 0)
(-0.0013851 0.000343002 0)
(-0.00167154 0.000369537 0)
(-0.00197728 0.000392982 0)
(-0.00230002 0.000413376 0)
(-0.00263749 0.000430786 0)
(-0.00298743 0.000445301 0)
(-0.00334763 0.000457018 0)
(-0.00371598 0.000466037 0)
(-0.00409043 0.000472477 0)
(-0.00446901 0.000476461 0)
(-0.00484984 0.00047811 0)
(-0.00523114 0.00047755 0)
(-0.00561121 0.00047491 0)
(-0.00598843 0.000470307 0)
(-0.00636129 0.000463858 0)
(-0.00672837 0.000455678 0)
(-0.00708833 0.000445874 0)
(-0.00743989 0.000434548 0)
(-0.00778189 0.000421806 0)
(-0.00811324 0.000407745 0)
(-0.0084329 0.000392456 0)
(-0.00873992 0.000376029 0)
(-0.00903343 0.000358549 0)
(-0.00931261 0.000340095 0)
(-0.0095767 0.000320741 0)
(-0.00982502 0.000300561 0)
(-0.0100569 0.000279631 0)
(-0.0102719 0.000258019 0)
(-0.0104693 0.00023579 0)
(-0.0106488 0.000213007 0)
(-0.0108098 0.000189733 0)
(-0.0109521 0.000166025 0)
(-0.0110752 0.000141936 0)
(-0.0111789 0.000117521 0)
(-0.011263 9.2828e-05 0)
(-0.0113272 6.79083e-05 0)
(-0.0113713 4.28099e-05 0)
(-0.0113953 1.75805e-05 0)
(-0.0113991 -7.73016e-06 0)
(-0.0113826 -3.30713e-05 0)
(-0.0113458 -5.83927e-05 0)
(-0.0112888 -8.36437e-05 0)
(-0.0112116 -0.000108772 0)
(-0.0111144 -0.000133721 0)
(-0.0109973 -0.000158431 0)
(-0.0108606 -0.000182841 0)
(-0.0107045 -0.000206888 0)
(-0.0105295 -0.000230505 0)
(-0.0103357 -0.000253624 0)
(-0.0101238 -0.000276172 0)
(-0.00989416 -0.000298071 0)
(-0.00964738 -0.000319238 0)
(-0.00938407 -0.000339585 0)
(-0.00910494 -0.000359025 0)
(-0.00881074 -0.000377465 0)
(-0.00850232 -0.000394812 0)
(-0.0081806 -0.000410965 0)
(-0.00784656 -0.000425824 0)
(-0.00750129 -0.000439283 0)
(-0.00714593 -0.000451237 0)
(-0.00678174 -0.000461575 0)
(-0.00641005 -0.000470187 0)
(-0.00603228 -0.000476957 0)
(-0.00564994 -0.000481767 0)
(-0.00526465 -0.000484494 0)
(-0.00487809 -0.000485016 0)
(-0.00449206 -0.000483211 0)
(-0.00410842 -0.00047896 0)
(-0.00372915 -0.000472146 0)
(-0.00335629 -0.000462659 0)
(-0.00299195 -0.000450392 0)
(-0.00263833 -0.000435247 0)
(-0.00229767 -0.000417136 0)
(-0.00197228 -0.00039599 0)
(-0.00166446 -0.000371758 0)
(-0.00137653 -0.000344426 0)
(-0.00111077 -0.000314021 0)
(-0.000869398 -0.000280633 0)
(-0.000654473 -0.000244443 0)
(-0.000467841 -0.000205751 0)
(-0.000311012 -0.000165045 0)
(-0.000185 -0.000123083 0)
(-9.01025e-05 -8.10422e-05 0)
(-2.56018e-05 -4.07285e-05 0)
(1.05864e-05 -4.9015e-06 0)
(2.24237e-05 2.22977e-05 0)
(1.70066e-05 3.47643e-05 0)
(5.57163e-06 2.3427e-05 0)
(3.4654e-06 -2.94467e-05 0)
(6.11176e-06 -3.83829e-05 0)
(-6.55712e-06 -8.79959e-06 0)
(-4.42803e-05 4.41478e-05 0)
(-0.00011417 0.000111049 0)
(-0.000220378 0.000185425 0)
(-0.000365105 0.000262728 0)
(-0.000549055 0.000339867 0)
(-0.00077181 0.00041476 0)
(-0.00103211 0.000486016 0)
(-0.00132808 0.000552713 0)
(-0.00165744 0.00061427 0)
(-0.00201759 0.000670343 0)
(-0.00240578 0.000720749 0)
(-0.00281912 0.000765422 0)
(-0.00325467 0.000804385 0)
(-0.0037095 0.000837726 0)
(-0.0041807 0.000865576 0)
(-0.00466543 0.000888106 0)
(-0.00516091 0.000905504 0)
(-0.00566444 0.000917968 0)
(-0.00617344 0.000925716 0)
(-0.00668544 0.000928977 0)
(-0.00719805 0.000927974 0)
(-0.00770901 0.000922938 0)
(-0.00821618 0.000914098 0)
(-0.00871754 0.000901672 0)
(-0.00921117 0.000885872 0)
(-0.00969526 0.00086691 0)
(-0.0101681 0.00084499 0)
(-0.0106282 0.000820304 0)
(-0.0110739 0.000793037 0)
(-0.011504 0.000763374 0)
(-0.0119172 0.000731485 0)
(-0.0123121 0.000697535 0)
(-0.0126879 0.000661682 0)
(-0.0130433 0.000624076 0)
(-0.0133776 0.000584861 0)
(-0.0136898 0.000544173 0)
(-0.0139791 0.000502146 0)
(-0.0142449 0.00045891 0)
(-0.0144864 0.000414586 0)
(-0.0147032 0.00036929 0)
(-0.0148947 0.000323135 0)
(-0.0150604 0.000276227 0)
(-0.0152 0.000228672 0)
(-0.0153131 0.00018057 0)
(-0.0153994 0.000132019 0)
(-0.0154587 8.31172e-05 0)
(-0.0154909 3.39619e-05 0)
(-0.0154958 -1.53485e-05 0)
(-0.0154733 -6.47147e-05 0)
(-0.0154236 -0.000114036 0)
(-0.0153466 -0.000163212 0)
(-0.0152424 -0.000212134 0)
(-0.0151112 -0.000260693 0)
(-0.0149534 -0.000308773 0)
(-0.0147691 -0.000356253 0)
(-0.0145588 -0.000403011 0)
(-0.0143229 -0.000448917 0)
(-0.014062 -0.000493836 0)
(-0.0137766 -0.000537623 0)
(-0.0134674 -0.00058013 0)
(-0.0131352 -0.000621198 0)
(-0.0127808 -0.000660664 0)
(-0.0124052 -0.000698356 0)
(-0.0120094 -0.000734098 0)
(-0.0115946 -0.000767706 0)
(-0.0111619 -0.00079899 0)
(-0.0107127 -0.000827753 0)
(-0.0102485 -0.000853795 0)
(-0.00977083 -0.00087691 0)
(-0.00928134 -0.000896885 0)
(-0.00878183 -0.000913504 0)
(-0.0082742 -0.000926545 0)
(-0.00776049 -0.000935784 0)
(-0.00724283 -0.000940992 0)
(-0.00672348 -0.000941944 0)
(-0.00620481 -0.000938414 0)
(-0.00568931 -0.000930182 0)
(-0.00517956 -0.000917038 0)
(-0.00467826 -0.000898778 0)
(-0.00418819 -0.000875217 0)
(-0.00371221 -0.000846187 0)
(-0.00325323 -0.000811549 0)
(-0.00281422 -0.0007712 0)
(-0.00239813 -0.000725087 0)
(-0.00200793 -0.000673224 0)
(-0.00164647 -0.000615718 0)
(-0.0013165 -0.0005528 0)
(-0.00102056 -0.00048487 0)
(-0.00076086 -0.000412571 0)
(-0.00053917 -0.000336879 0)
(-0.00035663 -0.00025925 0)
(-0.000213522 -0.000181823 0)
(-0.00010898 -0.000107721 0)
(-4.0659e-05 -4.14607e-05 0)
(-4.29518e-06 1.05566e-05 0)
(7.08836e-06 3.93583e-05 0)
(3.81454e-06 3.16128e-05 0)
(1.17187e-06 -3.10223e-05 0)
(-7.15807e-06 -2.59393e-05 0)
(-4.16477e-05 2.84189e-05 0)
(-0.000109629 0.000113972 0)
(-0.000217141 0.000218804 0)
(-0.000368164 0.000334316 0)
(-0.000564811 0.000454252 0)
(-0.0008077 0.000574165 0)
(-0.00109631 0.000690945 0)
(-0.00142922 0.00080243 0)
(-0.00180433 0.000907139 0)
(-0.00221904 0.00100408 0)
(-0.0026704 0.00109263 0)
(-0.0031552 0.00117244 0)
(-0.00367008 0.00124334 0)
(-0.00421161 0.00130531 0)
(-0.00477632 0.00135844 0)
(-0.00536073 0.0014029 0)
(-0.00596145 0.00143892 0)
(-0.00657514 0.00146678 0)
(-0.00719857 0.00148677 0)
(-0.00782859 0.00149923 0)
(-0.00846218 0.00150448 0)
(-0.00909646 0.00150289 0)
(-0.00972868 0.00149481 0)
(-0.0103562 0.00148058 0)
(-0.0109765 0.00146055 0)
(-0.0115873 0.00143507 0)
(-0.0121863 0.00140447 0)
(-0.0127714 0.00136906 0)
(-0.0133408 0.00132917 0)
(-0.0138925 0.00128509 0)
(-0.0144248 0.00123712 0)
(-0.0149362 0.00118552 0)
(-0.0154251 0.00113057 0)
(-0.0158902 0.00107252 0)
(-0.0163303 0.00101162 0)
(-0.0167441 0.000948095 0)
(-0.0171306 0.000882177 0)
(-0.0174888 0.000814077 0)
(-0.0178179 0.000743999 0)
(-0.018117 0.000672142 0)
(-0.0183854 0.000598695 0)
(-0.0186224 0.000523842 0)
(-0.0188276 0.000447757 0)
(-0.0190003 0.000370611 0)
(-0.0191402 0.000292569 0)
(-0.0192469 0.000213795 0)
(-0.0193202 0.00013445 0)
(-0.0193599 5.46969e-05 0)
(-0.0193657 -2.53037e-05 0)
(-0.0193377 -0.000105389 0)
(-0.0192758 -0.000185394 0)
(-0.0191802 -0.000265149 0)
(-0.019051 -0.000344478 0)
(-0.0188883 -0.000423202 0)
(-0.0186926 -0.000501132 0)
(-0.0184642 -0.000578074 0)
(-0.0182036 -0.000653827 0)
(-0.0179114 -0.000728177 0)
(-0.0175881 -0.000800906 0)
(-0.0172346 -0.000871781 0)
(-0.0168518 -0.00094056 0)
(-0.0164404 -0.00100699 0)
(-0.0160017 -0.00107081 0)
(-0.0155368 -0.00113174 0)
(-0.015047 -0.0011895 0)
(-0.0145336 -0.0012438 0)
(-0.0139983 -0.00129432 0)
(-0.0134426 -0.00134076 0)
(-0.0128684 -0.00138279 0)
(-0.0122776 -0.00142008 0)
(-0.0116722 -0.00145228 0)
(-0.0110545 -0.00147906 0)
(-0.0104268 -0.00150006 0)
(-0.00979157 -0.00151493 0)
(-0.00915144 -0.0015233 0)
(-0.00850917 -0.00152484 0)
(-0.00786766 -0.00151918 0)
(-0.00722994 -0.00150599 0)
(-0.00659914 -0.00148495 0)
(-0.00597852 -0.00145575 0)
(-0.00537143 -0.00141813 0)
(-0.0047813 -0.00137184 0)
(-0.00421163 -0.00131669 0)
(-0.00366592 -0.00125258 0)
(-0.00314769 -0.00117945 0)
(-0.0026604 -0.00109739 0)
(-0.00220738 -0.00100663 0)
(-0.00179182 -0.0009076 0)
(-0.00141661 -0.000801004 0)
(-0.00108426 -0.000687907 0)
(-0.000796762 -0.000569876 0)
(-0.000555398 -0.000449157 0)
(-0.00036054 -0.000328932 0)
(-0.000211393 -0.000213668 0)
(-0.000105696 -0.000109582 0)
(-3.93562e-05 -2.51592e-05 0)
(-6.32668e-06 2.80902e-05 0)
(1.37716e-06 3.33366e-05 0)
(-1.43427e-06 -2.48475e-05 0)
(-2.21286e-05 5.29672e-06 0)
(-8.10873e-05 9.35657e-05 0)
(-0.000182531 0.000219674 0)
(-0.000330921 0.000369677 0)
(-0.000529673 0.000533158 0)
(-0.000780526 0.000702311 0)
(-0.00108382 0.000871413 0)
(-0.00143879 0.00103633 0)
(-0.00184381 0.00119408 0)
(-0.00229655 0.00134258 0)
(-0.00279413 0.00148039 0)
(-0.00333325 0.00160655 0)
(-0.00391037 0.00172048 0)
(-0.00452174 0.00182187 0)
(-0.00516348 0.00191065 0)
(-0.00583168 0.00198688 0)
(-0.00652241 0.00205076 0)
(-0.0072318 0.00210257 0)
(-0.00795601 0.00214266 0)
(-0.00869133 0.00217144 0)
(-0.00943415 0.00218937 0)
(-0.010181 0.00219689 0)
(-0.0109285 0.0021945 0)
(-0.0116734 0.00218269 0)
(-0.0124127 0.00216196 0)
(-0.0131436 0.00213279 0)
(-0.0138631 0.00209568 0)
(-0.0145688 0.0020511 0)
(-0.0152582 0.0019995 0)
(-0.015929 0.00194135 0)
(-0.016579 0.00187707 0)
(-0.0172062 0.00180709 0)
(-0.0178087 0.00173181 0)
(-0.0183848 0.00165162 0)
(-0.0189329 0.00156689 0)
(-0.0194515 0.00147797 0)
(-0.0199391 0.00138521 0)
(-0.0203946 0.00128893 0)
(-0.0208168 0.00118945 0)
(-0.0212045 0.00108707 0)
(-0.021557 0.000982069 0)
(-0.0218732 0.000874731 0)
(-0.0221525 0.000765322 0)
(-0.0223942 0.000654101 0)
(-0.0225976 0.00054132 0)
(-0.0227624 0.000427222 0)
(-0.022888 0.000312051 0)
(-0.0229742 0.000196046 0)
(-0.0230208 7.94444e-05 0)
(-0.0230274 -3.75132e-05 0)
(-0.0229942 -0.000154587 0)
(-0.022921 -0.00027153 0)
(-0.0228081 -0.000388094 0)
(-0.0226555 -0.000504019 0)
(-0.0224636 -0.00061904 0)
(-0.0222327 -0.000732883 0)
(-0.0219633 -0.000845262 0)
(-0.021656 -0.00095588 0)
(-0.0213114 -0.00106443 0)
(-0.0209303 -0.00117058 0)
(-0.0205136 -0.00127401 0)
(-0.0200623 -0.00137435 0)
(-0.0195776 -0.00147124 0)
(-0.0190606 -0.0015643 0)
(-0.0185128 -0.00165313 0)
(-0.0179358 -0.00173731 0)
(-0.017331 -0.00181642 0)
(-0.0167005 -0.00189002 0)
(-0.016046 -0.00195765 0)
(-0.0153698 -0.00201885 0)
(-0.014674 -0.00207312 0)
(-0.0139611 -0.00212 0)
(-0.0132338 -0.00215897 0)
(-0.0124946 -0.00218953 0)
(-0.0117465 -0.00221119 0)
(-0.0109926 -0.00222343 0)
(-0.0102361 -0.00222576 0)
(-0.00948028 -0.00221769 0)
(-0.00872872 -0.00219875 0)
(-0.00798502 -0.0021685 0)
(-0.00725293 -0.00212653 0)
(-0.0065363 -0.00207247 0)
(-0.00583904 -0.00200603 0)
(-0.00516514 -0.00192698 0)
(-0.00451859 -0.00183519 0)
(-0.00390334 -0.00173066 0)
(-0.00332328 -0.00161358 0)
(-0.00278216 -0.00148434 0)
(-0.0022835 -0.00134362 0)
(-0.00183051 -0.00119247 0)
(-0.00142598 -0.00103246 0)
(-0.00107212 -0.000865772 0)
(-0.000770414 -0.000695493 0)
(-0.000521458 -0.00052584 0)
(-0.000324733 -0.000362562 0)
(-0.000178343 -0.000213415 0)
(-7.87327e-05 -8.86841e-05 0)
(-2.13241e-05 -1.94654e-06 0)
(-1.28209e-06 2.74304e-05 0)
(-4.0816e-06 -1.06126e-05 0)
(-3.76327e-05 5.6715e-05 0)
(-0.000122303 0.000188699 0)
(-0.000258866 0.000363608 0)
(-0.000449921 0.000565995 0)
(-0.000698059 0.000783969 0)
(-0.00100441 0.0010084 0)
(-0.00136886 0.00123243 0)
(-0.0017903 0.00145093 0)
(-0.00226681 0.00166016 0)
(-0.00279577 0.0018574 0)
(-0.00337402 0.00204072 0)
(-0.003998 0.00220882 0)
(-0.00466381 0.00236086 0)
(-0.00536735 0.00249637 0)
(-0.00610441 0.00261516 0)
(-0.00687068 0.00271728 0)
(-0.00766182 0.00280292 0)
(-0.00847355 0.00287242 0)
(-0.00930164 0.00292621 0)
(-0.0101419 0.0029648 0)
(-0.0109904 0.00298876 0)
(-0.0118431 0.00299869 0)
(-0.0126964 0.00299521 0)
(-0.0135466 0.00297897 0)
(-0.0143903 0.00295063 0)
(-0.0152241 0.00291083 0)
(-0.0160451 0.00286023 0)
(-0.0168502 0.00279945 0)
(-0.0176366 0.00272911 0)
(-0.0184018 0.00264983 0)
(-0.0191433 0.00256219 0)
(-0.0198588 0.00246676 0)
(-0.0205462 0.00236409 0)
(-0.0212034 0.0022547 0)
(-0.0218287 0.00213909 0)
(-0.0224203 0.00201776 0)
(-0.0229766 0.00189116 0)
(-0.0234963 0.00175974 0)
(-0.0239778 0.00162394 0)
(-0.0244202 0.00148415 0)
(-0.0248222 0.00134077 0)
(-0.025183 0.00119419 0)
(-0.0255015 0.00104476 0)
(-0.0257772 0.000892849 0)
(-0.0260092 0.000738797 0)
(-0.026197 0.000582942 0)
(-0.0263402 0.000425618 0)
(-0.0264383 0.000267155 0)
(-0.0264912 0.000107882 0)
(-0.0264986 -5.18719e-05 0)
(-0.0264605 -0.000211773 0)
(-0.0263768 -0.000371484 0)
(-0.0262477 -0.00053066 0)
(-0.0260733 -0.000688947 0)
(-0.0258542 -0.000845979 0)
(-0.0255905 -0.00100138 0)
(-0.0252829 -0.00115476 0)
(-0.0249321 -0.00130571 0)
(-0.0245388 -0.00145382 0)
(-0.0241039 -0.00159863 0)
(-0.0236284 -0.00173968 0)
(-0.0231135 -0.00187651 0)
(-0.0225604 -0.00200861 0)
(-0.0219707 -0.00213545 0)
(-0.0213458 -0.00225651 0)
(-0.0206876 -0.00237122 0)
(-0.0199979 -0.002479 0)
(-0.0192787 -0.00257925 0)
(-0.0185324 -0.00267135 0)
(-0.0177612 -0.00275469 0)
(-0.0169677 -0.0028286 0)
(-0.0161548 -0.00289244 0)
(-0.0153252 -0.00294553 0)
(-0.0144822 -0.0029872 0)
(-0.0136289 -0.00301679 0)
(-0.0127688 -0.00303362 0)
(-0.0119056 -0.00303705 0)
(-0.0110429 -0.00302642 0)
(-0.0101848 -0.00300114 0)
(-0.00933525 -0.00296063 0)
(-0.00849845 -0.00290437 0)
(-0.00767868 -0.00283192 0)
(-0.00688029 -0.0027429 0)
(-0.00610766 -0.00263706 0)
(-0.00536521 -0.0025143 0)
(-0.00465728 -0.00237468 0)
(-0.00398813 -0.00221851 0)
(-0.00336184 -0.00204636 0)
(-0.00278226 -0.0018592 0)
(-0.00225289 -0.00165849 0)
(-0.00177679 -0.00144628 0)
(-0.00135644 -0.00122542 0)
(-0.000993619 -0.000999795 0)
(-0.000689253 -0.000774611 0)
(-0.000443278 -0.000556768 0)
(-0.00025439 -0.000355346 0)
(-0.000119825 -0.00018209 0)
(-3.67891e-05 -5.21301e-05 0)
(-3.9401e-06 1.35133e-05 0)
(-6.64416e-06 1.16813e-05 0)
(-5.30185e-05 0.00012877 0)
(-0.000163685 0.00031468 0)
(-0.000335906 0.000546871 0)
(-0.000570308 0.000808879 0)
(-0.000868487 0.0010877 0)
(-0.00123081 0.00137313 0)
(-0.00165655 0.00165733 0)
(-0.00214416 0.0019343 0)
(-0.00269133 0.00219957 0)
(-0.00329512 0.00244982 0)
(-0.00395207 0.00268263 0)
(-0.00465832 0.00289635 0)
(-0.00540968 0.00308986 0)
(-0.00620173 0.00326251 0)
(-0.00702992 0.003414 0)
(-0.00788959 0.00354431 0)
(-0.00877609 0.00365365 0)
(-0.00968475 0.0037424 0)
(-0.010611 0.00381105 0)
(-0.0115502 0.00386022 0)
(-0.0124982 0.0038906 0)
(-0.0134505 0.00390292 0)
(-0.014403 0.00389797 0)
(-0.0153519 0.00387656 0)
(-0.0162934 0.0038395 0)
(-0.0172237 0.00378761 0)
(-0.0181395 0.00372172 0)
(-0.0190375 0.00364264 0)
(-0.0199147 0.00355116 0)
(-0.0207681 0.00344806 0)
(-0.0215951 0.00333408 0)
(-0.022393 0.00320997 0)
(-0.0231596 0.00307643 0)
(-0.0238925 0.00293414 0)
(-0.0245898 0.00278375 0)
(-0.0252495 0.00262589 0)
(-0.0258699 0.00246117 0)
(-0.0264494 0.00229016 0)
(-0.0269864 0.00211341 0)
(-0.0274796 0.00193147 0)
(-0.0279279 0.00174484 0)
(-0.0283301 0.00155403 0)
(-0.0286853 0.0013595 0)
(-0.0289925 0.00116172 0)
(-0.0292511 0.000961154 0)
(-0.0294604 0.000758234 0)
(-0.02962 0.000553401 0)
(-0.0297293 0.000347085 0)
(-0.029788 0.00013972 0)
(-0.0297961 -6.82624e-05 0)
(-0.0297533 -0.000276426 0)
(-0.0296598 -0.000484327 0)
(-0.0295156 -0.000691514 0)
(-0.029321 -0.000897525 0)
(-0.0290764 -0.00110188 0)
(-0.0287822 -0.0013041 0)
(-0.028439 -0.00150365 0)
(-0.0280476 -0.00170003 0)
(-0.0276089 -0.00189266 0)
(-0.0271237 -0.00208099 0)
(-0.0265934 -0.00226441 0)
(-0.0260191 -0.00244231 0)
(-0.0254024 -0.00261403 0)
(-0.0247447 -0.0027789 0)
(-0.024048 -0.00293622 0)
(-0.023314 -0.00308528 0)
(-0.022545 -0.00322531 0)
(-0.0217431 -0.00335556 0)
(-0.0209109 -0.00347523 0)
(-0.020051 -0.00358349 0)
(-0.0191663 -0.00367954 0)
(-0.0182598 -0.00376252 0)
(-0.0173347 -0.00383158 0)
(-0.0163944 -0.00388588 0)
(-0.0154426 -0.00392454 0)
(-0.014483 -0.00394674 0)
(-0.0135196 -0.00395165 0)
(-0.0125565 -0.00393847 0)
(-0.0115981 -0.00390644 0)
(-0.0106488 -0.00385487 0)
(-0.00971307 -0.00378312 0)
(-0.00879564 -0.00369066 0)
(-0.00790122 -0.00357707 0)
(-0.00703457 -0.00344207 0)
(-0.00620045 -0.00328559 0)
(-0.00540355 -0.00310777 0)
(-0.00464846 -0.00290905 0)
(-0.00393957 -0.00269023 0)
(-0.00328105 -0.00245259 0)
(-0.00267669 -0.00219796 0)
(-0.00212984 -0.00192892 0)
(-0.00164331 -0.00164895 0)
(-0.00121923 -0.00136268 0)
(-0.000858997 -0.0010762 0)
(-0.000563127 -0.000797407 0)
(-0.000331069 -0.000536458 0)
(-0.000161013 -0.000306215 0)
(-5.20893e-05 -0.000122875 0)
(-6.49204e-06 -8.3997e-06 0)
(-9.06626e-06 4.18019e-05 0)
(-6.79277e-05 0.00022128 0)
(-0.000204257 0.000471512 0)
(-0.000411903 0.000769624 0)
(-0.000689521 0.00109855 0)
(-0.00103764 0.00144452 0)
(-0.00145573 0.00179648 0)
(-0.00194238 0.00214579 0)
(-0.00249549 0.00248572 0)
(-0.00311231 0.00281115 0)
(-0.00378952 0.00311817 0)
(-0.00452332 0.00340395 0)
(-0.00530954 0.00366645 0)
(-0.00614369 0.00390429 0)
(-0.00702104 0.00411663 0)
(-0.00793675 0.00430305 0)
(-0.00888584 0.00446348 0)
(-0.00986333 0.00459809 0)
(-0.0108643 0.00470732 0)
(-0.0118837 0.00479173 0)
(-0.0129168 0.00485202 0)
(-0.0139588 0.00488902 0)
(-0.0150051 0.0049036 0)
(-0.0160514 0.0048967 0)
(-0.0170933 0.0048693 0)
(-0.0181267 0.0048224 0)
(-0.0191477 0.00475699 0)
(-0.0201527 0.00467408 0)
(-0.021138 0.00457467 0)
(-0.0221003 0.00445974 0)
(-0.0230364 0.00433024 0)
(-0.0239435 0.00418712 0)
(-0.0248187 0.00403129 0)
(-0.0256595 0.00386361 0)
(-0.0264633 0.00368494 0)
(-0.027228 0.0034961 0)
(-0.0279515 0.00329786 0)
(-0.0286318 0.003091 0)
(-0.0292672 0.00287622 0)
(-0.0298561 0.00265423 0)
(-0.030397 0.00242569 0)
(-0.0308885 0.00219126 0)
(-0.0313295 0.00195155 0)
(-0.0317188 0.00170717 0)
(-0.0320557 0.00145871 0)
(-0.0323391 0.00120672 0)
(-0.0325685 0.000951783 0)
(-0.0327433 0.000694438 0)
(-0.032863 0.000435236 0)
(-0.0329273 0.000174721 0)
(-0.032936 -8.65608e-05 0)
(-0.0328889 -0.000348057 0)
(-0.0327862 -0.00060921 0)
(-0.0326279 -0.000869448 0)
(-0.0324143 -0.00112819 0)
(-0.0321459 -0.00138483 0)
(-0.0318231 -0.00163876 0)
(-0.0314467 -0.00188932 0)
(-0.0310173 -0.00213587 0)
(-0.0305361 -0.00237769 0)
(-0.030004 -0.00261408 0)
(-0.0294224 -0.00284429 0)
(-0.0287926 -0.00306754 0)
(-0.0281162 -0.00328301 0)
(-0.027395 -0.00348988 0)
(-0.0266309 -0.00368726 0)
(-0.025826 -0.00387425 0)
(-0.0249827 -0.00404992 0)
(-0.0241033 -0.00421332 0)
(-0.0231907 -0.00436345 0)
(-0.0222476 -0.00449931 0)
(-0.0212773 -0.00461987 0)
(-0.0202829 -0.00472409 0)
(-0.019268 -0.00481093 0)
(-0.0182363 -0.00487932 0)
(-0.0171917 -0.00492823 0)
(-0.0161384 -0.00495663 0)
(-0.0150805 -0.00496351 0)
(-0.0140226 -0.00494791 0)
(-0.0129693 -0.00490892 0)
(-0.0119254 -0.00484571 0)
(-0.0108957 -0.00475754 0)
(-0.00988532 -0.0046438 0)
(-0.00889924 -0.004504 0)
(-0.00794258 -0.00433787 0)
(-0.00702041 -0.00414536 0)
(-0.00613774 -0.0039267 0)
(-0.00529947 -0.0036825 0)
(-0.00451031 -0.00341378 0)
(-0.0037747 -0.00312211 0)
(-0.00309677 -0.00280973 0)
(-0.00248019 -0.00247967 0)
(-0.00192815 -0.00213603 0)
(-0.00144322 -0.00178411 0)
(-0.00102733 -0.00143075 0)
(-0.000681698 -0.00108467 0)
(-0.000406619 -0.000756884 0)
(-0.000201325 -0.000461031 0)
(-6.68835e-05 -0.00021397 0)
(-8.89575e-06 -3.80673e-05 0)
(-1.13275e-05 7.93964e-05 0)
(-8.21759e-05 0.00033369 0)
(-0.000243451 0.000658631 0)
(-0.000485789 0.00103137 0)
(-0.000805927 0.00143457 0)
(-0.00120331 0.00185395 0)
(-0.00167649 0.00227789 0)
(-0.00222327 0.00269709 0)
(-0.00284091 0.00310423 0)
(-0.00352619 0.00349361 0)
(-0.00427536 0.00386085 0)
(-0.00508424 0.00420268 0)
(-0.00594832 0.00451673 0)
(-0.0068628 0.00480137 0)
(-0.00782266 0.00505558 0)
(-0.00882275 0.00527881 0)
(-0.00985782 0.00547092 0)
(-0.0109226 0.00563208 0)
(-0.0120118 0.00576275 0)
(-0.0131201 0.00586357 0)
(-0.0142426 0.00593533 0)
(-0.0153741 0.00597898 0)
(-0.0165097 0.00599555 0)
(-0.0176448 0.00598613 0)
(-0.0187747 0.00595188 0)
(-0.0198951 0.00589397 0)
(-0.0210019 0.0058136 0)
(-0.0220909 0.00571197 0)
(-0.0231585 0.00559026 0)
(-0.0242011 0.00544967 0)
(-0.0252152 0.00529133 0)
(-0.0261977 0.00511638 0)
(-0.0271456 0.00492593 0)
(-0.0280561 0.00472102 0)
(-0.0289266 0.00450269 0)
(-0.0297547 0.00427193 0)
(-0.030538 0.0040297 0)
(-0.0312747 0.00377691 0)
(-0.0319626 0.00351444 0)
(-0.0326002 0.00324316 0)
(-0.0331857 0.00296386 0)
(-0.0337179 0.00267735 0)
(-0.0341952 0.00238439 0)
(-0.0346167 0.0020857 0)
(-0.0349813 0.00178202 0)
(-0.0352881 0.00147403 0)
(-0.0355364 0.00116243 0)
(-0.0357255 0.000847894 0)
(-0.035855 0.00053109 0)
(-0.0359245 0.000212689 0)
(-0.0359337 -0.000106639 0)
(-0.0358826 -0.000426216 0)
(-0.0357713 -0.000745358 0)
(-0.0355998 -0.00106337 0)
(-0.0353685 -0.00137953 0)
(-0.0350777 -0.0016931 0)
(-0.0347281 -0.00200333 0)
(-0.0343205 -0.00230944 0)
(-0.0338556 -0.0026106 0)
(-0.0333345 -0.00290598 0)
(-0.0327583 -0.0031947 0)
(-0.0321285 -0.00347585 0)
(-0.0314466 -0.00374848 0)
(-0.0307143 -0.0040116 0)
(-0.0299334 -0.00426419 0)
(-0.029106 -0.0045052 0)
(-0.0282345 -0.00473352 0)
(-0.0273212 -0.00494803 0)
(-0.026369 -0.00514757 0)
(-0.0253806 -0.00533094 0)
(-0.0243592 -0.00549693 0)
(-0.0233081 -0.0056443 0)
(-0.0222308 -0.0057718 0)
(-0.0211312 -0.00587817 0)
(-0.0200131 -0.00596215 0)
(-0.0188808 -0.0060225 0)
(-0.0177386 -0.00605798 0)
(-0.0165911 -0.00606742 0)
(-0.0154432 -0.00604968 0)
(-0.0142996 -0.00600368 0)
(-0.0131656 -0.00592847 0)
(-0.0120462 -0.0058232 0)
(-0.0109468 -0.00568715 0)
(-0.00987284 -0.00551983 0)
(-0.00882959 -0.00532093 0)
(-0.00782249 -0.00509045 0)
(-0.00685684 -0.00482872 0)
(-0.00593784 -0.00453649 0)
(-0.0050705 -0.00421501 0)
(-0.00425959 -0.00386615 0)
(-0.00350955 -0.00349249 0)
(-0.00282444 -0.00309755 0)
(-0.00220786 -0.00268592 0)
(-0.00166289 -0.0022635 0)
(-0.00119207 -0.00183776 0)
(-0.000797357 -0.00141809 0)
(-0.000479975 -0.0010161 0)
(-0.000240207 -0.000645948 0)
(-8.09977e-05 -0.000324828 0)
(-1.11366e-05 -7.51337e-05 0)
(-1.34292e-05 0.000124071 0)
(-9.56861e-05 0.00046524 0)
(-0.000280976 0.000875138 0)
(-0.000556958 0.0013312 0)
(-0.000918561 0.00181603 0)
(-0.00136417 0.00231511 0)
(-0.00189138 0.00281643 0)
(-0.00249719 0.00331022 0)
(-0.0031782 0.00378865 0)
(-0.00393062 0.00424559 0)
(-0.00475024 0.00467622 0)
(-0.00563249 0.00507693 0)
(-0.00657248 0.00544502 0)
(-0.0075651 0.00577865 0)
(-0.00860501 0.0060766 0)
(-0.00968677 0.00633822 0)
(-0.0108048 0.00656331 0)
(-0.0119537 0.00675205 0)
(-0.0131277 0.00690489 0)
(-0.0143214 0.00702256 0)
(-0.0155293 0.00710596 0)
(-0.0167463 0.00715615 0)
(-0.0179672 0.00717431 0)
(-0.0191868 0.00716171 0)
(-0.0204006 0.00711968 0)
(-0.0216037 0.00704958 0)
(-0.0227918 0.0069528 0)
(-0.0239607 0.00683075 0)
(-0.0251063 0.00668483 0)
(-0.0262248 0.00651642 0)
(-0.0273127 0.00632688 0)
(-0.0283665 0.00611754 0)
(-0.0293831 0.0058897 0)
(-0.0303595 0.00564461 0)
(-0.0312929 0.0053835 0)
(-0.0321808 0.00510755 0)
(-0.0330207 0.00481788 0)
(-0.0338104 0.0045156 0)
(-0.0345479 0.00420175 0)
(-0.0352314 0.00387735 0)
(-0.0358591 0.00354337 0)
(-0.0364294 0.00320076 0)
(-0.0369411 0.00285042 0)
(-0.0373929 0.00249325 0)
(-0.0377836 0.00213009 0)
(-0.0381124 0.00176179 0)
(-0.0383784 0.00138917 0)
(-0.0385811 0.00101304 0)
(-0.0387198 0.000634206 0)
(-0.0387942 0.000253471 0)
(-0.0388041 -0.000128361 0)
(-0.0387493 -0.00051048 0)
(-0.0386298 -0.000892064 0)
(-0.038446 -0.00127228 0)
(-0.0381979 -0.00165026 0)
(-0.0378862 -0.00202513 0)
(-0.0375115 -0.00239599 0)
(-0.0370745 -0.0027619 0)