/*--------------------------------*- C++ -*----------------------------------*\
| =========                 |                                                 |
| \\      /  F ield         | OpenFOAM: The Open Source CFD Toolbox           |
|  \\    /   O peration     | Version:  2212                                  |
|   \\  /    A nd           | Website:  www.openfoam.com                      |
|    \\/     M anipulation  |                                                 |
\*---------------------------------------------------------------------------*/
FoamFile
{
    version     2.0;
    format      ascii;
    arch        "LSB;label=32;scalar=64";
    class       volScalarField;
    location    "0.0395";
    object      p;
}
// * * * * * * * * * * * * * * * * * * * * * * * * * * * * * * * * * * * * * //

dimensions      [0 2 -2 0 0 0 0];

internalField   nonuniform List<scalar> 
10000
(
1.59914e-07
-3.38802e-05
-0.00038702
-0.00103396
-0.00190892
-0.00297252
-0.00417983
-0.00548744
-0.00685588
-0.00824995
-0.00963875
-0.0109956
-0.0122972
-0.0135231
-0.0146557
-0.0156801
-0.0165838
-0.0173561
-0.0179879
-0.0184717
-0.0188016
-0.0189727
-0.0189817
-0.0188263
-0.0185053
-0.0180185
-0.0173665
-0.0165506
-0.0155728
-0.0144357
-0.0131429
-0.0116985
-0.0101071
-0.00837362
-0.00650365
-0.00450301
-0.00237801
-0.000135372
0.00221791
0.00467461
0.00722721
0.00986774
0.012588
0.0153798
0.0182347
0.0211439
0.0240986
0.0270895
0.0301076
0.0331436
0.0361881
0.0392316
0.0422644
0.0452773
0.0482606
0.051205
0.0541008
0.0569387
0.0597092
0.0624033
0.0650122
0.0675271
0.0699393
0.0722404
0.0744224
0.0764778
0.0783997
0.0801812
0.0818161
0.0832984
0.0846229
0.0857851
0.0867815
0.0876093
0.0882663
0.0887511
0.0890633
0.0892035
0.0891735
0.0889763
0.0886164
0.0880998
0.0874337
0.0866267
0.0856893
0.0846337
0.083474
0.0822271
0.080912
0.0795508
0.0781689
0.0767951
0.075462
0.0742066
0.0730707
0.0721001
0.0713429
0.0708466
0.0706539
0.0707295
-0.000163142
-0.000191487
-0.000503978
-0.00106493
-0.00182001
-0.00273569
-0.00377757
-0.00491084
-0.00610241
-0.00732177
-0.0085414
-0.00973689
-0.0108868
-0.0119719
-0.0129754
-0.0138828
-0.0146817
-0.0153613
-0.0159128
-0.0163287
-0.0166027
-0.01673
-0.0167068
-0.0165307
-0.0162
-0.0157142
-0.0150736
-0.014279
-0.0133321
-0.0122351
-0.0109913
-0.00960425
-0.00807812
-0.00641755
-0.00462772
-0.00271404
-0.000682357
0.00146105
0.00370957
0.00605634
0.00849424
0.0110157
0.013613
0.0162783
0.0190035
0.0217805
0.0246006
0.0274551
0.0303353
0.0332324
0.0361374
0.0390413
0.0419349
0.0448093
0.0476554
0.0504642
0.0532266
0.0559337
0.0585765
0.0611467
0.0636357
0.0660353
0.0683373
0.0705337
0.0726172
0.0745807
0.0764179
0.0781223
0.079688
0.0811098
0.0823827
0.0835029
0.0844673
0.0852734
0.0859196
0.0864048
0.0867289
0.0868927
0.0868983
0.0867492
0.08645
0.0860067
0.0854265
0.0847181
0.0838916
0.082959
0.081934
0.0808326
0.079673
0.0784759
0.0772646
0.0760654
0.0749072
0.0738218
0.0728441
0.0720104
0.071356
0.0709145
0.0707291
0.0708052
-9.64302e-05
-0.000105593
-0.000381705
-0.000887026
-0.00156601
-0.00238686
-0.00331984
-0.00433482
-0.0054032
-0.00649831
-0.00759534
-0.00867202
-0.00970859
-0.0106873
-0.0115923
-0.0124097
-0.0131274
-0.0137349
-0.0142236
-0.0145859
-0.0148157
-0.0149081
-0.0148592
-0.0146663
-0.0143278
-0.0138427
-0.0132111
-0.0124335
-0.0115113
-0.0104466
-0.00924223
-0.00790152
-0.00642826
-0.00482675
-0.00310186
-0.00125875
0.000697073
0.00275971
0.00492291
0.00718015
0.00952462
0.0119491
0.0144461
0.0170082
0.0196277
0.0222967
0.0250071
0.0277504
0.0305182
0.033302
0.0360934
0.0388836
0.0416639
0.0444256
0.0471601
0.0498587
0.0525127
0.0551136
0.0576529
0.0601227
0.0625146
0.0648209
0.0670337
0.0691456
0.0711496
0.0730392
0.0748081
0.0764504
0.0779607
0.0793338
0.0805654
0.0816521
0.0825909
0.0833798
0.0840174
0.0845028
0.0848362
0.0850186
0.0850523
0.0849409
0.0846891
0.0843028
0.0837893
0.0831569
0.0824154
0.0815765
0.0806533
0.079661
0.0786165
0.0775392
0.0764507
0.0753745
0.0743366
0.0733646
0.0724881
0.0717375
0.0711416
0.0707282
0.0705434
0.0706137
0.000285321
0.00024348
-3.66614e-05
-0.000521304
-0.00116166
-0.00192813
-0.0027937
-0.00373148
-0.00471605
-0.00572375
-0.00673247
-0.00772179
-0.0086734
-0.00957097
-0.0103998
-0.0111468
-0.0118005
-0.0123507
-0.0127891
-0.0131084
-0.0133025
-0.0133664
-0.0132965
-0.01309
-0.012745
-0.0122606
-0.0116365
-0.0108731
-0.00997162
-0.00893393
-0.00776272
-0.00646104
-0.00503232
-0.00348063
-0.00181063
-2.72237e-05
0.00186443
0.00385872
0.00594963
0.00813094
0.0103961
0.0127382
0.0151501
0.0176245
0.0201543
0.0227317
0.0253489
0.0279977
0.03067
0.0333577
0.0360528
0.0387467
0.041431
0.0440973
0.0467373
0.0493426
0.0519051
0.0544165
0.0568686
0.0592537
0.0615638
0.0637916
0.0659295
0.0679705
0.0699079
0.0717356
0.0734474
0.0750379
0.0765017
0.0778343
0.0790315
0.0800902
0.0810077
0.0817823
0.0824125
0.0828978
0.0832385
0.0834357
0.083492
0.0834107
0.0831967
0.0828557
0.0823947
0.0818218
0.0811466
0.08038
0.0795345
0.0786243
0.0776654
0.0766755
0.0756744
0.0746835
0.0737256
0.0728252
0.0720081
0.0713004
0.0707272
0.0703137
0.0701019
0.07012
0.000955125
0.000820091
0.000494543
-1.21516e-07
-0.000629591
-0.00136785
-0.00219095
-0.00307527
-0.00399837
-0.00493929
-0.00587844
-0.00679753
-0.00767975
-0.00851005
-0.00927484
-0.00996193
-0.0105606
-0.0110613
-0.011456
-0.0117376
-0.0119004
-0.0119394
-0.011851
-0.0116325
-0.0112821
-0.0107985
-0.0101815
-0.00943123
-0.00854889
-0.0075362
-0.00639557
-0.0051298
-0.00374215
-0.00223652
-0.000617314
0.00111087
0.00294315
0.00487419
0.0068982
0.00900918
0.0112008
0.0134665
0.0157994
0.0181926
0.0206392
0.0231318
0.0256626
0.0282237
0.0308075
0.0334062
0.0360121
0.0386169
0.0412123
0.0437903
0.046343
0.0488623
0.0513403
0.0537691
0.0561409
0.0584479
0.0606827
0.0628382
0.0649073
0.0668832
0.0687596
0.0705304
0.07219
0.0737329
0.0751543
0.0764498
0.0776156
0.0786486
0.0795466
0.0803077
0.0809309
0.0814157
0.0817624
0.0819724
0.0820482
0.0819931
0.0818117
0.0815097
0.0810938
0.0805718
0.0799527
0.0792469
0.0784661
0.0776234
0.0767337
0.0758133
0.07488
0.0739529
0.0730524
0.0721999
0.0714176
0.070728
0.0701532
0.0697157
0.0694465
0.0693654
0.0018537
0.00158809
0.00118662
0.000655652
1.21552e-05
-0.000721609
-0.00152476
-0.00237713
-0.0032592
-0.00415249
-0.00503961
-0.00590443
-0.00673183
-0.00750803
-0.00822054
-0.00885818
-0.00941086
-0.00986984
-0.0102274
-0.010477
-0.0106128
-0.0106304
-0.0105262
-0.0102977
-0.00994278
-0.00946039
-0.00885
-0.00811199
-0.00724732
-0.00625758
-0.00514493
-0.00391201
-0.00256194
-0.00109848
0.000474186
0.00215176
0.00392963
0.00580268
0.00776533
0.00981175
0.0119359
0.0141314
0.0163918
0.0187105
0.0210807
0.0234953
0.0259467
0.0284273
0.0309299
0.0334471
0.0359713
0.0384943
0.0410083
0.0435055
0.0459782
0.0484189
0.0508198
0.0531732
0.0554715
0.0577073
0.0598735
0.0619632
0.0639698
0.0658866
0.0677075
0.0694267
0.0710387
0.0725385
0.0739214
0.0751832
0.0763205
0.0773303
0.0782104
0.0789591
0.0795755
0.0800592
0.0804106
0.0806312
0.0807234
0.0806903
0.0805365
0.0802673
0.0798891
0.0794093
0.0788365
0.0781803
0.0774516
0.0766625
0.0758267
0.0749589
0.0740752
0.0731926
0.072329
0.0715031
0.070734
0.0700408
0.0694431
0.0689601
0.0686084
0.068395
0.00293033
0.00251105
0.00201168
0.00142331
0.00074458
-5.65517e-06
-0.000809122
-0.0016491
-0.00250889
-0.00337233
-0.00422413
-0.00504997
-0.0058365
-0.00657134
-0.00724302
-0.00784134
-0.00835712
-0.00878218
-0.0091093
-0.00933225
-0.00944578
-0.00944568
-0.00932857
-0.00909184
-0.00873363
-0.00825274
-0.00764877
-0.00692206
-0.00607352
-0.00510457
-0.00401723
-0.00281401
-0.00149795
-7.26478e-05
0.00145796
0.00308982
0.00481853
0.00663912
0.00854619
0.0105341
0.0125971
0.0147291
0.0169239
0.0191751
0.0214761
0.02382
0.0261994
0.0286073
0.0310365
0.03348
0.0359302
0.0383793
0.0408197
0.0432439
0.0456446
0.0480144
0.0503458
0.0526313
0.0548635
0.0570352
0.0591398
0.0611705
0.063121
0.0649848
0.066756
0.068429
0.0699985
0.0714597
0.0728082
0.07404
0.0751517
0.0761406
0.0770045
0.0777418
0.0783517
0.0788338
0.0791886
0.0794176
0.0795229
0.0795078
0.0793763
0.0791337
0.0787859
0.0783399
0.0778036
0.077186
0.0764971
0.0757482
0.0749515
0.0741204
0.0732693
0.0724133
0.071568
0.0707496
0.0699743
0.0692584
0.068619
0.0680729
0.0676199
0.0672531
0.00413952
0.00355294
0.00294061
0.00227873
0.00154781
0.000763728
-5.7333e-05
-0.000901643
-0.00175528
-0.0026043
-0.00343547
-0.00423614
-0.00499443
-0.00569934
-0.00634065
-0.00690906
-0.00739621
-0.00779456
-0.00809743
-0.0082991
-0.00839475
-0.00838048
-0.00825305
-0.00800999
-0.00764953
-0.00717058
-0.00657283
-0.00585663
-0.00502276
-0.00407256
-0.00300797
-0.00183151
-0.000546101
0.000844883
0.00233772
0.00392856
0.00561311
0.00738651
0.00924352
0.0111788
0.0131867
0.0152616
0.0173975
0.0195879
0.0218266
0.0241068
0.0264216
0.0287641
0.0311274
0.0335046
0.0358883
0.0382711
0.0406455
0.0430043
0.0453404
0.0476468
0.049916
0.0521408
0.0543139
0.0564285
0.0584781
0.0604564
0.0623569
0.0641736
0.0659006
0.0675325
0.0690643
0.0704913
0.0718092
0.0730143
0.0741033
0.0750735
0.0759228
0.0766497
0.0772533
0.0777333
0.0780902
0.0783254
0.078441
0.0784399
0.078326
0.0781041
0.0777799
0.0773597
0.076851
0.076262
0.0756018
0.0748808
0.0741101
0.0733017
0.0724683
0.0716231
0.07078
0.0699526
0.069155
0.0684004
0.0677042
0.0670809
0.0665135
0.0659807
0.0054416
0.00468079
0.00394566
0.00319842
0.00240223
0.00157034
0.000717288
-0.00014554
-0.00100687
-0.00185492
-0.00267819
-0.00346572
-0.00420706
-0.00489242
-0.00551279
-0.00605982
-0.0065259
-0.00690414
-0.00718852
-0.00737385
-0.00745575
-0.00743058
-0.00729531
-0.00704763
-0.00668598
-0.00620943
-0.00561776
-0.00491127
-0.00409069
-0.00315732
-0.00211317
-0.000960684
0.000297335
0.00165772
0.00311692
0.00467117
0.00631627
0.0080475
0.0098598
0.011748
0.0137069
0.0157309
0.0178141
0.0199503
0.0221333
0.0243567
0.0266139
0.0288981
0.0312026
0.0335207
0.0358452
0.0381689
0.0404846
0.0427853
0.0450641
0.0473141
0.0495282
0.0516991
0.0538199
0.055884
0.0578851
0.0598169
0.0616735
0.0634486
0.0651367
0.0667325
0.068231
0.0696279
0.0709191
0.0721007
0.0731697
0.0741234
0.0749596
0.0756769
0.0762745
0.076752
0.0771099
0.0773494
0.0774724
0.0774818
0.077381
0.0771745
0.0768675
0.076466
0.0759767
0.0754072
0.0747658
0.0740618
0.0733054
0.0725071
0.0716783
0.0708305
0.0699756
0.0691256
0.068292
0.0674859
0.066721
0.0660099
0.0653194
0.0646143
0.00680287
0.00586553
0.0050016
0.00416038
0.00328886
0.00239827
0.00150163
0.00060818
-0.000272722
-0.00113134
-0.00195789
-0.00274288
-0.00347721
-0.00415234
-0.0047603
-0.00529364
-0.00574548
-0.0061097
-0.00638094
-0.00655453
-0.00662647
-0.00659339
-0.00645256
-0.00620192
-0.00584012
-0.00536642
-0.00478061
-0.00408299
-0.00327436
-0.00235608
-0.00133016
-0.000198961
0.00103486
0.00236826
0.00379778
0.00531969
0.00692989
0.00862382
0.0103966
0.0122434
0.014159
0.0161379
0.0181745
0.0202627
0.0223966
0.0245699
0.0267762
0.029009
0.0312617
0.0335277
0.0358001
0.0380717
0.0403358
0.0425855
0.044814
0.0470147
0.0491803
0.0513041
0.0533792
0.0553991
0.0573579
0.0592494
0.0610676
0.0628066
0.0644609
0.0660253
0.0674952
0.068866
0.0701339
0.0712952
0.0723468
0.073286
0.0741107
0.0748194
0.0754113
0.0758859
0.0762437
0.0764858
0.0766138
0.0766303
0.0765385
0.0763425
0.0760471
0.0756576
0.0751804
0.0746221
0.0739905
0.0732939
0.0725412
0.0717421
0.0709065
0.0700444
0.069166
0.0682817
0.0674009
0.0665329
0.06569
0.0648835
0.0640644
0.063185
0.00819502
0.0070815
0.00608566
0.00514452
0.00418999
0.00323207
0.00228255
0.00134866
0.000438063
-0.000441088
-0.00128057
-0.00207229
-0.00280843
-0.0034816
-0.00408476
-0.00461125
-0.00505508
-0.00541088
-0.00567389
-0.0058399
-0.00590529
-0.00586705
-0.00572278
-0.00547073
-0.00510977
-0.00463923
-0.00405899
-0.00336945
-0.00257152
-0.00166664
-0.000656783
0.000455787
0.00166852
0.0029784
0.00438201
0.0058757
0.00745545
0.00911686
0.0108553
0.0126659
0.0145437
0.0164834
0.0184793
0.0205257
0.0226168
0.0247465
0.0269086
0.0290967
0.0313043
0.033525
0.0357521
0.0379787
0.0401981
0.0424036
0.0445886
0.0467466
0.0488705
0.0509536
0.0529894
0.0549715
0.056894
0.058751
0.0605364
0.0622446
0.0638701
0.0654079
0.0668532
0.068202
0.0694502
0.0705943
0.0716311
0.0725579
0.0733726
0.0740737
0.0746602
0.0751318
0.0754887
0.0757318
0.0758626
0.0758832
0.0757967
0.0756068
0.0753177
0.0749344
0.0744624
0.0739081
0.0732782
0.0725803
0.0718224
0.0710129
0.0701604
0.0692739
0.0683621
0.0674337
0.0664967
0.0655584
0.0646305
0.0637232
0.0627727
0.0617192
0.00959404
0.00830645
0.00717747
0.00613253
0.00508939
0.00405734
0.00304733
0.002065
0.00111634
0.000208196
-0.000652538
-0.00145908
-0.0022048
-0.00288325
-0.00348826
-0.0040141
-0.00445557
-0.00480801
-0.00506717
-0.00522933
-0.00529125
-0.00525037
-0.00510464
-0.00485257
-0.00449321
-0.00402604
-0.00345107
-0.00276885
-0.00198043
-0.00108727
-9.12864e-05
0.00100529
0.00219992
0.00348962
0.004871
0.00634046
0.00789411
0.00952766
0.0112366
0.0130163
0.0148617
0.0167678
0.0187289
0.0207395
0.0227939
0.0248864
0.0270107
0.0291605
0.0313297
0.0335118
0.0357003
0.0378886
0.04007
0.042238
0.0443862
0.046508
0.0485967
0.0506457
0.0526484
0.0545988
0.0564909
0.058319
0.0600771
0.0617597
0.0633614
0.064877
0.0663022
0.0676328
0.0688648
0.0699947
0.0710193
0.0719359
0.0727423
0.0734368
0.0740186
0.0744871
0.0748424
0.0750852
0.0752168
0.0752389
0.0751544
0.0749665
0.0746791
0.0742967
0.0738242
0.0732672
0.0726319
0.0719251
0.0711538
0.0703255
0.0694477
0.0685281
0.0675745
0.066594
0.0655932
0.0645782
0.0635601
0.0625483
0.0614652
0.0602395
0.0109798
0.00952092
0.00825881
0.00710777
0.00597202
0.00486059
0.00378406
0.00274663
0.001753
0.000808757
-8.04018e-05
-0.000908801
-0.00167079
-0.0023608
-0.00297359
-0.00350432
-0.0039485
-0.00430205
-0.00456125
-0.00472284
-0.00478412
-0.0047429
-0.00459745
-0.00434653
-0.00398938
-0.00352567
-0.00295562
-0.00227997
-0.00149981
-0.000616641
0.000367625
0.00145077
0.00263023
0.00390301
0.00526574
0.00671491
0.00824671
0.00985698
0.0115413
0.013295
0.0151134
0.0169912
0.0189232
0.0209039
0.0229278
0.0249892
0.0270819
0.0291999
0.031337
0.033487
0.0356436
0.0378001
0.0399502
0.0420873
0.0442052
0.0462973
0.0483571
0.0503781
0.0523539
0.0542786
0.0561461
0.0579509
0.0596872
0.0613493
0.0629319
0.0644301
0.0658394
0.0671556
0.0683749
0.0694937
0.0705088
0.0714173
0.072217
0.0729062
0.073484
0.0739495
0.0743028
0.0745443
0.0746749
0.0746963
0.0746109
0.0744216
0.0741318
0.0737455
0.0732672
0.0727018
0.0720549
0.0713325
0.0705408
0.0696864
0.0687759
0.0678161
0.0668134
0.0657742
0.0647037
0.0636068
0.0624945
0.0613758
0.0601601
0.058765
0.0123353
0.0107081
0.00931349
0.00805506
0.00682397
0.0056292
0.00448137
0.00338346
0.00233908
0.00135271
0.000429018
-0.000427217
-0.00121121
-0.00191831
-0.00254417
-0.00308468
-0.00353599
-0.00389455
-0.0041572
-0.0043212
-0.00438434
-0.00434478
-0.00420108
-0.00395225
-0.00359776
-0.00313754
-0.00257201
-0.00190206
-0.00112885
-0.000253911
0.00072082
0.00179306
0.00296021
0.00421928
0.00556694
0.0069997
0.00851383
0.0101053
0.0117697
0.0135024
0.0152989
0.0171539
0.0190623
0.0210189
0.0230181
0.0250544
0.0271218
0.0292142
0.0313256
0.0334499
0.0355809
0.0377122
0.0398373
0.0419499
0.0440438
0.0461126
0.0481498
0.050149
0.052104
0.0540087
0.0558575
0.0576446
0.0593643
0.0610109
0.0625793
0.0640646
0.0654621
0.0667679
0.0679781
0.0690889
0.0700971
0.0709998
0.0717946
0.07248
0.0730545
0.0735174
0.0738684
0.0741077
0.0742361
0.0742549
0.0741661
0.0739723
0.0736765
0.0732823
0.0727935
0.0722147
0.0715507
0.0708068
0.0699887
0.069102
0.0681525
0.0671462
0.0660886
0.0649851
0.0638401
0.0626574
0.0614479
0.0602209
0.058873
0.0573118
0.0136457
0.0118535
0.0103272
0.00896066
0.0076324
0.00635138
0.00512844
0.00396569
0.00286573
0.00183218
0.000868855
-2.02601e-05
-0.000831242
-0.00156031
-0.00220384
-0.00275838
-0.00322063
-0.00358761
-0.00385673
-0.0040258
-0.00409295
-0.00405671
-0.00391594
-0.00366992
-0.00331839
-0.00286157
-0.00230006
-0.00163483
-0.000867143
1.39153e-06
0.000968753
0.00203262
0.00319034
0.0044389
0.005775
0.0071952
0.00869583
0.0102729
0.011922
0.0136386
0.0154182
0.0172558
0.0191462
0.0210842
0.0230646
0.0250818
0.0271298
0.0292027
0.0312946
0.0333995
0.0355113
0.0376236
0.0397301
0.0418246
0.0439007
0.0459524
0.0479732
0.0499566
0.0518967
0.0537874
0.055623
0.0573978
0.0591062
0.0607425
0.0623015
0.0637782
0.0651684
0.0664676
0.0676721
0.0687782
0.0697823
0.0706815
0.0714734
0.0721563
0.0727285
0.0731893
0.0735381
0.0737747
0.0738998
0.0739145
0.0738203
0.0736194
0.0733146
0.0729088
0.0724056
0.0718089
0.071123
0.0703527
0.0695028
0.0685785
0.0675847
0.0665266
0.0654091
0.0642368
0.0630133
0.0617416
0.060433
0.0590967
0.0576174
0.0558933
0.0148979
0.0129439
0.0112873
0.00981224
0.00838546
0.00701605
0.005715
0.00448383
0.00332432
0.00223939
0.00123218
0.000305854
-0.00053646
-0.00129171
-0.00195685
-0.00252901
-0.00300548
-0.00338387
-0.00366212
-0.00383848
-0.00391145
-0.00387988
-0.00374294
-0.00350025
-0.00315186
-0.00269819
-0.00213998
-0.00147836
-0.000714696
0.000149301
0.00111154
0.00216959
0.00332075
0.00456203
0.00589013
0.00730162
0.00879285
0.0103598
0.0119982
0.0137036
0.0154714
0.0172967
0.0191745
0.0210996
0.0230669
0.0250707
0.0271053
0.0291648
0.0312433
0.033335
0.0354338
0.0375334
0.0396275
0.04171
0.0437747
0.0458153
0.0478257
0.0497995
0.0517305
0.0536129
0.0554409
0.0572089
0.0589111
0.0605421
0.0620964
0.0635693
0.0649562
0.0662529
0.0674554
0.0685598
0.0695627
0.0704609
0.071252
0.071934
0.0725052
0.0729645
0.0733112
0.073545
0.0736662
0.0736754
0.0735741
0.0733641
0.0730475
0.0726271
0.072106
0.0714877
0.0707759
0.0699748
0.0690887
0.068122
0.0670793
0.065965
0.0647834
0.0635385
0.0622333
0.0608701
0.0594606
0.0580145
0.056405
0.054521
0.0160805
0.0139678
0.0121822
0.0105986
0.00907227
0.00761271
0.00623122
0.00492873
0.00370645
0.00256672
0.00151199
0.0005447
-0.00033266
-0.00111762
-0.0018077
-0.00240056
-0.00289409
-0.00328646
-0.00357608
-0.00376157
-0.00384177
-0.0038159
-0.00368349
-0.00344448
-0.00309915
-0.00264815
-0.0020924
-0.00143314
-0.000671873
0.000189547
0.00114892
0.00220377
0.00335134
0.0045886
0.00591225
0.00731887
0.0088048
0.0103661
0.0119984
0.0136973
0.0154582
0.0172764
0.019147
0.0210648
0.0230246
0.0250208
0.0270478
0.0290998
0.0311711
0.0332556
0.0353475
0.0374406
0.0395285
0.0416051
0.0436644
0.0457001
0.0477061
0.0496761
0.051604
0.0534838
0.0553098
0.0570763
0.0587776
0.0604082
0.0619627
0.0634362
0.0648242
0.0661224
0.0673265
0.0684326
0.0694372
0.070337
0.0711294
0.0718122
0.0723838
0.0728426
0.0731877
0.0734187
0.0735355
0.0735385
0.0734288
0.0732077
0.0728773
0.0724398
0.0718979
0.0712547
0.0705134
0.0696778
0.0687516
0.0677387
0.0666431
0.0654687
0.0642195
0.0628987
0.061509
0.0600523
0.0585407
0.0569844
0.0552457
0.0532043
0.0171831
0.0149146
0.0130013
0.0113092
0.0096827
0.0081316
0.00666777
0.00529166
0.00400399
0.00280654
0.00170117
0.000689764
-0.000225742
-0.00104337
-0.00176116
-0.00237735
-0.00289039
-0.0032989
-0.00360168
-0.00379771
-0.00388626
-0.00386687
-0.00373944
-0.00350419
-0.00316168
-0.00271268
-0.00215833
-0.00150003
-0.000739444
0.000121432
0.00108032
0.00213466
0.00328164
0.00451819
0.00584098
0.00724659
0.00873132
0.0102912
0.0119219
0.0136191
0.0153782
0.0171946
0.0190632
0.0209791
0.022937
0.0249314
0.0269566
0.0290071
0.031077
0.0331605
0.0352516
0.0373441
0.0394319
0.0415088
0.0435687
0.0456056
0.0476133
0.0495854
0.0515158
0.0533987
0.0552282
0.0569987
0.0587043
0.0603395
0.061899
0.0633778
0.0647712
0.0660748
0.0672842
0.0683955
0.0694049
0.070309
0.0711051
0.0717907
0.0723641
0.0728235
0.0731679
0.0733964
0.0735087
0.073505
0.0733858
0.0731524
0.0728063
0.0723496
0.0717845
0.0711136
0.07034
0.0694666
0.0684969
0.0674344
0.0662825
0.0650448
0.0637248
0.0623254
0.0608489
0.0592969
0.0576821
0.0560154
0.0541483
0.0519519
0.0181968
0.0157746
0.0137348
0.0119343
0.0102071
0.00856347
0.00701577
0.00556415
0.00420889
0.00295125
0.00179263
0.000734468
-0.000221724
-0.00107446
-0.00182235
-0.00246411
-0.00299863
-0.00342499
-0.00374233
-0.00395001
-0.00404769
-0.0040353
-0.00391307
-0.00368145
-0.0033412
-0.00289334
-0.00233917
-0.00168032
-0.000918585
-5.6088e-05
0.00090479
0.0019614
0.00311085
0.00435003
0.00567559
0.00708405
0.00857167
0.0101344
0.0117682
0.0134684
0.0152307
0.0170503
0.0189223
0.0208417
0.0228032
0.0248014
0.0268307
0.0288855
0.03096
0.0330484
0.0351447
0.0372428
0.0393365
0.0414198
0.0434865
0.0455305
0.0475457
0.0495258
0.0514647
0.0533564
0.055195
0.0569747
0.0586899
0.0603349
0.0619042
0.0633929
0.0647961
0.0661092
0.0673279
0.0684478
0.0694651
0.0703764
0.0711787
0.0718693
0.0724463
0.0729078
0.0732524
0.073479
0.073587
0.0735762
0.073447
0.0732002
0.0728372
0.0723596
0.0717693
0.0710686
0.07026
0.0693462
0.0683302
0.0672151
0.066004
0.0647002
0.0633066
0.0618262
0.0602608
0.058612
0.0568931
0.0551156
0.0531208
0.0507712
0.0191133
0.0165392
0.0143736
0.012465
0.0106366
0.00889951
0.0072667
0.00573799
0.00431321
0.00299329
0.00177929
0.00067225
-0.000326758
-0.00121668
-0.00199661
-0.00266575
-0.00322336
-0.00366886
-0.00400178
-0.00422191
-0.00432928
-0.00432416
-0.00420704
-0.00397863
-0.00363989
-0.00319211
-0.00263679
-0.00197571
-0.00121085
-0.000344462
0.000620968
0.0016827
0.00283777
0.004083
0.00541497
0.00683015
0.00832477
0.00989482
0.0115361
0.0132442
0.0150146
0.0168425
0.0187232
0.0206514
0.022622
0.0246297
0.0266688
0.0287337
0.0308187
0.032918
0.0350256
0.0371353
0.039241
0.0413366
0.0434161
0.0454734
0.0475021
0.0494962
0.0514493
0.0533555
0.0552087
0.0570032
0.0587332
0.0603931
0.0619772
0.0634805
0.064898
0.0662249
0.0674567
0.0685889
0.0696176
0.0705391
0.0713502
0.0720482
0.0726309
0.073096
0.0734421
0.0736677
0.073772
0.0737543
0.0736148
0.0733541
0.0729732
0.0724734
0.0718564
0.071124
0.0702783
0.0693218
0.0682571
0.0670868
0.065814
0.0644415
0.0629721
0.0614085
0.0597524
0.0580053
0.0561814
0.0542928
0.0521707
0.0496689
0.0199251
0.0172002
0.0149094
0.0128925
0.0109626
0.00913136
0.00741231
0.00580505
0.00430915
0.00292526
0.00165411
0.000496423
-0.00054712
-0.00147595
-0.00228954
-0.00298746
-0.00356933
-0.0040349
-0.00438416
-0.00461728
-0.00473462
-0.00473674
-0.00462438
-0.00439851
-0.00406036
-0.00361142
-0.00305341
-0.0023883
-0.00161821
-0.00074554
0.000227124
0.00129694
0.00246083
0.00371555
0.00505762
0.00648344
0.0079892
0.0095709
0.0112243
0.012945
0.0147284
0.0165698
0.0184642
0.0204067
0.022392
0.0244147
0.0264693
0.0285502
0.0306516
0.0327677
0.0348925
0.0370198
0.0391436
0.0412577
0.0433561
0.0454326
0.0474809
0.0494948
0.0514681
0.0533945
0.055268
0.0570829
0.0588331
0.060513
0.062117
0.0636397
0.0650761
0.0664211
0.0676701
0.0688185
0.0698621
0.0707971
0.07162
0.0723281
0.0729186
0.0733894
0.0737386
0.0739644
0.0740656
0.0740415
0.0738918
0.073617
0.0732177
0.0726949
0.0720499
0.0712843
0.0703999
0.0693988
0.0682833
0.0670558
0.065719
0.0642756
0.0627282
0.0610796
0.0593312
0.0574845
0.0555545
0.0535543
0.0513048
0.0486514
0.020625
0.01775
0.0153343
0.013209
0.0111771
0.00925084
0.00744452
0.00575749
0.00418908
0.00273979
0.00141007
0.000200287
-0.000889267
-0.00185837
-0.00270686
-0.00343459
-0.00404154
-0.00452788
-0.00489398
-0.00514033
-0.00526762
-0.00527667
-0.00516848
-0.00494429
-0.00460557
-0.00415406
-0.00359168
-0.00292057
-0.002143
-0.00126152
-0.000278831
0.000802101
0.0019781
0.00324582
0.00460173
0.00604216
0.00756326
0.00916099
0.0108311
0.0125691
0.0143705
0.0162303
0.0181438
0.0201059
0.0221113
0.0241547
0.0262305
0.0283332
0.0304569
0.0325957
0.0347437
0.0368948
0.0390427
0.0411814
0.0433048
0.0454065
0.0474805
0.0495203
0.0515195
0.053472
0.0553716
0.0572123
0.0589883
0.0606937
0.0623226
0.0638697
0.0653297
0.0666973
0.0679678
0.0691365
0.0701988
0.0711507
0.0719887
0.0727096
0.0733107
0.0737894
0.0741434
0.0743709
0.0744703
0.0744406
0.0742813
0.0739924
0.0735745
0.0730281
0.0723544
0.0715545
0.0706301
0.0695828
0.0684148
0.0671282
0.0657255
0.0642093
0.0625822
0.0608467
0.0590044
0.0570567
0.0550196
0.0529069
0.0505295
0.0477244
0.0212063
0.0181814
0.0156406
0.0134066
0.0112721
0.00924999
0.00735537
0.00558749
0.00394547
0.0024296
0.0010401
-0.000223012
-0.00135976
-0.00237021
-0.00325446
-0.00401272
-0.00464535
-0.00515288
-0.00553603
-0.00579559
-0.00593252
-0.00594793
-0.00584307
-0.00561948
-0.00527886
-0.00482319
-0.00425457
-0.0035753
-0.00278785
-0.0018949
-0.00089929
0.0001959
0.00138737
0.00267169
0.00404526
0.00550434
0.00704502
0.00866322
0.0103547
0.0121148
0.013939
0.0158225
0.0177602
0.0197472
0.0217783
0.023848
0.0259507
0.0280809
0.0302328
0.0324003
0.0345776
0.0367584
0.0389366
0.041106
0.0432604
0.0453937
0.0474993
0.049571
0.0516022
0.0535867
0.0555181
0.0573906
0.0591979
0.0609341
0.0625933
0.0641699
0.0656583
0.0670534
0.0683499
0.0695429
0.0706279
0.0716006
0.0724571
0.0731941
0.0738085
0.0742975
0.0746586
0.0748897
0.0749887
0.0749545
0.0747864
0.074484
0.0740476
0.0734775
0.0727745
0.0719396
0.0709741
0.0698794
0.0686575
0.0673102
0.0658401
0.0642494
0.0625408
0.0607168
0.058779
0.0567289
0.0545833
0.052357
0.0498509
0.0468931
0.0216626
0.0184874
0.0158211
0.0134777
0.0112397
0.009121
0.00713717
0.00528746
0.00357085
0.00198737
0.000537029
-0.000780413
-0.00196525
-0.00301779
-0.00393843
-0.00472771
-0.00538635
-0.00591525
-0.00631537
-0.00658783
-0.00673383
-0.00675477
-0.00665221
-0.00642793
-0.00608389
-0.00562225
-0.00504532
-0.0043556
-0.0035557
-0.00264849
-0.00163693
-0.000524221
0.000686205
0.00199082
0.00338595
0.0048678
0.00643238
0.00807556
0.00979298
0.0115801
0.0134321
0.0153442
0.0173115
0.0193289
0.0213911
0.0234927
0.0256281
0.0277917
0.0299776
0.0321799
0.0343924
0.0366091
0.0388237
0.04103
0.0432217
0.0453925
0.047536
0.0496457
0.0517149
0.0537373
0.0557066
0.0576165
0.0594609
0.0612336
0.0629285
0.0645398
0.0660618
0.0674891
0.0688163
0.0700383
0.0711502
0.0721476
0.0730263
0.0737828
0.0744136
0.0749158
0.0752865
0.0755232
0.0756237
0.0755866
0.0754107
0.0750956
0.0746411
0.0740474
0.0733151
0.0724447
0.0714373
0.0702943
0.0690173
0.0676082
0.066069
0.0644024
0.0626107
0.0606966
0.0586616
0.0565076
0.054252
0.0519107
0.0492743
0.0461625
0.0219874
0.0186612
0.0158684
0.0134148
0.0110726
0.00885626
0.00678233
0.0048499
0.00305775
0.00140574
-0.00010634
-0.00147892
-0.00271249
-0.00380764
-0.00476506
-0.00558563
-0.00627041
-0.00682055
-0.00723731
-0.00752207
-0.00767634
-0.00770178
-0.00760027
-0.0073738
-0.00702458
-0.00655496
-0.00596748
-0.00526481
-0.00444977
-0.00352534
-0.00249466
-0.00136106
-0.00012809
0.00120063
0.00262135
0.00413018
0.00572306
0.00739577
0.00914389
0.0109628
0.0128476
0.0147936
0.0167958
0.018849
0.0209479
0.0230871
0.025261
0.0274638
0.0296897
0.0319327
0.0341866
0.0364453
0.0387025
0.0409518
0.0431871
0.0454017
0.0475893
0.0497431
0.0518565
0.053923
0.0559361
0.0578895
0.0597768
0.0615916
0.0633278
0.0649792
0.0665401
0.0680047
0.0693675
0.0706231
0.0717664
0.0727927
0.0736976
0.0744773
0.075128
0.0756465
0.0760295
0.0762743
0.0763784
0.07634
0.0761579
0.0758312
0.0753594
0.0747426
0.073981
0.073075
0.0720254
0.0708334
0.0695004
0.0680282
0.0664188
0.0646747
0.0627984
0.0607926
0.0586588
0.056399
0.0540318
0.0515736
0.048805
0.0455371
0.0221743
0.0186957
0.0157754
0.0132105
0.0107631
0.00844826
0.0062833
0.00426722
0.00239863
0.00067725
-0.0008973
-0.0023256
-0.00360837
-0.00474645
-0.00574087
-0.00659281
-0.00730357
-0.00787457
-0.00830736
-0.0086036
-0.00876508
-0.00879379
-0.00869184
-0.00846147
-0.00810509
-0.0076253
-0.00702484
-0.00630657
-0.00547349
-0.00452877
-0.00347566
-0.00231766
-0.00105841
0.000298344
0.00174879
0.00328892
0.00491456
0.00662142
0.00840502
0.0102606
0.0121835
0.0141686
0.016211
0.0183055
0.0204468
0.0226292
0.0248473
0.0270953
0.0293672
0.031657
0.0339584
0.0362653
0.0385713
0.0408701
0.0431551
0.0454199
0.0476577
0.0498619
0.0520257
0.0541425
0.0562056
0.0582085
0.0601447
0.0620076
0.0637908
0.065488
0.0670932
0.0686004
0.0700039
0.0712981
0.0724775
0.0735373
0.0744727
0.0752795
0.0759538
0.0764918
0.0768902
0.0771458
0.077256
0.0772185
0.0770319
0.076695
0.0762071
0.075568
0.0747775
0.073836
0.072744
0.0715025
0.0701128
0.0685766
0.0668959
0.065073
0.0631105
0.0610113
0.0587769
0.0564094
0.0539284
0.0513513
0.0484483
0.0450216
0.022217
0.0185843
0.0155351
0.0128577
0.0103039
0.00788947
0.00563247
0.00353175
0.00158584
-0.000205647
-0.00184324
-0.0033277
-0.00465997
-0.00584118
-0.00687263
-0.00775575
-0.00849209
-0.00908332
-0.00953129
-0.00983795
-0.0100054
-0.0100359
-0.00993182
-0.0096956
-0.0093299
-0.00883755
-0.0082215
-0.00748481
-0.00663065
-0.00566239
-0.00458342
-0.00339735
-0.00210797
-0.000719107
0.000765293
0.00234111
0.00400406
0.00574977
0.00757372
0.00947113
0.0114371
0.0134666
0.0155547
0.0176961
0.0198853
0.0221169
0.0243851
0.0266842
0.0290081
0.0313508
0.033706
0.0360673
0.0384285
0.040783
0.0431241
0.0454454
0.0477399
0.0500008
0.0522214
0.0543948
0.0565141
0.0585728
0.0605639
0.0624809
0.0643171
0.066066
0.0677212
0.0692767
0.0707263
0.0720642
0.0732848
0.0743827
0.0753531
0.0761914
0.0768932
0.0774546
0.0778717
0.0781412
0.0782601
0.078226
0.078037
0.0776917
0.0771892
0.0765287
0.0757101
0.0747335
0.0735991
0.072308
0.0708611
0.0692601
0.067507
0.065604
0.0635538
0.0613594
0.0590224
0.0565451
0.053948
0.0512497
0.0482095
0.0446209
0.0221091
0.0183201
0.0151403
0.012349
0.00968747
0.00717222
0.00482203
0.00263571
0.000611656
-0.00125059
-0.0029517
-0.00449265
-0.00587463
-0.00709901
-0.00816732
-0.0090812
-0.00984245
-0.0104531
-0.0109152
-0.011231
-0.011403
-0.0114336
-0.0113254
-0.0110812
-0.0107038
-0.0101963
-0.00956192
-0.0088038
-0.00792539
-0.00693019
-0.00582175
-0.00460381
-0.0032803
-0.00185518
-0.000332507
0.00128347
0.00298836
0.00477773
0.00664699
0.00859128
0.0106056
0.0126849
0.0148242
0.017018
0.019261
0.0215475
0.0238717
0.0262279
0.02861
0.0310118
0.033427
0.0358491
0.0382718
0.0406884
0.0430922
0.0454763
0.047834
0.0501582
0.052442
0.0546785
0.0568605
0.0589813
0.0610338
0.0630112
0.0649065
0.0667131
0.0684243
0.0700338
0.0715351
0.0729223
0.0741893
0.0753306
0.0763408