/*--------------------------------*- C++ -*----------------------------------*\
| =========                 |                                                 |
| \\      /  F ield         | OpenFOAM: The Open Source CFD Toolbox           |
|  \\    /   O peration     | Version:  2212                                  |
|   \\  /    A nd           | Website:  www.openfoam.com                      |
|    \\/     M anipulation  |                                                 |
\*---------------------------------------------------------------------------*/
FoamFile
{
    version     2.0;
    format      ascii;
    arch        "LSB;label=32;scalar=64";
    class       volVectorField;
    location    "0.0395";
    object      U;
}
// * * * * * * * * * * * * * * * * * * * * * * * * * * * * * * * * * * * * * //

dimensions      [0 1 -1 0 0 0 0];

internalField   nonuniform List<vector> 
10000
(
(2.21888e-06 -3.2869e-06 0)
(1.31797e-05 -7.34939e-06 0)
(2.89431e-05 -7.63269e-06 0)
(4.34397e-05 -6.25871e-06 0)
(5.1731e-05 -3.89104e-06 0)
(5.23206e-05 -1.07474e-06 0)
(4.42441e-05 1.90699e-06 0)
(2.71169e-05 4.89548e-06 0)
(9.2271e-07 7.79646e-06 0)
(-3.41134e-05 1.05596e-05 0)
(-7.76287e-05 1.31582e-05 0)
(-0.000129168 1.55766e-05 0)
(-0.000188209 1.78046e-05 0)
(-0.000254192 1.98365e-05 0)
(-0.000326533 2.16729e-05 0)
(-0.000404639 2.33194e-05 0)
(-0.000487909 2.478e-05 0)
(-0.000575746 2.60565e-05 0)
(-0.000667553 2.71528e-05 0)
(-0.000762747 2.80723e-05 0)
(-0.000860752 2.88193e-05 0)
(-0.000961009 2.94011e-05 0)
(-0.00106297 2.98224e-05 0)
(-0.00116611 3.00885e-05 0)
(-0.0012699 3.02071e-05 0)
(-0.00137386 3.01826e-05 0)
(-0.00147751 3.002e-05 0)
(-0.00158039 2.97267e-05 0)
(-0.00168206 2.93089e-05 0)
(-0.0017821 2.87707e-05 0)
(-0.0018801 2.8118e-05 0)
(-0.00197568 2.7357e-05 0)
(-0.00206847 2.64928e-05 0)
(-0.00215813 2.55317e-05 0)
(-0.00224432 2.44795e-05 0)
(-0.00232675 2.33407e-05 0)
(-0.00240511 2.21199e-05 0)
(-0.00247914 2.0823e-05 0)
(-0.00254858 1.94562e-05 0)
(-0.00261318 1.80239e-05 0)
(-0.00267274 1.65303e-05 0)
(-0.00272705 1.49809e-05 0)
(-0.00277593 1.33823e-05 0)
(-0.00281921 1.17393e-05 0)
(-0.00285675 1.00559e-05 0)
(-0.00288841 8.33665e-06 0)
(-0.00291408 6.58722e-06 0)
(-0.00293367 4.81394e-06 0)
(-0.00294711 3.02216e-06 0)
(-0.00295434 1.21628e-06 0)
(-0.00295532 -5.98403e-07 0)
(-0.00295003 -2.41572e-06 0)
(-0.00293848 -4.22955e-06 0)
(-0.0029207 -6.03403e-06 0)
(-0.00289671 -7.824e-06 0)
(-0.00286659 -9.59432e-06 0)
(-0.00283041 -1.13387e-05 0)
(-0.00278829 -1.30504e-05 0)
(-0.00274034 -1.47229e-05 0)
(-0.00268671 -1.63498e-05 0)
(-0.00262758 -1.79249e-05 0)
(-0.00256313 -1.94425e-05 0)
(-0.00249358 -2.08959e-05 0)
(-0.00241917 -2.22778e-05 0)
(-0.00234015 -2.35815e-05 0)
(-0.00225682 -2.48e-05 0)
(-0.00216946 -2.59266e-05 0)
(-0.00207842 -2.69549e-05 0)
(-0.00198404 -2.78786e-05 0)
(-0.0018867 -2.86907e-05 0)
(-0.0017868 -2.93841e-05 0)
(-0.00168474 -2.99523e-05 0)
(-0.00158098 -3.03888e-05 0)
(-0.00147597 -3.06874e-05 0)
(-0.0013702 -3.08419e-05 0)
(-0.00126416 -3.08465e-05 0)
(-0.00115837 -3.06948e-05 0)
(-0.00105337 -3.03809e-05 0)
(-0.000949714 -2.98995e-05 0)
(-0.000847969 -2.92462e-05 0)
(-0.000748716 -2.84168e-05 0)
(-0.000652542 -2.74076e-05 0)
(-0.000560045 -2.62151e-05 0)
(-0.000471828 -2.4837e-05 0)
(-0.000388496 -2.32715e-05 0)
(-0.000310652 -2.15174e-05 0)
(-0.00023889 -1.95749e-05 0)
(-0.000173792 -1.74458e-05 0)
(-0.000115917 -1.51341e-05 0)
(-6.57915e-05 -1.26472e-05 0)
(-2.38909e-05 -9.99708e-06 0)
(9.38171e-06 -7.20414e-06 0)
(3.37297e-05 -4.3016e-06 0)
(4.90159e-05 -1.34578e-06 0)
(5.53487e-05 1.56514e-06 0)
(5.3217e-05 4.25855e-06 0)
(4.36832e-05 6.42983e-06 0)
(2.87916e-05 7.52584e-06 0)
(1.27751e-05 6.58143e-06 0)
(2.60936e-06 2.60952e-06 0)
(5.9092e-06 -1.2845e-05 0)
(2.53289e-05 -2.69624e-05 0)
(5.07589e-05 -2.71086e-05 0)
(6.92976e-05 -1.91314e-05 0)
(7.30386e-05 -6.16105e-06 0)
(5.76722e-05 9.57969e-06 0)
(2.05785e-05 2.66811e-05 0)
(-3.95965e-05 4.42395e-05 0)
(-0.000123262 6.16692e-05 0)
(-0.00023018 7.85886e-05 0)
(-0.000359661 9.47452e-05 0)
(-0.000510693 0.000109978 0)
(-0.000682044 0.000124176 0)
(-0.000872326 0.00013727 0)
(-0.00108005 0.000149216 0)
(-0.00130367 0.000159994 0)
(-0.00154159 0.000169599 0)
(-0.00179219 0.000178034 0)
(-0.00205387 0.00018531 0)
(-0.00232502 0.000191444 0)
(-0.00260406 0.000196457 0)
(-0.00288944 0.000200377 0)
(-0.00317962 0.000203233 0)
(-0.00347314 0.000205058 0)
(-0.00376855 0.000205884 0)
(-0.00406444 0.000205748 0)
(-0.00435948 0.000204685 0)
(-0.00465236 0.000202731 0)
(-0.00494183 0.000199921 0)
(-0.00522668 0.000196292 0)
(-0.00550578 0.000191882 0)
(-0.00577801 0.000186727 0)
(-0.00604234 0.000180865 0)
(-0.00629777 0.000174332 0)
(-0.00654337 0.000167166 0)
(-0.00677824 0.000159404 0)
(-0.00700154 0.00015108 0)
(-0.00721249 0.000142232 0)
(-0.00741037 0.000132894 0)
(-0.00759448 0.000123102 0)
(-0.0077642 0.000112892 0)
(-0.00791895 0.0001023 0)
(-0.0080582 9.13621e-05 0)
(-0.00818149 8.01143e-05 0)
(-0.00828837 6.85907e-05 0)
(-0.0083785 5.68272e-05 0)
(-0.00845154 4.48605e-05 0)
(-0.00850724 3.27277e-05 0)
(-0.00854538 2.04662e-05 0)
(-0.0085658 8.11254e-06 0)
(-0.00856841 -4.29481e-06 0)
(-0.00855315 -1.67162e-05 0)
(-0.00852003 -2.91128e-05 0)
(-0.00846913 -4.14453e-05 0)
(-0.00840056 -5.3674e-05 0)
(-0.00831451 -6.57587e-05 0)
(-0.00821123 -7.76573e-05 0)
(-0.008091 -8.93264e-05 0)
(-0.00795421 -0.000100723 0)
(-0.00780126 -0.000111805 0)
(-0.00763266 -0.000122529 0)
(-0.00744895 -0.000132849 0)
(-0.00725076 -0.000142721 0)
(-0.00703875 -0.0001521 0)
(-0.00681369 -0.00016094 0)
(-0.00657637 -0.000169195 0)
(-0.00632767 -0.000176822 0)
(-0.00606854 -0.000183773 0)
(-0.00579996 -0.000190005 0)
(-0.00552302 -0.000195474 0)
(-0.00523884 -0.000200135 0)
(-0.00494861 -0.000203944 0)
(-0.00465356 -0.000206862 0)
(-0.00435502 -0.000208847 0)
(-0.00405433 -0.000209862 0)
(-0.0037529 -0.000209867 0)
(-0.00345221 -0.000208828 0)
(-0.00315374 -0.000206712 0)
(-0.00285905 -0.000203489 0)
(-0.00256972 -0.000199135 0)
(-0.00228734 -0.000193628 0)
(-0.00201355 -0.000186951 0)
(-0.00174998 -0.000179092 0)
(-0.0014983 -0.000170047 0)
(-0.00126013 -0.000159817 0)
(-0.00103708 -0.000148416 0)
(-0.000830747 -0.000135867 0)
(-0.000642629 -0.00012221 0)
(-0.000474153 -0.000107506 0)
(-0.000326614 -9.18435e-05 0)
(-0.00020113 -7.53528e-05 0)
(-9.8568e-05 -5.82217e-05 0)
(-1.94542e-05 -4.07237e-05 0)
(3.61671e-05 -2.32646e-05 0)
(6.89306e-05 -6.45622e-06 0)
(8.0425e-05 8.76763e-06 0)
(7.35132e-05 2.09761e-05 0)
(5.28473e-05 2.79677e-05 0)
(2.64672e-05 2.64624e-05 0)
(6.57482e-06 1.27643e-05 0)
(7.17092e-06 -2.84746e-05 0)
(2.66403e-05 -5.16165e-05 0)
(4.71904e-05 -4.75724e-05 0)
(5.44776e-05 -2.51836e-05 0)
(3.88512e-05 9.02245e-06 0)
(-5.43917e-06 5.04005e-05 0)
(-8.20787e-05 9.56936e-05 0)
(-0.000193151 0.000142647 0)
(-0.000339473 0.000189697 0)
(-0.000520907 0.000235748 0)
(-0.000736619 0.000280043 0)
(-0.000985265 0.000322057 0)
(-0.00126512 0.000361422 0)
(-0.00157418 0.00039789 0)
(-0.00191025 0.000431294 0)
(-0.00227102 0.000461535 0)
(-0.00265408 0.00048856 0)
(-0.00305695 0.000512351 0)
(-0.00347718 0.000532918 0)
(-0.00391226 0.000550292 0)
(-0.00435974 0.000564524 0)
(-0.00481719 0.000575674 0)
(-0.00528222 0.000583813 0)
(-0.00575249 0.000589025 0)
(-0.00622572 0.000591397 0)
(-0.0066997 0.000591022 0)
(-0.00717229 0.000587995 0)
(-0.00764142 0.000582418 0)
(-0.00810508 0.000574387 0)
(-0.00856136 0.000564005 0)
(-0.00900844 0.000551377 0)
(-0.00944454 0.000536606 0)
(-0.00986799 0.000519797 0)
(-0.0102772 0.000501054 0)
(-0.0106707 0.000480483 0)
(-0.011047 0.000458189 0)
(-0.0114047 0.000434274 0)
(-0.0117427 0.000408843 0)
(-0.0120597 0.000381999 0)
(-0.0123547 0.000353844 0)
(-0.0126266 0.000324482 0)
(-0.0128745 0.000294015 0)
(-0.0130975 0.000262549 0)
(-0.013295 0.000230187 0)
(-0.0134661 0.000197033 0)
(-0.0136104 0.00016319 0)
(-0.0137273 0.000128763 0)
(-0.0138164 9.38606e-05 0)
(-0.0138773 5.85887e-05 0)
(-0.0139098 2.30568e-05 0)
(-0.0139138 -1.26246e-05 0)
(-0.0138891 -4.83431e-05 0)
(-0.0138359 -8.39856e-05 0)
(-0.0137541 -0.000119439 0)
(-0.013644 -0.000154586 0)
(-0.0135059 -0.00018931 0)
(-0.0133403 -0.000223489 0)
(-0.0131475 -0.000257001 0)
(-0.0129282 -0.000289724 0)
(-0.012683 -0.000321533 0)
(-0.0124128 -0.000352302 0)
(-0.0121185 -0.000381903 0)
(-0.011801 -0.000410208 0)
(-0.0114614 -0.000437088 0)
(-0.011101 -0.000462413 0)
(-0.010721 -0.000486054 0)
(-0.0103228 -0.000507882 0)
(-0.00990793 -0.000527768 0)
(-0.00947803 -0.000545587 0)
(-0.00903478 -0.000561211 0)
(-0.00857997 -0.00057452 0)
(-0.00811551 -0.000585391 0)
(-0.00764338 -0.000593711 0)
(-0.00716566 -0.000599366 0)
(-0.0066845 -0.00060225 0)
(-0.00620214 -0.000602263 0)
(-0.00572088 -0.00059931 0)
(-0.00524311 -0.000593306 0)
(-0.00477125 -0.000584174 0)
(-0.00430778 -0.000571853 0)
(-0.00385522 -0.00055629 0)
(-0.0034161 -0.00053745 0)
(-0.00299298 -0.000515314 0)
(-0.0025884 -0.000489885 0)
(-0.00220488 -0.000461191 0)
(-0.00184489 -0.000429291 0)
(-0.00151081 -0.000394286 0)
(-0.00120489 -0.000356321 0)
(-0.00092924 -0.000315613 0)
(-0.000685715 -0.00027246 0)
(-0.000475872 -0.000227284 0)
(-0.000300855 -0.000180665 0)
(-0.000161256 -0.000133418 0)
(-5.69372e-05 -8.66837e-05 0)
(1.32161e-05 -4.20776e-05 0)
(5.16075e-05 -1.8939e-06 0)
(6.22419e-05 3.06151e-05 0)
(5.11658e-05 5.09125e-05 0)
(2.80868e-05 5.2869e-05 0)
(7.53727e-06 2.87852e-05 0)
(6.07834e-06 -4.23056e-05 0)
(1.93413e-05 -7.00116e-05 0)
(2.58996e-05 -5.49047e-05 0)
(1.14255e-05 -1.03548e-05 0)
(-3.40547e-05 5.38798e-05 0)
(-0.000116915 0.000130587 0)
(-0.000241363 0.000214472 0)
(-0.00040987 0.000301689 0)
(-0.000623494 0.000389448 0)
(-0.000882172 0.000475726 0)
(-0.00118498 0.000559057 0)
(-0.00153032 0.000638386 0)
(-0.00191612 0.000712961 0)
(-0.0023399 0.000782247 0)
(-0.00279892 0.000845876 0)
(-0.00329023 0.000903611 0)
(-0.00381075 0.000955304 0)
(-0.0043573 0.00100089 0)
(-0.00492667 0.00104035 0)
(-0.0055156 0.00107373 0)
(-0.00612088 0.0011011 0)
(-0.00673929 0.00112256 0)
(-0.00736769 0.00113823 0)
(-0.00800296 0.00114825 0)
(-0.00864208 0.00115278 0)
(-0.00928211 0.001152 0)
(-0.00992017 0.00114608 0)
(-0.0105535 0.0011352 0)
(-0.0111794 0.00111956 0)
(-0.0117953 0.00109935 0)
(-0.0123988 0.00107476 0)
(-0.0129875 0.00104599 0)
(-0.0135591 0.00101325 0)
(-0.0141114 0.000976743 0)
(-0.0146425 0.00093666 0)
(-0.0151504 0.000893209 0)
(-0.0156333 0.000846592 0)
(-0.0160895 0.000797011 0)
(-0.0165174 0.000744669 0)
(-0.0169155 0.000689765 0)
(-0.0172824 0.000632502 0)
(-0.0176169 0.000573082 0)
(-0.0179179 0.000511708 0)
(-0.0181843 0.000448583 0)
(-0.0184152 0.000383912 0)
(-0.0186097 0.0003179 0)
(-0.0187673 0.000250752 0)
(-0.0188874 0.000182678 0)
(-0.0189694 0.000113888 0)
(-0.0190131 4.45958e-05 0)
(-0.0190182 -2.4981e-05 0)
(-0.0189847 -9.46247e-05 0)
(-0.0189125 -0.000164114 0)
(-0.0188019 -0.000233225 0)
(-0.0186532 -0.000301731 0)
(-0.0184666 -0.000369399 0)
(-0.0182428 -0.000435994 0)
(-0.0179824 -0.000501281 0)
(-0.0176863 -0.000565018 0)
(-0.0173554 -0.000626963 0)
(-0.0169906 -0.00068687 0)
(-0.0165934 -0.000744491 0)
(-0.0161649 -0.000799578 0)
(-0.0157067 -0.000851879 0)
(-0.0152203 -0.000901143 0)
(-0.0147077 -0.000947121 0)
(-0.0141705 -0.000989564 0)
(-0.013611 -0.00102822 0)
(-0.0130311 -0.00106286 0)
(-0.0124333 -0.00109322 0)
(-0.0118199 -0.00111908 0)
(-0.0111934 -0.00114021 0)
(-0.0105566 -0.00115639 0)
(-0.00991225 -0.00116741 0)
(-0.00926317 -0.00117306 0)
(-0.00861237 -0.00117316 0)
(-0.00796293 -0.00116753 0)
(-0.007318 -0.00115603 0)
(-0.0066808 -0.00113851 0)
(-0.00605462 -0.00111487 0)
(-0.00544277 -0.00108503 0)
(-0.00484859 -0.00104892 0)
(-0.00427544 -0.00100654 0)
(-0.00372662 -0.00095791 0)
(-0.00320541 -0.00090312 0)
(-0.00271499 -0.000842313 0)
(-0.0022584 -0.000775716 0)
(-0.00183852 -0.000703659 0)
(-0.00145797 -0.000626599 0)
(-0.00111904 -0.000545164 0)
(-0.000823619 -0.000460201 0)
(-0.000573034 -0.000372862 0)
(-0.000367913 -0.000284698 0)
(-0.000207985 -0.000197818 0)
(-9.18299e-05 -0.00011508 0)
(-1.65887e-05 -4.03743e-05 0)
(2.23224e-05 2.10327e-05 0)
(3.15928e-05 6.21363e-05 0)
(2.13995e-05 7.38022e-05 0)
(6.50035e-06 4.37842e-05 0)
(3.94528e-06 -5.1043e-05 0)
(7.04587e-06 -7.44166e-05 0)
(-7.0409e-06 -3.99823e-05 0)
(-5.09404e-05 3.48552e-05 0)
(-0.000134046 0.000137334 0)
(-0.000262806 0.000257797 0)
(-0.000441524 0.000388934 0)
(-0.000672765 0.000525258 0)
(-0.000957638 0.000662665 0)
(-0.00129606 0.000798084 0)
(-0.001687 0.000929228 0)
(-0.00212866 0.0010544 0)
(-0.00261865 0.00117234 0)
(-0.00315411 0.00128217 0)
(-0.00373186 0.00138322 0)
(-0.00434843 0.00147507 0)
(-0.00500016 0.00155744 0)
(-0.00568329 0.00163016 0)
(-0.00639394 0.00169319 0)
(-0.00712824 0.00174654 0)
(-0.00788227 0.0017903 0)
(-0.00865214 0.0018246 0)
(-0.00943403 0.00184963 0)
(-0.0102242 0.00186559 0)
(-0.0110188 0.00187273 0)
(-0.0118144 0.00187128 0)
(-0.0126073 0.00186155 0)
(-0.0133943 0.0018438 0)
(-0.0141719 0.00181835 0)
(-0.0149371 0.00178549 0)
(-0.0156867 0.00174554 0)
(-0.0164179 0.00169881 0)
(-0.0171279 0.00164564 0)
(-0.0178139 0.00158634 0)
(-0.0184735 0.00152124 0)
(-0.0191042 0.00145067 0)
(-0.0197039 0.00137495 0)
(-0.0202704 0.0012944 0)
(-0.0208017 0.00120937 0)
(-0.0212961 0.00112017 0)
(-0.0217517 0.00102713 0)
(-0.022167 0.000930587 0)
(-0.0225406 0.000830867 0)
(-0.0228713 0.0007283 0)
(-0.0231578 0.000623222 0)
(-0.0233993 0.000515965 0)
(-0.0235948 0.000406867 0)
(-0.0237437 0.00029627 0)
(-0.0238453 0.000184516 0)
(-0.0238993 7.19547e-05 0)
(-0.0239054 -4.10621e-05 0)
(-0.0238636 -0.000154179 0)
(-0.0237738 -0.000267036 0)
(-0.0236362 -0.000379266 0)
(-0.0234512 -0.000490499 0)
(-0.0232194 -0.000600359 0)
(-0.0229413 -0.000708465 0)
(-0.0226179 -0.000814433 0)
(-0.0222501 -0.000917871 0)
(-0.0218391 -0.00101839 0)
(-0.0213862 -0.00111558 0)
(-0.0208929 -0.00120905 0)
(-0.0203609 -0.0012984 0)
(-0.019792 -0.00138322 0)
(-0.0191883 -0.00146311 0)
(-0.0185519 -0.00153765 0)
(-0.0178852 -0.00160646 0)
(-0.0171906 -0.00166914 0)
(-0.0164709 -0.00172529 0)
(-0.0157288 -0.00177452 0)
(-0.0149674 -0.00181647 0)
(-0.0141897 -0.00185077 0)
(-0.0133992 -0.00187707 0)
(-0.0125991 -0.00189503 0)
(-0.011793 -0.00190435 0)
(-0.0109846 -0.00190473 0)
(-0.0101777 -0.0018959 0)
(-0.00937604 -0.00187763 0)
(-0.00858364 -0.00184971 0)
(-0.00780445 -0.001812 0)
(-0.00704253 -0.00176437 0)
(-0.00630192 -0.00170677 0)
(-0.00558664 -0.00163919 0)
(-0.0049007 -0.00156172 0)
(-0.004248 -0.00147453 0)
(-0.00363233 -0.00137789 0)
(-0.0030573 -0.00127222 0)
(-0.00252628 -0.00115808 0)
(-0.00204234 -0.00103626 0)
(-0.00160813 -0.000907802 0)
(-0.0012258 -0.000774105 0)
(-0.000896833 -0.000636999 0)
(-0.000621936 -0.000498904 0)
(-0.000400806 -0.000363006 0)
(-0.00023192 -0.000233508 0)
(-0.00011228 -0.00011594 0)
(-3.71569e-05 -1.75616e-05 0)
(2.534e-07 5.2244e-05 0)
(9.69204e-06 8.14524e-05 0)
(4.43173e-06 5.36398e-05 0)
(1.32264e-06 -5.23581e-05 0)
(-8.06501e-06 -6.0312e-05 0)
(-4.71918e-05 2.94905e-06 0)
(-0.000125861 0.000116775 0)
(-0.000252202 0.000265778 0)
(-0.000432302 0.000438074 0)
(-0.000670235 0.000624455 0)
(-0.000968387 0.000817834 0)
(-0.00132774 0.00101278 0)
(-0.00174807 0.00120512 0)
(-0.00222818 0.00139169 0)
(-0.00276605 0.00157008 0)
(-0.00335902 0.00173847 0)
(-0.0040039 0.00189552 0)
(-0.00469709 0.00204024 0)
(-0.0054347 0.00217196 0)
(-0.00621258 0.00229021 0)
(-0.00702645 0.00239472 0)
(-0.00787188 0.00248535 0)
(-0.00874441 0.0025621 0)
(-0.00963955 0.00262505 0)
(-0.0105528 0.00267437 0)
(-0.0114798 0.00271028 0)
(-0.012416 0.00273306 0)
(-0.0133572 0.00274304 0)
(-0.0142992 0.00274057 0)
(-0.0152379 0.00272604 0)
(-0.0161692 0.00269985 0)
(-0.0170894 0.00266242 0)
(-0.0179947 0.00261419 0)
(-0.0188814 0.00255561 0)
(-0.0197463 0.00248714 0)
(-0.0205859 0.00240925 0)
(-0.0213973 0.00232239 0)
(-0.0221773 0.00222705 0)
(-0.0229231 0.00212369 0)
(-0.0236322 0.0020128 0)
(-0.024302 0.00189485 0)
(-0.0249301 0.00177032 0)
(-0.0255145 0.00163969 0)
(-0.0260531 0.00150344 0)
(-0.026544 0.00136206 0)
(-0.0269856 0.00121602 0)
(-0.0273764 0.00106582 0)
(-0.0277151 0.000911939 0)
(-0.0280003 0.000754875 0)
(-0.0282313 0.000595121 0)
(-0.0284071 0.000433177 0)
(-0.028527 0.00026955 0)
(-0.0285907 0.000104751 0)
(-0.0285977 -6.07063e-05 0)
(-0.028548 -0.000226298 0)
(-0.0284417 -0.000391495 0)
(-0.0282788 -0.000555761 0)
(-0.02806 -0.000718553 0)
(-0.0277858 -0.00087932 0)
(-0.0274569 -0.00103751 0)
(-0.0270745 -0.00119255 0)
(-0.0266396 -0.00134387 0)
(-0.0261537 -0.00149091 0)
(-0.0256183 -0.00163307 0)
(-0.0250352 -0.00176977 0)
(-0.0244063 -0.00190044 0)
(-0.023734 -0.00202447 0)
(-0.0230204 -0.00214128 0)
(-0.0222682 -0.00225029 0)
(-0.0214802 -0.00235091 0)
(-0.0206592 -0.00244257 0)
(-0.0198084 -0.0025247 0)
(-0.0189312 -0.00259675 0)
(-0.0180311 -0.00265818 0)
(-0.0171117 -0.00270846 0)
(-0.0161768 -0.00274709 0)
(-0.0152305 -0.00277361 0)
(-0.0142769 -0.00278756 0)
(-0.0133203 -0.00278854 0)
(-0.012365 -0.00277617 0)
(-0.0114156 -0.00275013 0)
(-0.0104766 -0.00271015 0)
(-0.00955263 -0.00265603 0)
(-0.00864837 -0.00258762 0)
(-0.00776849 -0.00250486 0)
(-0.00691762 -0.00240781 0)
(-0.00610036 -0.00229661 0)
(-0.00532116 -0.00217154 0)
(-0.00458435 -0.00203306 0)
(-0.00389401 -0.00188181 0)
(-0.00325396 -0.00171866 0)
(-0.00266764 -0.0015448 0)
(-0.00213801 -0.00136175 0)
(-0.00166748 -0.00117154 0)
(-0.00125773 -0.000976749 0)
(-0.000909592 -0.000780744 0)
(-0.000622865 -0.000587839 0)
(-0.000396115 -0.000403589 0)
(-0.000226477 -0.000235131 0)
(-0.000109413 -9.16024e-05 0)
(-3.84203e-05 1.54286e-05 0)
(-4.87045e-06 7.13663e-05 0)
(1.87908e-06 5.64104e-05 0)
(-1.4906e-06 -4.53152e-05 0)
(-2.46218e-05 -2.50261e-05 0)
(-9.1483e-05 7.7701e-05 0)
(-0.000208417 0.000239815 0)
(-0.000381853 0.000443801 0)
(-0.000617183 0.00067584 0)
(-0.000917971 0.000925015 0)
(-0.0012862 0.00118275 0)
(-0.00172256 0.00144233 0)
(-0.00222656 0.0016985 0)
(-0.00279677 0.00194717 0)
(-0.0034309 0.00218519 0)
(-0.00412601 0.00241013 0)
(-0.00487858 0.00262017 0)
(-0.00568467 0.00281395 0)
(-0.00653996 0.00299048 0)
(-0.00743991 0.00314909 0)
(-0.00837974 0.00328935 0)
(-0.00935456 0.00341104 0)
(-0.0103594 0.0035141 0)
(-0.0113892 0.00359858 0)
(-0.0124391 0.00366469 0)
(-0.0135039 0.00371268 0)
(-0.0145788 0.00374292 0)
(-0.0156589 0.00375581 0)
(-0.0167395 0.00375181 0)
(-0.0178159 0.00373142 0)
(-0.0188836 0.00369517 0)
(-0.0199383 0.00364364 0)
(-0.0209756 0.00357739 0)
(-0.0219917 0.00349704 0)
(-0.0229824 0.0034032 0)
(-0.0239442 0.00329648 0)
(-0.0248734 0.00317753 0)
(-0.0257667 0.00304699 0)
(-0.0266208 0.0029055 0)
(-0.0274327 0.0027537 0)
(-0.0281996 0.00259226 0)
(-0.0289188 0.00242182 0)
(-0.0295878 0.00224303 0)
(-0.0302043 0.00205656 0)
(-0.0307662 0.00186307 0)
(-0.0312717 0.00166321 0)
(-0.0317189 0.00145766 0)
(-0.0321064 0.00124709 0)
(-0.0324328 0.00103216 0)
(-0.0326971 0.000813564 0)
(-0.0328981 0.000591983 0)
(-0.0330353 0.000368109 0)
(-0.033108 0.000142642 0)
(-0.0331159 -8.37113e-05 0)
(-0.0330588 -0.000310234 0)
(-0.0329369 -0.000536202 0)
(-0.0327504 -0.000760881 0)
(-0.0324998 -0.000983527 0)
(-0.0321858 -0.00120339 0)
(-0.0318093 -0.0014197 0)
(-0.0313715 -0.0016317 0)
(-0.0308737 -0.00183861 0)
(-0.0303175 -0.00203964 0)
(-0.0297047 -0.00223399 0)
(-0.0290373 -0.00242088 0)
(-0.0283175 -0.0025995 0)
(-0.0275479 -0.00276906 0)
(-0.0267312 -0.00292875 0)
(-0.0258702 -0.00307779 0)
(-0.0249681 -0.00321537 0)
(-0.0240283 -0.00334073 0)
(-0.0230543 -0.00345311 0)
(-0.02205 -0.00355174 0)
(-0.0210192 -0.00363591 0)
(-0.0199662 -0.00370491 0)
(-0.0188952 -0.00375808 0)
(-0.017811 -0.00379479 0)
(-0.016718 -0.00381443 0)
(-0.0156211 -0.00381648 0)
(-0.0145254 -0.00380045 0)
(-0.0134357 -0.00376592 0)
(-0.0123574 -0.00371256 0)
(-0.0112955 -0.0036401 0)
(-0.0102554 -0.0035484 0)
(-0.00924216 -0.0034374 0)
(-0.00826106 -0.00330722 0)
(-0.00731718 -0.00315809 0)
(-0.00641549 -0.00299045 0)
(-0.00556076 -0.00280496 0)
(-0.00475752 -0.00260253 0)
(-0.00400998 -0.00238439 0)
(-0.00332193 -0.00215216 0)
(-0.00269664 -0.00190792 0)
(-0.00213679 -0.00165435 0)
(-0.0016443 -0.00139486 0)
(-0.00122021 -0.00113375 0)
(-0.000864548 -0.00087647 0)
(-0.000576147 -0.00062989 0)
(-0.000352498 -0.000402648 0)
(-0.000189528 -0.000205589 0)
(-8.13569e-05 -5.21947e-05 0)
(-2.09224e-05 4.08074e-05 0)
(-8.64012e-07 5.11081e-05 0)
(-4.33381e-06 -2.94908e-05 0)
(-4.17775e-05 3.29409e-05 0)
(-0.000137852 0.000186634 0)
(-0.00029517 0.000406883 0)
(-0.000518191 0.000674547 0)
(-0.000811383 0.00097421 0)
(-0.00117758 0.00129348 0)
(-0.00161819 0.00162243 0)
(-0.00213342 0.00195315 0)
(-0.00272246 0.00227936 0)
(-0.00338351 0.00259606 0)
(-0.00411398 0.00289935 0)
(-0.00491061 0.00318617 0)
(-0.00576957 0.0034542 0)
(-0.00668654 0.00370165 0)
(-0.00765686 0.00392723 0)
(-0.00867557 0.00413001 0)
(-0.00973749 0.0043094 0)
(-0.0108373 0.00446504 0)
(-0.0119695 0.00459681 0)
(-0.0131287 0.00470474 0)
(-0.0143094 0.00478904 0)
(-0.015506 0.00485002 0)
(-0.0167132 0.00488809 0)
(-0.0179257 0.00490375 0)
(-0.0191381 0.00489757 0)
(-0.0203454 0.00487017 0)
(-0.0215426 0.00482223 0)
(-0.0227248 0.00475446 0)
(-0.0238874 0.0046676 0)
(-0.0250258 0.00456242 0)
(-0.0261357 0.0044397 0)
(-0.027213 0.00430025 0)
(-0.0282536 0.00414489 0)
(-0.0292539 0.00397443 0)
(-0.0302102 0.00378972 0)
(-0.0311192 0.0035916 0)
(-0.0319777 0.0033809 0)
(-0.0327828 0.00315849 0)
(-0.0335316 0.0029252 0)
(-0.0342216 0.00268191 0)
(-0.0348505 0.00242946 0)
(-0.0354162 0.00216873 0)
(-0.0359166 0.00190058 0)
(-0.0363502 0.00162588 0)
(-0.0367155 0.00134552 0)
(-0.037011 0.00106039 0)
(-0.0372359 0.000771381 0)
(-0.0373893 0.000479394 0)
(-0.0374706 0.000185343 0)
(-0.0374793 -0.000109847 0)
(-0.0374154 -0.000405243 0)
(-0.0372789 -0.000699899 0)
(-0.0370702 -0.000992858 0)
(-0.0367897 -0.00128315 0)
(-0.0364383 -0.0015698 0)
(-0.036017 -0.00185181 0)
(-0.0355271 -0.00212818 0)
(-0.0349701 -0.0023979 0)
(-0.0343477 -0.00265995 0)
(-0.0336619 -0.0029133 0)
(-0.0329151 -0.00315692 0)
(-0.0321097 -0.00338977 0)
(-0.0312485 -0.00361081 0)
(-0.0303344 -0.00381901 0)
(-0.0293708 -0.00401335 0)
(-0.0283611 -0.00419281 0)
(-0.0273091 -0.00435637 0)
(-0.0262187 -0.00450306 0)
(-0.025094 -0.00463191 0)
(-0.0239396 -0.004742 0)
(-0.0227601 -0.00483242 0)
(-0.0215602 -0.00490232 0)
(-0.0203449 -0.0049509 0)
(-0.0191195 -0.00497741 0)
(-0.0178892 -0.00498117 0)
(-0.0166596 -0.00496157 0)
(-0.0154362 -0.00491811 0)
(-0.0142246 -0.00485038 0)
(-0.0130306 -0.00475806 0)
(-0.0118598 -0.00464101 0)
(-0.0107181 -0.00449921 0)
(-0.00961116 -0.00433282 0)
(-0.00854444 -0.00414221 0)
(-0.00752343 -0.00392799 0)
(-0.00655331 -0.00369105 0)
(-0.00563903 -0.00343261 0)
(-0.00478515 -0.00315428 0)
(-0.00399581 -0.00285816 0)
(-0.0032746 -0.00254691 0)
(-0.00262451 -0.0022239 0)
(-0.00204775 -0.00189334 0)
(-0.00154567 -0.0015605 0)
(-0.00111864 -0.0012319 0)
(-0.000765912 -0.000915645 0)
(-0.000485515 -0.000621738 0)
(-0.000274052 -0.00036252 0)
(-0.000126493 -0.000153071 0)
(-3.76159e-05 -1.17913e-05 0)
(-3.63958e-06 3.72777e-05 0)
(-7.12308e-06 -4.79159e-06 0)
(-5.9023e-05 0.000114273 0)
(-0.000184961 0.000331012 0)
(-0.000383772 0.000619695 0)
(-0.000657828 0.000959999 0)
(-0.00101052 0.00133525 0)
(-0.00144379 0.00173182 0)
(-0.00195832 0.0021386 0)
(-0.00255376 0.00254662 0)
(-0.00322879 0.00294859 0)
(-0.00398122 0.00333871 0)
(-0.00480808 0.00371232 0)
(-0.00570577 0.00406575 0)
(-0.00667008 0.00439613 0)
(-0.00769636 0.00470127 0)
(-0.00877959 0.00497954 0)
(-0.00991441 0.00522975 0)
(-0.0110953 0.00545109 0)
(-0.0123164 0.0056431 0)
(-0.013572 0.00580556 0)
(-0.0148561 0.00593847 0)
(-0.0161628 0.00604203 0)
(-0.0174862 0.00611659 0)
(-0.0188204 0.00616262 0)
(-0.0201597 0.00618072 0)
(-0.0214982 0.00617157 0)
(-0.0228306 0.00613592 0)
(-0.0241513 0.00607458 0)
(-0.0254551 0.00598844 0)
(-0.0267369 0.00587839 0)
(-0.0279917 0.00574539 0)
(-0.0292149 0.0055904 0)
(-0.0304019 0.00541443 0)
(-0.0315484 0.0052185 0)
(-0.0326503 0.00500362 0)
(-0.0337036 0.00477085 0)
(-0.0347046 0.00452122 0)
(-0.03565 0.00425581 0)
(-0.0365364 0.00397567 0)
(-0.0373608 0.00368188 0)
(-0.0381205 0.0033755 0)
(-0.0388128 0.00305763 0)
(-0.0394355 0.00272934 0)
(-0.0399864 0.00239174 0)
(-0.0404636 0.00204592 0)
(-0.0408656 0.00169298 0)
(-0.0411909 0.00133406 0)
(-0.0414385 0.000970267 0)
(-0.0416073 0.000602748 0)
(-0.0416967 0.000232649 0)
(-0.0417063 -0.000138868 0)
(-0.041636 -0.000510626 0)
(-0.0414859 -0.000881437 0)
(-0.0412562 -0.0012501 0)
(-0.0409476 -0.00161539 0)
(-0.0405609 -0.00197608 0)
(-0.0400973 -0.00233093 0)
(-0.0395582 -0.00267868 0)
(-0.0389452 -0.00301806 0)
(-0.0382603 -0.00334778 0)
(-0.0375056 -0.00366657 0)
(-0.0366837 -0.00397312 0)
(-0.0357973 -0.00426614 0)
(-0.0348493 -0.00454434 0)
(-0.0338431 -0.00480643 0)
(-0.0327822 -0.00505111 0)
(-0.0316705 -0.00527712 0)
(-0.030512 -0.00548322 0)
(-0.029311 -0.00566817 0)
(-0.0280721 -0.00583078 0)
(-0.0268001 -0.0059699 0)
(-0.0255001 -0.00608441 0)
(-0.0241772 -0.00617327 0)
(-0.022837 -0.00623548 0)
(-0.0214851 -0.00627014 0)
(-0.0201271 -0.0062764 0)
(-0.0187692 -0.00625356 0)
(-0.0174173 -0.00620099 0)
(-0.0160775 -0.00611821 0)
(-0.014756 -0.00600488 0)
(-0.0134591 -0.00586084 0)
(-0.0121929 -0.00568611 0)
(-0.0109635 -0.00548095 0)
(-0.00977697 -0.00524585 0)
(-0.00863913 -0.00498161 0)
(-0.00755559 -0.00468939 0)
(-0.00653167 -0.00437073 0)
(-0.00557229 -0.00402764 0)
(-0.00468196 -0.00366273 0)
(-0.00386462 -0.00327923 0)
(-0.00312359 -0.00288122 0)
(-0.00246144 -0.00247371 0)
(-0.00187991 -0.00206286 0)
(-0.00137984 -0.00165623 0)
(-0.000960997 -0.00126303 0)
(-0.000622115 -0.000894486 0)
(-0.00036062 -0.000564202 0)
(-0.000172475 -0.000288548 0)
(-5.44365e-05 -8.71669e-05 0)
(-6.36621e-06 1.47965e-05 0)
(-9.81827e-06 2.86991e-05 0)
(-7.60571e-05 0.00021911 0)
(-0.000231967 0.000511343 0)
(-0.000472669 0.000879099 0)
(-0.000798429 0.00130126 0)
(-0.00121149 0.0017602 0)
(-0.0017128 0.00224128 0)
(-0.00230221 0.0027324 0)
(-0.00297867 0.00322363 0)
(-0.00374032 0.00370682 0)
(-0.00458447 0.00417537 0)
(-0.00550772 0.00462391 0)
(-0.00650606 0.00504819 0)
(-0.00757492 0.00544482 0)
(-0.00870927 0.00581118 0)
(-0.00990371 0.0061453 0)
(-0.0111525 0.00644571 0)
(-0.0124498 0.00671142 0)
(-0.0137894 0.00694179 0)
(-0.015165 0.00713653 0)
(-0.0165704 0.00729559 0)
(-0.0179992 0.00741917 0)
(-0.0194451 0.00750764 0)
(-0.0209018 0.00756155 0)
(-0.0223632 0.00758158 0)
(-0.0238231 0.00756851 0)
(-0.0252756 0.00752325 0)
(-0.0267148 0.00744675 0)
(-0.0281351 0.00734006 0)
(-0.0295309 0.00720426 0)
(-0.0308972 0.00704049 0)
(-0.0322286 0.00684992 0)
(-0.0335204 0.00663376 0)
(-0.0347679 0.00639324 0)
(-0.0359666 0.0061296 0)
(-0.0371123 0.0058441 0)
(-0.0382011 0.00553803 0)
(-0.0392292 0.00521268 0)
(-0.040193 0.00486933 0)
(-0.0410894 0.0045093 0)
(-0.0419154 0.0041339 0)
(-0.0426681 0.00374445 0)
(-0.043345 0.00334228 0)
(-0.0439438 0.00292872 0)
(-0.0444626 0.00250512 0)
(-0.0448996 0.00207284 0)
(-0.0452533 0.00163325 0)
(-0.0455224 0.00118771 0)
(-0.045706 0.000737637 0)
(-0.0458033 0.000284421 0)
(-0.0458139 -0.000170512 0)
(-0.0457377 -0.000625725 0)
(-0.0455746 -0.00107976 0)
(-0.0453252 -0.00153116 0)
(-0.04499 -0.00197842 0)
(-0.04457 -0.00242004 0)
(-0.0440664 -0.00285451 0)
(-0.0434807 -0.00328028 0)
(-0.0428147 -0.00369581 0)
(-0.0420705 -0.00409954 0)
(-0.0412504 -0.0044899 0)
(-0.0403572 -0.00486531 0)
(-0.0393937 -0.00522419 0)
(-0.0383633 -0.00556497 0)
(-0.0372695 -0.00588608 0)
(-0.036116 -0.00618596 0)
(-0.0349071 -0.00646307 0)
(-0.0336471 -0.0067159 0)
(-0.0323406 -0.00694295 0)
(-0.0309925 -0.00714279 0)
(-0.0296081 -0.00731403 0)
(-0.0281928 -0.00745532 0)
(-0.0267521 -0.0075654 0)
(-0.025292 -0.00764309 0)
(-0.0238184 -0.0076873 0)
(-0.0223376 -0.00769705 0)
(-0.020856 -0.00767147 0)
(-0.01938 -0.00760986 0)
(-0.0179161 -0.00751165 0)
(-0.0164711 -0.00737647 0)
(-0.0150514 -0.00720417 0)
(-0.0136639 -0.00699481 0)
(-0.0123149 -0.00674873 0)
(-0.0110109 -0.00646659 0)
(-0.0097582 -0.00614938 0)
(-0.00856274 -0.00579853 0)
(-0.00743023 -0.00541593 0)
(-0.00636599 -0.005004 0)
(-0.00537488 -0.00456584 0)
(-0.00446123 -0.0041053 0)
(-0.00362875 -0.00362709 0)
(-0.00288044 -0.00313702 0)
(-0.0022185 -0.00264209 0)
(-0.0016443 -0.00215081 0)
(-0.00115828 -0.00167339 0)
(-0.000759943 -0.00122209 0)
(-0.000447649 -0.000811569 0)
(-0.000218441 -0.000459204 0)
(-7.10813e-05 -0.000185514 0)
(-9.00455e-06 -1.6265e-05 0)
(-1.2404e-05 7.07878e-05 0)
(-9.27216e-05 0.000347268 0)
(-0.000278348 0.000727622 0)
(-0.000560861 0.00118533 0)
(-0.000938453 0.00169878 0)
(-0.00141219 0.00224966 0)
(-0.00198196 0.00282253 0)
(-0.00264671 0.00340447 0)
(-0.00340465 0.00398473 0)
(-0.00425324 0.00455439 0)
(-0.00518926 0.00510612 0)
(-0.00620883 0.00563392 0)
(-0.00730748 0.00613296 0)
(-0.00848023 0.00659935 0)
(-0.00972166 0.00703008 0)
(-0.011026 0.00742282 0)
(-0.0123871 0.00777584 0)
(-0.0137988 0.00808793 0)
(-0.0152544 0.00835832 0)
(-0.0167474 0.0085866 0)
(-0.0182711 0.00877269 0)
(-0.0198188 0.00891677 0)
(-0.0213838 0.00901925 0)
(-0.0229593 0.00908073 0)
(-0.024539 0.00910199 0)
(-0.0261161 0.00908393 0)
(-0.0276845 0.00902759 0)
(-0.029238 0.00893409 0)
(-0.0307705 0.00880464 0)
(-0.0322762 0.00864051 0)
(-0.0337494 0.00844305 0)
(-0.0351848 0.00821364 0)
(-0.0365771 0.0079537 0)
(-0.0379214 0.00766468 0)
(-0.0392129 0.00734807 0)
(-0.0404472 0.00700537 0)
(-0.0416199 0.00663809 0)
(-0.0427272 0.00624778 0)
(-0.0437652 0.00583597 0)
(-0.0447305 0.00540423 0)
(-0.0456198 0.00495412 0)
(-0.0464302 0.00448722 0)
(-0.0471589 0.00400512 0)
(-0.0478037 0.00350942 0)
(-0.0483623 0.00300172 0)
(-0.0488328 0.00248365 0)
(-0.0492136 0.00195685 0)
(-0.0495035 0.00142295 0)
(-0.0497013 0.000883641 0)
(-0.0498063 0.000340589 0)
(-0.049818 -0.000204502 0)
(-0.0497363 -0.000749913 0)
(-0.0495611 -0.00129391 0)
(-0.0492931 -0.00183472 0)
(-0.0489327 -0.00237058 0)
(-0.0484811 -0.00289969 0)
(-0.0479395 -0.00342024 0)
(-0.0473095 -0.00393038 0)
(-0.0465931 -0.00442827 0)
(-0.0457924 -0.00491206 0)
(-0.0449101 -0.00537986 0)
(-0.0439488 -0.00582981 0)