/*--------------------------------*- C++ -*----------------------------------*\
| =========                 |                                                 |
| \\      /  F ield         | OpenFOAM: The Open Source CFD Toolbox           |
|  \\    /   O peration     | Version:  2212                                  |
|   \\  /    A nd           | Website:  www.openfoam.com                      |
|    \\/     M anipulation  |                                                 |
\*---------------------------------------------------------------------------*/
FoamFile
{
    version     2.0;
    format      ascii;
    arch        "LSB;label=32;scalar=64";
    class       volScalarField;
    location    "0.0095";
    object      p;
}
// * * * * * * * * * * * * * * * * * * * * * * * * * * * * * * * * * * * * * //

dimensions      [0 2 -2 0 0 0 0];

internalField   nonuniform List<scalar> 
10000
(
-1.45847e-07
-4.2503e-05
-0.000359569
-0.00093802
-0.00169322
-0.00254637
-0.00343758
-0.00432016
-0.00515877
-0.00592598
-0.00660068
-0.00716649
-0.00761031
-0.00792128
-0.00809119
-0.00811487
-0.00798968
-0.0077147
-0.00728921
-0.00671288
-0.00598678
-0.00511342
-0.00409518
-0.00293396
-0.00163145
-0.000190259
0.00138519
0.00308886
0.00491436
0.00685634
0.00891043
0.0110728
0.0133391
0.0157045
0.0181635
0.02071
0.0233383
0.0260429
0.028819
0.0316626
0.0345694
0.0375348
0.0405539
0.0436208
0.0467296
0.0498745
0.0530497
0.0562496
0.0594687
0.0627007
0.0659391
0.0691776
0.0724096
0.0756294
0.078831
0.0820084
0.0851555
0.0882666
0.0913357
0.0943571
0.0973251
0.100234
0.103078
0.105851
0.108548
0.111165
0.113696
0.116135
0.118477
0.120717
0.122848
0.124863
0.126758
0.128526
0.130163
0.131663
0.133022
0.134238
0.135306
0.136225
0.136992
0.137605
0.138061
0.138362
0.138509
0.138506
0.138356
0.138067
0.137646
0.137103
0.136451
0.135707
0.134894
0.134039
0.133179
0.132357
0.131627
0.131056
0.130723
0.130664
8.964e-05
2.94334e-05
-0.000252999
-0.000737359
-0.00135728
-0.00205669
-0.00279014
-0.00352036
-0.00421682
-0.00485446
-0.00541299
-0.00587638
-0.00623166
-0.00646854
-0.00657832
-0.00655415
-0.00639211
-0.00609029
-0.00564761
-0.00506356
-0.00433786
-0.00347137
-0.00246623
-0.00132466
-4.86451e-05
0.00135958
0.00289697
0.00455923
0.00634094
0.00823663
0.0102414
0.0123508
0.0145609
0.0168671
0.0192647
0.0217485
0.0243127
0.026952
0.0296613
0.0324364
0.0352733
0.0381681
0.0411158
0.0441112
0.0471482
0.0502206
0.0533229
0.0564493
0.0595943
0.0627521
0.0659165
0.0690809
0.0722391
0.075385
0.0785125
0.0816154
0.0846884
0.0877257
0.0907213
0.0936696
0.0965652
0.0994025
0.102176
0.104881
0.107512
0.110064
0.112531
0.114909
0.117193
0.119377
0.121455
0.123422
0.125271
0.126998
0.128597
0.130065
0.131398
0.132593
0.133646
0.134557
0.135323
0.135943
0.136416
0.136744
0.13693
0.136977
0.13689
0.136676
0.136343
0.135903
0.135367
0.134752
0.134079
0.133375
0.13267
0.132
0.131408
0.130941
0.130659
0.1306
0.000447349
0.000321132
2.34013e-05
-0.000425726
-0.000975748
-0.00158478
-0.00221845
-0.00284732
-0.00344574
-0.00399174
-0.00446648
-0.00485418
-0.0051426
-0.00532195
-0.00538393
-0.00532172
-0.00513014
-0.00480622
-0.00434898
-0.00375768
-0.00303159
-0.00217036
-0.00117496
-4.74673e-05
0.00120962
0.0025938
0.00410241
0.0057321
0.00747862
0.00933708
0.0113025
0.0133703
0.0155363
0.0177963
0.0201455
0.0225793
0.0250924
0.0276793
0.0303356
0.0330564
0.035838
0.0386766
0.0415673
0.0445048
0.0474836
0.0504975
0.0535408
0.0566083
0.0596943
0.0627927
0.0658977
0.069003
0.072102
0.0751885
0.0782564
0.0812995
0.0843121
0.0872893
0.0902255
0.0931148
0.0959519
0.0987319
0.10145
0.104101
0.106679
0.10918
0.111598
0.113928
0.116165
0.118305
0.120342
0.122271
0.124084
0.125779
0.127351
0.128794
0.130107
0.131286
0.132329
0.133234
0.134
0.134627
0.135115
0.135466
0.135684
0.135771
0.135734
0.135577
0.135311
0.134945
0.134492
0.133967
0.13339
0.132785
0.132176
0.131595
0.131075
0.130652
0.13037
0.13026
0.00101781
0.000781491
0.000431395
-2.06294e-05
-0.000544661
-0.0011082
-0.0016847
-0.00225008
-0.00278349
-0.00326614
-0.00368117
-0.00401417
-0.00425294
-0.00438778
-0.00441155
-0.00431816
-0.00410239
-0.00376062
-0.00329102
-0.00269283
-0.00196552
-0.00110838
-0.000121213
0.000994846
0.00223767
0.00360444
0.0050918
0.0066963
0.00841433
0.0102418
0.0121745
0.014208
0.0163383
0.0185611
0.0208715
0.0232646
0.0257356
0.0282793
0.0308914
0.0335678
0.0363043
0.0390968
0.0419408
0.0448303
0.0477601
0.0507251
0.0537196
0.0567382
0.0597756
0.0628256
0.0658816
0.068938
0.0719882
0.0750256
0.0780437
0.0810368
0.0839993
0.086926
0.089812
0.0926522
0.0954412
0.0981743
0.100847
0.103453
0.105989
0.108448
0.110826
0.113117
0.115317
0.117422
0.119425
0.121322
0.123108
0.124778
0.126328
0.127753
0.129051
0.130218
0.131252
0.132153
0.13292
0.133554
0.134056
0.134428
0.134672
0.134792
0.134793
0.13468
0.134462
0.13415
0.133755
0.133292
0.132778
0.132233
0.131678
0.131139
0.130643
0.13022
0.129893
0.129679
0.00173019
0.00135937
0.000936092
0.000459357
-6.29231e-05
-0.000606645
-0.00115021
-0.00167474
-0.00216278
-0.00259823
-0.00296707
-0.0032567
-0.00345571
-0.00355467
-0.00354649
-0.00342601
-0.00318899
-0.00283171
-0.00235135
-0.00174675
-0.00101722
-0.00016231
0.00081818
0.0019239
0.00315361
0.00450481
0.00597395
0.0075572
0.00925093
0.0110513
0.0129548
0.0149576
0.0170559
0.0192454
0.0215214
0.0238786
0.0263122
0.0288173
0.0313897
0.0340259
0.0367218
0.039473
0.0422746
0.0451212
0.0480073
0.0509279
0.0538784
0.0568533
0.0598467
0.062853
0.0658658
0.0688783
0.0718841
0.074877
0.0778503
0.0807981
0.083715
0.0865965
0.0894374
0.092233
0.0949786
0.0976702
0.100302
0.10287
0.105367
0.107789
0.110132
0.112389
0.114556
0.116629
0.118603
0.120473
0.122235
0.123884
0.125415
0.126824
0.128108
0.129264
0.130292
0.131191
0.13196
0.132602
0.133117
0.133507
0.133774
0.133921
0.133953
0.133875
0.133696
0.133426
0.133076
0.132659
0.132189
0.131683
0.131158
0.130635
0.130136
0.129686
0.129286
0.128936
0.00253405
0.00201598
0.00150604
0.000987634
0.000447235
-9.6662e-05
-0.000627195
-0.00112946
-0.00158923
-0.00199291
-0.00232815
-0.00258439
-0.00275218
-0.0028229
-0.0027895
-0.00264705
-0.00239201
-0.00202135
-0.00153212
-0.000922301
-0.000190729
0.000663193
0.00163941
0.00273741
0.00395607
0.0052933
0.00674608
0.00831072
0.00998354
0.011761
0.0136395
0.0156158
0.0176862
0.0198464
0.0220919
0.0244175
0.0268181
0.0292894
0.0318274
0.034428
0.0370878
0.0398024
0.0425664
0.0453748
0.0482227
0.0511048
0.0540164
0.0569525
0.0599074
0.062875
0.0658489
0.0688229
0.0717898
0.0747427
0.0776759
0.0805837
0.0834608
0.0863021
0.0891033
0.0918601
0.094568
0.0972226
0.0998192
0.102352
0.104816
0.107206
0.109517
0.111745
0.113884
0.115931
0.11788
0.119726
0.121467
0.123097
0.124612
0.126007
0.127279
0.128427
0.129451
0.130348
0.131121
0.131769
0.132296
0.132701
0.132986
0.133155
0.133211
0.133161
0.133012
0.132775
0.132457
0.132071
0.131628
0.131142
0.130628
0.130101
0.12958
0.129084
0.128594
0.128092
0.00338381
0.00271556
0.00211035
0.0015368
0.000962825
0.000402133
-0.000131289
-0.000626259
-0.00107198
-0.00145711
-0.00177082
-0.00200373
-0.00214813
-0.00219717
-0.00214455
-0.00198525
-0.00171592
-0.00133394
-0.000836994
-0.000222763
0.00051035
0.00136337
0.00233651
0.00342905
0.00463943
0.00596538
0.00740427
0.00895286
0.0106077
0.0123655
0.0142233
0.0161774
0.0182245
0.0203599
0.0225791
0.0248773
0.0272496
0.0296915
0.0321997
0.0347704
0.0373992
0.0400821
0.042814
0.0455896
0.0484044
0.0512539
0.0541327
0.0570355
0.059957
0.0628913
0.0658318
0.0687718
0.0717046
0.0746234
0.0775219
0.0803951
0.0832377
0.086045
0.0888128
0.0915365
0.094212
0.096835
0.0994007
0.101904
0.104339
0.106702
0.108988
0.111191
0.113307
0.115331
0.11726
0.119087
0.120809
0.122423
0.123922
0.125305
0.126568
0.127711
0.128731
0.129629
0.130405
0.13106
0.131595
0.132011
0.13231
0.132495
0.13257
0.13254
0.132414
0.132199
0.131902
0.131534
0.131104
0.130623
0.130103
0.129557
0.129
0.128445
0.127855
0.127197
0.00423944
0.00342353
0.00271944
0.00208273
0.00146418
0.000874563
0.000325672
-0.000174156
-0.000616701
-0.000993432
-0.00129534
-0.001514
-0.00164268
-0.00167597
-0.00160899
-0.00143728
-0.00115737
-0.00076658
-0.000262886
0.000355608
0.00109055
0.00194314
0.00291382
0.00400193
0.00520582
0.00652302
0.00795076
0.00948618
0.0111261
0.0128678
0.0147083
0.0166442
0.0186718
0.0207869
0.0229842
0.025259
0.0276073
0.0300247
0.0325077
0.035053
0.0376563
0.0403127
0.0430176
0.0457663
0.0485539
0.0513758
0.0542271
0.0571023
0.0599958
0.0629017
0.0658135
0.0687247
0.0716284
0.0745179
0.0773875
0.080232
0.0830461
0.0858252
0.0885651
0.0912616
0.0939101
0.0965065
0.0990461
0.101524
0.103935
0.106276
0.108541
0.110725
0.112822
0.114829
0.116741
0.118552
0.120259
0.121858
0.123345
0.124718
0.125974
0.127113
0.128133
0.129032
0.129811
0.13047
0.131011
0.131435
0.131744
0.13194
0.132028
0.132014
0.131903
0.131702
0.131416
0.131054
0.130625
0.130138
0.129601
0.129024
0.12842
0.127798
0.127105
0.126295
0.00506762
0.00411018
0.00330725
0.0026028
0.00193312
0.00130666
0.000733077
0.000218798
-0.000229733
-0.000606035
-0.000903469
-0.00111521
-0.00123505
-0.0012583
-0.00118132
-0.00100068
-0.000713126
-0.000316042
0.00019283
0.000815193
0.00155248
0.00240563
0.00337495
0.00445973
0.0056584
0.00696865
0.00838759
0.00991255
0.0115409
0.0132698
0.0150966
0.0170181
0.0190301
0.0211282
0.0233077
0.0255637
0.0278921
0.0302896
0.0327525
0.035277
0.0378591
0.0404944
0.0431779
0.0459049
0.0486709
0.051471
0.0543
0.0571523
0.0600228
0.0629056
0.0657938
0.068681
0.0715606
0.0744264
0.0772726
0.0800942
0.0828857
0.0856425
0.0883606
0.0910353
0.093662
0.0962368
0.0987554
0.101213
0.103606
0.105929
0.108178
0.110347
0.11243
0.114424
0.116322
0.11812
0.119814
0.121402
0.12288
0.124245
0.125498
0.126635
0.127655
0.128555
0.129335
0.129998
0.130543
0.130972
0.131287
0.131492
0.13159
0.131585
0.131483
0.131287
0.131003
0.130639
0.130203
0.1297
0.129137
0.128522
0.127863
0.12717
0.126374
0.125419
0.00584269
0.00475168
0.00385228
0.00307811
0.00235342
0.00168495
0.00108082
0.000545172
8.32277e-05
-0.000299622
-0.000598712
-0.000809106
-0.000925678
-0.000944203
-0.0008615
-0.000674945
-0.000381978
1.97817e-05
0.000532503
0.00115802
0.0018977
0.00275216
0.00372128
0.00480416
0.00599914
0.00730413
0.00871648
0.0102335
0.0118532
0.0135729
0.0153895
0.0172999
0.0193
0.0213848
0.0235499
0.0257912
0.0281044
0.0304863
0.0329336
0.0354425
0.0380084
0.0406273
0.0432946
0.0460056
0.0487552
0.0515386
0.0543504
0.0571852
0.0600379
0.0629024
0.0657721
0.0686405
0.0715015
0.074349
0.0771775
0.0799819
0.0827566
0.0854971
0.0881989
0.0908574
0.0934676
0.0960261
0.098529
0.100972
0.103351
0.105661
0.107899
0.110057
0.11213
0.114113
0.116001
0.11779
0.119475
0.121054
0.122526
0.123888
0.125138
0.126274
0.127293
0.128194
0.128975
0.12964
0.130188
0.130621
0.130941
0.131151
0.131254
0.131253
0.131152
0.130956
0.130668
0.130296
0.129845
0.129319
0.128725
0.128065
0.127349
0.126583
0.125688
0.124598
0.00654457
0.00532893
0.00433702
0.00349357
0.00271153
0.00199761
0.00135902
0.000797617
0.000316918
-7.85135e-05
-0.000384719
-0.000598402
-0.00071605
-0.000734103
-0.000649561
-0.000460098
-0.000163806
0.000241449
0.00075743
0.0013858
0.00212788
0.00298403
0.00395372
0.00503597
0.00622897
0.00753048
0.00893842
0.0104504
0.0120641
0.0137774
0.0155874
0.01749
0.0194813
0.0215568
0.0237116
0.0259419
0.0282443
0.0306155
0.0330518
0.0355494
0.0381042
0.040712
0.0433683
0.0460682
0.0488065
0.0515782
0.0543781
0.0572006
0.0600405
0.062892
0.0657483
0.0686033
0.0714513
0.0742861
0.0771023
0.0798949
0.0826584
0.0853878
0.088079
0.0907267
0.0933261
0.0958736
0.0983661
0.100799
0.103169
0.105471
0.107701
0.109851
0.111917
0.113894
0.115776
0.117559
0.119238
0.120814
0.122282
0.123642
0.12489
0.126025
0.127044
0.127945
0.128727
0.129393
0.129943
0.130379
0.130702
0.130914
0.131018
0.131016
0.130912
0.13071
0.130414
0.130029
0.129558
0.129006
0.128375
0.127668
0.126893
0.126055
0.125066
0.123849
0.00715773
0.00582637
0.00474702
0.00383606
0.00299645
0.00223488
0.00155876
0.00096854
0.000465531
5.31442e-05
-0.000265002
-0.000486358
-0.00060869
-0.000629408
-0.000545987
-0.000356268
-5.85312e-05
0.000348944
0.000867763
0.00149908
0.00224373
0.00310199
0.00407305
0.00515565
0.00634816
0.00764823
0.00905384
0.0105633
0.0121743
0.0138842
0.0156903
0.0175885
0.0195745
0.0216439
0.0237924
0.0260164
0.0283126
0.0306774
0.0331074
0.0355987
0.0381474
0.0407492
0.0433995
0.0460932
0.048825
0.0515901
0.0543832
0.0571986
0.0600311
0.0628747
0.065723
0.0685701
0.0714103
0.0742377
0.0770469
0.0798329
0.0825902
0.0853138
0.0879994
0.0906417
0.0932356
0.0957779
0.0982653
0.100694
0.103058
0.105356
0.107581
0.109727
0.11179
0.113764
0.115643
0.117424
0.119102
0.120676
0.122145
0.123504
0.124751
0.125885
0.126904
0.127804
0.128588
0.129255
0.129808
0.130246
0.130569
0.13078
0.130881
0.130876
0.130766
0.130555
0.130246
0.129844
0.12935
0.128768
0.128097
0.127342
0.126509
0.125601
0.124523
0.123189
0.00767072
0.00623217
0.00506997
0.00409407
0.00319834
0.00238852
0.0016726
0.00105074
0.000522873
9.06337e-05
-0.000243186
-0.000476084
-0.000606376
-0.000632404
-0.000552276
-0.00036419
-6.64102e-05
0.00034229
0.000863334
0.00149756
0.00224506
0.00310585
0.0040792
0.00516334
0.00635656
0.00765717
0.00906311
0.0105725
0.0121834
0.0138931
0.0156983
0.0175951
0.0195791
0.0216463
0.0237928
0.026015
0.0283095
0.0306727
0.0331012
0.0355912
0.0381387
0.0407394
0.0433885
0.046081
0.0488113
0.0515748
0.0543662
0.0571797
0.0600101
0.0628512
0.0656969
0.0685415
0.0713793
0.0742042
0.0770112
0.0797955
0.0825516
0.0852744
0.0879594
0.0906015
0.0931955
0.0957378
0.0982252
0.100653
0.103017
0.105314
0.107538
0.109684
0.111747
0.113721
0.115602
0.117385
0.119065
0.120642
0.122112
0.123472
0.12472
0.125854
0.126873
0.127775
0.128561
0.129231
0.129785
0.130223
0.130544
0.130752
0.130849
0.130837
0.130719
0.130497
0.130174
0.129752
0.129232
0.128616
0.127905
0.1271
0.126209
0.125235
0.124072
0.122632
0.00807474
0.00653692
0.0052964
0.00425803
0.00330778
0.00245054
0.00169383
0.001038
0.000482869
2.85807e-05
-0.000323338
-0.000570645
-0.000711742
-0.000745439
-0.000670389
-0.00048522
-0.000188432
0.000221022
0.000743826
0.00138063
0.00213138
0.00299527
0.00397143
0.00505841
0.00625421
0.00755716
0.0089657
0.0104778
0.0120913
0.0138035
0.0156108
0.0175093
0.0194951
0.0215641
0.0237129
0.0259378
0.0282353
0.0306017
0.0330335
0.0355271
0.0380784
0.0406829
0.0433356
0.0460316
0.0487655
0.0515325
0.0543275
0.0571443
0.0599778
0.062822
0.0656707
0.0685181
0.0713586
0.0741862
0.0769959
0.0797834
0.0825432
0.0852702
0.0879598
0.0906068
0.093206
0.0957536
0.0982459
0.100678
0.103046
0.105346
0.107573
0.109722
0.111789
0.113768
0.115655
0.117443
0.119129
0.12071
0.122184
0.123547
0.124798
0.125934
0.126956
0.127861
0.12865
0.129322
0.129876
0.130313
0.130631
0.130835
0.130926
0.130908
0.13078
0.130545
0.130204
0.129758
0.129211
0.12856
0.127808
0.126955
0.126006
0.124968
0.123726
0.122187
0.00836185
0.00673276
0.00541896
0.00432008
0.00331644
0.00241281
0.00161557
0.000924505
0.000339869
-0.000138466
-0.000510143
-0.000773688
-0.000927602
-0.000970823
-0.00090228
-0.000720909
-0.000425884
-1.6153e-05
0.000508444
0.00114778
0.00190177
0.00276955
0.00374955
0.00484037
0.00604051
0.00734818
0.00876166
0.010279
0.0118978
0.0136151
0.0154275
0.0173311
0.0193223
0.0213974
0.0235528
0.0257848
0.0280898
0.0304642
0.0329043
0.0354064
0.0379662
0.0405791
0.0432403
0.0459448
0.0486874
0.0514632
0.0542669
0.0570925
0.0599346
0.0627874
0.0656445
0.0685001
0.0713486
0.074184
0.0770017
0.0797975
0.0825661
0.0853023
0.0880016
0.0906585
0.0932679
0.0958256
0.0983274
0.100768
0.103144
0.105452
0.107687
0.109844
0.111919
0.113906
0.115802
0.117598
0.119292
0.120881
0.122361
0.12373
0.124986
0.126127
0.127153
0.128062
0.128854
0.129527
0.130081
0.130515
0.130831
0.13103
0.131117
0.131091
0.130952
0.130701
0.130339
0.12987
0.129292
0.128607
0.127814
0.126912
0.125908
0.124807
0.123492
0.121862
0.00852535
0.00681256
0.00543046
0.00427378
0.00321764
0.00226788
0.00143059
0.000704063
8.85643e-05
-0.0004155
-0.000808375
-0.0010894
-0.00125725
-0.00131105
-0.00125002
-0.00107317
-0.000780056
-0.000370485
0.000155657
0.000797985
0.00155572
0.00242781
0.00341279
0.00450912
0.00571542
0.00702997
0.0084508
0.00997584
0.0116025
0.0133278
0.0151482
0.0170604
0.0190609
0.0211461
0.0233124
0.0255558
0.0278728
0.0302598
0.032713
0.0352282
0.0378013
0.0404275
0.0431021
0.0458202
0.0485766
0.0513665
0.0541842
0.0570238
0.0598801
0.062747
0.0656179
0.068487
0.0713489
0.0741977
0.0770289
0.0798383
0.0826208
0.0853713
0.0880851
0.0907567
0.0933808
0.0959531
0.0984691
0.100924
0.103312
0.105632
0.10788
0.110049
0.112136
0.114135
0.116042
0.11785
0.119554
0.121153
0.122642
0.124019
0.125283
0.126432
0.127464
0.128378
0.129171
0.129845
0.130398
0.130831
0.131144
0.13134
0.131421
0.131386
0.131234
0.130965
0.130583
0.130088
0.129481
0.12876
0.127925
0.126975
0.125918
0.124759
0.123374
0.121661
0.00856061
0.00676971
0.00532375
0.00411262
0.0030054
0.00200954
0.00113223
0.000370503
-0.000276273
-0.000807233
-0.00122235
-0.00152164
-0.00170426
-0.00176914
-0.00171578
-0.00154393
-0.00125308
-0.000843502
-0.00031564
0.000329884
0.00109196
0.0019693
0.00296055
0.00406421
0.0052787
0.00660226
0.00803283
0.00956807
0.0112052
0.0129412
0.014773
0.0166974
0.0187111
0.0208104
0.0229916
0.0252508
0.0275843
0.0299885
0.0324592
0.0349923
0.0375833
0.0402276
0.0429207
0.0456576
0.048433
0.051242
0.054079
0.056938
0.0598136
0.0626999
0.06559
0.0684781
0.0713588
0.0742266
0.0770769
0.0799055
0.0827071
0.0854766
0.0882096
0.0909005
0.0935438
0.0961351
0.0986698
0.101143
0.10355
0.105887
0.108152
0.110338
0.11244
0.114454
0.116374
0.118195
0.119913
0.121524
0.123026
0.124415
0.125689
0.126848
0.127887
0.128806
0.129602
0.130277
0.130831
0.131264
0.131575
0.131768
0.131842
0.131796
0.131629
0.131343
0.130939
0.130419
0.12978
0.129024
0.128147
0.12715
0.126041
0.124826
0.123376
0.121585
0.00846452
0.00659946
0.00509254
0.00382957
0.00267359
0.00163229
0.000714648
-8.21526e-05
-0.00075987
-0.00131804
-0.00175617
-0.00207412
-0.00227162
-0.00234793
-0.0023025
-0.00213544
-0.00184691
-0.00143722
-0.000907223
-0.000258061
0.00050909
0.00139292
0.00239201
0.00350483
0.00472963
0.00606447
0.00750714
0.00905504
0.0107054
0.0124553
0.0143019
0.0162423
0.018273
0.0203904
0.0225906
0.0248699
0.0272244
0.0296502
0.032143
0.0346984
0.0373121
0.0399796
0.0426962
0.045457
0.0482565
0.0510897
0.053951
0.0568344
0.0597345
0.0626453
0.0655598
0.0684723
0.0713776
0.0742701
0.0771451
0.0799983
0.0828241
0.0856176
0.0883745
0.0910892
0.0937563
0.0963712
0.0989295
0.101426
0.103856
0.106217
0.108503
0.110709
0.112831
0.114863
0.1168
0.118638
0.120372
0.121999
0.123516
0.12492
0.126207
0.127376
0.128425
0.129349
0.130151
0.130829
0.131385
0.131818
0.132129
0.132317
0.132383
0.132325
0.132143
0.131839
0.131413
0.130866
0.130197
0.129403
0.128485
0.127442
0.126283
0.125015
0.123503
0.121638
0.00823436
0.00629858
0.00473222
0.00341879
0.0022161
0.00113074
0.000173058
-0.000658893
-0.00136735
-0.00195232
-0.0024134
-0.00275026
-0.00296258
-0.00305014
-0.00301276
-0.00285045
-0.00256393
-0.00215387
-0.00162138
-0.000967874
-0.000194614
0.000697112
0.00170577
0.00282968
0.00406697
0.00541543
0.00687259
0.00843577
0.0101023
0.0118696
0.0137348
0.015695
0.0177466
0.019886
0.0221095
0.0244132
0.026793
0.0292448
0.0317641
0.0343465
0.0369879
0.0396835
0.0424288
0.0452185
0.048047
0.0509093
0.0538
0.0567128
0.0596423
0.0625824
0.0655266
0.0684692
0.0714049
0.0743279
0.0772334
0.0801165
0.0829718
0.0857945
0.0885803
0.0913238
0.0940195
0.0966631
0.0992501
0.101776
0.104235
0.106623
0.108935
0.111166
0.11331
0.115364
0.117322
0.11918
0.120934
0.12258
0.124116
0.125536
0.126838
0.12802
0.129078
0.130012
0.13082
0.131504
0.132064
0.132498
0.132807
0.13299
0.133047
0.132977
0.13278
0.132457
0.132009
0.131435
0.130733
0.129903
0.128944
0.127856
0.126648
0.125328
0.123758
0.121822
0.00786672
0.00586378
0.00423962
0.00287616
0.00162792
0.000500114
-0.000496862
-0.00136371
-0.00210264
-0.00271408
-0.00319769
-0.00355319
-0.0037803
-0.00387897
-0.00384936
-0.00369177
-0.00340699
-0.00299619
-0.00246071
-0.00180194
-0.00102126
-0.000120092
0.000899935
0.00203697
0.00328895
0.00465338
0.00612759
0.00770896
0.00939503
0.0111833
0.0130709
0.0150547
0.0171311
0.0192967
0.0215478
0.0238803
0.0262897
0.0287717
0.0313221
0.0339363
0.0366103
0.0393392
0.042118
0.0449415
0.0478041
0.0507006
0.0536256
0.0565728
0.0595367
0.0625114
0.0654908
0.0684692
0.0714411
0.0744003
0.0773417
0.0802604
0.0831509
0.0860083
0.0888285
0.091606
0.0943356
0.0970132
0.0996343
0.102194
0.104686
0.107107
0.10945
0.111709
0.11388
0.11596
0.117944
0.119826
0.121603
0.123271
0.124826
0.126265
0.127583
0.12878
0.129851
0.130795
0.131613
0.132305
0.132869
0.133305
0.13361
0.133787
0.133835
0.133754
0.133543
0.133201
0.132729
0.132126
0.131392
0.130525
0.129525
0.128392
0.127137
0.125767
0.12414
0.122138
0.00735783
0.00529131
0.00361192
0.00219877
0.000905124
-0.000263745
-0.00129879
-0.0022001
-0.00296916
-0.00360666
-0.00411247
-0.00448633
-0.00472808
-0.00483777
-0.00481565
-0.00466251
-0.00437926
-0.00396729
-0.00342804
-0.00276287
-0.00197332
-0.00106101
-2.77276e-05
0.00112451
0.00239337
0.00377617
0.00527019
0.00687297
0.00858209
0.0103949
0.0123085
0.0143197
0.0164251
0.0186212
0.0209041
0.0232695
0.0257128
0.0282297
0.0308158
0.0334669
0.0361785
0.0389455
0.0417629
0.0446254
0.0475271
0.0504629
0.0534272
0.0564138
0.0594174
0.0624323
0.0654526
0.0684726
0.0714863
0.0744872
0.0774701
0.0804301
0.0833617
0.0862598
0.08912
0.0919372
0.0947063
0.0974233
0.100084
0.102682
0.105212
0.107669
0.110047
0.112339
0.114542
0.116653
0.118666
0.120576
0.122379
0.124071
0.125648
0.127107
0.128444
0.129658
0.130744
0.131702
0.132531
0.133232
0.133801
0.134238
0.134541
0.134713
0.134753
0.13466
0.134432
0.13407
0.133574
0.132942
0.132174
0.131271
0.130231
0.129055
0.127753
0.126335
0.124653
0.122587
0.00670581
0.00457795
0.00284567
0.00138427
4.52845e-05
-0.00116428
-0.00223627
-0.00317133
-0.00397021
-0.00463345
-0.0051612
-0.00555328
-0.00580951
-0.00593
-0.00591526
-0.00576625
-0.00548415
-0.00507031
-0.0045262
-0.00385337
-0.00305344
-0.00212818
-0.00107964
8.98845e-05
0.00137786
0.00278156
0.00429839
0.00592592
0.00766156
0.00950247
0.0114457
0.0134882
0.0156268
0.0178577
0.0201766
0.0225791
0.0250607
0.027617
0.0302438
0.0329366
0.0356907
0.0385009
0.041362
0.0442686
0.0472148
0.0501951
0.0532038
0.0562352
0.059284
0.0623448
0.0654117
0.0684787
0.0715397
0.0745878
0.077618
0.0806251
0.0836037
0.0865485
0.0894549
0.0923176
0.0951319
0.0978938
0.100598
0.10324
0.105812
0.10831
0.110727
0.113057
0.115298
0.117444
0.11949
0.121432
0.123264
0.124982
0.126584
0.128066
0.129425
0.130658
0.131762
0.132736
0.133578
0.134288
0.134862
0.135301
0.135604
0.135771
0.135803
0.135698
0.135454
0.135071
0.134549
0.133888
0.133088
0.132147
0.131067
0.129848
0.128501
0.127035
0.125299
0.12317
0.00591111
0.00372194
0.00193798
0.000430123
-0.000953615
-0.00220402
-0.00331252
-0.00428069
-0.0051092
-0.00579818
-0.00634778
-0.00675791
-0.00702846
-0.00715957
-0.00715204
-0.00700679
-0.0067251
-0.00630837
-0.00575819
-0.00507626
-0.0042643
-0.00332426
-0.00225849
-0.00106955
0.000239946
0.00166738
0.00321018
0.00486572
0.00663117
0.00850367
0.0104804
0.0125584
0.0147343
0.017004
0.0193632
0.0218072
0.0243317
0.0269323
0.0296046
0.0323439
0.0351455
0.0380039
0.0409139
0.0438698
0.0468657
0.0498958
0.0529544
0.056036
0.0591358
0.0622484
0.0653674
0.0684868
0.0716002
0.0747012
0.0777842
0.0808444
0.083876
0.0868736
0.0898323
0.0927467
0.095612
0.0984241
0.101178
0.103867
0.106486
0.109029
0.11149
0.113864
0.116147
0.118333
0.120418
0.122394
0.124258
0.126007
0.127637
0.129145
0.130528
0.131784
0.132909
0.1339
0.134756
0.135475
0.136057
0.1365
0.136803
0.136968
0.136992
0.136874
0.136613
0.136208
0.135661
0.134971
0.134137
0.13316
0.13204
0.130778
0.129386
0.127872
0.126083
0.123891
0.00497514
0.00272289
0.000886957
-0.000666325
-0.00209402
-0.00338537
-0.00453064
-0.00553186
-0.00639
-0.00710489
-0.00767642
-0.00810451
-0.00838919
-0.00853078
-0.00853
-0.00838787
-0.00810565
-0.00768485
-0.0071272
-0.00643454
-0.0056088
-0.00465216
-0.00356718
-0.00235651
-0.00102274
0.000431469
0.00200337
0.00369008
0.00548872
0.00739658
0.00941087
0.0115285
0.0137459
0.0160587
0.0184625
0.0209527
0.0235248
0.0261746
0.0288972
0.0316879
0.0345418
0.0374535
0.0404177
0.0434282
0.046479
0.0495642
0.0526783
0.0558162
0.0589729
0.0621427
0.0653193
0.0684964
0.0716677
0.074827
0.0779688
0.081088
0.0841785
0.0872349
0.090252
0.0932242
0.0961463
0.099014
0.101822
0.104564
0.107234
0.109828
0.112338
0.114761
0.117091
0.119322
0.121448
0.123463
0.125363
0.127147
0.128809
0.130347
0.131758
0.133039
0.134186
0.135195
0.136066
0.136798
0.137389
0.137838
0.138143
0.138304
0.13832
0.138189
0.13791
0.137484
0.136912
0.136193
0.135325
0.134312
0.133152
0.131847
0.13041
0.128849
0.127006
0.124751
0.00389828
0.0015808
-0.000308661
-0.00190753
-0.00337882
-0.00471137
-0.00589413
-0.00692893
-0.00781695
-0.0085579
-0.0091515
-0.00959764
-0.00989632
-0.010048
-0.0100533
-0.00991336
-0.00962951
-0.00920333
-0.00863669
-0.00793162
-0.0070903
-0.00611515
-0.00500876
-0.00377372
-0.00241271
-0.000928626
0.000675498
0.00239669
0.00423222
0.00617949
0.00823559
0.0103971
0.0126602
0.0150205
0.0174734
0.0200146
0.0226394
0.025343
0.0281207
0.0309677
0.0338792
0.0368495
0.039873
0.0429434
0.0460544
0.0492005
0.0523761
0.0555761
0.0587954
0.0620282
0.0652679
0.0685082
0.071743
0.0749663
0.0781727
0.0813567
0.0845119
0.0876329
0.0907143
0.0937501
0.0967347
0.0996635
0.102531
0.105331
0.108059
0.110708
0.113273
0.115749
0.11813
0.12041
0.122582
0.12464
0.126582
0.128404
0.130103
0.131675
0.133117
0.134424
0.135594
0.136624
0.137512
0.138259
0.138862
0.139317
0.139624
0.139782
0.13979
0.139646
0.13935
0.138903
0.138305
0.137556
0.136656
0.135605
0.134406
0.133058
0.131575
0.129966
0.128069
0.12575
0.00267896
0.000294746
-0.00165012
-0.00329593
-0.00481143
-0.0061858
-0.00740694
-0.00847616
-0.00939456
-0.0101619
-0.0107777
-0.0112419
-0.0115544
-0.0117155
-0.0117261
-0.0115873
-0.0113006
-0.0108676
-0.0102904
-0.00957129
-0.00871257
-0.00771673
-0.00658636
-0.0053241
-0.00393285
-0.00241582
-0.000776186
0.000983176
0.00285963
0.00485049
0.00695257
0.0091622
0.0114754
0.0138878
0.0163949
0.018992
0.0216742
0.0244366
0.0272745
0.030183
0.0331572
0.0361915
0.0392797
0.0424153
0.0455923
0.0488051
0.0520483
0.0553164
0.0586041
0.0619055
0.0652141
0.0685235
0.0718277
0.0751208
0.0783974
0.0816517
0.0848774
0.0880687
0.09122
0.094325
0.0973779
0.100374
0.103306
0.106171
0.108961
0.111671
0.114296
0.11683
0.119266
0.121598
0.123821
0.125928
0.127916
0.129783
0.131522
0.133131
0.134606
0.135942
0.137137
0.13819
0.1391
0.139864
0.140479
0.140942
0.141251
0.141406
0.141406
0.141251
0.140939
0.140471
0.139847
0.139067
0.138133
0.137046
0.135807
0.134416
0.132886
0.131228
0.129276
0.126892
0.00131434
-0.00113764
-0.00313958
-0.00483449
-0.00639574
-0.00781293
-0.00907337
-0.0101779
-0.0111274
-0.0119214
-0.0125597
-0.0130417
-0.0133676
-0.0135376
-0.0135526
-0.0134138
-0.0131229
-0.0126818
-0.0120925
-0.0113576
-0.0104795
-0.00946046
-0.00830332
-0.00701096
-0.00558653
-0.00403339
-0.00235466
-0.000553136
0.00136842
0.00340702
0.00555925
0.00782136
0.0101893
0.0126588
0.0152251
0.017883
0.0206275
0.0234538
0.0263571
0.0293325
0.032375
0.0354786
0.0386369
0.0418436
0.0450924
0.048378
0.0516948
0.055037
0.0583991
0.0617751
0.0651586
0.0685434
0.0719231
0.0752918
0.0786442
0.0819745
0.0852761
0.0885432
0.0917699
0.0949497
0.0980766
0.101145
0.104149
0.107083
0.109942
0.112719
0.115408
0.118004
0.1205
0.12289
0.125168
0.12733
0.12937
0.131284
0.133068
0.134717
0.136227
0.137596
0.138821
0.139901
0.140834
0.141616
0.142245
0.142716
0.143028
0.143182
0.143176
0.14301
0.142682
0.142192
0.141542
0.140733
0.139765
0.13864
0.13736
0.135925
0.134348
0.13264
0.130631
0.12818
-0.000198863
-0.00271991
-0.00478052
-0.00652679
-0.00813585
-0.0095972
-0.010898
-0.0120386
-0.0130198
-0.0138411
-0.0145017
-0.0150015
-0.0153403
-0.0155185
-0.015537
-0.0153972
-0.0151009
-0.0146501
-0.0140472
-0.0132947
-0.0123948
-0.01135
-0.0101633
-0.00883802
-0.00737738
-0.0057847
-0.00406303
-0.00221528
-0.000244551
0.0018459
0.0040526
0.00637182
0.00879949
0.011331
0.0139612
0.0166849
0.0194969
0.0223924
0.0253666
0.0284145
0.0315307
0.034709
0.0379432
0.0412269
0.0445537
0.0479182
0.0513145
0.0547369
0.0581795
0.0616363
0.065101
0.0685675
0.0720291
0.0754795
0.0789135
0.0823253
0.0857085
0.089057
0.0923646
0.0956248
0.0988315
0.101979
0.105061
0.108071
0.111003
0.113852
0.11661
0.119272
0.121833
0.124286
0.126626
0.128847
0.130943
0.132909
0.134741
0.136434
0.137984
0.13939
0.140649
0.141759
0.142717
0.143519
0.144162
0.144643
0.14496
0.145115
0.145105
0.144928
0.144583
0.144072
0.143396
0.142556
0.141554
0.140392
0.13907
0.13759
0.135964
0.134204
0.132137
0.129615
-0.00186379
-0.0044562
-0.00657732
-0.00837693
-0.0100358
-0.011543
-0.0128852
-0.0140629
-0.0150764
-0.0159251
-0.0166083
-0.0171256
-0.0174768
-0.0176626
-0.0176837
-0.0175418
-0.0172389
-0.0167771
-0.0161589
-0.0153865
-0.0144623
-0.0133892
-0.0121704
-0.0108092
-0.00930897
-0.00767299
-0.00590444
-0.00400653
-0.00198263
0.000163868
0.00242955
0.00481069
0.00730291
0.00990123
0.0126004
0.0153949
0.0182796
0.0212499
0.0243005
0.0274264
0.0306218
0.0338806
0.0371965
0.0405632
0.0439741
0.0474234
0.0509053
0.0544139
0.0579435
0.0614877
0.0650402
0.0685948
0.0721444
0.0756828
0.0792044
0.0827036
0.0861742
0.0896099
0.0930041
0.0963504
0.0996426
0.102875
0.10604
0.109132
0.112143
0.115069
0.117901
0.120636
0.123267
0.125789
0.128196
0.13048
0.132636
0.134659
0.136542
0.138283
0.139879
0.141326
0.142623
0.143765
0.14475
0.145573
0.146233
0.146725
0.147051
0.147208
0.147194
0.147007
0.146646
0.146113
0.145412
0.144542
0.143505
0.142304
0.140939
0.139411
0.137735
0.135922
0.133793
0.131198
-0.00368323
-0.00635044
-0.00853449
-0.0103893
-0.0121
-0.0136545
-0.0150395