/*--------------------------------*- C++ -*----------------------------------*\
| =========                 |                                                 |
| \\      /  F ield         | OpenFOAM: The Open Source CFD Toolbox           |
|  \\    /   O peration     | Version:  2212                                  |
|   \\  /    A nd           | Website:  www.openfoam.com                      |
|    \\/     M anipulation  |                                                 |
\*---------------------------------------------------------------------------*/
FoamFile
{
    version     2.0;
    format      ascii;
    arch        "LSB;label=32;scalar=64";
    class       surfaceScalarField;
    location    "0.0745";
    object      phi_0;
}
// * * * * * * * * * * * * * * * * * * * * * * * * * * * * * * * * * * * * * //

dimensions      [0 3 -1 0 0 0 0];

oriented        oriented;

internalField   nonuniform List<scalar> 
19800
(
6.94069e-11
-6.93779e-11
2.37773e-10
-1.68354e-10
4.22793e-10
-1.85042e-10
5.67724e-10
-1.44906e-10
6.39907e-10
-7.21926e-11
6.21378e-10
1.85417e-11
5.03117e-10
1.18257e-10
2.81829e-10
2.21298e-10
-4.21969e-11
3.24028e-10
-4.66309e-10
4.24115e-10
-9.8633e-10
5.20036e-10
-1.59709e-09
6.10758e-10
-2.29271e-09
6.95624e-10
-3.06688e-09
7.74184e-10
-3.91305e-09
8.46163e-10
-4.82447e-09
9.11419e-10
-5.79436e-09
9.69876e-10
-6.8159e-09
1.02153e-09
-7.88233e-09
1.06643e-09
-8.98699e-09
1.10466e-09
-1.01233e-08
1.13631e-09
-1.12849e-08
1.16156e-09
-1.24654e-08
1.18053e-09
-1.36588e-08
1.1934e-09
-1.48592e-08
1.20035e-09
-1.60607e-08
1.20157e-09
-1.72579e-08
1.19722e-09
-1.84455e-08
1.18753e-09
-1.96182e-08
1.17269e-09
-2.07711e-08
1.15291e-09
-2.18995e-08
1.12839e-09
-2.29988e-08
1.09936e-09
-2.40648e-08
1.06601e-09
-2.50934e-08
1.02855e-09
-2.60806e-08
9.87191e-10
-2.70227e-08
9.42154e-10
-2.79164e-08
8.93648e-10
-2.87582e-08
8.4188e-10
-2.95453e-08
7.87064e-10
-3.02747e-08
7.29422e-10
-3.09439e-08
6.69167e-10
-3.15504e-08
6.06519e-10
-3.20921e-08
5.41703e-10
-3.2567e-08
4.74933e-10
-3.29735e-08
4.06431e-10
-3.33099e-08
3.36422e-10
-3.3575e-08
2.65128e-10
-3.37678e-08
1.92785e-10
-3.38874e-08
1.1964e-10
-3.39334e-08
4.59276e-11
-3.39053e-08
-2.81133e-11
-3.3803e-08
-1.02237e-10
-3.36268e-08
-1.76198e-10
-3.33771e-08
-2.49747e-10
-3.30544e-08
-3.22624e-10
-3.26599e-08
-3.94567e-10
-3.21946e-08
-4.65311e-10
-3.166e-08
-5.34589e-10
-3.10578e-08
-6.02137e-10
-3.03902e-08
-6.67683e-10
-2.96592e-08
-7.30949e-10
-2.88676e-08
-7.91661e-10
-2.8018e-08
-8.49548e-10
-2.71137e-08
-9.04328e-10
-2.6158e-08
-9.55722e-10
-2.51545e-08
-1.00347e-09
-2.41072e-08
-1.0473e-09
-2.30202e-08
-1.08695e-09
-2.18981e-08
-1.12213e-09
-2.07455e-08
-1.15261e-09
-1.95674e-08
-1.17813e-09
-1.83689e-08
-1.19845e-09
-1.71556e-08
-1.21334e-09
-1.5933e-08
-1.22257e-09
-1.4707e-08
-1.22595e-09
-1.34838e-08
-1.22328e-09
-1.22694e-08
-1.21435e-09
-1.10704e-08
-1.19903e-09
-9.8932e-09
-1.17718e-09
-8.74452e-09
-1.14868e-09
-7.6311e-09
-1.11342e-09
-6.55975e-09
-1.07134e-09
-5.53733e-09
-1.02241e-09
-4.57069e-09
-9.6665e-10
-3.6666e-09
-9.04092e-10
-2.83175e-09
-8.3485e-10
-2.07263e-09
-7.59115e-10
-1.39547e-09
-6.77167e-10
-8.06075e-10
-5.894e-10
-3.09695e-10
-4.96379e-10
8.92174e-11
-3.98907e-10
3.87357e-10
-2.98137e-10
5.83074e-10
-1.95722e-10
6.77171e-10
-9.41032e-11
6.74156e-10
3.01492e-12
5.84281e-10
8.98789e-11
4.26719e-10
1.5756e-10
2.35007e-10
1.91703e-10
6.61957e-11
1.688e-10
6.61964e-11
1.68617e-10
-2.37968e-10
4.62655e-10
-4.62419e-10
7.43981e-10
-4.66363e-10
9.12722e-10
-3.13645e-10
8.99411e-10
-5.8878e-11
6.59465e-10
2.58453e-10
1.66996e-10
6.10741e-10
-5.90619e-10
9.78901e-10
-1.61646e-09
1.34987e-09
-2.90696e-09
1.71461e-09
-4.45376e-09
2.06681e-09
-6.24514e-09
2.40213e-09
-8.26701e-09
2.7175e-09
-1.05036e-08
3.01079e-09
-1.2938e-08
3.28062e-09
-1.55527e-08
3.52606e-09
-1.83294e-08
3.74658e-09
-2.12498e-08
3.94198e-09
-2.42956e-08
4.11222e-09
-2.74484e-08
4.25747e-09
-3.06901e-08
4.37803e-09
-3.40028e-08
4.47432e-09
-3.73691e-08
4.54681e-09
-4.07718e-08
4.59609e-09
-4.41942e-08
4.62276e-09
-4.76202e-08
4.62749e-09
-5.10339e-08
4.61096e-09
-5.44203e-08
4.5739e-09
-5.77646e-08
4.51704e-09
-6.10529e-08
4.44116e-09
-6.42715e-08
4.34702e-09
-6.74076e-08
4.23543e-09
-7.04487e-08
4.10716e-09
-7.33832e-08
3.96301e-09
-7.61998e-08
3.80381e-09
-7.88879e-08
3.63035e-09
-8.14378e-08
3.44346e-09
-8.38398e-08
3.24396e-09
-8.60854e-08
3.03268e-09
-8.81665e-08
2.81044e-09
-9.00754e-08
2.5781e-09
-9.18054e-08
2.33649e-09
-9.33502e-08
2.08647e-09
-9.47041e-08
1.82892e-09
-9.58624e-08
1.56468e-09
-9.68206e-08
1.29464e-09
-9.75751e-08
1.01968e-09
-9.81231e-08
7.40709e-10
-9.8462e-08
4.58636e-10
-9.85905e-08
1.74398e-10
-9.85075e-08
-1.11069e-10
-9.8213e-08
-3.96808e-10
-9.77073e-08
-6.81851e-10
-9.69919e-08
-9.65229e-10
-9.60685e-08
-1.24595e-09
-9.49401e-08
-1.523e-09
-9.361e-08
-1.79537e-09
-9.20826e-08
-2.06202e-09
-9.03628e-08
-2.32193e-09
-8.84565e-08
-2.57403e-09
-8.63701e-08
-2.81729e-09
-8.41112e-08
-3.05065e-09
-8.16877e-08
-3.27305e-09
-7.91086e-08
-3.48343e-09
-7.63835e-08
-3.68075e-09
-7.3523e-08
-3.86398e-09
-7.05383e-08
-4.03207e-09
-6.74412e-08
-4.18403e-09
-6.42445e-08
-4.31886e-09
-6.09615e-08
-4.43558e-09
-5.76064e-08
-4.53325e-09
-5.41938e-08
-4.61098e-09
-5.07393e-08
-4.6679e-09
-4.72586e-08
-4.7032e-09
-4.37685e-08
-4.7161e-09
-4.02859e-08
-4.7059e-09
-3.68282e-08
-4.67197e-09
-3.34135e-08
-4.61373e-09
-3.006e-08
-4.53071e-09
-2.67862e-08
-4.42251e-09
-2.36107e-08
-4.28888e-09
-2.05524e-08
-4.12965e-09
-1.763e-08
-3.94482e-09
-1.48621e-08
-3.73455e-09
-1.2267e-08
-3.49921e-09
-9.86239e-09
-3.23945e-09
-7.66532e-09
-2.95619e-09
-5.69172e-09
-2.65077e-09
-3.95607e-09
-2.32505e-09
-2.47084e-09
-1.9816e-09
-1.24583e-09
-1.62392e-09
-2.87167e-10
-1.25681e-09
4.0405e-10
-8.86945e-10
8.33628e-10
-5.23683e-10
1.01695e-09
-1.80303e-10
9.82646e-10
1.24177e-10
7.77619e-10
3.62577e-10
4.72934e-10
4.96376e-10
1.68693e-10
4.73041e-10
2.34896e-10
1.85985e-10
-4.23973e-10
4.68644e-10
-7.45081e-10
6.78271e-10
-6.75989e-10
6.94669e-10
-3.30043e-10
4.30547e-10
2.05247e-10
-1.73642e-10
8.6266e-10
-1.15516e-09
1.59225e-09
-2.53395e-09
2.35771e-09
-4.31689e-09
3.13282e-09
-6.50093e-09
3.89864e-09
-9.07563e-09
4.64152e-09
-1.20251e-08
5.35161e-09
-1.53294e-08
6.02179e-09
-1.89656e-08
6.64702e-09
-2.29088e-08
7.22376e-09
-2.71323e-08
7.7496e-09
-3.16088e-08
8.22306e-09
-3.63101e-08
8.64329e-09
-4.12079e-08
9.00998e-09
-4.62737e-08
9.32327e-09
-5.14793e-08
9.58359e-09
-5.67966e-08
9.79163e-09
-6.21981e-08
9.94833e-09
-6.76568e-08
1.00548e-08
-7.31462e-08
1.01122e-08
-7.86408e-08
1.0122e-08
-8.41154e-08
1.00856e-08
-8.95459e-08
1.00044e-08
-9.49089e-08
9.88004e-09
-1.00182e-07
9.71416e-09
-1.05343e-07
9.50838e-09
-1.10372e-07
9.26441e-09
-1.15249e-07
8.98396e-09
-1.19955e-07
8.66875e-09
-1.24471e-07
8.32055e-09
-1.28782e-07
7.94111e-09
-1.32871e-07
7.53223e-09
-1.36723e-07
7.0957e-09
-1.40323e-07
6.63335e-09
-1.4366e-07
6.14698e-09
-1.4672e-07
5.63846e-09
-1.49493e-07
5.10964e-09
-1.51969e-07
4.56238e-09
-1.54139e-07
3.99859e-09
-1.55995e-07
3.42018e-09
-1.57529e-07
2.82909e-09
-1.58737e-07
2.22727e-09
-1.59613e-07
1.61672e-09
-1.60153e-07
9.99433e-10
-1.60356e-07
3.77457e-10
-1.6022e-07
-2.47141e-10
-1.59745e-07
-8.72274e-10
-1.58931e-07
-1.49581e-09
-1.57781e-07
-2.1156e-09
-1.56297e-07
-2.72946e-09
-1.54485e-07
-3.33521e-09
-1.5235e-07
-3.9306e-09
-1.49898e-07
-4.51339e-09
-1.47139e-07
-5.08132e-09
-1.44081e-07
-5.63209e-09
-1.40735e-07
-6.16342e-09
-1.37112e-07
-6.67301e-09
-1.33227e-07
-7.15856e-09
-1.29092e-07
-7.61779e-09
-1.24725e-07
-8.04841e-09
-1.20141e-07
-8.44818e-09
-1.15358e-07
-8.81487e-09
-1.10396e-07
-9.14629e-09
-1.05274e-07
-9.44029e-09
-1.00015e-07
-9.69481e-09
-9.46403e-08
-9.90782e-09
-8.91739e-08
-1.00774e-08
-8.36401e-08
-1.02017e-08
-7.80642e-08
-1.0279e-08
-7.24726e-08
-1.03077e-08
-6.68922e-08
-1.02863e-08
-6.13506e-08
-1.02135e-08
-5.58762e-08
-1.00882e-08
-5.04975e-08
-9.90937e-09
-4.52437e-08
-9.67635e-09
-4.01439e-08
-9.38865e-09
-3.52274e-08
-9.04611e-09
-3.05233e-08
-8.64891e-09
-2.60602e-08
-8.19762e-09
-2.18662e-08
-7.69331e-09
-1.7968e-08
-7.13761e-09
-1.43913e-08
-6.5329e-09
-1.11596e-08
-5.88248e-09
-8.29383e-09
-5.19078e-09
-5.81164e-09
-4.46379e-09
-3.72607e-09
-3.70948e-09
-2.04431e-09
-2.93856e-09
-7.65834e-10
-2.16542e-09
1.19993e-10
-1.40951e-09
6.37005e-10
-6.97319e-10
8.2611e-10
-6.49295e-11
7.50025e-10
4.3866e-10
4.98296e-10
7.48102e-10
1.92159e-10
7.79184e-10
4.27059e-10
1.47268e-10
-5.71214e-10
3.20165e-10
-9.17988e-10
3.39776e-10
-6.95605e-10
7.80842e-11
-6.834e-11
-5.59144e-10
8.42473e-10
-1.63817e-09
1.94168e-09
-3.20206e-09
3.15614e-09
-5.27507e-09
4.43073e-09
-7.86647e-09
5.72421e-09
-1.09737e-08
7.00586e-09
-1.4585e-08
8.25281e-09
-1.86814e-08
9.44805e-09
-2.32387e-08
1.05791e-08
-2.82284e-08
1.16367e-08
-3.3619e-08
1.26143e-08
-3.93767e-08
1.35074e-08
-4.54663e-08
1.43127e-08
-5.18514e-08
1.50284e-08
-5.84951e-08
1.56536e-08
-6.53601e-08
1.61883e-08
-7.24092e-08
1.66327e-08
-7.96056e-08
1.6988e-08
-8.69128e-08
1.72555e-08
-9.42947e-08
1.74368e-08
-1.01716e-07
1.75339e-08
-1.09143e-07
1.7549e-08
-1.16542e-07
1.74845e-08
-1.23881e-07
1.73428e-08
-1.31127e-07
1.71266e-08
-1.38252e-07
1.68386e-08
-1.45225e-07
1.64816e-08
-1.52019e-07
1.60585e-08
-1.58607e-07
1.55722e-08
-1.64964e-07
1.50256e-08
-1.71065e-07
1.44219e-08
-1.76888e-07
1.3764e-08
-1.82411e-07
1.3055e-08
-1.87613e-07
1.22981e-08
-1.92476e-07
1.14963e-08
-1.96982e-07
1.06529e-08
-2.01115e-07
9.77099e-09
-2.04859e-07
8.8539e-09
-2.08202e-07
7.90485e-09
-2.1113e-07
6.92714e-09
-2.13634e-07
5.92409e-09
-2.15704e-07
4.89908e-09
-2.17332e-07
3.85552e-09
-2.18512e-07
2.79687e-09
-2.1924e-07
1.72664e-09
-2.19511e-07
6.48363e-10
-2.19323e-07
-4.34364e-10
-2.18678e-07
-1.5179e-09
-2.17575e-07
-2.59855e-09
-2.16018e-07
-3.67259e-09
-2.14011e-07
-4.73623e-09
-2.11561e-07
-5.78565e-09
-2.08674e-07
-6.817e-09
-2.05361e-07
-7.82637e-09
-2.01633e-07
-8.80984e-09
-1.97501e-07
-9.76347e-09
-1.92982e-07
-1.06833e-08
-1.88089e-07
-1.15654e-08
-1.82842e-07
-1.24057e-08
-1.77259e-07
-1.32004e-08
-1.71362e-07
-1.39455e-08
-1.65173e-07
-1.46372e-08
-1.58716e-07
-1.52716e-08
-1.52018e-07
-1.5845e-08
-1.45104e-07
-1.63537e-08
-1.38005e-07
-1.67942e-08
-1.3075e-07
-1.7163e-08
-1.2337e-07
-1.74569e-08
-1.15899e-07
-1.76729e-08
-1.0837e-07
-1.78079e-08
-1.00819e-07
-1.78592e-08
-9.32806e-08
-1.78246e-08
-8.57924e-08
-1.77017e-08
-7.83918e-08
-1.74888e-08
-7.11169e-08
-1.71843e-08
-6.40059e-08
-1.67873e-08
-5.70974e-08
-1.62971e-08
-5.04298e-08
-1.57137e-08
-4.40411e-08
-1.50376e-08
-3.79686e-08
-1.42702e-08
-3.22484e-08
-1.34135e-08
-2.69152e-08
-1.24708e-08
-2.20014e-08
-1.14467e-08
-1.75367e-08
-1.03471e-08
-1.35472e-08
-9.1803e-09
-1.00542e-08
-7.95679e-09
-7.07308e-09
-6.69058e-09
-4.61168e-09
-5.39995e-09
-2.66822e-09
-4.10889e-09
-1.22883e-09
-2.8489e-09
-2.64629e-10
-1.66152e-09
2.71882e-10
-6.01437e-10
4.5095e-10
2.59587e-10
3.70066e-10
8.28982e-10
1.59718e-10
9.89538e-10
5.86778e-10
7.67916e-11
-6.48006e-10
7.19752e-11
-9.13191e-10
-1.84036e-10
-4.39604e-10
-8.1659e-10
5.64232e-10
-1.91924e-09
1.94511e-09
-3.55891e-09
3.58136e-09
-5.78001e-09
5.37724e-09
-8.60807e-09
7.25877e-09
-1.20529e-08
9.16909e-09
-1.61118e-08
1.10647e-08
-2.07714e-08
1.29124e-08
-2.60103e-08
1.4687e-08
-3.18006e-08
1.63694e-08
-3.81094e-08
1.79455e-08
-4.48997e-08
1.94047e-08
-5.21318e-08
2.07395e-08
-5.97638e-08
2.19447e-08
-6.77524e-08
2.30169e-08
-7.60531e-08
2.39543e-08
-8.46211e-08
2.47563e-08
-9.34114e-08
2.54231e-08
-1.02379e-07
2.59558e-08
-1.1148e-07
2.63563e-08
-1.2067e-07
2.66268e-08
-1.29906e-07
2.67701e-08
-1.39147e-07
2.67892e-08
-1.4835e-07
2.66877e-08
-1.57476e-07
2.64691e-08
-1.66487e-07
2.61373e-08
-1.75344e-07
2.56963e-08
-1.84013e-07
2.51504e-08
-1.92459e-07
2.45038e-08
-2.00647e-07
2.3761e-08
-2.08548e-07
2.29264e-08
-2.16131e-07
2.20045e-08
-2.23367e-07
2.10001e-08
-2.30229e-07
1.99177e-08
-2.36694e-07
1.87622e-08
-2.42735e-07
1.75382e-08
-2.48333e-07
1.62507e-08
-2.53467e-07
1.49045e-08
-2.58117e-07
1.35046e-08
-2.62269e-07
1.20559e-08
-2.65905e-07
1.05636e-08
-2.69013e-07
9.03259e-09
-2.71583e-07
7.46816e-09
-2.73603e-07
5.87551e-09
-2.75066e-07
4.25993e-09
-2.75966e-07
2.62677e-09
-2.76299e-07
9.81465e-10
-2.76063e-07
-6.70494e-10
-2.75257e-07
-2.32354e-09
-2.73884e-07
-3.97203e-09
-2.71946e-07
-5.61027e-09
-2.6945e-07
-7.23249e-09
-2.66402e-07
-8.83285e-09
-2.62814e-07
-1.04055e-08
-2.58696e-07
-1.19444e-08
-2.54062e-07
-1.34437e-08
-2.48928e-07
-1.48974e-08
-2.43312e-07
-1.62994e-08
-2.37234e-07
-1.76437e-08
-2.30715e-07
-1.89244e-08
-2.2378e-07
-2.01354e-08
-2.16455e-07
-2.12708e-08
-2.08767e-07
-2.23248e-08
-2.00747e-07
-2.32916e-08
-1.92427e-07
-2.41655e-08
-1.83839e-07
-2.49412e-08
-1.7502e-07
-2.56131e-08
-1.66007e-07
-2.61762e-08
-1.56838e-07
-2.66257e-08
-1.47554e-07
-2.69568e-08
-1.38197e-07
-2.71653e-08
-1.28809e-07
-2.72473e-08
-1.19434e-07
-2.71992e-08
-1.10118e-07
-2.70178e-08
-1.00906e-07
-2.67005e-08
-9.18451e-08
-2.62455e-08
-8.29813e-08
-2.56511e-08
-7.43615e-08
-2.4917e-08
-6.60321e-08
-2.40431e-08
-5.80388e-08
-2.30308e-08
-5.04266e-08
-2.18824e-08
-4.32384e-08
-2.06016e-08
-3.65155e-08
-1.91937e-08
-3.02962e-08
-1.7666e-08
-2.46152e-08
-1.60282e-08
-1.95027e-08
-1.42928e-08
-1.49832e-08
-1.24762e-08
-1.10743e-08
-1.05996e-08
-7.78445e-09
-8.68977e-09
-5.11175e-09
-6.78159e-09
-3.04107e-09
-4.91958e-09
-1.54158e-09
-3.161e-09
-5.63697e-10
-1.57933e-09
-3.55578e-11
-2.6856e-10
1.40863e-10
6.5256e-10
9.49483e-11
1.03545e-09
6.81727e-10
-1.1136e-11
-6.36846e-10
-2.37497e-10
-6.8686e-10
-8.2842e-10
1.51328e-10
-1.89858e-09
1.63437e-09
-3.53491e-09
3.58145e-09
-5.80045e-09
5.84689e-09
-8.7373e-09
8.31408e-09
-1.23695e-08
1.0891e-08
-1.67057e-08
1.35053e-08
-2.17414e-08
1.61005e-08
-2.74617e-08
1.86326e-08
-3.38424e-08
2.10676e-08
-4.08523e-08
2.33793e-08
-4.84544e-08
2.55476e-08
-5.66073e-08
2.75576e-08
-6.52661e-08
2.93982e-08
-7.4383e-08
3.10616e-08
-8.39087e-08
3.25426e-08
-9.37924e-08
3.3838e-08
-1.03982e-07
3.49463e-08
-1.14427e-07
3.58677e-08
-1.25074e-07
3.66031e-08
-1.35873e-07
3.71547e-08
-1.46771e-07
3.75254e-08
-1.5772e-07
3.77187e-08
-1.68669e-07
3.77388e-08
-1.79572e-07
3.75902e-08
-1.90381e-07
3.72778e-08
-2.0105e-07
3.68069e-08
-2.11537e-07
3.6183e-08
-2.21798e-07
3.54119e-08
-2.31794e-07
3.44995e-08
-2.41485e-07
3.34519e-08
-2.50834e-07
3.22754e-08
-2.59806e-07
3.09763e-08
-2.68367e-07
2.95611e-08
-2.76486e-07
2.80363e-08
-2.84132e-07
2.64085e-08
-2.91278e-07
2.46846e-08
-2.97899e-07
2.28712e-08
-3.0397e-07
2.09753e-08
-3.09469e-07
1.90039e-08
-3.14377e-07
1.69638e-08
-3.18676e-07
1.48623e-08
-3.2235e-07
1.27066e-08
-3.25386e-07
1.05039e-08
-3.27772e-07
8.2616e-09
-3.29499e-07
5.98714e-09
-3.3056e-07
3.68809e-09
-3.30951e-07
1.37209e-09
-3.30668e-07
-9.53087e-10
-3.29712e-07
-3.27962e-09
-3.28085e-07
-5.59956e-09
-3.2579e-07
-7.90488e-09
-3.22835e-07
-1.01875e-08
-3.19229e-07
-1.24391e-08
-3.14983e-07
-1.46515e-08
-3.10111e-07
-1.68164e-08
-3.04629e-07
-1.89254e-08
-2.98556e-07
-2.09701e-08
-2.91914e-07
-2.29419e-08
-2.84725e-07
-2.48326e-08
-2.77015e-07
-2.66338e-08
-2.68814e-07
-2.83369e-08
-2.60151e-07
-2.99339e-08
-2.51059e-07
-3.14165e-08
-2.41574e-07
-3.27766e-08
-2.31733e-07
-3.40065e-08
-2.21576e-07
-3.50986e-08
-2.11143e-07
-3.60453e-08
-2.0048e-07
-3.68397e-08
-1.89631e-07
-3.74749e-08
-1.78643e-07
-3.79448e-08
-1.67565e-07
-3.82432e-08
-1.56447e-07
-3.8365e-08
-1.45341e-07
-3.83052e-08
-1.34299e-07
-3.80598e-08
-1.23374e-07
-3.76253e-08
-1.12621e-07
-3.69992e-08
-1.02092e-07
-3.61798e-08
-9.18423e-08
-3.51666e-08
-8.19252e-08
-3.39602e-08
-7.23932e-08
-3.25628e-08
-6.32976e-08
-3.0978e-08
-5.46877e-08
-2.92115e-08
-4.66103e-08
-2.72712e-08
-3.91087e-08
-2.51677e-08
-3.2222e-08
-2.29148e-08
-2.59843e-08
-2.05305e-08
-2.04231e-08
-1.80375e-08
-1.55579e-08
-1.54647e-08
-1.1399e-08
-1.28487e-08
-7.94534e-09
-1.02353e-08
-5.18251e-09
-7.68241e-09
-3.08051e-09
-5.263e-09
-1.59127e-09
-3.06858e-09
-6.45849e-10
-1.21398e-09
-1.51526e-10
1.58238e-10
1.20101e-11
8.7192e-10
6.93742e-10
-1.08043e-10
-5.28816e-10
-5.82462e-10
-2.12448e-10
-1.5472e-09
1.11606e-09
-3.10094e-09
3.18812e-09
-5.3198e-09
5.80032e-09
-8.25929e-09
8.78637e-09
-1.19562e-08
1.2011e-08
-1.64308e-08
1.53656e-08
-2.16887e-08
1.87631e-08
-2.77227e-08
2.21345e-08
-3.4515e-08
2.54249e-08
-4.20385e-08
2.85912e-08
-5.02588e-08
3.15995e-08
-5.9135e-08
3.44238e-08
-6.86215e-08
3.70441e-08
-7.86687e-08
3.94454e-08
-8.92239e-08
4.16168e-08
-1.00232e-07
4.35509e-08
-1.11637e-07
4.5243e-08
-1.23381e-07
4.66905e-08
-1.35407e-07
4.7893e-08
-1.47655e-07
4.88515e-08
-1.60069e-07
4.95683e-08
-1.7259e-07
5.00469e-08
-1.85163e-07
5.02916e-08
-1.97732e-07
5.03076e-08
-2.10242e-07
5.01006e-08
-2.22641e-07
4.96769e-08
-2.34878e-07
4.90433e-08
-2.46902e-07
4.8207e-08
-2.58666e-07
4.71755e-08
-2.70122e-07
4.59565e-08
-2.81229e-07
4.4558e-08
-2.91941e-07
4.29883e-08
-3.02221e-07
4.12557e-08
-3.12028e-07
3.93687e-08
-3.21328e-07
3.73361e-08
-3.30086e-07
3.51666e-08
-3.38271e-07
3.28692e-08
-3.45853e-07
3.04529e-08
-3.52804e-07
2.79268e-08
-3.591e-07
2.53002e-08
-3.64719e-07
2.25825e-08
-3.6964e-07
1.9783e-08
-3.73845e-07
1.69115e-08
-3.77318e-07
1.39777e-08
-3.80048e-07
1.09912e-08
-3.82023e-07
7.96213e-09
-3.83235e-07
4.90051e-09
-3.8368e-07
1.81653e-09
-3.83353e-07
-1.27948e-09
-3.82256e-07
-4.37707e-09
-3.8039e-07
-7.46568e-09
-3.7776e-07
-1.05346e-08
-3.74374e-07
-1.35731e-08
-3.70243e-07
-1.65702e-08
-3.6538e-07
-1.9515e-08
-3.598e-07
-2.23963e-08
-3.53522e-07
-2.52031e-08
-3.46568e-07
-2.79242e-08
-3.38962e-07
-3.05485e-08
-3.3073e-07
-3.30647e-08
-3.21901e-07
-3.54618e-08
-3.1251e-07
-3.77287e-08
-3.02589e-07
-3.98545e-08
-2.92177e-07
-4.18284e-08
-2.81314e-07
-4.36398e-08
-2.70042e-07
-4.52785e-08
-2.58406e-07
-4.67343e-08
-2.46454e-07
-4.79976e-08
-2.34235e-07
-4.90591e-08
-2.218e-07
-4.991e-08
-2.09202e-07
-5.05421e-08
-1.96498e-07
-5.09478e-08
-1.83743e-07
-5.112e-08
-1.70995e-07
-5.10527e-08
-1.58314e-07
-5.07406e-08
-1.4576e-07
-5.01796e-08
-1.33393e-07
-4.93665e-08
-1.21273e-07
-4.82994e-08
-1.09462e-07
-4.69781e-08
-9.80181e-08
-4.54039e-08
-8.7001e-08
-4.35799e-08
-7.64675e-08
-4.15115e-08
-6.64725e-08
-3.92066e-08
-5.70675e-08
-3.66761e-08
-4.83007e-08
-3.39345e-08
-4.02153e-08
-3.10002e-08
-3.28489e-08
-2.7897e-08
-2.62319e-08
-2.46545e-08
-2.03867e-08
-2.13099e-08
-1.5326e-08
-1.79094e-08
-1.10509e-08
-1.45104e-08
-7.54953e-09
-1.11838e-08
-4.79513e-09
-8.0174e-09
-2.74402e-09
-5.11969e-09
-1.33377e-09
-2.62423e-09
-4.81239e-10
-6.94295e-10
-8.05285e-11
4.71214e-10
6.13224e-10
-2.0877e-10
-3.20033e-10
-9.45895e-10
5.24668e-10
-2.30823e-09
2.4784e-09
-4.3756e-09
5.25547e-09
-7.21032e-09
8.63504e-09
-1.08577e-08
1.24338e-08
-1.53471e-08
1.65004e-08
-2.06927e-08
2.07112e-08
-2.68957e-08
2.4966e-08
-3.39448e-08
2.91836e-08
-4.18186e-08
3.32987e-08
-5.04866e-08
3.72592e-08
-5.99106e-08
4.10235e-08
-7.0046e-08
4.45593e-08
-8.08432e-08
4.78413e-08
-9.22481e-08
5.08503e-08
-1.04203e-07
5.35722e-08
-1.1665e-07
5.5997e-08
-1.29525e-07
5.81181e-08
-1.42766e-07
5.99319e-08
-1.5631e-07
6.14372e-08
-1.70094e-07
6.26348e-08
-1.84052e-07
6.35271e-08
-1.98124e-07
6.41181e-08
-2.12245e-07
6.44129e-08
-2.26355e-07
6.44177e-08
-2.40394e-07
6.41396e-08
-2.54303e-07
6.35863e-08
-2.68026e-07
6.27662e-08
-2.81507e-07
6.16882e-08
-2.94694e-07
6.03617e-08
-3.07534e-07
5.87965e-08
-3.19978e-07
5.70026e-08
-3.3198e-07
5.49904e-08
-3.43495e-07
5.27705e-08
-3.5448e-07
5.03537e-08
-3.64895e-07
4.77511e-08
-3.74702e-07
4.49738e-08
-3.83867e-07
4.20333e-08
-3.92355e-07
3.8941e-08
-4.00137e-07
3.57086e-08
-4.07184e-07
3.2348e-08
-4.13473e-07
2.8871e-08
-4.1898e-07
2.52899e-08
-4.23685e-07
2.16168e-08
-4.27572e-07
1.78642e-08
-4.30625e-07
1.40446e-08
-4.32833e-07
1.01707e-08
-4.34188e-07
6.2555e-09
-4.34684e-07
2.31193e-09
-4.34317e-07
-1.64679e-09
-4.33086e-07
-5.60731e-09
-4.30996e-07
-9.55612e-09
-4.28051e-07
-1.34796e-08
-4.2426e-07
-1.73639e-08
-4.19635e-07
-2.11952e-08
-4.14191e-07
-2.49595e-08
-4.07944e-07
-2.86426e-08
-4.00917e-07
-3.22304e-08
-3.93133e-07
-3.57086e-08
-3.84618e-07
-3.90632e-08
-3.75403e-07
-4.22798e-08
-3.6552e-07
-4.53443e-08
-3.55006e-07
-4.82429e-08
-3.43899e-07
-5.09614e-08
-3.32241e-07
-5.34865e-08
-3.20076e-07
-5.58045e-08
-3.07452e-07
-5.79026e-08
-2.94419e-07
-5.9768e-08
-2.81028e-07
-6.13884e-08
-2.67335e-07
-6.27524e-08
-2.53396e-07
-6.38487e-08
-2.39271e-07
-6.46671e-08
-2.2502e-07
-6.51981e-08
-2.10707e-07
-6.54332e-08
-1.96395e-07
-6.53647e-08
-1.8215e-07
-6.49862e-08
-1.68037e-07
-6.42928e-08
-1.54122e-07
-6.32808e-08
-1.40473e-07
-6.19484e-08
-1.27156e-07
-6.02953e-08
-1.14236e-07
-5.83239e-08
-1.01778e-07
-5.60384e-08
-8.98427e-08
-5.34463e-08
-7.84914e-08
-5.0558e-08
-6.77799e-08
-4.73876e-08
-5.77606e-08
-4.39537e-08
-4.84808e-08
-4.028e-08
-3.99817e-08
-3.63961e-08
-3.22973e-08
-3.23389e-08
-2.54531e-08
-2.81541e-08
-1.9465e-08
-2.38975e-08
-1.43378e-08
-1.96375e-08
-1.00638e-08
-1.54578e-08
-6.62132e-09
-1.14599e-08
-3.97342e-09
-7.76758e-09
-2.06684e-09
-4.53081e-09
-8.30973e-10
-1.93016e-09
-1.77407e-10
-1.82342e-10
4.35824e-10
-3.103e-10
-9.73684e-12
-1.31677e-09
1.53113e-09
-3.08962e-09
4.25126e-09
-5.68851e-09
7.85436e-09
-9.16027e-09
1.21068e-08
-1.35382e-08
1.68117e-08
-1.88422e-08
2.18044e-08
-2.50793e-08
2.69483e-08
-3.22442e-08
3.2131e-08
-4.03209e-08
3.72604e-08
-4.92834e-08
4.22612e-08
-5.9097e-08
4.70728e-08
-6.97196e-08
5.16461e-08
-8.11026e-08
5.59423e-08
-9.31921e-08
5.99308e-08
-1.0593e-07
6.35882e-08
-1.19255e-07
6.68968e-08
-1.33102e-07
6.98439e-08
-1.47405e-07
7.24211e-08
-1.62096e-07
7.46233e-08
-1.77107e-07
7.64484e-08
-1.92369e-07
7.78969e-08
-2.07813e-07
7.89714e-08
-2.23372e-07
7.96763e-08
-2.38976e-07
8.00175e-08
-2.54561e-07
8.00022e-08
-2.7006e-07
7.96388e-08
-2.8541e-07
7.89366e-08
-3.0055e-07
7.79057e-08
-3.15418e-07
7.65567e-08
-3.29958e-07
7.49013e-08
-3.44112e-07
7.29511e-08
-3.57828e-07
7.07185e-08
-3.71054e-07
6.82163e-08
-3.83741e-07
6.54574e-08
-3.95842e-07
6.24551e-08
-4.07314e-07
5.92231e-08
-4.18116e-07
5.57751e-08
-4.28207e-07
5.21251e-08
-4.37554e-07
4.82875e-08
-4.46122e-07
4.42766e-08
-4.53881e-07
4.01071e-08
-4.60804e-07
3.57937e-08
-4.66865e-07
3.13515e-08
-4.72044e-07
2.67956e-08
-4.76321e-07
2.21415e-08
-4.79681e-07
1.74046e-08
-4.82111e-07
1.26008e-08
-4.83602e-07
7.74596e-09
-4.84146e-07
2.85626e-09
-4.83741e-07
-2.05195e-09
-4.82386e-07
-6.96214e-09
-4.80085e-07
-1.18576e-08
-4.76843e-07
-1.67215e-08
-4.7267e-07
-2.15367e-08
-4.67579e-07
-2.62861e-08
-4.61586e-07
-3.09523e-08
-4.54711e-07
-3.55179e-08
-4.46976e-07
-3.99654e-08
-4.38407e-07
-4.42774e-08
-4.29034e-07
-4.84362e-08
-4.1889e-07
-5.24244e-08
-4.08009e-07
-5.62245e-08
-3.96433e-07
-5.98195e-08
-3.84202e-07
-6.31921e-08
-3.71363e-07
-6.63256e-08
-3.57964e-07
-6.92036e-08
-3.44057e-07
-7.18101e-08
-3.29695e-07
-7.41295e-08
-3.14937e-07
-7.6147e-08
-2.99841e-07
-7.78482e-08
-2.8447e-07
-7.92199e-08
-2.68887e-07
-8.02493e-08
-2.5316e-07
-8.09251e-08
-2.37356e-07
-8.1237e-08
-2.21545e-07
-8.11758e-08
-2.05798e-07
-8.0734e-08
-1.90185e-07
-7.99057e-08
-1.74779e-07
-7.86868e-08
-1.59652e-07
-7.70755e-08
-1.44875e-07
-7.50719e-08
-1.3052e-07
-7.26792e-08
-1.16655e-07
-6.99032e-08
-1.03348e-07
-6.67533e-08
-9.06632e-08
-6.32428e-08
-7.86614e-08
-5.93894e-08
-6.73992e-08
-5.52159e-08
-5.69279e-08
-5.07512e-08
-4.72927e-08
-4.60313e-08
-3.85314e-08
-4.11002e-08
-3.06736e-08
-3.60119e-08
-2.37392e-08
-3.08318e-08
-1.77378e-08
-2.56389e-08
-1.26671e-08
-2.05284e-08
-8.51225e-09
-1.56148e-08
-5.24487e-09
-1.1035e-08
-2.82268e-09
-6.953e-09
-1.1894e-09
-3.56344e-09
-2.75465e-10
-1.09627e-09
1.60361e-10
-4.10797e-10
4.01065e-10
-1.68806e-09
2.80838e-09
-3.87668e-09
6.43988e-09
-7.01605e-09
1.09937e-08
-1.11367e-08
1.62274e-08
-1.62587e-08
2.19338e-08
-2.23915e-08
2.79371e-08
-2.95332e-08
3.409e-08
-3.76715e-08
4.02693e-08
-4.67843e-08
4.63731e-08
-5.68402e-08
5.23171e-08
-6.77998e-08
5.80323e-08
-7.96164e-08
6.34627e-08
-9.22373e-08
6.85631e-08
-1.05604e-07
7.32978e-08
-1.19655e-07
7.76389e-08
-1.34323e-07
8.15653e-08
-1.49541e-07
8.50615e-08
-1.65237e-07
8.81169e-08
-1.81338e-07
9.0725e-08
-1.97773e-07
9.28829e-08
-2.14467e-07
9.45907e-08
-2.31346e-07
9.58509e-08
-2.48338e-07
9.66684e-08
-2.65371e-07
9.70499e-08
-2.82372e-07
9.70037e-08
-2.99273e-07
9.65394e-08
-3.16004e-07
9.5668e-08
-3.325e-07
9.44013e-08
-3.48695e-07
9.27521e-08
-3.64528e-07
9.07338e-08
-3.79937e-07
8.83606e-08
-3.94866e-07
8.56472e-08
-4.09259e-07
8.26087e-08
-4.23062e-07
7.92608e-08
-4.36226e-07
7.56195e-08
-4.48704e-07
7.1701e-08
-4.60451e-07
6.75219e-08
-4.71425e-07
6.30993e-08
-4.81588e-07
5.84501e-08
-4.90903e-07
5.35919e-08
-4.99338e-07
4.85422e-08
-5.06864e-07
4.3319e-08
-5.13453e-07
3.79404e-08
-5.19082e-07
3.24247e-08
-5.23731e-07
2.67905e-08
-5.27383e-07
2.10566e-08
-5.30024e-07
1.5242e-08
-5.31644e-07
9.3661e-09
-5.32236e-07
3.44829e-09
-5.31796e-07
-2.49164e-09
-5.30325e-07
-8.43376e-09
-5.27825e-07
-1.43579e-08
-5.24303e-07
-2.02436e-08
-5.19769e-07
-2.60703e-08
-5.14238e-07
-3.18174e-08
-5.07726e-07
-3.74638e-08
-5.00255e-07
-4.29888e-08
-4.9185e-07
-4.8371e-08
-4.82537e-07
-5.35895e-08
-4.7235e-07
-5.86232e-08
-4.61324e-07
-6.3451e-08
-4.49496e-07
-6.8052e-08
-4.3691e-07
-7.24055e-08
-4.23611e-07
-7.64911e-08
-4.09648e-07
-8.02885e-08
-3.95074e-07
-8.37781e-08
-3.79943e-07
-8.69408e-08
-3.64314e-07
-8.97579e-08
-3.4825e-07
-9.22117e-08
-3.31813e-07
-9.42852e-08
-3.1507e-07
-9.59624e-08
-2.98091e-07
-9.72285e-08
-2.80946e-07
-9.80698e-08
-2.63709e-07
-9.84741e-08
-2.46454e-07
-9.84308e-08
-2.29257e-07
-9.79313e-08
-2.12194e-07
-9.69687e-08
-1.95342e-07
-9.55385e-08
-1.78779e-07
-9.36387e-08
-1.62581e-07
-9.127e-08
-1.46823e-07
-8.84366e-08
-1.31581e-07
-8.51458e-08
-1.16925e-07
-8.14094e-08
-1.02924e-07
-7.72433e-08
-8.96445e-08
-7.2669e-08
-7.71466e-08
-6.77138e-08
-6.5486e-08
-6.24119e-08
-5.4712e-08
-5.68053e-08
-4.48669e-08
-5.09453e-08
-3.59848e-08
-4.48941e-08
-2.80907e-08
-3.87259e-08
-2.11999e-08
-3.25297e-08
-1.53168e-08
-2.64116e-08
-1.04344e-08
-2.04972e-08
-6.53422e-09
-1.49351e-08
-3.58621e-09
-9.90102e-09
-1.54926e-09
-5.60039e-09
-3.72839e-10
-2.27268e-09
-2.1248e-10
-5.09388e-10
9.10465e-10
-2.05544e-09
4.35441e-09
-4.6598e-09
9.04424e-09
-8.34215e-09
1.46761e-08
-1.31165e-08
2.10018e-08
-1.89893e-08
2.78066e-08
-2.59583e-08
3.49061e-08
-3.40122e-08
4.21438e-08
-4.31305e-08
4.93877e-08
-5.32843e-08
5.65269e-08
-6.4436e-08
6.34689e-08
-7.65408e-08
7.01372e-08
-8.95473e-08
7.64691e-08
-1.03398e-07
8.24136e-08
-1.1803e-07
8.79299e-08
-1.33377e-07
9.29859e-08
-1.49369e-07
9.75568e-08
-1.65932e-07
1.01625e-07
-1.82991e-07
1.05176e-07
-2.00471e-07
1.08204e-07
-2.18292e-07
1.10705e-07
-2.36378e-07
1.12677e-07
-2.5465e-07
1.14123e-07
-2.73031e-07
1.1505e-07
-2.91445e-07
1.15463e-07
-3.09814e-07
1.15373e-07
-3.28066e-07
1.14791e-07
-3.46127e-07
1.13729e-07
-3.63927e-07
1.12201e-07
-3.81397e-07
1.10222e-07
-3.9847e-07
1.07807e-07
-4.15083e-07
1.04973e-07
-4.31174e-07
1.01738e-07
-4.46683e-07
9.81181e-08
-4.61555e-07
9.41327e-08
-4.75736e-07
8.98004e-08
-4.89175e-07
8.51404e-08
-5.01826e-07
8.01723e-08
-5.13642e-07
7.4916e-08
-5.24584e-07
6.9392e-08
-5.34613e-07
6.36206e-08
-5.43694e-07
5.76228e-08
-5.51794e-07
5.14198e-08
-5.58887e-07
4.50329e-08
-5.64946e-07
3.8484e-08
-5.69951e-07
3.1795e-08
-5.73882e-07
2.49881e-08
-5.76726e-07
1.8086e-08
-5.78471e-07
1.11114e-08
-5.7911e-07
4.08751e-09
-5.7864e-07
-2.96238e-09
-5.77059e-07
-1.00146e-08
-5.74371e-07
-1.70453e-08
-5.70585e-07
-2.40304e-08
-5.65709e-07
-3.09455e-08
-5.59761e-07
-3.77662e-08
-5.52757e-07
-4.44676e-08
-5.4472e-07
-5.10251e-08
-5.35678e-07
-5.74138e-08
-5.25658e-07
-6.36087e-08
-5.14697e-07
-6.95849e-08
-5.0283e-07
-7.53177e-08
-4.901e-07
-8.07824e-08
-4.76551e-07
-8.59545e-08
-4.62232e-07
-9.081e-08
-4.47195e-07
-9.53252e-08
-4.31496e-07
-9.94769e-08
-4.15195e-07
-1.03243e-07
-3.98352e-07
-1.06601e-07
-3.81034e-07
-1.0953e-07
-3.63308e-07
-1.12011e-07
-3.45247e-07
-1.14024e-07
-3.26922e-07
-1.15553e-07
-3.0841e-07
-1.16582e-07
-2.89788e-07
-1.17096e-07
-2.71135e-07
-1.17084e-07
-2.52531e-07
-1.16535e-07
-2.34059e-07
-1.15441e-07
-2.158e-07
-1.13798e-07
-1.97835e-07
-1.11604e-07
-1.80246e-07
-1.08859e-07
-1.63113e-07
-1.05569e-07
-1.46515e-07
-1.01744e-07
-1.30528e-07
-9.73963e-08
-1.15226e-07
-9.25456e-08
-1.00678e-07
-8.72169e-08
-8.69496e-08
-8.1442e-08
-7.41013e-08
-7.52602e-08
-6.21867e-08
-6.87199e-08
-5.1253e-08
-6.18791e-08
-4.13395e-08
-5.48076e-08
-3.2477e-08
-4.75883e-08
-2.46873e-08
-4.03195e-08
-1.79823e-08
-3.31166e-08
-1.23642e-08
-2.61153e-08
-7.82504e-09
-1.94743e-08
-4.34751e-09
-1.33785e-08
-1.90599e-09
-8.04191e-09
-4.68461e-10
-3.71021e-09
-6.80939e-10
-6.05482e-10
1.51594e-09
-2.41632e-09
6.16523e-09
-5.43293e-09
1.20609e-08
-9.65629e-09
1.88995e-08
-1.50842e-08
2.64297e-08
-2.1709e-08
3.44315e-08
-2.95167e-08
4.27138e-08
-3.84858e-08
5.11129e-08
-4.85869e-08
5.94889e-08
-5.97835e-08
6.77234e-08
-7.20313e-08
7.57167e-08
-8.52797e-08
8.33856e-08
-9.94717e-08
9.06611e-08
-1.14545e-07
9.74867e-08
-1.30432e-07
1.03817e-07
-1.47061e-07
1.09615e-07
-1.64359e-07
1.14854e-07
-1.82247e-07
1.19513e-07
-2.00646e-07
1.23576e-07
-2.19476e-07
1.27034e-07
-2.38655e-07
1.29883e-07
-2.581e-07
1.32122e-07
-2.77729e-07
1.33753e-07
-2.97462e-07
1.34782e-07
-3.17216e-07
1.35217e-07
-3.36912e-07
1.35069e-07
-3.56472e-07
1.34351e-07
-3.75819e-07
1.33076e-07
-3.94879e-07
1.31261e-07
-4.13579e-07
1.28922e-07
-4.31848e-07
1.26077e-07
-4.4962e-07
1.22745e-07
-4.66828e-07
1.18946e-07
-4.83412e-07
1.14701e-07
-4.9931e-07
1.10031e-07
-5.14467e-07
1.04957e-07
-5.28829e-07
9.95026e-08
-5.42346e-07
9.36895e-08
-5.54972e-07
8.75411e-08
-5.66661e-07
8.10811e-08
-5.77374e-07
7.43334e-08
-5.87073e-07
6.73223e-08
-5.95726e-07
6.00724e-08
-6.03301e-07
5.26086e-08
-6.09774e-07
4.49563e-08
-6.1512e-07
3.7141e-08
-6.1932e-07
2.91887e-08
-6.2236e-07
2.11257e-08
-6.24227e-07
1.29785e-08
-6.24914e-07
4.7741e-09
-6.24416e-07
-3.46039e-09
-6.22733e-07
-1.16974e-08
-6.19869e-07
-1.99093e-08
-6.15831e-07
-2.80678e-08
-6.10632e-07
-3.61447e-08
-6.04287e-07
-4.41116e-08
-5.96815e-07
-5.19396e-08
-5.8824e-07
-5.96e-08
-5.7859e-07