/*--------------------------------*- C++ -*----------------------------------*\
| =========                 |                                                 |
| \\      /  F ield         | OpenFOAM: The Open Source CFD Toolbox           |
|  \\    /   O peration     | Version:  2212                                  |
|   \\  /    A nd           | Website:  www.openfoam.com                      |
|    \\/     M anipulation  |                                                 |
\*---------------------------------------------------------------------------*/
FoamFile
{
    version     2.0;
    format      ascii;
    arch        "LSB;label=32;scalar=64";
    class       volVectorField;
    location    "0.0405";
    object      U;
}
// * * * * * * * * * * * * * * * * * * * * * * * * * * * * * * * * * * * * * //

dimensions      [0 1 -1 0 0 0 0];

internalField   nonuniform List<vector> 
10000
(
(2.37992e-06 -3.13515e-06 0)
(1.32006e-05 -7.17449e-06 0)
(2.9081e-05 -7.62404e-06 0)
(4.36329e-05 -6.28802e-06 0)
(5.21096e-05 -3.93885e-06 0)
(5.2861e-05 -1.11897e-06 0)
(4.49141e-05 1.87499e-06 0)
(2.78693e-05 4.87428e-06 0)
(1.70674e-06 7.79064e-06 0)
(-3.3362e-05 1.05701e-05 0)
(-7.69797e-05 1.31818e-05 0)
(-0.000128683 1.56103e-05 0)
(-0.000187954 1.78535e-05 0)
(-0.000254237 1.99092e-05 0)
(-0.000326943 2.1774e-05 0)
(-0.000405473 2.34459e-05 0)
(-0.000489223 2.49242e-05 0)
(-0.000577588 2.62138e-05 0)
(-0.000669969 2.73201e-05 0)
(-0.000765779 2.8249e-05 0)
(-0.000864439 2.90083e-05 0)
(-0.000965385 2.9601e-05 0)
(-0.00106807 3.00315e-05 0)
(-0.00117195 3.03065e-05 0)
(-0.00127652 3.04296e-05 0)
(-0.00138127 3.04077e-05 0)
(-0.00148572 3.02497e-05 0)
(-0.00158941 2.99598e-05 0)
(-0.00169189 2.95416e-05 0)
(-0.00179273 2.90019e-05 0)
(-0.00189154 2.83467e-05 0)
(-0.00198791 2.75818e-05 0)
(-0.00208148 2.67137e-05 0)
(-0.0021719 2.57478e-05 0)
(-0.00225884 2.4688e-05 0)
(-0.00234199 2.35398e-05 0)
(-0.00242104 2.23104e-05 0)
(-0.00249572 2.10053e-05 0)
(-0.00256577 1.96277e-05 0)
(-0.00263096 1.81822e-05 0)
(-0.00269105 1.66757e-05 0)
(-0.00274585 1.51145e-05 0)
(-0.00279517 1.35031e-05 0)
(-0.00283885 1.18447e-05 0)
(-0.00287672 1.01448e-05 0)
(-0.00290867 8.41005e-06 0)
(-0.00293458 6.64614e-06 0)
(-0.00295435 4.85798e-06 0)
(-0.0029679 3.05008e-06 0)
(-0.00297519 1.22758e-06 0)
(-0.00297618 -6.03078e-07 0)
(-0.00297084 -2.43587e-06 0)
(-0.00295918 -4.26566e-06 0)
(-0.00294123 -6.08697e-06 0)
(-0.00291702 -7.89394e-06 0)
(-0.00288661 -9.68024e-06 0)
(-0.0028501 -1.1439e-05 0)
(-0.00280758 -1.31639e-05 0)
(-0.0027592 -1.48498e-05 0)
(-0.00270508 -1.64908e-05 0)
(-0.00264541 -1.80803e-05 0)
(-0.00258038 -1.96113e-05 0)
(-0.00251021 -2.10766e-05 0)
(-0.00243513 -2.24692e-05 0)
(-0.00235542 -2.37829e-05 0)
(-0.00227134 -2.50116e-05 0)
(-0.00218322 -2.61483e-05 0)
(-0.00209139 -2.71858e-05 0)
(-0.0019962 -2.81169e-05 0)
(-0.00189803 -2.89341e-05 0)
(-0.00179728 -2.96305e-05 0)
(-0.00169438 -3.01996e-05 0)
(-0.00158976 -3.06353e-05 0)
(-0.00148391 -3.09311e-05 0)
(-0.0013773 -3.1081e-05 0)
(-0.00127045 -3.10791e-05 0)
(-0.00116387 -3.09195e-05 0)
(-0.00105811 -3.05963e-05 0)
(-0.000953719 -3.01044e-05 0)
(-0.000851278 -2.94397e-05 0)
(-0.000751367 -2.8598e-05 0)
(-0.00065458 -2.75756e-05 0)
(-0.000561516 -2.63692e-05 0)
(-0.000472783 -2.49765e-05 0)
(-0.000388987 -2.33954e-05 0)
(-0.000310736 -2.16246e-05 0)
(-0.000238628 -1.96641e-05 0)
(-0.000173245 -1.7516e-05 0)
(-0.000115151 -1.51844e-05 0)
(-6.48708e-05 -1.26766e-05 0)
(-2.28813e-05 -1.00053e-05 0)
(1.04157e-05 -7.19141e-06 0)
(3.4726e-05 -4.26903e-06 0)
(4.99175e-05 -1.2952e-06 0)
(5.61062e-05 1.63064e-06 0)
(5.37938e-05 4.33359e-06 0)
(4.40611e-05 6.5056e-06 0)
(2.89791e-05 7.58895e-06 0)
(1.28232e-05 6.61393e-06 0)
(2.60526e-06 2.60544e-06 0)
(6.16702e-06 -1.29599e-05 0)
(2.57915e-05 -2.69399e-05 0)
(5.14185e-05 -2.73096e-05 0)
(7.02524e-05 -1.9412e-05 0)
(7.43099e-05 -6.44879e-06 0)
(5.92116e-05 9.33139e-06 0)
(2.22927e-05 2.65094e-05 0)
(-3.7824e-05 4.41632e-05 0)
(-0.000121578 6.17065e-05 0)
(-0.000228748 7.87489e-05 0)
(-0.000358643 9.50343e-05 0)
(-0.000510262 0.000110393 0)
(-0.000682373 0.000124714 0)
(-0.000873588 0.000137931 0)
(-0.00108241 0.000149999 0)
(-0.00130729 0.000160894 0)
(-0.00154661 0.000170605 0)
(-0.00179876 0.000179134 0)
(-0.00206212 0.000186496 0)
(-0.00233506 0.000192708 0)
(-0.00261601 0.000197792 0)
(-0.00290338 0.000201779 0)
(-0.00319566 0.000204695 0)
(-0.00349133 0.000206568 0)
(-0.00378895 0.000207434 0)
(-0.00408712 0.000207328 0)
(-0.00438446 0.000206285 0)
(-0.00467966 0.00020434 0)
(-0.00497146 0.000201531 0)
(-0.00525865 0.000197896 0)
(-0.00554005 0.000193471 0)
(-0.00581457 0.000188293 0)
(-0.00608115 0.0001824 0)
(-0.00633878 0.000175829 0)
(-0.00658651 0.000168616 0)
(-0.00682343 0.000160799 0)
(-0.00704872 0.000152413 0)
(-0.00726155 0.000143495 0)
(-0.0074612 0.000134082 0)
(-0.00764698 0.000124208 0)
(-0.00781824 0.000113912 0)
(-0.00797441 0.00010323 0)
(-0.00811494 9.21958e-05 0)
(-0.00823936 8.08455e-05 0)
(-0.00834723 6.92155e-05 0)
(-0.00843819 5.73441e-05 0)
(-0.00851191 4.52679e-05 0)
(-0.00856811 3.30236e-05 0)
(-0.0086066 2.06484e-05 0)
(-0.0086272 8.1802e-06 0)
(-0.00862982 -4.34191e-06 0)
(-0.0086144 -1.68787e-05 0)
(-0.00858096 -2.93913e-05 0)
(-0.00852956 -4.18396e-05 0)
(-0.00846034 -5.4182e-05 0)
(-0.00837347 -6.63767e-05 0)
(-0.0082692 -7.83811e-05 0)
(-0.00814784 -9.01527e-05 0)
(-0.00800975 -0.00010165 0)
(-0.00785538 -0.000112829 0)
(-0.00768522 -0.000123645 0)
(-0.00749982 -0.000134052 0)
(-0.00729981 -0.000144005 0)
(-0.00708588 -0.000153459 0)
(-0.00685879 -0.000162367 0)
(-0.00661935 -0.000170685 0)
(-0.00636845 -0.000178368 0)
(-0.00610705 -0.000185367 0)
(-0.00583615 -0.000191637 0)
(-0.00555683 -0.000197134 0)
(-0.00527025 -0.000201811 0)
(-0.00497759 -0.000205627 0)
(-0.00468013 -0.00020854 0)
(-0.00437918 -0.000210508 0)
(-0.00407611 -0.000211494 0)
(-0.00377236 -0.00021146 0)
(-0.00346939 -0.000210372 0)
(-0.00316873 -0.000208197 0)
(-0.00287192 -0.000204908 0)
(-0.00258057 -0.00020048 0)
(-0.00229628 -0.000194891 0)
(-0.00202071 -0.000188125 0)
(-0.00175549 -0.00018017 0)
(-0.0015023 -0.000171022 0)
(-0.00126277 -0.000160684 0)
(-0.00103853 -0.000149167 0)
(-0.000831162 -0.000136497 0)
(-0.000642184 -0.000122716 0)
(-0.000473023 -0.000107884 0)
(-0.000324978 -9.20929e-05 0)
(-0.000199163 -7.54749e-05 0)
(-9.64422e-05 -5.82207e-05 0)
(-1.73311e-05 -4.06074e-05 0)
(3.81419e-05 -2.30461e-05 0)
(7.06342e-05 -6.15562e-06 0)
(8.17664e-05 9.12078e-06 0)
(7.44434e-05 2.13396e-05 0)
(5.33706e-05 2.82842e-05 0)
(2.66647e-05 2.66621e-05 0)
(6.60606e-06 1.28109e-05 0)
(7.31413e-06 -2.87638e-05 0)
(2.7061e-05 -5.20358e-05 0)
(4.8026e-05 -4.8166e-05 0)
(5.57326e-05 -2.58491e-05 0)
(4.04931e-05 8.39983e-06 0)
(-3.52418e-06 4.99177e-05 0)
(-8.00435e-05 9.54246e-05 0)
(-0.000191194 0.000142648 0)
(-0.000337815 0.00019 0)
(-0.000519797 0.000236387 0)
(-0.000736316 0.000281033 0)
(-0.000986026 0.000323398 0)
(-0.0012672 0.00036311 0)
(-0.00157785 0.000399915 0)
(-0.00191577 0.000433644 0)
(-0.00227862 0.000464193 0)
(-0.00266399 0.000491508 0)
(-0.0030694 0.000515569 0)
(-0.00349236 0.000536382 0)
(-0.00393037 0.000553984 0)
(-0.00438094 0.00056842 0)
(-0.00484164 0.00057975 0)
(-0.00531004 0.000588051 0)
(-0.00578381 0.0005934 0)
(-0.00626062 0.000595882 0)
(-0.00673826 0.00059559 0)
(-0.00721457 0.000592621 0)
(-0.00768744 0.000587072 0)
(-0.00815486 0.000579044 0)
(-0.0086149 0.000568644 0)
(-0.00906571 0.000555972 0)
(-0.00950549 0.000541134 0)
(-0.00993256 0.000524235 0)
(-0.0103453 0.000505381 0)
(-0.0107422 0.000484675 0)
(-0.0111218 0.000462223 0)
(-0.0114828 0.00043813 0)
(-0.0118238 0.0004125 0)
(-0.0121437 0.000385438 0)
(-0.0124413 0.000357049 0)
(-0.0127157 0.000327437 0)
(-0.0129659 0.000296707 0)
(-0.013191 0.000264962 0)
(-0.0133902 0.000232308 0)
(-0.013563 0.000198849 0)
(-0.0137086 0.000164693 0)
(-0.0138266 0.000129947 0)
(-0.0139165 9.47183e-05 0)
(-0.013978 5.9116e-05 0)
(-0.0140108 2.32506e-05 0)
(-0.0140148 -1.27666e-05 0)
(-0.0139898 -4.88223e-05 0)
(-0.013936 -8.4802e-05 0)
(-0.0138534 -0.000120589 0)
(-0.0137423 -0.000156065 0)
(-0.0136029 -0.000191109 0)
(-0.0134356 -0.0002256 0)
(-0.013241 -0.000259414 0)
(-0.0130196 -0.000292429 0)
(-0.0127722 -0.000324518 0)
(-0.0124994 -0.000355553 0)
(-0.0122024 -0.000385404 0)
(-0.0118819 -0.000413942 0)
(-0.0115392 -0.000441036 0)
(-0.0111755 -0.000466556 0)
(-0.0107921 -0.000490372 0)
(-0.0103903 -0.000512352 0)
(-0.00997183 -0.000532367 0)
(-0.00953819 -0.000550288 0)
(-0.00909113 -0.000565988 0)
(-0.00863246 -0.000579342 0)
(-0.00816412 -0.00059023 0)
(-0.0076881 -0.000598536 0)
(-0.00720651 -0.000604147 0)
(-0.00672153 -0.000606957 0)
(-0.00623541 -0.000606865 0)
(-0.00575049 -0.00060378 0)
(-0.00526916 -0.000597616 0)
(-0.00479387 -0.000588302 0)
(-0.00432712 -0.000575772 0)
(-0.00387146 -0.000559977 0)
(-0.00342943 -0.000540883 0)
(-0.0030036 -0.000518472 0)
(-0.00259655 -0.000492749 0)
(-0.0022108 -0.000463744 0)
(-0.00184882 -0.000431518 0)
(-0.00151301 -0.000396172 0)
(-0.00120563 -0.000357858 0)
(-0.000928798 -0.000316794 0)
(-0.000684361 -0.000273288 0)
(-0.000473877 -0.000227764 0)
(-0.000298478 -0.000180812 0)
(-0.00015874 -0.000133256 0)
(-5.45018e-05 -8.62501e-05 0)
(1.53859e-05 -4.14262e-05 0)
(5.33697e-05 -1.09892e-06 0)
(6.35096e-05 3.14548e-05 0)
(5.19188e-05 5.1669e-05 0)
(2.83991e-05 5.33928e-05 0)
(7.59882e-06 2.8967e-05 0)
(6.20336e-06 -4.29066e-05 0)
(1.97387e-05 -7.08821e-05 0)
(2.67346e-05 -5.59681e-05 0)
(1.26821e-05 -1.14421e-05 0)
(-3.24725e-05 5.29382e-05 0)
(-0.000115159 0.000129947 0)
(-0.000239648 0.000214259 0)
(-0.000408459 0.000301991 0)
(-0.000622678 0.000390327 0)
(-0.000882269 0.000477224 0)
(-0.00118632 0.000561204 0)
(-0.00153326 0.000641193 0)
(-0.00192099 0.000716421 0)
(-0.00234704 0.000786344 0)
(-0.00280866 0.00085059 0)
(-0.00330288 0.00090891 0)
(-0.00382662 0.000961155 0)
(-0.00437668 0.00100726 0)
(-0.00494982 0.0010472 0)
(-0.00554277 0.00108101 0)
(-0.00615229 0.00110877 0)
(-0.00677515 0.00113058 0)
(-0.00740816 0.00114655 0)
(-0.0080482 0.00115683 0)
(-0.00869221 0.00116158 0)
(-0.00933722 0.00116095 0)
(-0.00998033 0.00115514 0)
(-0.0106188 0.00114432 0)
(-0.0112498 0.00112869 0)
(-0.0118708 0.00110843 0)
(-0.0124794 0.00108376 0)
(-0.013073 0.00105486 0)
(-0.0136495 0.00102194 0)
(-0.0142067 0.000985209 0)
(-0.0147424 0.00094486 0)
(-0.0152548 0.000901102 0)
(-0.015742 0.000854137 0)
(-0.0162023 0.000804169 0)
(-0.0166341 0.000751402 0)
(-0.0170358 0.00069604 0)
(-0.0174061 0.000638287 0)
(-0.0177437 0.000578349 0)
(-0.0180475 0.000516429 0)
(-0.0183164 0.000452733 0)
(-0.0185494 0.000387469 0)
(-0.0187458 0.000320844 0)
(-0.0189049 0.000253068 0)
(-0.019026 0.000184354 0)
(-0.0191088 0.000114915 0)
(-0.0191528 4.49672e-05 0)
(-0.019158 -2.52702e-05 0)
(-0.0191241 -9.55764e-05 0)
(-0.0190512 -0.000165726 0)
(-0.0189395 -0.000235491 0)
(-0.0187893 -0.000304639 0)
(-0.0186009 -0.000372937 0)
(-0.018375 -0.000440146 0)
(-0.0181121 -0.000506027 0)
(-0.0178131 -0.000570338 0)
(-0.017479 -0.000632831 0)
(-0.0171109 -0.000693257 0)
(-0.0167099 -0.000751366 0)
(-0.0162774 -0.000806905 0)
(-0.015815 -0.000859623 0)
(-0.0153242 -0.000909266 0)
(-0.0148069 -0.00095558 0)
(-0.0142649 -0.000998314 0)
(-0.0137004 -0.00103722 0)
(-0.0131155 -0.00107204 0)
(-0.0125125 -0.00110255 0)
(-0.0118938 -0.0011285 0)
(-0.0112621 -0.00114966 0)
(-0.0106201 -0.00116582 0)
(-0.00997043 -0.00117675 0)
(-0.00931616 -0.00118227 0)
(-0.00866025 -0.00118217 0)
(-0.00800581 -0.0011763 0)
(-0.00735602 -0.0011645 0)
(-0.00671414 -0.00114663 0)
(-0.00608348 -0.0011226 0)
(-0.00546737 -0.0010923 0)
(-0.00486919 -0.00105571 0)
(-0.0042923 -0.0010128 0)
(-0.00374005 -0.000963603 0)
(-0.00321573 -0.000908213 0)
(-0.00272251 -0.000846778 0)
(-0.00226348 -0.000779531 0)
(-0.0018415 -0.000706807 0)
(-0.00145921 -0.000629074 0)
(-0.0011189 -0.000546968 0)
(-0.000822443 -0.000461351 0)
(-0.000571162 -0.000373386 0)
(-0.00036566 -0.000284646 0)
(-0.000205636 -0.000197258 0)
(-8.96312e-05 -0.000114109 0)
(-1.47339e-05 -3.91216e-05 0)
(2.37018e-05 2.24004e-05 0)
(3.24401e-05 6.34089e-05 0)
(2.17648e-05 7.4733e-05 0)
(6.57637e-06 4.4153e-05 0)
(4.04235e-06 -5.18234e-05 0)
(7.38899e-06 -7.56785e-05 0)
(-6.31967e-06 -4.14542e-05 0)
(-4.98907e-05 3.3421e-05 0)
(-0.000132811 0.000136199 0)
(-0.000261592 0.000257179 0)
(-0.000440601 0.000389012 0)
(-0.00067246 0.000526165 0)
(-0.000958306 0.000664494 0)
(-0.00129808 0.000800894 0)
(-0.00169077 0.000933052 0)
(-0.00213459 0.00105925 0)
(-0.00262716 0.00117823 0)
(-0.00316561 0.00128906 0)
(-0.00374673 0.00139109 0)
(-0.00436706 0.00148388 0)
(-0.00502292 0.00156713 0)
(-0.00571052 0.00164067 0)
(-0.00642597 0.00170446 0)
(-0.00716536 0.00175851 0)
(-0.00792475 0.0018029 0)
(-0.00870023 0.00183776 0)
(-0.00948793 0.00186327 0)
(-0.010284 0.00187964 0)
(-0.0110848 0.0018871 0)
(-0.0118866 0.00188591 0)
(-0.0126859 0.00187634 0)
(-0.0134793 0.00185868 0)
(-0.0142633 0.00183323 0)
(-0.0150349 0.00180031 0)
(-0.0157908 0.00176021 0)
(-0.0165283 0.00171327 0)
(-0.0172444 0.00165981 0)
(-0.0179364 0.00160014 0)
(-0.0186018 0.00153461 0)
(-0.0192382 0.00146353 0)
(-0.0198432 0.00138724 0)
(-0.0204149 0.00130606 0)
(-0.020951 0.00122034 0)
(-0.0214499 0.00113039 0)
(-0.0219097 0.00103656 0)
(-0.0223288 0.000939166 0)
(-0.022706 0.000838556 0)
(-0.0230397 0.000735058 0)
(-0.0233289 0.000629012 0)
(-0.0235727 0.000520757 0)
(-0.02377 0.000410635 0)
(-0.0239202 0.000298994 0)
(-0.0240228 0.000186181 0)
(-0.0240773 7.25476e-05 0)
(-0.0240834 -4.15483e-05 0)
(-0.0240411 -0.000155745 0)
(-0.0239504 -0.000269677 0)
(-0.0238115 -0.000382972 0)
(-0.0236247 -0.000495254 0)
(-0.0233906 -0.000606142 0)
(-0.0231098 -0.00071525 0)
(-0.0227832 -0.000822187 0)
(-0.0224119 -0.00092656 0)
(-0.021997 -0.00102797 0)
(-0.0215398 -0.00112601 0)
(-0.0210418 -0.00122027 0)
(-0.0205049 -0.00131036 0)
(-0.0199308 -0.00139585 0)
(-0.0193215 -0.00147635 0)
(-0.0186793 -0.00155144 0)
(-0.0180066 -0.00162072 0)
(-0.0173058 -0.00168379 0)
(-0.0165797 -0.00174025 0)
(-0.0158312 -0.00178972 0)
(-0.0150633 -0.00183181 0)
(-0.014279 -0.00186617 0)
(-0.0134819 -0.00189243 0)
(-0.0126752 -0.00191027 0)
(-0.0118626 -0.00191938 0)
(-0.0110479 -0.00191945 0)
(-0.0102346 -0.00191023 0)
(-0.0094269 -0.00189149 0)
(-0.0086286 -0.00186302 0)
(-0.00784377 -0.00182467 0)
(-0.00707647 -0.00177633 0)
(-0.00633077 -0.00171795 0)
(-0.00561075 -0.00164953 0)
(-0.00492042 -0.00157115 0)
(-0.00426371 -0.001483 0)
(-0.00364443 -0.00138536 0)
(-0.0030662 -0.00127865 0)
(-0.00253241 -0.00116345 0)
(-0.00204613 -0.00104056 0)
(-0.00161 -0.000911048 0)
(-0.00122616 -0.000776316 0)
(-0.000896108 -0.000638224 0)
(-0.000620501 -0.000499218 0)
(-0.000399008 -0.000362516 0)
(-0.000230063 -0.000232359 0)
(-0.000110614 -0.000114322 0)
(-3.58601e-05 -1.57149e-05 0)
(1.07975e-06 5.40203e-05 0)
(1.00599e-05 8.28033e-05 0)
(4.51125e-06 5.42097e-05 0)
(1.39749e-06 -5.32913e-05 0)
(-7.80704e-06 -6.18838e-05 0)
(-4.66686e-05 1.17893e-06 0)
(-0.000125163 0.000115159 0)
(-0.00025153 0.00026466 0)
(-0.000431921 0.000437743 0)
(-0.00067047 0.000625139 0)
(-0.00096962 0.000819717 0)
(-0.00133038 0.00101599 0)
(-0.00175258 0.00120974 0)
(-0.002235 0.00139777 0)
(-0.00277566 0.00157763 0)
(-0.00337189 0.00174748 0)
(-0.0040205 0.00190597 0)
(-0.00471787 0.00205209 0)
(-0.0054601 0.00218515 0)
(-0.00624303 0.00230467 0)
(-0.00706233 0.00241036 0)
(-0.00791357 0.00250209 0)
(-0.00879226 0.00257984 0)
(-0.00969386 0.00264369 0)
(-0.0106139 0.00269381 0)
(-0.0115478 0.00273041 0)
(-0.0124912 0.00275378 0)
(-0.0134398 0.00276423 0)
(-0.0143892 0.00276211 0)
(-0.0153355 0.00274781 0)
(-0.0162744 0.00272174 0)
(-0.0172022 0.00268432 0)
(-0.0181151 0.00263599 0)
(-0.0190094 0.0025772 0)
(-0.0198817 0.0025084 0)
(-0.0207287 0.00243007 0)
(-0.0215471 0.00234267 0)
(-0.022334 0.00224668 0)
(-0.0230866 0.00214259 0)
(-0.023802 0.00203086 0)
(-0.0244779 0.00191198 0)
(-0.0251118 0.00178643 0)
(-0.0257016 0.0016547 0)
(-0.0262452 0.00151728 0)
(-0.0267407 0.00137465 0)
(-0.0271864 0.0012273 0)
(-0.0275808 0.00107573 0)
(-0.0279226 0.000920432 0)
(-0.0282106 0.000761902 0)
(-0.0284437 0.000600644 0)
(-0.0286211 0.000437167 0)
(-0.0287422 0.000271982 0)
(-0.0288064 0.000105607 0)
(-0.0288135 -6.14352e-05 0)
(-0.0287632 -0.000228613 0)
(-0.0286558 -0.000395388 0)
(-0.0284913 -0.000561217 0)
(-0.0282703 -0.000725549 0)
(-0.0279934 -0.000887826 0)
(-0.0276614 -0.00104748 0)
(-0.0272752 -0.00120395 0)
(-0.0268361 -0.00135664 0)
(-0.0263455 -0.00150499 0)
(-0.025805 -0.00164839 0)
(-0.0252164 -0.00178626 0)
(-0.0245817 -0.00191801 0)
(-0.0239031 -0.00204303 0)
(-0.0231829 -0.00216074 0)
(-0.0224239 -0.00227054 0)
(-0.0216287 -0.00237186 0)
(-0.0208004 -0.00246409 0)
(-0.0199421 -0.00254668 0)
(-0.0190572 -0.00261907 0)
(-0.0181493 -0.00268071 0)
(-0.017222 -0.00273108 0)
(-0.0162793 -0.00276968 0)
(-0.0153252 -0.00279602 0)
(-0.0143638 -0.00280968 0)
(-0.0133996 -0.00281023 0)
(-0.0124368 -0.0027973 0)
(-0.0114801 -0.00277059 0)
(-0.010534 -0.00272982 0)
(-0.00960324 -0.00267478 0)
(-0.0086925 -0.00260535 0)
(-0.00780648 -0.00252147 0)
(-0.00694986 -0.0024232 0)
(-0.00612725 -0.0023107 0)
(-0.00534314 -0.00218426 0)
(-0.00460187 -0.00204434 0)
(-0.00390756 -0.0018916 0)
(-0.00326401 -0.00172693 0)
(-0.00267469 -0.00155153 0)
(-0.00214255 -0.00136697 0)
(-0.00166999 -0.00117527 0)
(-0.00125869 -0.000979075 0)
(-0.000909436 -0.000781763 0)
(-0.000622002 -0.000587699 0)
(-0.000394908 -0.000402486 0)
(-0.000225229 -0.000233318 0)
(-0.000108356 -8.93973e-05 0)
(-3.77068e-05 1.76328e-05 0)
(-4.53762e-06 7.31017e-05 0)
(1.95481e-06 5.71726e-05 0)
(-1.43433e-06 -4.63568e-05 0)
(-2.44605e-05 -2.68014e-05 0)
(-9.12116e-05 7.5797e-05 0)
(-0.000208181 0.000238236 0)
(-0.000381909 0.000442977 0)
(-0.000617864 0.00067613 0)
(-0.000919654 0.000926703 0)
(-0.00128933 0.00118606 0)
(-0.0017276 0.00144742 0)
(-0.00223402 0.00170548 0)
(-0.00280716 0.0019561 0)
(-0.00344475 0.0021961 0)
(-0.00414384 0.00242301 0)
(-0.00490092 0.00263497 0)
(-0.00571201 0.00283062 0)
(-0.00657281 0.00300894 0)
(-0.00747872 0.00316925 0)
(-0.00842496 0.00331111 0)
(-0.00940661 0.00343427 0)
(-0.0104187 0.00353867 0)
(-0.011456 0.00362437 0)
(-0.0125137 0.00369155 0)
(-0.0135866 0.00374047 0)
(-0.0146699 0.00377149 0)
(-0.0157585 0.003785 0)
(-0.0168477 0.00378147 0)
(-0.0179329 0.00376139 0)
(-0.0190094 0.0037253 0)
(-0.0200729 0.00367376 0)
(-0.0211191 0.00360736 0)
(-0.0221438 0.0035267 0)
(-0.0231431 0.0034324 0)
(-0.0241133 0.00332508 0)
(-0.0250508 0.00320538 0)
(-0.025952 0.00307395 0)
(-0.0268138 0.00293143 0)
(-0.0276331 0.00277848 0)
(-0.028407 0.00261576 0)
(-0.0291328 0.00244392 0)
(-0.0298079 0.00226362 0)
(-0.0304302 0.00207554 0)
(-0.0309974 0.00188034 0)
(-0.0315076 0.00167868 0)
(-0.031959 0.00147125 0)
(-0.0323502 0.00125873 0)
(-0.0326797 0.00104179 0)
(-0.0329464 0.000821132 0)
(-0.0331493 0.000597444 0)
(-0.0332877 0.00037143 0)
(-0.0333611 0.000143801 0)
(-0.033369 -8.47257e-05 0)
(-0.0333113 -0.000313424 0)
(-0.0331882 -0.000541556 0)
(-0.0329998 -0.000768379 0)
(-0.0327467 -0.000993139 0)
(-0.0324296 -0.00121507 0)
(-0.0320494 -0.0014334 0)
(-0.0316074 -0.00164736 0)
(-0.0311047 -0.00185614 0)
(-0.0305432 -0.00205897 0)
(-0.0299245 -0.00225502 0)
(-0.0292507 -0.00244351 0)
(-0.0285242 -0.00262361 0)
(-0.0277474 -0.00279453 0)
(-0.0269231 -0.00295545 0)
(-0.0260542 -0.00310558 0)
(-0.025144 -0.00324412 0)
(-0.0241957 -0.00337027 0)
(-0.023213 -0.00348328 0)
(-0.0221998 -0.00358238 0)
(-0.0211601 -0.00366686 0)
(-0.020098 -0.00373599 0)
(-0.019018 -0.00378912 0)
(-0.0179247 -0.00382561 0)
(-0.0168228 -0.00384487 0)
(-0.0157171 -0.00384635 0)
(-0.0146126 -0.00382958 0)
(-0.0135145 -0.00379416 0)
(-0.0124279 -0.00373973 0)
(-0.0113582 -0.00366605 0)
(-0.0103105 -0.00357297 0)
(-0.00929005 -0.00346047 0)
(-0.00830218 -0.00332865 0)
(-0.00735199 -0.00317778 0)
(-0.00644447 -0.00300829 0)
(-0.00558443 -0.00282086 0)
(-0.0047764 -0.00261644 0)
(-0.00402461 -0.00239626 0)
(-0.00333286 -0.00216197 0)
(-0.00270442 -0.0019157 0)
(-0.00214196 -0.00166015 0)
(-0.00164738 -0.00139875 0)
(-0.00122171 -0.00113588 0)
(-0.000864935 -0.000877031 0)
(-0.000575837 -0.000629127 0)
(-0.000351852 -0.000400878 0)
(-0.000188837 -0.00020321 0)
(-8.08275e-05 -4.96919e-05 0)
(-2.06527e-05 4.28514e-05 0)
(-7.97151e-07 5.2037e-05 0)
(-4.29709e-06 -3.05926e-05 0)
(-4.17269e-05 3.11019e-05 0)
(-0.000137872 0.000184792 0)
(-0.000295476 0.000405603 0)
(-0.000519102 0.000674335 0)
(-0.000813298 0.000975504 0)
(-0.00118094 0.00129662 0)
(-0.00162348 0.00162767 0)
(-0.00214119 0.00196069 0)
(-0.00273325 0.00228932 0)
(-0.00339788 0.00260852 0)
(-0.00413253 0.00291433 0)
(-0.00493391 0.00320368 0)
(-0.00579817 0.00347417 0)
(-0.00672101 0.00372401 0)
(-0.00769773 0.00395189 0)
(-0.00872334 0.00415684 0)
(-0.00979265 0.00433827 0)
(-0.0109003 0.0044958 0)
(-0.0120407 0.00462929 0)
(-0.0132086 0.00473877 0)
(-0.0143982 0.00482444 0)
(-0.015604 0.0048866 0)
(-0.0168207 0.00492566 0)
(-0.0180428 0.00494211 0)
(-0.0192651 0.00493652 0)
(-0.0204823 0.00490951 0)
(-0.0216894 0.00486176 0)
(-0.0228816 0.00479397 0)
(-0.0240541 0.00470689 0)
(-0.0252023 0.00460129 0)
(-0.0263219 0.00447796 0)
(-0.0274087 0.00433771 0)
(-0.0284586 0.00418135 0)
(-0.0294679 0.00400972 0)
(-0.0304328 0.00382367 0)
(-0.0313501 0.00362402 0)
(-0.0322165 0.00341165 0)
(-0.033029 0.0031874 0)
(-0.0337848 0.00295214 0)
(-0.0344812 0.00270673 0)
(-0.035116 0.00245204 0)
(-0.035687 0.00218895 0)
(-0.0361922 0.00191834 0)
(-0.0366299 0.0016411 0)
(-0.0369986 0.00135811 0)
(-0.037297 0.00107028 0)
(-0.037524 0.00077851 0)
(-0.0376788 0.000483724 0)
(-0.0377607 0.000186846 0)
(-0.0377695 -0.000111187 0)
(-0.0377049 -0.000409426 0)
(-0.037567 -0.000706912 0)
(-0.0373562 -0.00100267 0)
(-0.0370729 -0.00129573 0)
(-0.036718 -0.00158509 0)
(-0.0362926 -0.00186974 0)
(-0.0357979 -0.00214866 0)
(-0.0352354 -0.00242084 0)
(-0.034607 -0.00268524 0)
(-0.0339147 -0.00294081 0)
(-0.0331608 -0.00318652 0)
(-0.0323477 -0.00342131 0)
(-0.0314784 -0.00364413 0)
(-0.0305559 -0.00385395 0)
(-0.0295834 -0.00404972 0)
(-0.0285644 -0.00423042 0)
(-0.0275029 -0.00439503 0)
(-0.0264027 -0.00454256 0)
(-0.0252681 -0.00467204 0)
(-0.0241036 -0.00478253 0)
(-0.0229138 -0.00487314 0)
(-0.0217037 -0.00494301 0)
(-0.0204782 -0.00499133 0)
(-0.0192427 -0.00501735 0)
(-0.0180024 -0.00502039 0)
(-0.0167629 -0.00499987 0)
(-0.0155299 -0.00495526 0)
(-0.0143089 -0.00488617 0)
(-0.0131059 -0.0047923 0)
(-0.0119265 -0.0046735 0)
(-0.0107766 -0.00452977 0)
(-0.00966183 -0.00436128 0)
(-0.00858783 -0.00416843 0)
(-0.00756006 -0.00395185 0)
(-0.00658374 -0.00371243 0)
(-0.00566383 -0.00345143 0)
(-0.00480491 -0.00317049 0)
(-0.00401112 -0.00287174 0)
(-0.00328608 -0.00255789 0)
(-0.00263275 -0.00223233 0)
(-0.00205333 -0.00189933 0)
(-0.00154915 -0.00156421 0)
(-0.00112054 -0.00123357 0)
(-0.000766701 -0.000915574 0)
(-0.000485619 -0.000620306 0)
(-0.000273824 -0.0003602 0)
(-0.000126202 -0.000150442 0)
(-3.74305e-05 -9.54581e-06 0)
(-3.58558e-06 3.83354e-05 0)
(-7.10633e-06 -5.88943e-06 0)
(-5.90858e-05 0.000112522 0)
(-0.000185305 0.000329466 0)
(-0.000384687 0.000619018 0)
(-0.000659693 0.000960773 0)
(-0.0010138 0.00133798 0)
(-0.001449 0.00173689 0)
(-0.00196602 0.00214632 0)
(-0.00256452 0.0025572 0)
(-0.00324322 0.00296219 0)
(-0.00399994 0.00335541 0)
(-0.00483172 0.00373214 0)
(-0.00573494 0.00408868 0)
(-0.0067054 0.00442211 0)
(-0.00773843 0.00473021 0)
(-0.00882896 0.00501131 0)
(-0.00997165 0.0052642 0)
(-0.0111609 0.00548807 0)
(-0.0123909 0.00568241 0)
(-0.0136557 0.00584699 0)
(-0.0149495 0.00598182 0)
(-0.0162663 0.00608706 0)
(-0.0176 0.00616307 0)
(-0.0189448 0.00621032 0)
(-0.0202948 0.00622938 0)
(-0.0216443 0.00622095 0)
(-0.0229877 0.00618576 0)
(-0.0243195 0.00612463 0)
(-0.0256344 0.00603844 0)
(-0.0269272 0.0059281 0)
(-0.0281929 0.00579455 0)
(-0.0294269 0.00563878 0)
(-0.0306244 0.00546178 0)
(-0.0317811 0.00526458 0)
(-0.0328929 0.00504821 0)
(-0.0339558 0.00481372 0)
(-0.0349661 0.00456218 0)
(-0.0359202 0.00429464 0)
(-0.0368148 0.00401218 0)
(-0.0376469 0.00371588 0)
(-0.0384137 0.00340683 0)
(-0.0391126 0.00308613 0)
(-0.0397411 0.00275487 0)
(-0.0402972 0.00241416 0)
(-0.040779 0.00206511 0)
(-0.0411848 0.00170885 0)
(-0.0415132 0.00134652 0)
(-0.0417631 0.000979251 0)
(-0.0419334 0.0006082 0)
(-0.0420237 0.000234533 0)
(-0.0420333 -0.000140569 0)
(-0.0419622 -0.000515915 0)
(-0.0418105 -0.000890296 0)
(-0.0415785 -0.00126249 0)
(-0.0412668 -0.00163127 0)
(-0.0408763 -0.00199538 0)
(-0.0404082 -0.00235356 0)
(-0.0398638 -0.00270453 0)
(-0.0392448 -0.00304701 0)
(-0.0385532 -0.0033797 0)
(-0.0377913 -0.00370129 0)
(-0.0369615 -0.00401048 0)
(-0.0360667 -0.00430596 0)
(-0.0351098 -0.00458641 0)
(-0.0340941 -0.00485054 0)
(-0.0330234 -0.00509703 0)
(-0.0319015 -0.00532463 0)
(-0.0307324 -0.00553205 0)
(-0.0295206 -0.00571807 0)
(-0.0282707 -0.00588149 0)
(-0.0269875 -0.00602114 0)
(-0.0256761 -0.00613592 0)
(-0.0243419 -0.00622476 0)
(-0.0229904 -0.00628667 0)
(-0.0216271 -0.00632074 0)
(-0.020258 -0.00632614 0)
(-0.0188891 -0.00630216 0)
(-0.0175264 -0.00624818 0)
(-0.0161762 -0.00616373 0)
(-0.0148446 -0.00604849 0)
(-0.0135379 -0.00590229 0)
(-0.0122624 -0.00572519 0)
(-0.0110243 -0.00551744 0)
(-0.0098295 -0.00527957 0)
(-0.00868396 -0.00501241 0)
(-0.00759331 -0.00471713 0)
(-0.00656288 -0.0043953 0)
(-0.00559765 -0.00404899 0)
(-0.0047021 -0.00368082 0)
(-0.0038802 -0.00329409 0)
(-0.00313524 -0.00289291 0)
(-0.00246981 -0.00248236 0)
(-0.00188561 -0.00206867 0)
(-0.00138344 -0.00165947 0)
(-0.000963044 -0.00126406 0)
(-0.000623086 -0.000893732 0)
(-0.00036093 -0.000562218 0)
(-0.000172465 -0.000286 0)
(-5.43508e-05 -8.48503e-05 0)
(-6.32789e-06 1.59384e-05 0)
(-9.82523e-06 2.7665e-05 0)
(-7.62464e-05 0.000217614 0)
(-0.000232649 0.000510343 0)
(-0.000474232 0.000879357 0)
(-0.000801329 0.00130343 0)
(-0.00121625 0.00176483 0)
(-0.00172001 0.00224882 0)
(-0.00231248 0.00274319 0)
(-0.00299264 0.0032379 0)
(-0.00375864 0.00372475 0)
(-0.00460781 0.00419704 0)
(-0.00553676 0.00464935 0)
(-0.00654146 0.00507737 0)
(-0.00761732 0.00547767 0)
(-0.00875931 0.0058476 0)
(-0.009962 0.00618512 0)
(-0.0112196 0.00648877 0)
(-0.0125263 0.0067575 0)
(-0.0138757 0.00699068 0)
(-0.0152617 0.00718797 0)
(-0.0166778 0.00734933 0)
(-0.0181177 0.00747492 0)
(-0.019575 0.00756513 0)
(-0.0210434 0.00762048 0)
(-0.0225167 0.00764165 0)
(-0.0239886 0.00762943 0)
(-0.0254532 0.0075847 0)
(-0.0269046 0.00750843 0)
(-0.028337 0.00740165 0)
(-0.029745 0.00726546 0)
(-0.0311232 0.007101 0)
(-0.0324664 0.00690944 0)
(-0.0337697 0.006692 0)
(-0.0350284 0.00644991 0)
(-0.036238 0.00618442 0)
(-0.0373942 0.00589681 0)
(-0.038493 0.00558836 0)
(-0.0395306 0.00526038 0)
(-0.0405035 0.00491418 0)
(-0.0414083 0.00455107 0)
(-0.0422421 0.00417238 0)
(-0.0430019 0.00377944 0)
(-0.0436852 0.00337361 0)
(-0.0442898 0.00295624 0)
(-0.0448135 0.00252868 0)
(-0.0452547 0.00209232 0)
(-0.0456117 0.00164854 0)
(-0.0458834 0.00119873 0)
(-0.0460686 0.000744322 0)
(-0.0461668 0.000286726 0)
(-0.0461775 -0.000172608 0)
(-0.0461004 -0.000632224 0)
(-0.0459356 -0.00109065 0)
(-0.0456837 -0.00154638 0)
(-0.0453451 -0.00199792 0)
(-0.0449209 -0.00244373 0)
(-0.0444124 -0.00288229 0)
(-0.0438209 -0.00331202 0)
(-0.0431484 -0.00373136 0)
(-0.0423969 -0.00413873 0)
(-0.041569 -0.00453253 0)
(-0.0406671 -0.00491119 0)
(-0.0396945 -0.00527309 0)
(-0.0386543 -0.00561664 0)
(-0.0375502 -0.00594027 0)
(-0.036386 -0.00624239 0)
(-0.0351659 -0.00652145 0)
(-0.0338943 -0.00677592 0)
(-0.032576 -0.00700431 0)
(-0.0312159 -0.00720516 0)
(-0.0298192 -0.00737708 0)
(-0.0283915 -0.00751872 0)
(-0.0269383 -0.00762881 0)
(-0.0254657 -0.00770617 0)
(-0.0239798 -0.0077497 0)
(-0.0224867 -0.00775843 0)
(-0.020993 -0.0077315 0)
(-0.0195051 -0.00766821 0)
(-0.0180297 -0.00756801 0)
(-0.0165734 -0.00743054 0)
(-0.015143 -0.00725565 0)
(-0.0137451 -0.00704344 0)
(-0.0123863 -0.00679425 0)
(-0.0110731 -0.00650878 0)
(-0.00981168 -0.00618806 0)
(-0.00860818 -0.00583352 0)
(-0.00746828 -0.00544711 0)
(-0.00639733 -0.00503129 0)
(-0.0054002 -0.00458921 0)
(-0.00448123 -0.00412475 0)
(-0.00364411 -0.00364272 0)
(-0.00289185 -0.00314896 0)
(-0.00222663 -0.00265057 0)
(-0.00164979 -0.00215613 0)
(-0.00116171 -0.00167595 0)
(-0.00076187 -0.00122239 0)
(-0.000448557 -0.000810231 0)
(-0.000218741 -0.000456971 0)
(-7.11036e-05 -0.000183276 0)
(-8.98152e-06 -1.50944e-05 0)
(-1.24422e-05 6.98795e-05 0)
(-9.3038e-05 0.000346204 0)
(-0.000279386 0.000727438 0)
(-0.000563107 0.00118687 0)
(-0.000942442 0.00170277 0)
(-0.00141852 0.0022567 0)
(-0.00199128 0.0028331 0)
(-0.0026597 0.00341894 0)
(-0.003422 0.00400337 0)
(-0.00427566 0.00457737 0)
(-0.00521747 0.00513353 0)
(-0.00624353 0.0056658 0)
(-0.00734938 0.00616925 0)
(-0.00853002 0.00663998 0)
(-0.00978001 0.00707491 0)
(-0.0110935 0.00747166 0)
(-0.0124645 0.00782848 0)
(-0.0138865 0.00814414 0)
(-0.015353 0.00841782 0)
(-0.0168574 0.0086491 0)
(-0.0183929 0.00883788 0)
(-0.0199527 0.00898433 0)
(-0.0215302 0.00908883 0)
(-0.0231185 0.009152 0)
(-0.0247111 0.00917458 0)
(-0.0263014 0.00915749 0)
(-0.027883 0.00910174 0)
(-0.0294497 0.00900847 0)
(-0.0309954 0.00887888 0)
(-0.0325142 0.00871426 0)
(-0.0340004 0.00851594 0)
(-0.0354486 0.00828531 0)
(-0.0368534 0.0080238 0)
(-0.0382099 0.00773288 0)
(-0.0395132 0.00741403 0)
(-0.0407588 0.00706876 0)
(-0.0419424 0.00669862 0)
(-0.04306 0.00630514 0)
(-0.0441077 0.00588988 0)
(-0.0450821 0.00545443 0)
(-0.0459798 0.00500036 0)
(-0.0467979 0.00452927 0)
(-0.0475336 0.00404277 0)
(-0.0481845 0.00354248 0)
(-0.0487485 0.00303002 0)
(-0.0492235 0.00250705 0)
(-0.049608 0.00197521 0)
(-0.0499006 0.00143619 0)
(-0.0501002 0.000891667 0)
(-0.0502061 0.000343355 0)
(-0.0502179 -0.000207023 0)
(-0.0501352 -0.000757721 0)
(-0.0499583 -0.00130698 0)
(-0.0496875 -0.00185301 0)
(-0.0493235 -0.00239401 0)
(-0.0488674 -0.00292815 0)
(-0.0483204 -0.0034536 0)
(-0.0476842 -0.0039685 0)
(-0.0469608 -0.00447097 0)
(-0.0461523 -0.00495913 0)
(-0.0452614 -0.00543109 0)
(-0.0442909 -0.00588493 0)