/*--------------------------------*- C++ -*----------------------------------*\
| =========                 |                                                 |
| \\      /  F ield         | OpenFOAM: The Open Source CFD Toolbox           |
|  \\    /   O peration     | Version:  2212                                  |
|   \\  /    A nd           | Website:  www.openfoam.com                      |
|    \\/     M anipulation  |                                                 |
\*---------------------------------------------------------------------------*/
FoamFile
{
    version     2.0;
    format      ascii;
    arch        "LSB;label=32;scalar=64";
    class       volVectorField;
    location    "0.0405";
    object      U_0;
}
// * * * * * * * * * * * * * * * * * * * * * * * * * * * * * * * * * * * * * //

dimensions      [0 1 -1 0 0 0 0];

internalField   nonuniform List<vector> 
10000
(
(2.80712e-06 -2.69265e-06 0)
(1.29181e-05 -6.24247e-06 0)
(2.8023e-05 -6.82855e-06 0)
(4.14462e-05 -5.69373e-06 0)
(4.93025e-05 -3.56674e-06 0)
(4.97072e-05 -9.19031e-07 0)
(4.16129e-05 1.96216e-06 0)
(2.45588e-05 4.8894e-06 0)
(-1.5315e-06 7.75869e-06 0)
(-3.64671e-05 1.05125e-05 0)
(-7.99092e-05 1.31126e-05 0)
(-0.000131409 1.55347e-05 0)
(-0.000190449 1.77737e-05 0)
(-0.000256474 1.98197e-05 0)
(-0.0003289 2.16705e-05 0)
(-0.000407125 2.33341e-05 0)
(-0.000490552 2.4807e-05 0)
(-0.000578578 2.609e-05 0)
(-0.000670598 2.7191e-05 0)
(-0.000766029 2.8116e-05 0)
(-0.000864295 2.88703e-05 0)
(-0.000964828 2.94592e-05 0)
(-0.00106708 2.98889e-05 0)
(-0.00117053 3.01617e-05 0)
(-0.00127464 3.02814e-05 0)
(-0.00137893 3.02569e-05 0)
(-0.00148292 3.00963e-05 0)
(-0.00158614 2.98049e-05 0)
(-0.00168816 2.93876e-05 0)
(-0.00178854 2.88507e-05 0)
(-0.00188689 2.81999e-05 0)
(-0.00198282 2.74398e-05 0)
(-0.00207596 2.65756e-05 0)
(-0.00216596 2.56141e-05 0)
(-0.00225249 2.45612e-05 0)
(-0.00233524 2.34209e-05 0)
(-0.00241392 2.21975e-05 0)
(-0.00248825 2.0897e-05 0)
(-0.00255797 1.95261e-05 0)
(-0.00262284 1.80895e-05 0)
(-0.00268265 1.65912e-05 0)
(-0.00273719 1.50371e-05 0)
(-0.00278628 1.34325e-05 0)
(-0.00282974 1.17821e-05 0)
(-0.00286743 1.0092e-05 0)
(-0.00289922 8.36625e-06 0)
(-0.002925 6.61005e-06 0)
(-0.00294467 4.83055e-06 0)
(-0.00295816 3.03171e-06 0)
(-0.00296541 1.21746e-06 0)
(-0.00296638 -6.05215e-07 0)
(-0.00296107 -2.43048e-06 0)
(-0.00294945 -4.2532e-06 0)
(-0.00293157 -6.06667e-06 0)
(-0.00290746 -7.86549e-06 0)
(-0.00287718 -9.64493e-06 0)
(-0.00284082 -1.1398e-05 0)
(-0.00279848 -1.31175e-05 0)
(-0.00275029 -1.47984e-05 0)
(-0.0026964 -1.64345e-05 0)
(-0.00263697 -1.80184e-05 0)
(-0.00257221 -1.95432e-05 0)
(-0.00250232 -2.10027e-05 0)
(-0.00242754 -2.23904e-05 0)
(-0.00234814 -2.36995e-05 0)
(-0.00226441 -2.49235e-05 0)
(-0.00217664 -2.60551e-05 0)
(-0.00208517 -2.70868e-05 0)
(-0.00199036 -2.80115e-05 0)
(-0.00189259 -2.88236e-05 0)
(-0.00179224 -2.95175e-05 0)
(-0.00168974 -3.00858e-05 0)
(-0.00158554 -3.05209e-05 0)
(-0.0014801 -3.08169e-05 0)
(-0.0013739 -3.09683e-05 0)
(-0.00126744 -3.09689e-05 0)
(-0.00116125 -3.08122e-05 0)
(-0.00105586 -3.04932e-05 0)
(-0.000951828 -3.00074e-05 0)
(-0.000849725 -2.93499e-05 0)
(-0.000750128 -2.85156e-05 0)
(-0.000653631 -2.75007e-05 0)
(-0.000560833 -2.63023e-05 0)
(-0.000472342 -2.49172e-05 0)
(-0.000388764 -2.33428e-05 0)
(-0.000310704 -2.15779e-05 0)
(-0.000238759 -1.96238e-05 0)
(-0.000173513 -1.74835e-05 0)
(-0.000115524 -1.51612e-05 0)
(-6.53176e-05 -1.26634e-05 0)
(-2.337e-05 -1.00022e-05 0)
(9.91581e-06 -7.19835e-06 0)
(3.42441e-05 -4.28532e-06 0)
(4.94811e-05 -1.31999e-06 0)
(5.57397e-05 1.59922e-06 0)
(5.35152e-05 4.29821e-06 0)
(4.38795e-05 6.46951e-06 0)
(2.88908e-05 7.55856e-06 0)
(1.28024e-05 6.60003e-06 0)
(2.609e-06 2.60954e-06 0)
(7.04782e-06 -1.31469e-05 0)
(2.67912e-05 -2.56929e-05 0)
(5.16168e-05 -2.57518e-05 0)
(6.93895e-05 -1.80723e-05 0)
(7.25303e-05 -5.55708e-06 0)
(5.67745e-05 9.83118e-06 0)
(1.94483e-05 2.67199e-05 0)
(-4.08789e-05 4.41693e-05 0)
(-0.000124664 6.15684e-05 0)
(-0.000231723 7.85065e-05 0)
(-0.000361391 9.47111e-05 0)
(-0.00051267 0.000110009 0)
(-0.000684343 0.000124276 0)
(-0.000875033 0.00013744 0)
(-0.00108324 0.000149459 0)
(-0.00130743 0.000160306 0)
(-0.00154599 0.000169974 0)
(-0.00179731 0.000178464 0)
(-0.00205976 0.000185788 0)
(-0.00233176 0.000191962 0)
(-0.00261169 0.000197013 0)
(-0.00289801 0.000200968 0)
(-0.00318919 0.000203857 0)
(-0.00348373 0.000205709 0)
(-0.00378019 0.000206557 0)
(-0.00407717 0.000206437 0)
(-0.0043733 0.000205385 0)
(-0.00466729 0.000203438 0)
(-0.00495788 0.000200633 0)
(-0.00524385 0.000197007 0)
(-0.00552406 0.000192596 0)
(-0.0057974 0.000187436 0)
(-0.00606281 0.000181565 0)
(-0.00631931 0.000175019 0)
(-0.00656594 0.000167836 0)
(-0.00680181 0.000160052 0)
(-0.00702608 0.000151702 0)
(-0.00723796 0.000142823 0)
(-0.0074367 0.000133451 0)
(-0.00762163 0.000123623 0)
(-0.0077921 0.000113374 0)
(-0.00794755 0.000102738 0)
(-0.00808743 9.17542e-05 0)
(-0.00821126 8.0457e-05 0)
(-0.00831863 6.88815e-05 0)
(-0.00840916 5.70661e-05 0)
(-0.00848253 4.50469e-05 0)
(-0.00853848 3.28598e-05 0)
(-0.00857678 2.05424e-05 0)
(-0.00859728 8.13167e-06 0)
(-0.00859989 -4.33366e-06 0)
(-0.00858454 -1.6814e-05 0)
(-0.00855125 -2.92702e-05 0)
(-0.00850008 -4.16626e-05 0)
(-0.00843117 -5.3951e-05 0)
(-0.00834469 -6.60941e-05 0)
(-0.00824089 -7.80489e-05 0)
(-0.00812008 -8.97731e-05 0)
(-0.00798261 -0.000101225 0)
(-0.00782893 -0.00011236 0)
(-0.00765951 -0.000123132 0)
(-0.00747493 -0.000133498 0)
(-0.00727579 -0.000143412 0)
(-0.00706279 -0.000152829 0)
(-0.00683668 -0.000161704 0)
(-0.00659826 -0.00016999 0)
(-0.00634843 -0.000177642 0)
(-0.00608813 -0.000184614 0)
(-0.00581837 -0.000190859 0)
(-0.00554021 -0.000196337 0)
(-0.0052548 -0.000201002 0)
(-0.00496333 -0.000204813 0)
(-0.00466706 -0.000207725 0)
(-0.00436728 -0.000209699 0)
(-0.00406539 -0.000210696 0)
(-0.00376278 -0.00021068 0)
(-0.00346094 -0.000209615 0)
(-0.00316136 -0.00020747 0)
(-0.00286559 -0.000204216 0)
(-0.00257523 -0.000199828 0)
(-0.00229188 -0.000194283 0)
(-0.00201718 -0.000187563 0)
(-0.00175278 -0.000179657 0)
(-0.00150032 -0.000170559 0)
(-0.00126146 -0.000160272 0)
(-0.0010378 -0.000148808 0)
(-0.000830941 -0.000136194 0)
(-0.000642386 -0.000122471 0)
(-0.000473563 -0.0001077 0)
(-0.000325769 -9.19709e-05 0)
(-0.000200119 -7.54145e-05 0)
(-9.7478e-05 -5.82199e-05 0)
(-1.83662e-05 -4.06625e-05 0)
(3.71796e-05 -2.31508e-05 0)
(6.98055e-05 -6.30042e-06 0)
(8.11162e-05 8.94987e-06 0)
(7.39958e-05 2.11626e-05 0)
(5.31238e-05 2.8131e-05 0)
(2.65755e-05 2.65706e-05 0)
(6.59433e-06 1.27938e-05 0)
(8.04019e-06 -2.95688e-05 0)
(2.8296e-05 -5.12631e-05 0)
(4.9379e-05 -4.60864e-05 0)
(5.66217e-05 -2.37453e-05 0)
(4.07549e-05 1.00053e-05 0)
(-3.79903e-06 5.098e-05 0)
(-8.07234e-05 9.60013e-05 0)
(-0.000192104 0.000142837 0)
(-0.00033878 0.000189875 0)
(-0.00052064 0.000235991 0)
(-0.000736861 0.000280412 0)
(-0.000986114 0.000322573 0)
(-0.00126668 0.0003621 0)
(-0.00157657 0.000398735 0)
(-0.00191359 0.000432306 0)
(-0.00227541 0.000462707 0)
(-0.00265963 0.000489885 0)
(-0.00306378 0.000513818 0)
(-0.00348537 0.000534511 0)
(-0.00392191 0.000552003 0)
(-0.00437094 0.000566336 0)
(-0.00483001 0.000577575 0)
(-0.00529672 0.000585797 0)
(-0.00576873 0.00059108 0)
(-0.00624375 0.000593508 0)
(-0.00671956 0.000593177 0)
(-0.007194 0.000590182 0)
(-0.00766499 0.000584622 0)
(-0.00813053 0.000576599 0)
(-0.00858869 0.000566215 0)
(-0.00903763 0.000553574 0)
(-0.00947557 0.000538778 0)
(-0.00990083 0.000521931 0)
(-0.0103118 0.00050314 0)
(-0.010707 0.000482509 0)
(-0.0110849 0.000460143 0)
(-0.0114443 0.000436146 0)
(-0.0117838 0.000410621 0)
(-0.0121023 0.000383674 0)
(-0.0123986 0.000355406 0)
(-0.0126717 0.000325923 0)
(-0.0129207 0.000295328 0)
(-0.0131448 0.000263725 0)
(-0.0133432 0.000231219 0)
(-0.0135151 0.000197915 0)
(-0.0136601 0.000163916 0)
(-0.0137775 0.000129331 0)
(-0.013867 9.4267e-05 0)
(-0.0139282 5.88297e-05 0)
(-0.0139608 2.313e-05 0)
(-0.0139648 -1.27203e-05 0)
(-0.01394 -4.86097e-05 0)
(-0.0138865 -8.44244e-05 0)
(-0.0138043 -0.000120048 0)
(-0.0136937 -0.000155364 0)
(-0.0135549 -0.000190254 0)
(-0.0133884 -0.000224594 0)
(-0.0131947 -0.000258263 0)
(-0.0129743 -0.000291138 0)
(-0.012728 -0.000323094 0)
(-0.0124565 -0.000354 0)
(-0.0121608 -0.000383729 0)
(-0.0118418 -0.000412152 0)
(-0.0115006 -0.000439141 0)
(-0.0111385 -0.000464564 0)
(-0.0107568 -0.000488291 0)
(-0.0103568 -0.000510192 0)
(-0.00994013 -0.000530138 0)
(-0.00950833 -0.000548001 0)
(-0.00906315 -0.000563656 0)
(-0.0086064 -0.000576983 0)
(-0.00813997 -0.000587859 0)
(-0.00766588 -0.000596168 0)
(-0.0071862 -0.000601797 0)
(-0.00670311 -0.00060464 0)
(-0.00621886 -0.000604597 0)
(-0.00573575 -0.000601576 0)
(-0.00525619 -0.000595492 0)
(-0.00478259 -0.00058627 0)
(-0.00431747 -0.000573847 0)
(-0.00386334 -0.000558171 0)
(-0.00342276 -0.000539205 0)
(-0.00299828 -0.000516931 0)
(-0.00259246 -0.000491352 0)
(-0.00220781 -0.000462496 0)
(-0.00184682 -0.000430427 0)
(-0.00151187 -0.000395244 0)
(-0.00120522 -0.000357099 0)
(-0.000928979 -0.000316209 0)
(-0.000685 -0.000272876 0)
(-0.000474839 -0.000227522 0)
(-0.000299633 -0.000180735 0)
(-0.000159968 -0.000133331 0)
(-5.56918e-05 -8.64594e-05 0)
(1.43263e-05 -4.17435e-05 0)
(5.25105e-05 -1.48848e-06 0)
(6.28941e-05 3.1042e-05 0)
(5.15575e-05 5.12995e-05 0)
(2.82526e-05 5.31448e-05 0)
(7.57174e-06 2.88886e-05 0)
(6.72385e-06 -4.46559e-05 0)
(2.07405e-05 -7.07998e-05 0)
(2.80924e-05 -5.39135e-05 0)
(1.39384e-05 -9.02191e-06 0)
(-3.15126e-05 5.49844e-05 0)
(-0.000114504 0.000131397 0)
(-0.000239215 0.00021511 0)
(-0.000408104 0.000302287 0)
(-0.000622236 0.000390123 0)
(-0.000881543 0.000476573 0)
(-0.00118512 0.000560138 0)
(-0.00153138 0.000639739 0)
(-0.00191823 0.000714607 0)
(-0.00234323 0.000784193 0)
(-0.00280361 0.000848119 0)
(-0.00329643 0.000906143 0)
(-0.00381859 0.00095811 0)
(-0.00436694 0.00100395 0)
(-0.00493822 0.00104366 0)
(-0.00552919 0.00107726 0)
(-0.00613662 0.00110482 0)
(-0.00675728 0.00112645 0)
(-0.007388 0.00114227 0)
(-0.00802568 0.00115242 0)
(-0.00866727 0.00115706 0)
(-0.00930981 0.00115636 0)
(-0.00995042 0.0011505 0)
(-0.0105863 0.00113965 0)
(-0.0112148 0.00112402 0)
(-0.0118333 0.00110379 0)
(-0.0124393 0.00107917 0)
(-0.0130305 0.00105035 0)
(-0.0136046 0.00101753 0)
(-0.0141594 0.00098091 0)
(-0.0146928 0.000940702 0)
(-0.015203 0.000897103 0)
(-0.015688 0.000850318 0)
(-0.0161463 0.000800549 0)
(-0.0165761 0.000747999 0)
(-0.016976 0.000692871 0)
(-0.0173447 0.000635365 0)
(-0.0176807 0.000575689 0)
(-0.0179831 0.000514044 0)
(-0.0182507 0.000450635 0)
(-0.0184827 0.000385667 0)
(-0.0186782 0.000319349 0)
(-0.0188365 0.000251888 0)
(-0.0189571 0.000183493 0)
(-0.0190395 0.000114377 0)
(-0.0190834 4.47547e-05 0)
(-0.0190885 -2.5156e-05 0)
(-0.0190548 -9.51336e-05 0)
(-0.0189823 -0.000164957 0)
(-0.0188712 -0.000234401 0)
(-0.0187216 -0.000303234 0)
(-0.0185342 -0.000371223 0)
(-0.0183093 -0.000438133 0)
(-0.0180476 -0.000503724 0)
(-0.0177501 -0.000567755 0)
(-0.0174175 -0.00062998 0)
(-0.0170511 -0.000690152 0)
(-0.0166519 -0.000748021 0)
(-0.0162214 -0.000803337 0)
(-0.0157611 -0.000855848 0)
(-0.0152726 -0.000905303 0)
(-0.0147575 -0.000951449 0)
(-0.014218 -0.000994034 0)
(-0.0136559 -0.00103281 0)
(-0.0130735 -0.00106753 0)
(-0.012473 -0.00109796 0)
(-0.011857 -0.00112386 0)
(-0.0112279 -0.00114501 0)
(-0.0105885 -0.00116117 0)
(-0.00994144 -0.00117214 0)
(-0.00928974 -0.00117772 0)
(-0.00863637 -0.00117772 0)
(-0.00798441 -0.00117197 0)
(-0.00733703 -0.00116031 0)
(-0.00669748 -0.00114262 0)
(-0.00606904 -0.00111878 0)
(-0.00545505 -0.00108871 0)
(-0.00485887 -0.00105236 0)
(-0.00428384 -0.00100971 0)
(-0.0037333 -0.000960798 0)
(-0.00321053 -0.0009057 0)
(-0.00271871 -0.00084457 0)
(-0.00226089 -0.000777641 0)
(-0.00183996 -0.000705245 0)
(-0.00145854 -0.000627843 0)
(-0.00111892 -0.000546067 0)
(-0.00082299 -0.000460774 0)
(-0.000572061 -0.000373119 0)
(-0.000366753 -0.000284664 0)
(-0.00020678 -0.000197528 0)
(-9.07045e-05 -0.000114584 0)
(-1.56406e-05 -3.97387e-05 0)
(2.30283e-05 2.17251e-05 0)
(3.2029e-05 6.27837e-05 0)
(2.15893e-05 7.42848e-05 0)
(6.54062e-06 4.3986e-05 0)
(4.34636e-06 -5.40131e-05 0)
(7.97474e-06 -7.61627e-05 0)
(-5.37184e-06 -3.96363e-05 0)
(-4.88234e-05 3.58741e-05 0)
(-0.000131798 0.000138376 0)
(-0.000260632 0.000258759 0)
(-0.000439621 0.000389892 0)
(-0.00067133 0.000526341 0)
(-0.000956843 0.000663987 0)
(-0.00129609 0.000799739 0)
(-0.00168804 0.000931274 0)
(-0.00213089 0.00105689 0)
(-0.00262227 0.00117529 0)
(-0.00315931 0.00128559 0)
(-0.00373882 0.00138711 0)
(-0.00435733 0.00147941 0)
(-0.00501118 0.00156221 0)
(-0.00569659 0.00163534 0)
(-0.00640969 0.00169874 0)
(-0.00714657 0.00175244 0)
(-0.00790332 0.00179651 0)
(-0.00867604 0.0018311 0)
(-0.00946087 0.00185637 0)
(-0.010254 0.00187253 0)
(-0.0110518 0.00187983 0)
(-0.0118505 0.00187851 0)
(-0.0126467 0.00186886 0)
(-0.0134368 0.00185116 0)
(-0.0142177 0.00182572 0)
(-0.0149861 0.00179283 0)
(-0.015739 0.00175281 0)
(-0.0164733 0.00170599 0)
(-0.0171863 0.00165268 0)
(-0.0178754 0.0015932 0)
(-0.0185379 0.00152789 0)
(-0.0191715 0.00145707 0)
(-0.0197739 0.00138106 0)
(-0.020343 0.00130021 0)
(-0.0208767 0.00121483 0)
(-0.0213733 0.00112526 0)
(-0.0218311 0.00103183 0)
(-0.0222483 0.000934864 0)
(-0.0226237 0.000834698 0)
(-0.0229559 0.000731665 0)
(-0.0232438 0.000626101 0)
(-0.0234864 0.000518345 0)
(-0.0236829 0.000408735 0)
(-0.0238324 0.000297612 0)
(-0.0239345 0.000185325 0)
(-0.0239888 7.22234e-05 0)
(-0.0239949 -4.13375e-05 0)
(-0.0239528 -0.000155 0)
(-0.0238625 -0.0002684 0)
(-0.0237243 -0.000381169 0)
(-0.0235384 -0.000492934 0)
(-0.0233054 -0.000603316 0)
(-0.023026 -0.000711931 0)
(-0.022701 -0.000818392 0)
(-0.0223314 -0.000922305 0)
(-0.0219184 -0.00102327 0)
(-0.0214633 -0.0011209 0)
(-0.0209677 -0.00121477 0)
(-0.0204332 -0.00130449 0)
(-0.0198617 -0.00138965 0)
(-0.0192552 -0.00146984 0)
(-0.0186159 -0.00154466 0)
(-0.0179461 -0.00161371 0)
(-0.0172485 -0.00167657 0)
(-0.0165255 -0.00173287 0)
(-0.0157802 -0.00178222 0)
(-0.0150155 -0.00182424 0)
(-0.0142345 -0.00185856 0)
(-0.0134407 -0.00188484 0)
(-0.0126373 -0.00190273 0)
(-0.0118279 -0.00191194 0)
(-0.0110163 -0.00191216 0)
(-0.0102062 -0.00190313 0)
(-0.0094015 -0.00188462 0)
(-0.00860613 -0.00185643 0)
(-0.00782411 -0.0018184 0)
(-0.00705948 -0.00177041 0)
(-0.00631632 -0.00171242 0)
(-0.00559866 -0.00164441 0)
(-0.00491052 -0.00156648 0)
(-0.00425581 -0.00147881 0)
(-0.00363833 -0.00138166 0)
(-0.0030617 -0.00127545 0)
(-0.0025293 -0.00116078 0)
(-0.00204418 -0.00103841 0)
(-0.00160902 -0.000909425 0)
(-0.00122594 -0.000775206 0)
(-0.000896431 -0.000637603 0)
(-0.000621182 -0.000499049 0)
(-0.000399875 -0.000362748 0)
(-0.000230966 -0.000232919 0)
(-0.000111428 -0.000115118 0)
(-3.64949e-05 -1.66247e-05 0)
(6.75178e-07 5.31472e-05 0)
(9.87936e-06 8.21482e-05 0)
(4.47204e-06 5.39451e-05 0)
(1.54104e-06 -5.56746e-05 0)
(-7.54958e-06 -6.2741e-05 0)
(-4.60914e-05 2.74087e-06 0)
(-0.000124361 0.000117479 0)
(-0.000250571 0.000266758 0)
(-0.00043078 0.000439211 0)
(-0.000669061 0.000625807 0)
(-0.000967788 0.000819525 0)
(-0.00132795 0.00101492 0)
(-0.00174931 0.0012078 0)
(-0.00223069 0.00139498 0)
(-0.00277005 0.00157402 0)
(-0.00336474 0.00174307 0)
(-0.00401156 0.00190079 0)
(-0.00470692 0.00204619 0)
(-0.0054469 0.00217855 0)
(-0.00622736 0.00229742 0)
(-0.007044 0.00240251 0)
(-0.00789238 0.00249369 0)
(-0.00876804 0.00257093 0)
(-0.00966645 0.00263433 0)
(-0.0105831 0.00268405 0)
(-0.0115136 0.0027203 0)
(-0.0124535 0.00274338 0)
(-0.0133984 0.00275359 0)
(-0.0143442 0.0027513 0)
(-0.0152867 0.00273688 0)
(-0.0162219 0.00271075 0)
(-0.0171459 0.00267333 0)
(-0.018055 0.00262506 0)
(-0.0189456 0.00256638 0)
(-0.0198142 0.00249775 0)
(-0.0206575 0.00241964 0)
(-0.0214724 0.00233252 0)
(-0.0222559 0.00223686 0)
(-0.0230052 0.00213314 0)
(-0.0237175 0.00202183 0)
(-0.0243903 0.00190341 0)
(-0.0250214 0.00177838 0)
(-0.0256085 0.0016472 0)
(-0.0261496 0.00151037 0)
(-0.0266428 0.00136836 0)
(-0.0270865 0.00122166 0)
(-0.0274791 0.00107077 0)
(-0.0278194 0.000916183 0)
(-0.028106 0.000758382 0)
(-0.028338 0.000597872 0)
(-0.0285147 0.000435157 0)
(-0.0286352 0.000270745 0)
(-0.0286991 0.000105151 0)
(-0.0287061 -6.11047e-05 0)
(-0.0286562 -0.000227496 0)
(-0.0285492 -0.00039349 0)
(-0.0283856 -0.000558547 0)
(-0.0281657 -0.000722118 0)
(-0.0278901 -0.000883649 0)
(-0.0275596 -0.00104258 0)
(-0.0271753 -0.00119834 0)
(-0.0267383 -0.00135036 0)
(-0.0262501 -0.00149806 0)
(-0.0257121 -0.00164085 0)
(-0.0251262 -0.00177814 0)
(-0.0244944 -0.00190935 0)
(-0.0238189 -0.00203388 0)
(-0.023102 -0.00215115 0)
(-0.0223464 -0.00226055 0)
(-0.0215547 -0.00236152 0)
(-0.0207301 -0.00245346 0)
(-0.0198755 -0.00253582 0)
(-0.0189945 -0.00260803 0)
(-0.0180904 -0.00266956 0)
(-0.017167 -0.00271988 0)
(-0.0162282 -0.00275849 0)
(-0.015278 -0.00278492 0)
(-0.0143205 -0.00279872 0)
(-0.01336 -0.00279948 0)
(-0.012401 -0.00278682 0)
(-0.0114479 -0.00276044 0)
(-0.0105053 -0.00272006 0)
(-0.00957795 -0.00266548 0)
(-0.00867044 -0.00259655 0)
(-0.00778748 -0.00251323 0)
(-0.00693372 -0.00241556 0)
(-0.00611377 -0.0023037 0)
(-0.00533212 -0.00217794 0)
(-0.00459307 -0.00203873 0)
(-0.00390074 -0.00188672 0)
(-0.00325894 -0.00172281 0)
(-0.00267111 -0.00154817 0)
(-0.00214023 -0.00136436 0)
(-0.00166869 -0.0011734 0)
(-0.00125817 -0.000977898 0)
(-0.000909478 -0.000781235 0)
(-0.000622403 -0.000587748 0)
(-0.000395487 -0.000403017 0)
(-0.000225836 -0.000234203 0)
(-0.000108874 -9.04787e-05 0)
(-3.80591e-05 1.65516e-05 0)
(-4.70409e-06 7.22581e-05 0)
(1.91633e-06 5.6812e-05 0)
(-1.38832e-06 -4.87762e-05 0)
(-2.4407e-05 -2.78823e-05 0)
(-9.08883e-05 7.70791e-05 0)
(-0.000207533 0.000240292 0)
(-0.000380937 0.000444797 0)
(-0.000616484 0.000677241 0)
(-0.000917746 0.000926893 0)
(-0.00128672 0.00118521 0)
(-0.00172409 0.00144549 0)
(-0.00222937 0.00170245 0)
(-0.00280111 0.00195197 0)
(-0.00343705 0.00219089 0)
(-0.00413422 0.00241674 0)
(-0.00488912 0.0026277 0)
(-0.00569777 0.00282237 0)
(-0.00655588 0.00299977 0)
(-0.00745887 0.00315921 0)
(-0.00840196 0.00330026 0)
(-0.00938024 0.00342267 0)
(-0.0103887 0.00352639 0)
(-0.0114224 0.00361148 0)
(-0.0124762 0.00367812 0)
(-0.0135451 0.00372658 0)
(-0.0146242 0.0037572 0)
(-0.0157087 0.0037704 0)
(-0.0167936 0.00376664 0)
(-0.0178744 0.0037464 0)
(-0.0189466 0.00371024 0)
(-0.0200057 0.00365871 0)
(-0.0210475 0.00359239 0)
(-0.0220679 0.00351189 0)
(-0.023063 0.00341781 0)
(-0.0240291 0.0033108 0)
(-0.0249624 0.00319148 0)
(-0.0258597 0.0030605 0)
(-0.0267177 0.00291849 0)
(-0.0275333 0.00276612 0)
(-0.0283037 0.00260404 0)
(-0.0290263 0.0024329 0)
(-0.0296984 0.00225335 0)
(-0.0303178 0.00206608 0)
(-0.0308824 0.00187172 0)
(-0.0313902 0.00167097 0)
(-0.0318396 0.00146447 0)
(-0.0322289 0.00125292 0)
(-0.0325569 0.00103698 0)
(-0.0328224 0.000817347 0)
(-0.0330244 0.000594704 0)
(-0.0331622 0.000369752 0)
(-0.0332352 0.000143195 0)
(-0.0332431 -8.4253e-05 0)
(-0.0331857 -0.000311873 0)
(-0.0330632 -0.000538934 0)
(-0.0328757 -0.000764695 0)
(-0.0326239 -0.000988409 0)
(-0.0323083 -0.00120932 0)
(-0.03193 -0.00142665 0)
(-0.03149 -0.00163964 0)
(-0.0309898 -0.00184749 0)
(-0.0304309 -0.00204943 0)
(-0.0298151 -0.00224464 0)
(-0.0291445 -0.00243233 0)
(-0.0284214 -0.0026117 0)
(-0.0276482 -0.00278195 0)
(-0.0268276 -0.00294226 0)
(-0.0259627 -0.00309184 0)
(-0.0250565 -0.0032299 0)
(-0.0241124 -0.00335566 0)
(-0.023134 -0.00346835 0)
(-0.0221252 -0.00356721 0)
(-0.0210899 -0.00365153 0)
(-0.0200324 -0.00372059 0)
(-0.0189569 -0.00377374 0)
(-0.017868 -0.00381033 0)
(-0.0167705 -0.00382977 0)
(-0.0156692 -0.00383153 0)
(-0.0145691 -0.00381513 0)
(-0.0134752 -0.00378015 0)
(-0.0123927 -0.00372624 0)
(-0.0113269 -0.00365317 0)
(-0.0102829 -0.00356077 0)
(-0.00926612 -0.00344902 0)
(-0.00828162 -0.003318 0)
(-0.00733458 -0.00316799 0)
(-0.00642996 -0.00299942 0)
(-0.00557256 -0.00281295 0)
(-0.00476693 -0.00260951 0)
(-0.00401726 -0.00239034 0)
(-0.00332735 -0.00215707 0)
(-0.00270049 -0.0019118 0)
(-0.00213934 -0.00165724 0)
(-0.0016458 -0.00139679 0)
(-0.00122093 -0.00113479 0)
(-0.000864713 -0.000876723 0)
(-0.000575969 -0.000629479 0)
(-0.000352159 -0.000401734 0)
(-0.000189174 -0.000204371 0)
(-8.10897e-05 -5.0916e-05 0)
(-2.0789e-05 4.18566e-05 0)
(-8.31058e-07 5.15914e-05 0)
(-4.30731e-06 -3.29579e-05 0)
(-4.1777e-05 2.98655e-05 0)
(-0.00013766 0.000185773 0)
(-0.00029486 0.000407278 0)
(-0.000517999 0.000675688 0)
(-0.000811567 0.000976034 0)
(-0.00117842 0.00129605 0)
(-0.00161998 0.00162587 0)
(-0.00213647 0.00195758 0)
(-0.00272705 0.00228485 0)
(-0.00338994 0.00260269 0)
(-0.00412256 0.00290715 0)
(-0.00492162 0.00319517 0)
(-0.00578329 0.00346437 0)
(-0.00670325 0.00371298 0)
(-0.00767682 0.00393967 0)
(-0.00869904 0.00414352 0)
(-0.0097647 0.00432391 0)
(-0.0108685 0.00448049 0)
(-0.0120049 0.00461311 0)
(-0.0131684 0.00472181 0)
(-0.0143536 0.00480679 0)
(-0.0155549 0.00486836 0)
(-0.0167669 0.00490692 0)
(-0.0179843 0.00492298 0)
(-0.0192016 0.00491709 0)
(-0.020414 0.00488989 0)
(-0.0216162 0.00484205 0)
(-0.0228034 0.00477427 0)
(-0.023971 0.0046873 0)
(-0.0251143 0.00458191 0)
(-0.0262291 0.00445889 0)
(-0.0273112 0.00431904 0)
(-0.0283565 0.00416318 0)
(-0.0293613 0.00399214 0)
(-0.030322 0.00380676 0)
(-0.0312352 0.00360787 0)
(-0.0320977 0.00339634 0)
(-0.0329065 0.003173 0)
(-0.0336588 0.00293873 0)
(-0.0343521 0.00269437 0)
(-0.034984 0.0024408 0)
(-0.0355523 0.00217888 0)
(-0.0360552 0.00190949 0)
(-0.0364908 0.00163352 0)
(-0.0368578 0.00135183 0)
(-0.0371548 0.00106534 0)
(-0.0373807 0.000774943 0)
(-0.0375348 0.000481546 0)
(-0.0376165 0.000186071 0)
(-0.0376252 -0.000110552 0)
(-0.037561 -0.000407382 0)
(-0.0374238 -0.000703466 0)
(-0.037214 -0.000997839 0)
(-0.0369321 -0.00128953 0)
(-0.0365789 -0.00157754 0)
(-0.0361556 -0.00186088 0)
(-0.0356632 -0.00213855 0)
(-0.0351035 -0.00240951 0)
(-0.034478 -0.00267274 0)
(-0.033789 -0.00292721 0)
(-0.0330386 -0.00317188 0)
(-0.0322293 -0.00340571 0)
(-0.031364 -0.00362765 0)
(-0.0304457 -0.00383666 0)
(-0.0294776 -0.00403172 0)
(-0.0284633 -0.0042118 0)
(-0.0274065 -0.00437588 0)
(-0.0263111 -0.00452299 0)
(-0.0251815 -0.00465216 0)
(-0.024022 -0.00476244 0)
(-0.0228373 -0.00485295 0)
(-0.0216322 -0.00492283 0)
(-0.0204118 -0.00497127 0)
(-0.0191813 -0.00499753 0)
(-0.017946 -0.00500093 0)
(-0.0167114 -0.00498086 0)
(-0.0154832 -0.00493682 0)
(-0.0142669 -0.0048684 0)
(-0.0130683 -0.00477529 0)
(-0.0118932 -0.00465736 0)
(-0.0107474 -0.00451458 0)
(-0.00963652 -0.00434713 0)
(-0.00856615 -0.00415539 0)
(-0.00754175 -0.00393997 0)
(-0.00656852 -0.00370178 0)
(-0.00565141 -0.00344205 0)
(-0.004795 -0.00316241 0)
(-0.00400343 -0.00286496 0)
(-0.00328031 -0.00255239 0)
(-0.0026286 -0.0022281 0)
(-0.00205051 -0.00189631 0)
(-0.00154738 -0.00156233 0)
(-0.00111956 -0.0012327 0)
(-0.000766286 -0.000915574 0)
(-0.000485553 -0.000620986 0)
(-0.000273931 -0.000361325 0)
(-0.000126344 -0.000151724 0)
(-3.75234e-05 -1.06397e-05 0)
(-3.61189e-06 3.78232e-05 0)
(-7.14582e-06 -8.17483e-06 0)
(-5.91713e-05 0.000111161 0)
(-0.000185102 0.000330093 0)
(-0.000383984 0.000620178 0)
(-0.000658339 0.000961476 0)
(-0.00101161 0.00133769 0)
(-0.00144576 0.0017353 0)
(-0.00196149 0.00214327 0)
(-0.00255845 0.00255257 0)
(-0.00323533 0.00295594 0)
(-0.00398993 0.0033475 0)
(-0.00481929 0.00372259 0)
(-0.00571979 0.0040775 0)
(-0.00668722 0.00440936 0)
(-0.00771693 0.00471594 0)
(-0.00880386 0.00499559 0)
(-0.00994267 0.00524712 0)
(-0.0111278 0.00546971 0)
(-0.0123534 0.00566288 0)
(-0.0136137 0.00582639 0)
(-0.0149027 0.00596025 0)
(-0.0162144 0.00606465 0)
(-0.0175431 0.00613993 0)
(-0.0188826 0.00618657 0)
(-0.0202273 0.00620515 0)
(-0.0215714 0.00619636 0)
(-0.0229093 0.00616094 0)
(-0.0242356 0.00609971 0)
(-0.025545 0.00601354 0)
(-0.0268323 0.00590335 0)
(-0.0280927 0.00577008 0)
(-0.0293213 0.0056147 0)
(-0.0305136 0.00543821 0)
(-0.0316653 0.00524165 0)
(-0.0327722 0.00502602 0)
(-0.0338303 0.00479239 0)
(-0.034836 0.0045418 0)
(-0.0357858 0.00427532 0)
(-0.0366763 0.00399402 0)
(-0.0375046 0.00369897 0)
(-0.0382679 0.00339125 0)
(-0.0389635 0.00307195 0)
(-0.0395891 0.00274217 0)
(-0.0401427 0.002403 0)
(-0.0406222 0.00205556 0)
(-0.0410261 0.00170095 0)
(-0.041353 0.00134031 0)
(-0.0416017 0.000974765 0)
(-0.0417713 0.000605466 0)
(-0.0418611 0.000233569 0)
(-0.0418708 -0.000139755 0)
(-0.0418001 -0.000513322 0)
(-0.0416491 -0.000885933 0)
(-0.0414183 -0.00125638 0)
(-0.0411081 -0.00162343 0)
(-0.0407195 -0.00198585 0)
(-0.0402536 -0.00234237 0)
(-0.0397119 -0.00269175 0)
(-0.0390959 -0.00303269 0)
(-0.0384076 -0.00336391 0)
(-0.0376493 -0.00368411 0)
(-0.0368234 -0.00399199 0)
(-0.0359327 -0.00428625 0)
(-0.0349802 -0.00456559 0)
(-0.0339693 -0.00482869 0)
(-0.0329035 -0.00507429 0)
(-0.0317866 -0.00530109 0)
(-0.0306228 -0.00550786 0)
(-0.0294163 -0.00569334 0)
(-0.0281719 -0.00585635 0)
(-0.0268943 -0.00599574 0)
(-0.0255885 -0.00611038 0)
(-0.02426 -0.00619922 0)
(-0.022914 -0.00626127 0)
(-0.0215564 -0.00629563 0)
(-0.0201928 -0.00630146 0)
(-0.0188294 -0.00627803 0)
(-0.017472 -0.00622475 0)
(-0.016127 -0.00614112 0)
(-0.0148004 -0.00602683 0)
(-0.0134986 -0.00588169 0)
(-0.0122277 -0.00570577 0)
(-0.010994 -0.00549929 0)
(-0.00980328 -0.0052628 0)
(-0.00866157 -0.00499708 0)
(-0.00757446 -0.00470332 0)
(-0.00654728 -0.00438305 0)
(-0.00558496 -0.00403834 0)
(-0.00469202 -0.00367178 0)
(-0.00387239 -0.00328666 0)
(-0.00312939 -0.00288706 0)
(-0.0024656 -0.00247801 0)
(-0.00188274 -0.00206574 0)
(-0.00138162 -0.00165781 0)
(-0.000962003 -0.0012635 0)
(-0.000622587 -0.000894068 0)
(-0.000360766 -0.00056317 0)
(-0.000172463 -0.000287237 0)
(-5.43912e-05 -8.5979e-05 0)
(-6.3451e-06 1.53823e-05 0)
(-9.87356e-06 2.54634e-05 0)
(-7.6318e-05 0.00021611 0)
(-0.000232388 0.000510543 0)
(-0.000473355 0.000879875 0)
(-0.000799628 0.00130328 0)
(-0.0012135 0.00176348 0)
(-0.00171594 0.00224593 0)
(-0.00230682 0.00273856 0)
(-0.00298511 0.00323142 0)
(-0.00374893 0.00371634 0)
(-0.00459561 0.00418667 0)
(-0.00552173 0.00463702 0)
(-0.00652328 0.00506311 0)
(-0.00759568 0.00546153 0)
(-0.0087339 0.00582964 0)
(-0.00993251 0.00616543 0)
(-0.0111858 0.00646744 0)
(-0.0124878 0.00673464 0)
(-0.0138323 0.00696641 0)
(-0.0152132 0.00716241 0)
(-0.016624 0.00732262 0)
(-0.0180584 0.0074472 0)
(-0.0195101 0.00753654 0)
(-0.0209727 0.00759117 0)
(-0.0224401 0.00761177 0)
(-0.0239061 0.00759913 0)
(-0.0253646 0.00755413 0)
(-0.02681 0.00747774 0)
(-0.0282364 0.00737101 0)
(-0.0296384 0.00723502 0)
(-0.0310107 0.0070709 0)
(-0.032348 0.00687984 0)
(-0.0336456 0.00666304 0)
(-0.0348988 0.00642173 0)
(-0.036103 0.00615716 0)
(-0.037254 0.0058706 0)
(-0.0383478 0.00556334 0)
(-0.0393807 0.00523667 0)
(-0.0403491 0.00489189 0)
(-0.0412498 0.00453031 0)
(-0.0420797 0.00415325 0)
(-0.0428359 0.00376205 0)
(-0.0435161 0.00335803 0)
(-0.0441178 0.00294255 0)
(-0.0446391 0.00251696 0)
(-0.0450782 0.00208263 0)
(-0.0454336 0.00164092 0)
(-0.045704 0.00119324 0)
(-0.0458884 0.000740978 0)
(-0.0459862 0.000285555 0)
(-0.0459968 -0.000171597 0)
(-0.0459201 -0.00062903 0)
(-0.0457562 -0.00108528 0)
(-0.0455055 -0.00153886 0)
(-0.0451686 -0.00198828 0)
(-0.0447465 -0.00243202 0)
(-0.0442404 -0.00286854 0)
(-0.0436518 -0.00329631 0)
(-0.0429825 -0.00371376 0)
(-0.0422347 -0.00411933 0)
(-0.0414106 -0.00451142 0)
(-0.0405131 -0.00488847 0)
(-0.039545 -0.00524887 0)
(-0.0385097 -0.00559105 0)
(-0.0374107 -0.00591342 0)
(-0.0362518 -0.00621443 0)
(-0.0350372 -0.00649252 0)
(-0.0337714 -0.00674617 0)
(-0.0324589 -0.00697389 0)
(-0.0311048 -0.00717424 0)
(-0.0297142 -0.00734581 0)
(-0.0282926 -0.00748727 0)
(-0.0268457 -0.00759735 0)
(-0.0253793 -0.00767487 0)
(-0.0238995 -0.00771873 0)
(-0.0224125 -0.00772796 0)
(-0.0209248 -0.0077017 0)
(-0.0194428 -0.00763923 0)
(-0.0179731 -0.00754002 0)
(-0.0165224 -0.00740368 0)
(-0.0150974 -0.00723007 0)
(-0.0137046 -0.00701927 0)
(-0.0123507 -0.00677162 0)
(-0.0110421 -0.00648779 0)
(-0.009785 -0.00616881 0)
(-0.0085855 -0.0058161 0)
(-0.00744928 -0.00543157 0)
(-0.00638167 -0.00501768 0)
(-0.00538754 -0.00457755 0)
(-0.00447122 -0.00411503 0)
(-0.00363642 -0.0036349 0)
(-0.00288613 -0.00314297 0)
(-0.00222255 -0.0026463 0)
(-0.00164703 -0.00215343 0)
(-0.00115998 -0.00167463 0)
(-0.000760894 -0.00122219 0)
(-0.000448091 -0.000810855 0)
(-0.000218581 -0.000458047 0)
(-7.10875e-05 -0.000184363 0)
(-8.99071e-06 -1.5664e-05 0)
(-1.24853e-05 6.77457e-05 0)
(-9.30744e-05 0.000344511 0)
(-0.000279012 0.000727126 0)
(-0.000561991 0.0011866 0)
(-0.000940324 0.00170158 0)
(-0.00141511 0.00225403 0)
(-0.00198629 0.00282862 0)
(-0.00265282 0.00341243 0)
(-0.0034129 0.00399468 0)
(-0.00426402 0.00456643 0)
(-0.00520293 0.00512031 0)
(-0.00622577 0.00565027 0)
(-0.00732804 0.00615147 0)
(-0.00850477 0.00661999 0)
(-0.00975051 0.00705278 0)
(-0.0110595 0.00744751 0)
(-0.0124256 0.00780241 0)
(-0.0138424 0.00811627 0)
(-0.0153036 0.00838829 0)
(-0.0168023 0.00861807 0)
(-0.018332 0.0088055 0)
(-0.0198858 0.00895076 0)
(-0.0214571 0.00905425 0)
(-0.0230391 0.00911657 0)
(-0.0246252 0.0091385 0)
(-0.026209 0.00912092 0)
(-0.0277841 0.00906488 0)
(-0.0293443 0.00897149 0)
(-0.0308834 0.00884197 0)
(-0.0323957 0.0086776 0)
(-0.0338755 0.00847971 0)
(-0.0353173 0.00824969 0)
(-0.036716 0.00798896 0)
(-0.0380664 0.00769899 0)
(-0.0393639 0.00738125 0)
(-0.0406039 0.00703726 0)
(-0.0417821 0.00666854 0)
(-0.0428945 0.00627664 0)
(-0.0439374 0.0058631 0)
(-0.0449073 0.00542949 0)
(-0.0458009 0.00497739 0)
(-0.0466151 0.00450838 0)
(-0.0473474 0.00402406 0)
(-0.0479953 0.00352605 0)
(-0.0485566 0.00301596 0)
(-0.0490294 0.00249541 0)
(-0.049412 0.00196607 0)
(-0.0497033 0.0014296 0)
(-0.049902 0.00088766 0)
(-0.0500075 0.000341957 0)
(-0.0500192 -0.0002058 0)
(-0.049937 -0.000753877 0)
(-0.049761 -0.00130052 0)
(-0.0494915 -0.00184397 0)
(-0.0491294 -0.00238242 0)
(-0.0486755 -0.00291407 0)
(-0.0481312 -0.00343709 0)
(-0.0474981 -0.00394963 0)
(-0.0467781 -0.00444983 0)
(-0.0459735 -0.00493582 0)
(-0.0450868 -0.00540572 0)
(-0.044121 -0.00585763 0)