/*--------------------------------*- C++ -*----------------------------------*\
| =========                 |                                                 |
| \\      /  F ield         | OpenFOAM: The Open Source CFD Toolbox           |
|  \\    /   O peration     | Version:  2212                                  |
|   \\  /    A nd           | Website:  www.openfoam.com                      |
|    \\/     M anipulation  |                                                 |
\*---------------------------------------------------------------------------*/
FoamFile
{
    version     2.0;
    format      ascii;
    arch        "LSB;label=32;scalar=64";
    class       surfaceScalarField;
    location    "0.025";
    object      phi_0;
}
// * * * * * * * * * * * * * * * * * * * * * * * * * * * * * * * * * * * * * //

dimensions      [0 3 -1 0 0 0 0];

oriented        oriented;

internalField   nonuniform List<scalar> 
19800
(
6.04353e-11
-6.04256e-11
1.91533e-10
-1.31113e-10
3.11672e-10
-1.20139e-10
3.848e-10
-7.31371e-11
3.8852e-10
-3.72011e-12
3.12652e-10
7.58673e-11
1.53661e-10
1.58992e-10
-8.8199e-11
2.4186e-10
-4.10375e-10
3.22179e-10
-8.08964e-10
3.98586e-10
-1.2792e-09
4.70234e-10
-1.81582e-09
5.36623e-10
-2.41326e-09
5.97438e-10
-3.0658e-09
6.52548e-10
-3.7677e-09
7.01909e-10
-4.51327e-09
7.45565e-10
-5.29689e-09
7.83622e-10
-6.11309e-09
8.16188e-10
-6.95652e-09
8.4343e-10
-7.82203e-09
8.65519e-10
-8.70467e-09
8.82637e-10
-9.59966e-09
8.9499e-10
-1.05024e-08
9.02777e-10
-1.14086e-08
9.0618e-10
-1.2314e-08
9.05375e-10
-1.32145e-08
9.00576e-10
-1.41065e-08
8.91993e-10
-1.49863e-08
8.79776e-10
-1.58504e-08
8.64126e-10
-1.66957e-08
8.45269e-10
-1.75191e-08
8.23345e-10
-1.83175e-08
7.98474e-10
-1.90884e-08
7.70864e-10
-1.98291e-08
7.40719e-10
-2.05373e-08
7.08171e-10
-2.12107e-08
6.73368e-10
-2.18472e-08
6.36513e-10
-2.2445e-08
5.97779e-10
-2.30022e-08
5.57282e-10
-2.35174e-08
5.15147e-10
-2.39889e-08
4.71543e-10
-2.44156e-08
4.26628e-10
-2.47961e-08
3.80515e-10
-2.51294e-08
3.3331e-10
-2.54145e-08
2.8516e-10
-2.56508e-08
2.36221e-10
-2.58374e-08
1.86624e-10
-2.59739e-08
1.36465e-10
-2.60597e-08
8.58458e-11
-2.60946e-08
3.49011e-11
-2.60784e-08
-1.62207e-11
-2.6011e-08
-6.73931e-11
-2.58925e-08
-1.18504e-10
-2.57231e-08
-1.6944e-10
-2.5503e-08
-2.20072e-10
-2.52327e-08
-2.70246e-10
-2.49129e-08
-3.19813e-10
-2.45443e-08
-3.68631e-10
-2.41277e-08
-4.16554e-10
-2.36643e-08
-4.63427e-10
-2.31552e-08
-5.0908e-10
-2.26019e-08
-5.53328e-10
-2.20059e-08
-5.95992e-10
-2.1369e-08
-6.36903e-10
-2.06931e-08
-6.75882e-10
-1.99804e-08
-7.12736e-10
-1.92331e-08
-7.47277e-10
-1.84538e-08
-7.79306e-10
-1.76452e-08
-8.08617e-10
-1.68102e-08
-8.35014e-10
-1.59519e-08
-8.58309e-10
-1.50736e-08
-8.78303e-10
-1.41788e-08
-8.9479e-10
-1.32712e-08
-9.0757e-10
-1.23548e-08
-9.16444e-10
-1.14336e-08
-9.21208e-10
-1.05119e-08
-9.21672e-10
-9.59423e-09
-9.17654e-10
-8.68526e-09
-9.08976e-10
-7.78981e-09
-8.95451e-10
-6.91291e-09
-8.76898e-10
-6.05976e-09
-8.53147e-10
-5.23572e-09
-8.24039e-10
-4.44629e-09
-7.89433e-10
-3.69706e-09
-7.49222e-10
-2.99371e-09
-7.03341e-10
-2.34194e-09
-6.51773e-10
-1.7474e-09
-5.94549e-10
-1.21562e-09
-5.31775e-10
-7.51965e-10
-4.63653e-10
-3.6144e-10
-3.90527e-10
-4.84653e-11
-3.12975e-10
1.83476e-10
-2.31935e-10
3.32387e-10
-1.48907e-10
3.98709e-10
-6.63238e-11
3.86909e-10
1.17978e-11
3.08126e-10
7.87902e-11
1.84827e-10
1.23305e-10
5.94626e-11
1.2536e-10
5.94613e-11
1.17508e-10
-1.7795e-10
3.07269e-10
-3.20837e-10
4.54004e-10
-2.66872e-10
4.78349e-10
-9.74735e-11
3.33246e-10
1.41377e-10
-8.79849e-12
4.17913e-10
-5.60814e-10
7.10997e-10
-1.32599e-09
1.00704e-09
-2.30099e-09
1.29719e-09
-3.47813e-09
1.57573e-09
-4.8468e-09
1.83891e-09
-6.3945e-09
2.08432e-09
-8.10749e-09
2.31042e-09
-9.97129e-09
2.51633e-09
-1.1971e-08
2.70161e-09
-1.40915e-08
2.86613e-09
-1.6318e-08
3.01004e-09
-1.86354e-08
3.13363e-09
-2.10293e-08
3.23735e-09
-2.34855e-08
3.32174e-09
-2.59903e-08
3.3874e-09
-2.85303e-08
3.43497e-09
-3.10926e-08
3.46512e-09
-3.3665e-08
3.47855e-09
-3.62356e-08
3.47596e-09
-3.87931e-08
3.45804e-09
-4.13266e-08
3.42552e-09
-4.38259e-08
3.37912e-09
-4.62813e-08
3.31953e-09
-4.86835e-08
3.24742e-09
-5.10236e-08
3.16348e-09
-5.32935e-08
3.06837e-09
-5.54854e-08
2.96273e-09
-5.75919e-08
2.8472e-09
-5.96062e-08
2.72244e-09
-6.15219e-08
2.58908e-09
-6.33331e-08
2.44774e-09
-6.50343e-08
2.29899e-09
-6.66204e-08
2.1434e-09
-6.80868e-08
1.98154e-09
-6.94292e-08
1.81397e-09
-7.06438e-08
1.6412e-09
-7.17271e-08
1.46376e-09
-7.26759e-08
1.28214e-09
-7.34876e-08
1.09686e-09
-7.41598e-08
9.08442e-10
-7.46906e-08
7.17365e-10
-7.50782e-08
5.24102e-10
-7.53215e-08
3.29127e-10
-7.54195e-08
1.32926e-10
-7.53717e-08
-6.39965e-11
-7.5178e-08
-2.61145e-10
-7.48385e-08
-4.58027e-10
-7.43538e-08
-6.54134e-10
-7.37249e-08
-8.48945e-10
-7.29532e-08
-1.04192e-09
-7.20405e-08
-1.23251e-09
-7.0989e-08
-1.42013e-09
-6.98014e-08
-1.6042e-09
-6.84807e-08
-1.7841e-09
-6.70306e-08
-1.95919e-09
-6.54551e-08
-2.12882e-09
-6.37588e-08
-2.29232e-09
-6.19467e-08
-2.44901e-09
-6.00244e-08
-2.5982e-09
-5.79979e-08
-2.73918e-09
-5.5874e-08
-2.87121e-09
-5.36597e-08
-2.99356e-09
-5.13629e-08
-3.10547e-09
-4.89917e-08
-3.20621e-09
-4.6555e-08
-3.29501e-09
-4.40622e-08
-3.37113e-09
-4.15232e-08
-3.43382e-09
-3.89484e-08
-3.4823e-09
-3.63491e-08
-3.51583e-09
-3.37366e-08
-3.53368e-09
-3.11231e-08
-3.53514e-09
-2.85213e-08
-3.51951e-09
-2.59441e-08
-3.48614e-09
-2.34051e-08
-3.43439e-09
-2.09184e-08
-3.36363e-09
-1.84982e-08
-3.27332e-09
-1.61593e-08
-3.16297e-09
-1.39165e-08
-3.03219e-09
-1.1785e-08
-2.88073e-09
-9.7799e-09
-2.70846e-09
-7.91619e-09
-2.51548e-09
-6.20858e-09
-2.30215e-09
-4.67123e-09
-2.06913e-09
-3.31732e-09
-1.81756e-09
-2.15865e-09
-1.5492e-09
-1.20486e-09
-1.26675e-09
-4.62488e-10
-9.74297e-10
6.65305e-11
-6.77928e-10
3.87006e-10
-3.86803e-10
5.13567e-10
-1.14758e-10
4.75111e-10
1.17244e-10
3.20604e-10
2.77798e-10
1.2518e-10
3.20782e-10
1.84637e-10
1.19289e-10
-2.9724e-10
2.60346e-10
-4.61897e-10
2.98653e-10
-3.05179e-10
1.43345e-10
5.78342e-11
-2.66007e-10
5.50731e-10
-9.6676e-10
1.11866e-09
-1.97861e-09
1.72284e-09
-3.30819e-09
2.33661e-09
-4.95278e-09
2.94178e-09
-6.90294e-09
3.52589e-09
-9.1445e-09
4.08048e-09
-1.166e-08
4.59981e-09
-1.44297e-08
5.0801e-09
-1.74323e-08
5.51897e-09
-2.06458e-08
5.91506e-09
-2.40474e-08
6.26777e-09
-2.76144e-08
6.57703e-09
-3.1324e-08
6.84326e-09
-3.51538e-08
7.06715e-09
-3.90817e-08
7.24966e-09
-4.30862e-08
7.39192e-09
-4.71465e-08
7.4952e-09
-5.12422e-08
7.56083e-09
-5.53538e-08
7.5902e-09
-5.94626e-08
7.58478e-09
-6.35507e-08
7.54608e-09
-6.76008e-08
7.47559e-09
-7.15965e-08
7.3748e-09
-7.55222e-08
7.24523e-09
-7.93631e-08
7.08837e-09
-8.31053e-08
6.90566e-09
-8.67354e-08
6.69852e-09
-9.02411e-08
6.46839e-09
-9.36106e-08
6.21669e-09
-9.68329e-08
5.94478e-09
-9.98978e-08
5.654e-09
-1.02796e-07
5.34569e-09
-1.05518e-07
5.02114e-09
-1.08056e-07
4.68158e-09
-1.10403e-07
4.32823e-09
-1.12551e-07
3.96229e-09
-1.14495e-07
3.58491e-09
-1.16228e-07
3.19725e-09
-1.17747e-07
2.80041e-09
-1.19045e-07
2.39552e-09
-1.2012e-07
1.98367e-09
-1.20969e-07
1.56595e-09
-1.21588e-07
1.14342e-09
-1.21976e-07
7.1715e-10
-1.22132e-07
2.88217e-10
-1.22053e-07
-1.42288e-10
-1.21741e-07
-5.73256e-10
-1.21196e-07
-1.00358e-09
-1.20418e-07
-1.43213e-09
-1.19409e-07
-1.85773e-09
-1.18172e-07
-2.27921e-09
-1.16709e-07
-2.69534e-09
-1.15024e-07
-3.10486e-09
-1.13122e-07
-3.50647e-09
-1.11007e-07
-3.89885e-09
-1.08686e-07
-4.28061e-09
-1.06164e-07
-4.65033e-09
-1.0345e-07
-5.00658e-09
-1.00551e-07
-5.34788e-09
-9.74765e-08
-5.67272e-09
-9.42361e-08
-5.97955e-09
-9.08405e-08
-6.26682e-09
-8.73012e-08
-6.53292e-09
-8.36304e-08
-6.77624e-09
-7.98414e-08
-6.99518e-09
-7.59483e-08
-7.18811e-09
-7.19661e-08
-7.3534e-09
-6.79104e-08
-7.48942e-09
-6.37982e-08
-7.59456e-09
-5.96468e-08
-7.66723e-09
-5.54746e-08
-7.70587e-09
-5.13007e-08
-7.70897e-09
-4.71452e-08
-7.67509e-09
-4.30285e-08
-7.60283e-09
-3.8972e-08
-7.49089e-09
-3.49975e-08
-7.33808e-09
-3.11275e-08
-7.14334e-09
-2.73847e-08
-6.90581e-09
-2.3792e-08
-6.62483e-09
-2.03727e-08
-6.30004e-09
-1.71497e-08
-5.93146e-09
-1.41456e-08
-5.51955e-09
-1.13824e-08
-5.06539e-09
-8.88073e-09
-4.57081e-09
-6.65958e-09
-4.03871e-09
-4.73537e-09
-3.4734e-09
-3.12093e-09
-2.8812e-09
-1.82404e-09
-2.27119e-09
-8.4556e-10
-1.65641e-09
-1.76803e-10
-1.05555e-09
2.03837e-10
-4.954e-10
3.35286e-10
-1.42213e-11
2.78793e-10
3.34285e-10
1.23401e-10
4.76175e-10
3.08032e-10
7.382e-11
-3.71067e-10
9.82502e-11
-4.86321e-10
-5.48771e-11
-1.52056e-10
-4.76955e-10
4.79907e-10
-1.23162e-09
1.30539e-09
-2.35979e-09
2.24684e-09
-3.88412e-09
3.24717e-09
-5.81305e-09
4.26555e-09
-8.14418e-09
5.27291e-09
-1.08669e-08
6.24863e-09
-1.39646e-08
7.17819e-09
-1.74162e-08
8.0514e-09
-2.11974e-08
8.86131e-09
-2.52818e-08
9.6033e-09
-2.96412e-08
1.02745e-08
-3.4247e-08
1.08735e-08
-3.90697e-08
1.13997e-08
-4.40799e-08
1.18535e-08
-4.92484e-08
1.22356e-08
-5.45463e-08
1.25476e-08
-5.99453e-08
1.2791e-08
-6.54179e-08
1.29677e-08
-7.09371e-08
1.30801e-08
-7.64771e-08
1.31302e-08
-8.2013e-08
1.31206e-08
-8.75206e-08
1.30537e-08
-9.2977e-08
1.2932e-08
-9.83603e-08
1.27581e-08
-1.03649e-07
1.25344e-08
-1.08825e-07
1.22635e-08
-1.13867e-07
1.19479e-08
-1.18758e-07
1.15901e-08
-1.23483e-07
1.11926e-08
-1.28024e-07
1.07576e-08
-1.32366e-07
1.02876e-08
-1.36497e-07
9.78484e-09
-1.40403e-07
9.25167e-09
-1.44072e-07
8.69026e-09
-1.47493e-07
8.10278e-09
-1.50657e-07
7.49133e-09
-1.53552e-07
6.85797e-09
-1.56172e-07
6.20472e-09
-1.58508e-07
5.53356e-09
-1.60554e-07
4.84644e-09
-1.62304e-07
4.14531e-09
-1.63753e-07
3.43207e-09
-1.64895e-07
2.7086e-09
-1.65729e-07
1.97679e-09
-1.6625e-07
1.23849e-09
-1.66457e-07
4.95624e-10
-1.6635e-07
-2.49926e-10
-1.65927e-07
-9.96227e-10
-1.65189e-07
-1.74132e-09
-1.64138e-07
-2.48324e-09
-1.62776e-07
-3.21994e-09
-1.61106e-07
-3.94935e-09
-1.59132e-07
-4.66933e-09
-1.56859e-07
-5.37772e-09
-1.54293e-07
-6.07226e-09
-1.51441e-07
-6.75064e-09
-1.48311e-07
-7.41051e-09
-1.44912e-07
-8.04941e-09
-1.41254e-07
-8.66487e-09
-1.37347e-07
-9.25436e-09
-1.33205e-07
-9.81527e-09
-1.28839e-07
-1.0345e-08
-1.24266e-07
-1.08407e-08
-1.19499e-07
-1.12999e-08
-1.14555e-07
-1.17196e-08
-1.09453e-07
-1.20972e-08
-1.04211e-07
-1.24299e-08
-9.88499e-08
-1.27149e-08
-9.339e-08
-1.29494e-08
-8.78538e-08
-1.31307e-08
-8.2265e-08
-1.32561e-08
-7.66479e-08
-1.3323e-08
-7.1028e-08
-1.33289e-08
-6.54318e-08
-1.32713e-08
-5.98866e-08
-1.3148e-08
-5.44206e-08
-1.29569e-08
-4.90626e-08
-1.26961e-08
-4.38419e-08
-1.2364e-08
-3.87884e-08
-1.19594e-08
-3.39319e-08
-1.14813e-08
-2.93024e-08
-1.09295e-08
-2.49295e-08
-1.03044e-08
-2.0842e-08
-9.60709e-09
-1.70675e-08
-8.83986e-09
-1.36319e-08
-8.00636e-09
-1.05586e-08
-7.11202e-09
-7.86734e-09
-6.16468e-09
-5.57308e-09
-5.17545e-09
-3.68447e-09
-4.1598e-09
-2.20169e-09
-3.1392e-09
-1.11393e-09
-2.14331e-09
-3.96276e-10
-1.21306e-09
-5.89558e-12
-4.04606e-10
1.22179e-10
2.06219e-10
8.00884e-11
5.18261e-10
3.88119e-10
7.84247e-12
-3.78908e-10
-1.31733e-10
-3.46753e-10
-5.33946e-10
2.50155e-10
-1.28386e-09
1.22981e-09
-2.44212e-09
2.46365e-09
-4.04865e-09
3.85335e-09
-6.12595e-09
5.32447e-09
-8.68235e-09
6.82196e-09
-1.17149e-08
8.30542e-09
-1.52116e-08
9.74538e-09
-1.91538e-08
1.11204e-08
-2.35175e-08
1.2415e-08
-2.82746e-08
1.36185e-08
-3.33946e-08
1.47233e-08
-3.88447e-08
1.57246e-08
-4.45907e-08
1.66196e-08
-5.0598e-08
1.7407e-08
-5.68313e-08
1.80868e-08
-6.32557e-08
1.866e-08
-6.98364e-08
1.91282e-08
-7.65391e-08
1.94936e-08
-8.33303e-08
1.9759e-08
-9.01775e-08
1.99272e-08
-9.70489e-08
2.00017e-08
-1.03914e-07
1.99858e-08
-1.10743e-07
1.98831e-08
-1.17509e-07
1.96975e-08
-1.24183e-07
1.94325e-08
-1.30741e-07
1.9092e-08
-1.37157e-07
1.86797e-08
-1.43409e-07
1.81995e-08
-1.49474e-07
1.7655e-08
-1.55331e-07
1.70498e-08
-1.60961e-07
1.63877e-08
-1.66346e-07
1.56722e-08
-1.71468e-07
1.49068e-08
-1.76311e-07
1.40948e-08
-1.8086e-07
1.32398e-08
-1.85102e-07
1.23449e-08
-1.89024e-07
1.14133e-08
-1.92615e-07
1.04483e-08
-1.95863e-07
9.45279e-09
-1.98759e-07
8.42994e-09
-2.01295e-07
7.3827e-09
-2.03464e-07
6.31403e-09
-2.05259e-07
5.22683e-09
-2.06674e-07
4.12401e-09
-2.07706e-07
3.00847e-09
-2.08351e-07
1.88307e-09
-2.08606e-07
7.50739e-10
-2.0847e-07
-3.85611e-10
-2.07943e-07
-1.52303e-09
-2.07026e-07
-2.65851e-09
-2.0572e-07
-3.78899e-09
-2.04029e-07
-4.91139e-09
-2.01956e-07
-6.02251e-09
-1.99506e-07
-7.1191e-09
-1.96686e-07
-8.19782e-09
-1.93503e-07
-9.25527e-09
-1.89966e-07
-1.02879e-08
-1.86084e-07
-1.12922e-08
-1.81869e-07
-1.22644e-08
-1.77333e-07
-1.32007e-08
-1.7249e-07
-1.40974e-08
-1.67355e-07
-1.49504e-08
-1.61944e-07
-1.57558e-08
-1.56275e-07
-1.65095e-08
-1.50368e-07
-1.72074e-08
-1.44242e-07
-1.78454e-08
-1.3792e-07
-1.84193e-08
-1.31425e-07
-1.89249e-08
-1.24782e-07
-1.9358e-08
-1.18017e-07
-1.97146e-08
-1.11157e-07
-1.99905e-08
-1.04231e-07
-2.01818e-08
-9.72696e-08
-2.02846e-08
-9.03034e-08
-2.02951e-08
-8.33647e-08
-2.02099e-08
-7.6487e-08
-2.00257e-08
-6.97045e-08
-1.97394e-08
-6.3052e-08
-1.93486e-08
-5.6565e-08
-1.88509e-08
-5.02795e-08
-1.82449e-08
-4.42312e-08
-1.75296e-08
-3.8456e-08
-1.67048e-08
-3.29888e-08
-1.57716e-08
-2.78636e-08
-1.47322e-08
-2.31129e-08
-1.35906e-08
-1.87667e-08
-1.23526e-08
-1.48517e-08
-1.1027e-08
-1.13906e-08
-9.62586e-09
-8.40007e-09
-8.16595e-09
-5.88991e-09
-6.66995e-09
-3.86062e-09
-5.16848e-09
-2.30124e-09
-3.70269e-09
-1.18673e-09
-2.32759e-09
-4.74876e-10
-1.11645e-09
-1.03173e-10
-1.65477e-10
1.52413e-11
3.99839e-10
4.03364e-10
-6.85087e-11
-3.10402e-10
-3.99181e-10
-1.60785e-11
-1.08728e-09
9.38248e-10
-2.20584e-09
2.34837e-09
-3.80808e-09
4.06589e-09
-5.92935e-09
5.97462e-09
-8.58933e-09
7.98445e-09
-1.17944e-08
1.0027e-08
-1.55399e-08
1.20509e-08
-1.9812e-08
1.40175e-08
-2.45898e-08
1.58982e-08
-2.98465e-08
1.76718e-08
-3.55512e-08
1.93232e-08
-4.16694e-08
2.08415e-08
-4.81644e-08
2.22195e-08
-5.49977e-08
2.34529e-08
-6.21299e-08
2.45392e-08
-6.95211e-08
2.5478e-08
-7.7131e-08
2.62699e-08
-8.49198e-08
2.6917e-08
-9.2848e-08
2.74219e-08
-1.00877e-07
2.7788e-08
-1.08969e-07
2.80193e-08
-1.17088e-07
2.812e-08
-1.25197e-07
2.80948e-08
-1.33262e-07
2.79486e-08
-1.41251e-07
2.76863e-08
-1.49131e-07
2.7313e-08
-1.56873e-07
2.6834e-08
-1.64448e-07
2.62545e-08
-1.71828e-07
2.55796e-08
-1.78988e-07
2.48144e-08
-1.85902e-07
2.39642e-08
-1.92548e-07
2.30339e-08
-1.98904e-07
2.20285e-08
-2.04951e-07
2.09529e-08
-2.10668e-07
1.98118e-08
-2.16038e-07
1.861e-08
-2.21045e-07
1.73521e-08
-2.25674e-07
1.60426e-08
-2.29912e-07
1.46858e-08
-2.33745e-07
1.32862e-08
-2.37163e-07
1.18481e-08
-2.40156e-07
1.03756e-08
-2.42715e-07
8.87282e-09
-2.44832e-07
7.34401e-09
-2.46501e-07
5.79321e-09
-2.47718e-07
4.22452e-09
-2.48476e-07
2.64202e-09
-2.48776e-07
1.04983e-09
-2.48613e-07
-5.47938e-10
-2.47989e-07
-2.14709e-09
-2.46904e-07
-3.74339e-09
-2.45361e-07
-5.33253e-09
-2.43362e-07
-6.91011e-09
-2.40913e-07
-8.47167e-09
-2.38019e-07
-1.00126e-08
-2.34689e-07
-1.15282e-08
-2.3093e-07
-1.30138e-08
-2.26754e-07
-1.44643e-08
-2.22172e-07
-1.58747e-08
-2.17196e-07
-1.72398e-08
-2.11842e-07
-1.85545e-08
-2.06127e-07
-1.98132e-08
-2.00066e-07
-2.10106e-08
-1.93681e-07
-2.2141e-08
-1.86992e-07
-2.31987e-08
-1.80021e-07
-2.41782e-08
-1.72793e-07
-2.50735e-08
-1.65333e-07
-2.58789e-08
-1.5767e-07
-2.65886e-08
-1.49831e-07
-2.71969e-08
-1.41847e-07
-2.7698e-08
-1.33752e-07
-2.80864e-08
-1.25577e-07
-2.83565e-08
-1.17358e-07
-2.85032e-08
-1.09132e-07
-2.85213e-08
-1.00936e-07
-2.84062e-08
-9.28081e-08
-2.81533e-08
-8.47886e-08
-2.77589e-08
-7.69175e-08
-2.72196e-08
-6.92358e-08
-2.65327e-08
-6.17844e-08
-2.56962e-08
-5.46046e-08
-2.47094e-08
-4.77368e-08
-2.35725e-08
-4.1221e-08
-2.22874e-08
-3.50955e-08
-2.08577e-08
-2.93966e-08
-1.92894e-08
-2.4158e-08
-1.75912e-08
-1.94094e-08
-1.57755e-08
-1.51759e-08
-1.38593e-08
-1.14765e-08
-1.18654e-08
-8.32241e-09
-9.824e-09
-5.71577e-09
-7.77512e-09
-3.64735e-09
-5.77112e-09
-2.09462e-09
-3.88031e-09
-1.01958e-09
-2.19148e-09
-3.66596e-10
-8.18467e-10
-5.99971e-11
9.32412e-11
3.43371e-10
-1.48989e-10
-1.61416e-10
-6.84722e-10
5.1965e-10
-1.67988e-09
1.9334e-09
-3.19219e-09
3.86067e-09
-5.26434e-09
6.13805e-09
-7.92448e-09
8.63477e-09
-1.11873e-08
1.12473e-08
-1.50556e-08
1.38953e-08
-1.95218e-08
1.65171e-08
-2.45695e-08
1.90652e-08
-3.01752e-08
2.15039e-08
-3.63095e-08
2.38061e-08
-4.29382e-08
2.59519e-08
-5.00239e-08
2.79271e-08
-5.75261e-08
2.97217e-08
-6.54025e-08
3.13294e-08
-7.36098e-08
3.27465e-08
-8.21035e-08
3.39717e-08
-9.08393e-08
3.50057e-08
-9.97727e-08
3.58504e-08
-1.0886e-07
3.65089e-08
-1.18057e-07
3.69854e-08
-1.27322e-07
3.72846e-08
-1.36614e-07
3.7412e-08
-1.45893e-07
3.73735e-08
-1.55119e-07
3.71751e-08
-1.64257e-07
3.68234e-08
-1.73269e-07
3.6325e-08
-1.82121e-07
3.56866e-08
-1.90782e-07
3.49149e-08
-1.99219e-07
3.40168e-08
-2.07403e-07
3.2999e-08
-2.15307e-07
3.18681e-08
-2.22904e-07
3.06309e-08
-2.3017e-07
2.92939e-08
-2.3708e-07
2.78635e-08
-2.43614e-07
2.6346e-08
-2.49752e-07
2.47477e-08
-2.55475e-07
2.30748e-08
-2.60765e-07
2.1333e-08
-2.65608e-07
1.95285e-08
-2.69988e-07
1.76668e-08
-2.73894e-07
1.57538e-08
-2.77314e-07
1.3795e-08
-2.80237e-07
1.1796e-08
-2.82655e-07
9.76231e-09
-2.84561e-07
7.69937e-09
-2.85949e-07
5.61265e-09
-2.86815e-07
3.50762e-09
-2.87155e-07
1.38977e-09
-2.86968e-07
-7.35389e-10
-2.86252e-07
-2.86227e-09
-2.85011e-07
-4.98521e-09
-2.83245e-07
-7.09847e-09
-2.80959e-07
-9.19619e-09
-2.78158e-07
-1.12724e-08
-2.74849e-07
-1.3321e-08
-2.71042e-07
-1.53357e-08
-2.66745e-07
-1.73103e-08
-2.61972e-07
-1.9238e-08
-2.56734e-07
-2.11123e-08
-2.51048e-07
-2.29262e-08
-2.44929e-07
-2.46729e-08
-2.38397e-07
-2.63452e-08
-2.31472e-07
-2.79359e-08
-2.24175e-07
-2.94375e-08
-2.16532e-07
-3.08426e-08
-2.08566e-07
-3.21437e-08
-2.00306e-07
-3.33332e-08
-1.91782e-07
-3.44035e-08
-1.83023e-07
-3.5347e-08
-1.74064e-07
-3.61562e-08
-1.64939e-07
-3.68236e-08
-1.55683e-07
-3.73419e-08
-1.46336e-07
-3.7704e-08
-1.36936e-07
-3.79032e-08
-1.27524e-07
-3.79329e-08
-1.18143e-07
-3.77871e-08
-1.08836e-07
-3.74603e-08
-9.96475e-08
-3.69476e-08
-9.06223e-08
-3.62449e-08
-8.1806e-08
-3.5349e-08
-7.32444e-08
-3.42578e-08
-6.49831e-08
-3.29707e-08
-5.70671e-08
-3.14886e-08
-4.95403e-08
-2.98143e-08
-4.24448e-08
-2.79532e-08
-3.58207e-08
-2.59136e-08
-2.97046e-08
-2.37073e-08
-2.41293e-08
-2.13508e-08
-1.91226e-08
-1.88661e-08
-1.47057e-08
-1.62823e-08
-1.08924e-08
-1.36372e-08
-7.68758e-09
-1.098e-08
-5.08535e-09
-8.37335e-09
-3.06794e-09
-5.89773e-09
-1.60415e-09
-3.65527e-09
-6.48271e-10
-1.77435e-09
-1.39294e-10
-4.15728e-10
2.04074e-10
-2.29897e-10
6.84759e-11
-9.76081e-10
1.26584e-09
-2.28835e-09
3.24567e-09
-4.20767e-09
5.77999e-09
-6.7644e-09
8.69478e-09
-9.97762e-09
1.1848e-08
-1.38554e-08
1.51251e-08
-1.83955e-08
1.84354e-08
-2.35862e-08
2.17078e-08
-2.9408e-08
2.4887e-08
-3.58342e-08
2.79301e-08
-4.28325e-08
3.08043e-08
-5.03657e-08
3.34852e-08
-5.83931e-08
3.59545e-08
-6.6871e-08
3.81997e-08
-7.57537e-08
4.02121e-08
-8.49941e-08
4.19868e-08
-9.45441e-08
4.35217e-08
-1.04355e-07
4.48169e-08
-1.14379e-07
4.58743e-08
-1.24568e-07
4.66976e-08
-1.34874e-07
4.72914e-08
-1.45251e-07
4.76615e-08
-1.55653e-07
4.78144e-08
-1.66037e-07
4.77573e-08
-1.7636e-07
4.74977e-08
-1.8658e-07
4.70437e-08
-1.96658e-07
4.64033e-08
-2.06556e-07
4.55849e-08
-2.16239e-07
4.45972e-08
-2.2567e-07
4.34484e-08
-2.34819e-07
4.21472e-08
-2.43652e-07
4.0702e-08
-2.52143e-07
3.91212e-08
-2.60262e-07
3.74131e-08
-2.67984e-07
3.55858e-08
-2.75286e-07
3.36474e-08
-2.82144e-07
3.16058e-08
-2.88538e-07
2.94687e-08
-2.94448e-07
2.72438e-08
-2.99859e-07
2.49386e-08
-3.04752e-07
2.25605e-08
-3.09115e-07
2.01168e-08
-3.12935e-07
1.76145e-08
-3.162e-07
1.50609e-08
-3.189e-07
1.24629e-08
-3.21029e-07
9.82769e-09
-3.22578e-07
7.16212e-09
-3.23544e-07
4.47322e-09
-3.23922e-07
1.76804e-09
-3.23711e-07
-9.46361e-10
-3.2291e-07
-3.66282e-09
-3.21522e-07
-6.37411e-09
-3.19547e-07
-9.07285e-09
-3.16992e-07
-1.17516e-08
-3.13862e-07
-1.44026e-08
-3.10164e-07
-1.70183e-08
-3.0591e-07
-1.95905e-08
-3.01109e-07
-2.21111e-08
-2.95775e-07
-2.45719e-08
-2.89923e-07
-2.69642e-08
-2.8357e-07
-2.92795e-08
-2.76734e-07
-3.15087e-08
-2.69436e-07
-3.3643e-08
-2.61699e-07
-3.5673e-08
-2.53547e-07
-3.75895e-08
-2.45007e-07
-3.93829e-08
-2.36106e-07
-4.10438e-08
-2.26877e-07
-4.25625e-08
-2.17351e-07
-4.39295e-08
-2.07563e-07
-4.51353e-08
-1.97549e-07
-4.61702e-08
-1.87347e-07
-4.70251e-08
-1.76998e-07
-4.76907e-08
-1.66544e-07
-4.81583e-08
-1.56028e-07
-4.84193e-08
-1.45495e-07
-4.84659e-08
-1.34992e-07
-4.82905e-08
-1.24565e-07
-4.78864e-08
-1.14265e-07
-4.72479e-08
-1.0414e-07
-4.637e-08
-9.42399e-08
-4.52491e-08
-8.46145e-08
-4.38832e-08
-7.53136e-08
-4.22716e-08
-6.6386e-08
-4.04162e-08
-5.78792e-08
-3.8321e-08
-4.98391e-08
-3.59933e-08
-4.23088e-08
-3.34439e-08
-3.53283e-08
-3.06879e-08
-2.89331e-08
-2.77459e-08
-2.3154e-08
-2.46452e-08
-1.80152e-08
-2.14211e-08
-1.35338e-08
-1.81187e-08
-9.71823e-09
-1.47955e-08
-6.5677e-09
-1.15239e-08
-4.0707e-09
-8.39472e-09
-2.2047e-09
-5.52129e-09
-9.35745e-10
-3.04329e-09
-2.19037e-10
-1.13243e-09
-1.49662e-11
-3.0925e-10
3.77727e-10
-1.26565e-09
2.22224e-09
-2.89736e-09
4.87738e-09
-5.22834e-09
8.11096e-09
-8.27569e-09
1.17421e-08
-1.20483e-08
1.56206e-08
-1.65464e-08
1.96232e-08
-2.17616e-08
2.36506e-08
-2.76773e-08
2.76236e-08
-3.42699e-08
3.14796e-08
-4.1509e-08
3.51692e-08
-4.93591e-08
3.86543e-08
-5.77797e-08
4.19058e-08
-6.67271e-08
4.49019e-08
-7.61544e-08
4.76269e-08
-8.60125e-08
5.00702e-08
-9.62509e-08
5.22252e-08
-1.06818e-07
5.40889e-08
-1.17662e-07
5.56609e-08
-1.28731e-07
5.69431e-08
-1.39973e-07
5.79395e-08
-1.51337e-07
5.86553e-08
-1.62773e-07
5.90973e-08
-1.74231e-07
5.92731e-08
-1.85665e-07
5.9191e-08
-1.97027e-07
5.88603e-08
-2.08274e-07
5.82904e-08
-2.19362e-07
5.74912e-08
-2.3025e-07
5.64728e-08
-2.40898e-07
5.52454e-08
-2.51269e-07
5.38196e-08
-2.61328e-07
5.22056e-08
-2.71039e-07
5.04137e-08
-2.80372e-07
4.84543e-08
-2.89297e-07
4.63375e-08
-2.97785e-07
4.40734e-08
-3.05809e-07
4.16718e-08
-3.13346e-07
3.91425e-08
-3.20372e-07
3.6495e-08
-3.26867e-07
3.37389e-08
-3.32812e-07
3.08833e-08
-3.38189e-07
2.79374e-08
-3.42982e-07
2.49102e-08
-3.47178e-07
2.18106e-08
-3.50765e-07
1.86475e-08
-3.53731e-07
1.54295e-08
-3.56069e-07
1.21653e-08
-3.5777e-07
8.86362e-09
-3.5883e-07
5.53317e-09
-3.59245e-07
2.18265e-09
-3.59012e-07
-1.17915e-09
-3.58132e-07
-4.54337e-09
-3.56605e-07
-7.90102e-09
-3.54434e-07
-1.1243e-08
-3.51626e-07
-1.456e-08
-3.48186e-07
-1.78426e-08
-3.44123e-07
-2.10811e-08
-3.39448e-07
-2.42657e-08
-3.34173e-07
-2.73863e-08
-3.28312e-07
-3.04327e-08
-3.21882e-07
-3.33943e-08
-3.14901e-07
-3.62604e-08
-3.0739e-07
-3.902e-08
-2.99371e-07
-4.16621e-08
-2.90868e-07
-4.41752e-08
-2.8191e-07
-4.65479e-08
-2.72524e-07
-4.87686e-08
-2.62742e-07
-5.08257e-08
-2.52598e-07
-5.27072e-08
-2.42126e-07
-5.44016e-08
-2.31364e-07
-5.58971e-08
-2.20352e-07
-5.71822e-08
-2.09131e-07
-5.82455e-08
-1.97746e-07
-5.90759e-08
-1.86242e-07
-5.96628e-08
-1.74665e-07
-5.9996e-08
-1.63065e-07
-6.00658e-08
-1.51492e-07
-5.98634e-08
-1.39998e-07
-5.93809e-08
-1.28634e-07
-5.86115e-08
-1.17455e-07
-5.75495e-08
-1.06513e-07
-5.61909e-08
-9.58624e-08
-5.45336e-08
-8.55566e-08
-5.25774e-08
-7.56478e-08
-5.0325e-08
-6.61871e-08
-4.77818e-08
-5.72235e-08
-4.49569e-08
-4.88034e-08
-4.18639e-08
-4.097e-08
-3.85213e-08
-3.3762e-08
-3.49539e-08
-2.72134e-08
-3.11939e-08
-2.13519e-08
-2.72826e-08
-1.61985e-08
-2.32721e-08
-1.17667e-08
-1.92273e-08
-8.06138e-09
-1.52292e-08
-5.07866e-09
-1.13774e-08
-2.80575e-09
-7.7942e-09
-1.2214e-09
-4.62763e-09
-2.97226e-10
-2.05661e-09
-3.1219e-10
-3.8601e-10
7.63733e-10
-1.54898e-09
3.38521e-09
-3.49728e-09
6.82569e-09
-6.23844e-09
1.08521e-08
-9.77613e-09
1.52798e-08
-1.41085e-08
1.9953e-08
-1.9227e-08
2.47417e-08
-2.51165e-08
2.954e-08
-3.17546e-08
3.42617e-08
-3.91128e-08
3.88378e-08
-4.71569e-08
4.32133e-08
-5.58474e-08
4.73448e-08
-6.51406e-08
5.11991e-08
-7.49894e-08
5.47507e-08
-8.53437e-08
5.79812e-08
-9.61512e-08
6.08777e-08
-1.07358e-07
6.34323e-08
-1.1891e-07
6.56407e-08
-1.30751e-07
6.75021e-08
-1.42826e-07
6.90184e-08
-1.55081e-07
7.01937e-08
-1.6746e-07
7.10342e-08
-1.7991e-07
7.15472e-08
-1.92378e-07
7.17417e-08
-2.04814e-07
7.16273e-08
-2.17169e-07
7.12147e-08
-2.29393e-07
7.0515e-08
-2.41442e-07
6.95399e-08
-2.53271e-07
6.83014e-08
-2.64837e-07
6.68115e-08
-2.761e-07
6.50828e-08
-2.87022e-07
6.31274e-08
-2.97566e-07
6.09577e-08
-3.07698e-07
5.85861e-08
-3.17385e-07
5.60247e-08
-3.26597e-07
5.32856e-08
-3.35306e-07
5.03806e-08
-3.43485e-07
4.73214e-08
-3.5111e-07
4.41196e-08
-3.58157e-07
4.07866e-08
-3.64607e-07
3.73334e-08
-3.70441e-07
3.37712e-08
-3.75642e-07
3.01108e-08
-3.80194e-07
2.6363e-08
-3.84085e-07
2.25384e-08
-3.87303e-07
1.86475e-08
-3.89839e-07
1.4701e-08
-3.91684e-07
1.07092e-08
-3.92834e-07
6.68275e-09
-3.93284e-07
2.63215e-09
-3.93031e-07
-1.43195e-09
-3.92075e-07
-5.49884e-09
-3.90419e-07
-9.55765e-09
-3.88064e-07
-1.35973e-08
-3.85018e-07
-1.76067e-08
-3.81286e-07
-2.15744e-08
-3.76878e-07
-2.54887e-08
-3.71806e-07
-2.93377e-08
-3.66083e-07
-3.31093e-08
-3.59725e-07
-3.67911e-08
-3.52749e-07
-4.03705e-08
-3.45175e-07
-4.38344e-08
-3.37025e-07
-4.71699e-08
-3.28324e-07
-5.03633e-08
-3.19097e-07
-5.34013e-08
-3.09375e-07
-5.62699e-08
-2.99189e-07
-5.89553e-08
-2.88571e-07
-6.14434e-08
-2.77558e-07
-6.37203e-08
-2.66188e-07
-6.57718e-08
-2.54501e-07
-6.7584e-08
-2.4254e-07
-6.91432e-08
-2.30349e-07
-7.04359e-08
-2.17977e-07
-7.14489e-08
-2.0547e-07
-7.21695e-08
-1.9288e-07
-7.25859e-08
-1.80259e-07
-7.26866e-08
-1.67661e-07
-7.24614e-08
-1.55141e-07
-7.19011e-08
-1.42755e-07
-7.09978e-08
-1.30559e-07
-6.97453e-08
-1.18611e-07
-6.81391e-08
-1.06967e-07
-6.6177e-08
-9.56852e-08
-6.38594e-08
-8.48204e-08
-6.11898e-08
-7.44272e-08
-5.81749e-08
-6.4558e-08
-5.48261e-08
-5.52624e-08
-5.11595e-08
-4.65868e-08
-4.71969e-08
-3.85735e-08
-4.29672e-08
-3.12598e-08
-3.85075e-08
-2.46779e-08
-3.38646e-08
-1.88532e-08
-2.90967e-08
-1.38048e-08
-2.42758e-08
-9.54421e-09
-1.94898e-08
-6.076e-09
-1.48457e-08
-3.39763e-09
-1.04726e-08
-1.50075e-09
-6.52452e-09
-3.72811e-10
-3.18455e-09
-6.85e-10
-4.59657e-10
1.22339e-09
-1.82357e-09
4.74913e-09
-4.08239e-09
9.0845e-09
-7.22817e-09
1.39979e-08
-1.12515e-08
1.93031e-08
-1.61395e-08
2.4841e-08
-2.18747e-08
3.0477e-08
-2.84343e-08
3.60995e-08
-3.57897e-08
4.16172e-08
-4.39072e-08
4.69553e-08
-5.27478e-08
5.20539e-08
-6.22681e-08
5.68651e-08
-7.24206e-08
6.13516e-08
-8.31548e-08
6.54848e-08
-9.44172e-08
6.92436e-08
-1.06152e-07
7.26129e-08
-1.18304e-07
7.55833e-08
-1.30813e-07
7.81497e-08
-1.43621e-07
8.03106e-08
-1.56671e-07
8.2068e-08
-1.69903e-07
8.34262e-08
-1.83261e-07
8.43919e-08
-1.96687e-07
8.49736e-08
-2.10127e-07
8.51813e-08
-2.23526e-07
8.5026e-08
-2.36831e-07
8.452e-08
-2.49992e-07
8.36762e-08
-2.6296e-07
8.25079e-08
-2.75688e-07
8.10291e-08
-2.8813e-07
7.9254e-08
-3.00244e-07
7.7197e-08
-3.1199e-07
7.48725e-08
-3.23327e-07
7.22948e-08
-3.34219e-07
6.94786e-08
-3.44632e-07
6.6438e-08
-3.54534e-07
6.31873e-08
-3.63894e-07
5.97403e-08
-3.72683e-07
5.6111e-08
-3.80877e-07
5.23129e-08
-3.8845e-07
4.83595e-08
-3.9538e-07
4.42639e-08
-4.01648e-07
4.00392e-08
-4.07235e-07
3.56983e-08
-4.12126e-07
3.12539e-08
-4.16306e-07
2.67186e-08
-4.19764e-07
2.21049e-08
-4.22488e-07
1.74253e-08
-4.24471e-07
1.26922e-08
-4.25706e-07
7.91813e-09
-4.2619e-07
3.11559e-09
-4.25919e-07
-1.70284e-09
-4.24893e-07
-6.52445e-09
-4.23115e-07
-1.13364e-08
-4.20587e-07
-1.61255e-08
-4.17315e-07
-2.08786e-08
-4.13307e-07
-2.55822e-08
-4.08573e-07
-3.02224e-08
-4.03126e-07
-3.47852e-08
-3.96979e-07
-3.92564e-08
-3.90149e-07
-4.36211e-08
-3.82655e-07
-4.78644e-08
-3.74518e-07
-5.19712e-08
-3.65762e-07
-5.59259e-08
-3.56412e-07
-5.97127e-08
-3.46498e-07
-6.33155e-08
-3.3605e-07
-6.67182e-08
-3.25101e-07
-6.99044e-08
-3.13687e-07
-7.28575e-08
-3.01846e-07
-7.55612e-08
-2.89619e-07
-7.7999e-08
-2.77048e-07
-8.01545e-08
-2.6418e-07
-8.20116e-08
-2.51061e-07
-8.35546e-08
-2.37742e-07
-8.47683e-08
-2.24273e-07
-8.56378e-08
-2.1071e-07
-8.61493e-08
-1.97107e-07
-8.62898e-08
-1.83521e-07
-8.60474e-08
-1.7001e-07
-8.54116e-08
-1.56635e-07
-8.43736e-08
-1.43454e-07
-8.29262e-08
-1.30528e-07
-8.10649e-08
-1.17918e-07
-7.87872e-08
-1.05683e-07
-7.6094e-08
-9.38831e-08
-7.29897e-08
-8.25755e-08
-6.94826e-08
-7.18157e-08
-6.55859e-08
-6.1657e-08
-6.13182e-08
-5.21491e-08
-5.67047e-08
-4.33381e-08
-5.17782e-08
-3.52654e-08
-4.65802e-08
-2.79676e-08
-4.11625e-08
-2.14754e-08
-3.55889e-08
-1.58139e-08
-2.99373e-08
-1.1002e-08
-2.43017e-08
-7.05295e-09
-1.87948e-08
-3.97466e-09
-1.35509e-08
-1.77134e-09
-8.72784e-09
-4.45304e-10
-4.51058e-09
-1.13031e-09
-5.30032e-10
1.75343e-09
-2.08828e-09
6.30737e-09
-4.64966e-09
1.16459e-08
-8.19198e-09
1.75402e-08
-1.26933e-08
2.38045e-08
-1.813e-08
3.02776e-08
-2.44753e-08
3.68223e-08
-3.16985e-08
4.33228e-08
-3.97645e-08
4.96832e-08
-4.86337e-08
5.58245e-08
-5.82623e-08
6.16824e-08
-6.86023e-08
6.72051e-08
-7.96023e-08
7.23517e-08
-9.1208e-08
7.70906e-08
-1.03363e-07
8.13982e-08
-1.16007e-07
8.52577e-08
-1.29082e-07
8.86581e-08
-1.42526e-07
9.15935e-08
-1.56277e-07
9.4062e-08
-1.70275e-07
9.60654e-08
-1.84457e-07
9.76084e-08
-1.98764e-07
9.86985e-08
-2.13135e-07
9.9345e-08
-2.27513e-07
9.95592e-08
-2.4184e-07
9.93535e-08
-2.56062e-07
9.87419e-08
-2.70125e-07
9.77388e-08
-2.83977e-07
9.63598e-08
-2.97568e-07
9.46207e-08
-3.10852e-07
9.25377e-08
-3.23782e-07
9.01274e-08
-3.36316e-07
8.74064e-08
-3.48413e-07
8.43914e-08
-3.60033e-07
8.1099e-08
-3.71141e-07
7.75458e-08
-3.81702e-07
7.37481e-08
-3.91684e-07
6.97221e-08
-4.01057e-07
6.5484e-08
-4.09793e-07
6.10494e-08
-4.17868e-07
5.6434e-08
-4.25257e-07
5.16531e-08
-4.3194e-07
4.67218e-08
-4.37896e-07
4.16552e-08
-4.43111e-07
3.64682e-08
-4.47567e-07
3.11752e-08
-4.51254e-07
2.57911e-08
-4.54159e-07
2.03302e-08
-4.56273e-07
1.48071e-08
-4.57592e-07
9.23634e-09
-4.58109e-07
3.63248e-09
-4.57822e-07
-1.98979e-09
-4.5673e-07
-7.61566e-09
-4.54837e-07
-1.32301e-08
-4.52144e-07
-1.8818e-08
-4.48659e-07
-2.43637e-08
-4.4439e-07
-2.98517e-08
-4.39346e-07
-3.52658e-08
-4.33542e-07
-4.05897e-08