/*--------------------------------*- C++ -*----------------------------------*\
| =========                 |                                                 |
| \\      /  F ield         | OpenFOAM: The Open Source CFD Toolbox           |
|  \\    /   O peration     | Version:  2212                                  |
|   \\  /    A nd           | Website:  www.openfoam.com                      |
|    \\/     M anipulation  |                                                 |
\*---------------------------------------------------------------------------*/
FoamFile
{
    version     2.0;
    format      ascii;
    arch        "LSB;label=32;scalar=64";
    class       surfaceScalarField;
    location    "0.0465";
    object      phi;
}
// * * * * * * * * * * * * * * * * * * * * * * * * * * * * * * * * * * * * * //

dimensions      [0 3 -1 0 0 0 0];

oriented        oriented;

internalField   nonuniform List<scalar> 
19800
(
6.44763e-11
-6.45571e-11
2.17404e-10
-1.52934e-10
3.81303e-10
-1.63889e-10
5.05443e-10
-1.24143e-10
5.60876e-10
-5.54301e-11
5.32021e-10
2.88588e-11
4.11393e-10
1.20632e-10
1.9648e-10
2.14912e-10
-1.11938e-10
3.08427e-10
-5.11142e-10
3.99203e-10
-9.97049e-10
4.8592e-10
-1.56473e-09
5.67688e-10
-2.20868e-09
6.43951e-10
-2.92303e-09
7.14351e-10
-3.70171e-09
7.78677e-10
-4.53852e-09
8.36812e-10
-5.42723e-09
8.88712e-10
-6.36164e-09
9.34407e-10
-7.3356e-09
9.73958e-10
-8.34307e-09
1.00746e-09
-9.3781e-09
1.03502e-09
-1.04349e-08
1.05678e-09
-1.15078e-08
1.07288e-09
-1.25913e-08
1.08349e-09
-1.368e-08
1.08879e-09
-1.4769e-08
1.08893e-09
-1.5853e-08
1.08408e-09
-1.69275e-08
1.07445e-09
-1.79877e-08
1.06023e-09
-1.90293e-08
1.0416e-09
-2.00481e-08
1.01876e-09
-2.104e-08
9.91928e-10
-2.20013e-08
9.61289e-10
-2.29283e-08
9.2702e-10
-2.38177e-08
8.8932e-10
-2.46661e-08
8.48397e-10
-2.54705e-08
8.04432e-10
-2.62281e-08
7.57602e-10
-2.69362e-08
7.08097e-10
-2.75923e-08
6.5612e-10
-2.81942e-08
6.01868e-10
-2.87397e-08
5.4552e-10
-2.9227e-08
4.87269e-10
-2.96543e-08
4.27325e-10
-3.00202e-08
3.65885e-10
-3.03233e-08
3.03144e-10
-3.05626e-08
2.39289e-10
-3.07371e-08
1.74518e-10
-3.08462e-08
1.09046e-10
-3.08893e-08
4.30782e-11
-3.08661e-08
-2.31865e-11
-3.07765e-08
-8.95425e-11
-3.06207e-08
-1.5578e-10
-3.03991e-08
-2.2167e-10
-3.01121e-08
-2.86979e-10
-2.97606e-08
-3.51488e-10
-2.93456e-08
-4.1498e-10
-2.88684e-08
-4.77224e-10
-2.83304e-08
-5.37989e-10
-2.77334e-08
-5.9703e-10
-2.70793e-08
-6.54097e-10
-2.63703e-08
-7.08951e-10
-2.5609e-08
-7.61359e-10
-2.47979e-08
-8.11078e-10
-2.394e-08
-8.57857e-10
-2.30386e-08
-9.01454e-10
-2.2097e-08
-9.41619e-10
-2.11189e-08
-9.78106e-10
-2.01082e-08
-1.01068e-09
-1.90691e-08
-1.03912e-09
-1.80059e-08
-1.06318e-09
-1.69232e-08
-1.08265e-09
-1.58259e-08
-1.09731e-09
-1.4719e-08
-1.10693e-09
-1.36076e-08
-1.11133e-09
-1.24973e-08
-1.11031e-09
-1.13936e-08
-1.10369e-09
-1.03023e-08
-1.09134e-09
-9.22922e-09
-1.0731e-09
-8.18038e-09
-1.04883e-09
-7.16193e-09
-1.01845e-09
-6.18008e-09
-9.81859e-10
-5.24108e-09
-9.38997e-10
-4.35123e-09
-8.89845e-10
-3.5168e-09
-8.3443e-10
-2.74398e-09
-7.72825e-10
-2.03882e-09
-7.05163e-10
-1.40716e-09
-6.31661e-10
-8.54502e-10
-5.52649e-10
-3.859e-10
-4.68602e-10
-5.70763e-12
-3.80195e-10
2.82714e-10
-2.88419e-10
4.77412e-10
-1.94692e-10
5.78589e-10
-1.01178e-10
5.89753e-10
-1.11711e-11
5.19551e-10
7.01998e-11
3.84708e-10
1.34849e-10
2.15038e-10
1.69671e-10
6.21306e-11
1.52904e-10
6.21344e-11
1.51097e-10
-2.15652e-10
4.10927e-10
-4.12776e-10
6.52336e-10
-4.053e-10
7.84465e-10
-2.5627e-10
7.45617e-10
-1.65752e-11
4.96815e-10
2.77663e-10
1.58977e-11
6.01561e-10
-7.07236e-10
9.38046e-10
-1.67448e-09
1.27567e-09
-2.88167e-09
1.60639e-09
-4.32051e-09
1.92474e-09
-5.97974e-09
2.22693e-09
-7.84611e-09
2.51033e-09
-9.90491e-09
2.77316e-09
-1.21405e-08
3.01427e-09
-1.45366e-08
3.23295e-09
-1.70767e-08
3.42879e-09
-1.97439e-08
3.60166e-09
-2.25216e-08
3.75165e-09
-2.53931e-08
3.87895e-09
-2.83419e-08
3.98389e-09
-3.1352e-08
4.06688e-09
-3.44076e-08
4.12844e-09
-3.74932e-08
4.16909e-09
-4.05938e-08
4.18943e-09
-4.3695e-08
4.19009e-09
-4.67827e-08
4.17173e-09
-4.98432e-08
4.13501e-09
-5.28636e-08
4.08063e-09
-5.58314e-08
4.00933e-09
-5.87344e-08
3.92184e-09
-6.15614e-08
3.81886e-09
-6.43012e-08
3.70116e-09
-6.69437e-08
3.56946e-09
-6.94789e-08
3.4245e-09
-7.18975e-08
3.26703e-09
-7.41909e-08
3.09778e-09
-7.63507e-08
2.91747e-09
-7.83695e-08
2.72685e-09
-8.024e-08
2.52664e-09
-8.19557e-08
2.31761e-09
-8.35107e-08
2.10048e-09
-8.48994e-08
1.87602e-09
-8.61171e-08
1.645e-09
-8.71594e-08
1.40818e-09
-8.80226e-08
1.16632e-09
-8.87035e-08
9.20179e-10
-8.91995e-08
6.7054e-10
-8.95086e-08
4.18192e-10
-8.96295e-08
1.63938e-10
-8.95613e-08
-9.14248e-11
-8.93037e-08
-3.47081e-10
-8.88573e-08
-6.02194e-10
-8.82231e-08
-8.55918e-10
-8.74027e-08
-1.10739e-09
-8.63984e-08
-1.35573e-09
-8.52133e-08
-1.60008e-09
-8.3851e-08
-1.83953e-09
-8.23158e-08
-2.07319e-09
-8.06127e-08
-2.30015e-09
-7.87473e-08
-2.51948e-09
-7.6726e-08
-2.73024e-09
-7.45559e-08
-2.9315e-09
-7.22446e-08
-3.12234e-09
-6.98007e-08
-3.30182e-09
-6.72331e-08
-3.469e-09
-6.45518e-08
-3.62295e-09
-6.17671e-08
-3.76276e-09
-5.88903e-08
-3.88752e-09
-5.59331e-08
-3.99634e-09
-5.29079e-08
-4.08837e-09
-4.98278e-08
-4.16276e-09
-4.67064e-08
-4.21869e-09
-4.35579e-08
-4.25539e-09
-4.03971e-08
-4.27213e-09
-3.72392e-08
-4.26822e-09
-3.40999e-08
-4.24302e-09
-3.09952e-08
-4.19598e-09
-2.79417e-08
-4.12661e-09
-2.49561e-08
-4.03447e-09
-2.20553e-08
-3.91924e-09
-1.92565e-08
-3.78069e-09
-1.65767e-08
-3.61872e-09
-1.40332e-08
-3.4334e-09
-1.16427e-08
-3.22495e-09
-9.42166e-09
-2.99384e-09
-7.38603e-09
-2.74079e-09
-5.55078e-09
-2.46691e-09
-3.9297e-09
-2.17374e-09
-2.53485e-09
-1.86345e-09
-1.37597e-09
-1.53905e-09
-4.59634e-10
-1.20475e-09
2.12061e-10
-8.66388e-10
6.43138e-10
-5.32262e-10
8.46204e-10
-2.14233e-10
8.45858e-10
7.05591e-11
6.83319e-10
2.9739e-10
4.22073e-10
4.30908e-10
1.52787e-10
4.22194e-10
2.14925e-10
1.63844e-10
-3.7949e-10
4.05639e-10
-6.54557e-10
5.71784e-10
-5.71437e-10
5.53565e-10
-2.38051e-10
2.73349e-10
2.63652e-10
-3.21102e-10
8.72115e-10
-1.26176e-09
1.54223e-09
-2.56518e-09
2.24147e-09
-4.23606e-09
2.94656e-09
-6.27042e-09
3.64076e-09
-8.65775e-09
4.31207e-09
-1.13827e-08
4.95189e-09
-1.44265e-08
5.55409e-09
-1.77677e-08
6.11436e-09
-2.13831e-08
6.62972e-09
-2.52484e-08
7.09821e-09
-2.93382e-08
7.51865e-09
-3.36271e-08
7.89047e-09
-3.8089e-08
8.21354e-09
-4.26981e-08
8.4881e-09
-4.74289e-08
8.71468e-09
-5.22561e-08
8.89403e-09
-5.71547e-08
9.02707e-09
-6.21005e-08
9.1149e-09
-6.70698e-08
9.15872e-09
-7.20395e-08
9.1598e-09
-7.69872e-08
9.1195e-09
-8.18915e-08
9.03927e-09
-8.67315e-08
8.92059e-09
-9.14871e-08
8.76497e-09
-9.61392e-08
8.57394e-09
-1.00669e-07
8.3491e-09
-1.0506e-07
8.09202e-09
-1.09295e-07
7.80429e-09
-1.13358e-07
7.4875e-09
-1.17234e-07
7.14328e-09
-1.2091e-07
6.77322e-09
-1.24371e-07
6.37894e-09
-1.27607e-07
5.96205e-09
-1.30604e-07
5.52418e-09
-1.33353e-07
5.06694e-09
-1.35845e-07
4.592e-09
-1.3807e-07
4.10098e-09
-1.4002e-07
3.59558e-09
-1.4169e-07
3.07745e-09
-1.43072e-07
2.54829e-09
-1.44161e-07
2.00979e-09
-1.44954e-07
1.46365e-09
-1.45448e-07
9.11613e-10
-1.45639e-07
3.55433e-10
-1.45528e-07
-2.0311e-10
-1.45113e-07
-7.6222e-10
-1.44395e-07
-1.32007e-09
-1.43376e-07
-1.87479e-09
-1.42059e-07
-2.42451e-09
-1.40447e-07
-2.96732e-09
-1.38546e-07
-3.50129e-09
-1.36361e-07
-4.02446e-09
-1.33899e-07
-4.53487e-09
-1.31169e-07
-5.03053e-09
-1.28179e-07
-5.50941e-09
-1.2494e-07
-5.9695e-09
-1.21462e-07
-6.40876e-09
-1.1776e-07
-6.82516e-09
-1.13845e-07
-7.21667e-09
-1.09732e-07
-7.58128e-09
-1.05438e-07
-7.91696e-09
-1.0098e-07
-8.22174e-09
-9.63733e-08
-8.49366e-09
-9.16389e-08
-8.73084e-09
-8.67958e-08
-8.93138e-09
-8.18651e-08
-9.09351e-09
-7.68683e-08
-9.21549e-09
-7.1828e-08
-9.29567e-09
-6.67676e-08
-9.33252e-09
-6.17113e-08
-9.32458e-09
-5.66837e-08
-9.27057e-09
-5.17104e-08
-9.16933e-09
-4.68171e-08
-9.01985e-09
-4.20303e-08
-8.82134e-09
-3.73763e-08
-8.5732e-09
-3.28819e-08
-8.2751e-09
-2.85736e-08
-7.92702e-09
-2.44778e-08
-7.52925e-09
-2.06202e-08
-7.08255e-09
-1.70258e-08
-6.58818e-09
-1.37186e-08
-6.04804e-09
-1.07206e-08
-5.46485e-09
-8.05199e-09
-4.84237e-09
-5.72973e-09
-4.18571e-09
-3.76699e-09
-3.5018e-09
-2.17174e-09
-2.8e-09
-9.45114e-10
-2.09302e-09
-7.9185e-11
-1.39819e-09
4.45834e-10
-7.39254e-10
6.65218e-10
-1.48834e-10
6.34183e-10
3.28414e-10
4.32659e-10
6.32434e-10
1.70064e-10
6.84799e-10
3.84986e-10
1.25798e-10
-5.05298e-10
2.61915e-10
-7.90672e-10
2.47365e-10
-5.56885e-10
-3.28296e-11
4.21393e-11
-6.62289e-10
8.93116e-10
-1.69907e-09
1.9089e-09
-3.18018e-09
3.02333e-09
-5.12571e-09
4.187e-09
-7.54233e-09
5.36317e-09
-1.04262e-08
6.52462e-09
-1.37653e-08
7.65117e-09
-1.75414e-08
8.72799e-09
-2.17315e-08
9.74417e-09
-2.63089e-08
1.06918e-08
-3.12446e-08
1.15654e-08
-3.65073e-08
1.23609e-08
-4.20647e-08
1.30761e-08
-4.78836e-08
1.37093e-08
-5.39302e-08
1.42602e-08
-6.01709e-08
1.47288e-08
-6.65719e-08
1.51156e-08
-7.30997e-08
1.54219e-08
-7.97216e-08
1.56489e-08
-8.64052e-08
1.57985e-08
-9.31189e-08
1.58724e-08
-9.9832e-08
1.58729e-08
-1.06515e-07
1.58022e-08
-1.13138e-07
1.56625e-08
-1.19674e-07
1.54565e-08
-1.26096e-07
1.51867e-08
-1.32377e-07
1.48557e-08
-1.38494e-07
1.44661e-08
-1.44423e-07
1.40207e-08
-1.50141e-07
1.35222e-08
-1.55627e-07
1.29733e-08
-1.6086e-07
1.23768e-08
-1.65823e-07
1.17355e-08
-1.70496e-07
1.10522e-08
-1.74863e-07
1.03296e-08
-1.7891e-07
9.57069e-09
-1.82621e-07
8.77816e-09
-1.85984e-07
7.9549e-09
-1.88987e-07
7.10379e-09
-1.91619e-07
6.2277e-09
-1.93871e-07
5.32955e-09
-1.95735e-07
4.41228e-09
-1.97204e-07
3.47883e-09
-1.98273e-07
2.53219e-09
-1.98936e-07
1.57538e-09
-1.99192e-07
6.11456e-10
-1.99039e-07
-3.56488e-10
-1.98476e-07
-1.32531e-09
-1.97504e-07
-2.29185e-09
-1.96126e-07
-3.25286e-09
-1.94346e-07
-4.20509e-09
-1.92168e-07
-5.14522e-09
-1.89599e-07
-6.06993e-09
-1.86648e-07
-6.97581e-09
-1.83323e-07
-7.85945e-09
-1.79636e-07
-8.71742e-09
-1.75599e-07
-9.54622e-09
-1.71226e-07
-1.03424e-08
-1.66533e-07
-1.11024e-08
-1.61535e-07
-1.18227e-08
-1.56252e-07
-1.24999e-08
-1.50703e-07
-1.31305e-08
-1.44909e-07
-1.3711e-08
-1.38892e-07
-1.42381e-08
-1.32678e-07
-1.47084e-08
-1.2629e-07
-1.51186e-08
-1.19756e-07
-1.54656e-08
-1.13103e-07
-1.57463e-08
-1.06361e-07
-1.59578e-08
-9.95589e-08
-1.60974e-08
-9.2729e-08
-1.61624e-08
-8.59031e-08
-1.61505e-08
-7.91141e-08
-1.60595e-08
-7.23959e-08
-1.58876e-08
-6.57826e-08
-1.56331e-08
-5.93091e-08
-1.52949e-08
-5.30103e-08
-1.4872e-08
-4.69211e-08
-1.43643e-08
-4.10764e-08
-1.37718e-08
-3.55103e-08
-1.30953e-08
-3.02563e-08
-1.23365e-08
-2.53465e-08
-1.1498e-08
-2.08113e-08
-1.05833e-08
-1.66786e-08
-9.59755e-09
-1.29733e-08
-8.54766e-09
-9.71621e-09
-7.44278e-09
-6.92292e-09
-6.29509e-09
-4.60228e-09
-5.12064e-09
-2.75462e-09
-3.94068e-09
-1.36945e-09
-2.78336e-09
-4.22706e-10
-1.686e-09
1.26546e-10
-6.98097e-10
3.4003e-10
1.14929e-10
3.04451e-10
6.68028e-10
1.36868e-10
8.52381e-10
5.21849e-10
5.97823e-11
-5.65085e-10
2.97639e-11
-7.60653e-10
-2.41448e-10
-2.85666e-10
-8.65591e-10
6.66286e-10
-1.92535e-09
1.95288e-09
-3.47916e-09
3.46273e-09
-5.56511e-09
5.10928e-09
-8.20423e-09
6.82612e-09
-1.14036e-08
8.56251e-09
-1.51588e-08
1.02798e-08
-1.94564e-08
1.19488e-08
-2.42757e-08
1.35473e-08
-2.95902e-08
1.50587e-08
-3.53692e-08
1.64708e-08
-4.15783e-08
1.77745e-08
-4.8181e-08
1.89636e-08
-5.51387e-08
2.00338e-08
-6.2412e-08
2.09826e-08
-6.99602e-08
2.18084e-08
-7.77427e-08
2.25113e-08
-8.57187e-08
2.30916e-08
-9.38477e-08
2.35509e-08
-1.0209e-07
2.38908e-08
-1.10405e-07
2.41139e-08
-1.18755e-07
2.42227e-08
-1.27103e-07
2.42202e-08
-1.3541e-07
2.41099e-08
-1.43643e-07
2.38951e-08
-1.51766e-07
2.35795e-08
-1.59746e-07
2.3167e-08
-1.67552e-07
2.26613e-08
-1.75152e-07
2.20665e-08
-1.82518e-07
2.13866e-08
-1.89622e-07
2.06259e-08
-1.96437e-07
1.97883e-08
-2.02938e-07
1.88781e-08
-2.09102e-07
1.78996e-08
-2.14907e-07
1.68569e-08
-2.20332e-07
1.57544e-08
-2.25357e-07
1.45964e-08
-2.29966e-07
1.33871e-08
-2.34142e-07
1.21309e-08
-2.37871e-07
1.08322e-08
-2.41138e-07
9.49543e-09
-2.43934e-07
8.12502e-09
-2.46247e-07
6.72545e-09
-2.48069e-07
5.30126e-09
-2.49394e-07
3.857e-09
-2.50216e-07
2.39731e-09
-2.50531e-07
9.26869e-10
-2.50338e-07
-5.49606e-10
-2.49636e-07
-2.02731e-09
-2.48427e-07
-3.50137e-09
-2.46713e-07
-4.96688e-09
-2.44499e-07
-6.41886e-09
-2.41792e-07
-7.85224e-09
-2.386e-07
-9.26194e-09
-2.34933e-07
-1.06428e-08
-2.30803e-07
-1.19896e-08
-2.26223e-07
-1.32972e-08
-2.21209e-07
-1.45601e-08
-2.15778e-07
-1.57732e-08
-2.0995e-07
-1.69311e-08
-2.03744e-07
-1.80285e-08
-1.97184e-07
-1.90601e-08
-1.90293e-07
-2.00207e-08
-1.83099e-07
-2.09051e-08
-1.75629e-07
-2.17081e-08
-1.67913e-07
-2.24248e-08
-1.59981e-07
-2.30501e-08
-1.51867e-07
-2.35795e-08
-1.43605e-07
-2.40083e-08
-1.35231e-07
-2.43321e-08
-1.26782e-07
-2.45469e-08
-1.18295e-07
-2.46488e-08
-1.09811e-07
-2.46344e-08
-1.0137e-07
-2.45006e-08
-9.30132e-08
-2.42446e-08
-8.47821e-08
-2.38643e-08
-7.67189e-08
-2.3358e-08
-6.88663e-08
-2.27247e-08
-6.12664e-08
-2.19642e-08
-5.39611e-08
-2.1077e-08
-4.69916e-08
-2.00648e-08
-4.03977e-08
-1.89305e-08
-3.42175e-08
-1.76781e-08
-2.8487e-08
-1.63138e-08
-2.32388e-08
-1.48457e-08
-1.85019e-08
-1.32846e-08
-1.43001e-08
-1.16446e-08
-1.06511e-08
-9.94409e-09
-7.56477e-09
-8.20694e-09
-5.04149e-09
-6.46396e-09
-3.06987e-09
-4.75498e-09
-1.62435e-09
-3.13153e-09
-6.62326e-10
-1.66012e-09
-1.20965e-10
-4.26422e-10
8.63994e-11
4.60674e-10
7.50133e-11
8.63758e-10
5.96866e-10
-2.14321e-11
-5.43649e-10
-2.56054e-10
-5.26029e-10
-8.36008e-10
2.94291e-10
-1.8626e-09
1.69288e-09
-3.41222e-09
3.50249e-09
-5.53958e-09
5.59009e-09
-8.28052e-09
7.85023e-09
-1.16546e-08
1.02002e-08
-1.56677e-08
1.25756e-08
-2.0314e-08
1.49261e-08
-2.55781e-08
1.72129e-08
-3.14367e-08
1.94059e-08
-3.78604e-08
2.14824e-08
-4.48145e-08
2.34249e-08
-5.22606e-08
2.52206e-08
-6.01573e-08
2.68603e-08
-6.84608e-08
2.83374e-08
-7.7126e-08
2.96477e-08
-8.61066e-08
3.0789e-08
-9.53557e-08
3.17604e-08
-1.04826e-07
3.25623e-08
-1.14472e-07
3.31962e-08
-1.24245e-07
3.36644e-08
-1.34101e-07
3.39698e-08
-1.43994e-07
3.4116e-08
-1.53881e-07
3.41069e-08
-1.63718e-07
3.39471e-08
-1.73464e-07
3.36412e-08
-1.83079e-07
3.31941e-08
-1.92523e-07
3.26111e-08
-2.01759e-07
3.18975e-08
-2.10752e-07
3.10589e-08
-2.19466e-07
3.01009e-08
-2.27869e-07
2.90291e-08
-2.3593e-07
2.78494e-08
-2.4362e-07
2.65677e-08
-2.5091e-07
2.51898e-08
-2.57775e-07
2.37217e-08
-2.6419e-07
2.21694e-08
-2.70132e-07
2.0539e-08
-2.75582e-07
1.88365e-08
-2.80519e-07
1.7068e-08
-2.84926e-07
1.52397e-08
-2.88789e-07
1.33579e-08
-2.92093e-07
1.14288e-08
-2.94826e-07
9.45874e-09
-2.96979e-07
7.45409e-09
-2.98543e-07
5.42129e-09
-2.99513e-07
3.36688e-09
-2.99883e-07
1.29745e-09
-2.99653e-07
-7.80317e-10
-2.9882e-07
-2.85967e-09
-2.97388e-07
-4.93375e-09
-2.95359e-07
-6.99563e-09
-2.9274e-07
-9.03831e-09
-2.89537e-07
-1.10547e-08
-2.85762e-07
-1.30376e-08
-2.81425e-07
-1.49797e-08
-2.7654e-07
-1.68739e-08
-2.71125e-07
-1.87126e-08
-2.65196e-07
-2.04886e-08
-2.58775e-07
-2.21944e-08
-2.51884e-07
-2.38225e-08
-2.44547e-07
-2.53655e-08
-2.36791e-07
-2.68161e-08
-2.28645e-07
-2.81669e-08
-2.20139e-07
-2.94107e-08
-2.11307e-07
-3.05403e-08
-2.02183e-07
-3.15488e-08
-1.92804e-07
-3.24294e-08
-1.83208e-07
-3.31755e-08
-1.73435e-07
-3.37808e-08
-1.63528e-07
-3.42394e-08
-1.53529e-07
-3.45456e-08
-1.43484e-07
-3.46942e-08
-1.33438e-07
-3.46804e-08
-1.23438e-07
-3.45003e-08
-1.13533e-07
-3.415e-08
-1.0377e-07
-3.3627e-08
-9.41988e-08
-3.29291e-08
-8.48683e-08
-3.20552e-08
-7.58272e-08
-3.10053e-08
-6.71236e-08
-2.97806e-08
-5.88045e-08
-2.83839e-08
-5.09156e-08
-2.68194e-08
-4.35001e-08
-2.50936e-08
-3.65986e-08
-2.32153e-08
-3.02481e-08
-2.11962e-08
-2.4481e-08
-1.90517e-08
-1.93239e-08
-1.68016e-08
-1.47969e-08
-1.44711e-08
-1.09114e-08
-1.20925e-08
-7.66867e-09
-9.70665e-09
-5.05827e-09
-7.36537e-09
-3.05557e-09
-5.13423e-09
-1.61959e-09
-3.09611e-09
-6.90485e-10
-1.35551e-09
-1.86905e-10
-4.29045e-11
-2.60546e-12
6.79459e-10
5.94267e-10
-1.10221e-10
-4.33433e-10
-5.72263e-10
-6.39943e-11
-1.49457e-09
1.21661e-09
-2.96345e-09
3.16176e-09
-5.04512e-09
5.58416e-09
-7.78733e-09
8.3323e-09
-1.1221e-08
1.12839e-08
-1.53623e-08
1.43415e-08
-2.02141e-08
1.74274e-08
-2.57681e-08
2.04801e-08
-3.20062e-08
2.3451e-08
-3.89026e-08
2.63023e-08
-4.64246e-08
2.90043e-08
-5.45341e-08
3.15344e-08
-6.31887e-08
3.38753e-08
-7.23427e-08
3.60143e-08
-8.19478e-08
3.79425e-08
-9.19539e-08
3.96538e-08
-1.02309e-07
4.11445e-08
-1.12962e-07
4.24132e-08
-1.2386e-07
4.34598e-08
-1.3495e-07
4.4286e-08
-1.46179e-07
4.48942e-08
-1.57498e-07
4.52881e-08
-1.68854e-07
4.54721e-08
-1.80198e-07
4.54511e-08
-1.91482e-07
4.52309e-08
-2.02658e-07
4.48173e-08
-2.13681e-07
4.42169e-08
-2.24506e-07
4.34364e-08
-2.35091e-07
4.24828e-08
-2.45396e-07
4.13632e-08
-2.5538e-07
4.00851e-08
-2.65007e-07
3.86559e-08
-2.74241e-07
3.70834e-08
-2.83048e-07
3.53752e-08
-2.91398e-07
3.35392e-08
-2.99259e-07
3.15832e-08
-3.06605e-07
2.95153e-08
-3.1341e-07
2.73434e-08
-3.19649e-07
2.50757e-08
-3.25301e-07
2.27202e-08
-3.30347e-07
2.02853e-08
-3.34768e-07
1.77791e-08
-3.38549e-07
1.521e-08
-3.41677e-07
1.25866e-08
-3.4414e-07
9.91716e-09
-3.45929e-07
7.21043e-09
-3.47037e-07
4.47507e-09
-3.4746e-07
1.71986e-09
-3.47194e-07
-1.04629e-09
-3.46239e-07
-3.81436e-09
-3.44597e-07
-6.57526e-09
-3.42273e-07
-9.31975e-09
-3.39273e-07
-1.20385e-08
-3.35606e-07
-1.47221e-08
-3.31282e-07
-1.7361e-08
-3.26317e-07
-1.99455e-08
-3.20724e-07
-2.24661e-08
-3.14524e-07
-2.49128e-08
-3.07737e-07
-2.72759e-08
-3.00386e-07
-2.95457e-08
-2.92496e-07
-3.17121e-08
-2.84096e-07
-3.37655e-08
-2.75216e-07
-3.5696e-08
-2.65889e-07
-3.74939e-08
-2.5615e-07
-3.91499e-08
-2.46036e-07
-4.06543e-08
-2.35587e-07
-4.19982e-08
-2.24843e-07
-4.31725e-08
-2.1385e-07
-4.41687e-08
-2.02653e-07
-4.49785e-08
-1.91298e-07
-4.55942e-08
-1.79835e-07
-4.60085e-08
-1.68314e-07
-4.62146e-08
-1.56788e-07
-4.62065e-08
-1.4531e-07
-4.5979e-08
-1.33932e-07
-4.55275e-08
-1.22711e-07
-4.48486e-08
-1.117e-07
-4.39399e-08
-1.00954e-07
-4.28005e-08
-9.05292e-08
-4.14305e-08
-8.04778e-08
-3.98321e-08
-7.08524e-08
-3.80092e-08
-6.17038e-08
-3.59681e-08
-5.30799e-08
-3.37175e-08
-4.50256e-08
-3.12696e-08
-3.75816e-08
-2.86402e-08
-3.07837e-08
-2.58496e-08
-2.46617e-08
-2.29236e-08
-1.92379e-08
-1.98949e-08
-1.4526e-08
-1.68043e-08
-1.05298e-08
-1.37029e-08
-7.24105e-09
-1.06541e-08
-4.63825e-09
-7.73704e-09
-2.68466e-09
-5.04969e-09
-1.32666e-09
-2.71351e-09
-4.92043e-10
-8.77524e-10
-8.82656e-11
2.75692e-10
5.06002e-10
-2.02018e-10
-2.31407e-10
-9.03616e-10
6.37599e-10
-2.18836e-09
2.50137e-09
-4.12503e-09
5.09844e-09
-6.76713e-09
8.22626e-09
-1.0153e-08
1.17182e-08
-1.43068e-08
1.54377e-08
-1.92391e-08
1.92738e-08
-2.49487e-08
2.3137e-08
-3.14236e-08
2.69549e-08
-3.86424e-08
3.06699e-08
-4.65761e-08
3.42359e-08
-5.51885e-08
3.76167e-08
-6.44381e-08
4.0784e-08
-7.42789e-08
4.3716e-08
-8.46611e-08
4.63965e-08
-9.55321e-08
4.88136e-08
-1.06837e-07
5.0959e-08
-1.18521e-07
5.28279e-08
-1.30525e-07
5.44176e-08
-1.42793e-07
5.57277e-08
-1.55267e-07
5.67598e-08
-1.67889e-07
5.75166e-08
-1.80604e-07
5.80024e-08
-1.93354e-07
5.82223e-08
-2.06085e-07
5.81825e-08
-2.18744e-07
5.78898e-08
-2.31278e-07
5.73516e-08
-2.43637e-07
5.65759e-08
-2.55772e-07
5.55711e-08
-2.67635e-07
5.43459e-08
-2.79181e-07
5.29094e-08
-2.90367e-07
5.12709e-08
-3.01151e-07
4.94398e-08
-3.11493e-07
4.74259e-08
-3.21357e-07
4.5239e-08
-3.30707e-07
4.2889e-08
-3.3951e-07
4.03859e-08
-3.47734e-07
3.77399e-08
-3.55352e-07
3.49612e-08
-3.62336e-07
3.20601e-08
-3.68663e-07
2.90471e-08
-3.7431e-07
2.59326e-08
-3.79259e-07
2.27272e-08
-3.8349e-07
1.94416e-08
-3.8699e-07
1.60866e-08
-3.89746e-07
1.2673e-08
-3.91747e-07
9.21185e-09
-3.92987e-07
5.7143e-09
-3.93458e-07
2.19157e-09
-3.9316e-07
-1.34497e-09
-3.9209e-07
-4.88379e-09
-3.90252e-07
-8.41326e-09
-3.8765e-07
-1.19216e-08
-3.84292e-07
-1.53969e-08
-3.80187e-07
-1.88271e-08
-3.75348e-07
-2.22e-08
-3.6979e-07
-2.55034e-08
-3.63531e-07
-2.8725e-08
-3.56592e-07
-3.18522e-08
-3.48995e-07
-3.48726e-08
-3.40767e-07
-3.77737e-08
-3.31936e-07
-4.0543e-08
-3.22533e-07
-4.31681e-08
-3.12593e-07
-4.56364e-08
-3.02151e-07
-4.79359e-08
-2.91247e-07
-5.00543e-08
-2.79921e-07
-5.19799e-08
-2.68218e-07
-5.37011e-08
-2.56184e-07
-5.52065e-08
-2.43867e-07
-5.64854e-08
-2.31318e-07
-5.75275e-08
-2.18589e-07
-5.83231e-08
-2.05735e-07
-5.88629e-08
-1.92811e-07
-5.91388e-08
-1.79874e-07
-5.91431e-08
-1.66984e-07
-5.88696e-08
-1.54198e-07
-5.83127e-08
-1.41578e-07
-5.74685e-08
-1.29184e-07
-5.63342e-08
-1.17076e-07
-5.49088e-08
-1.05313e-07
-5.31934e-08
-9.39544e-08
-5.11907e-08
-8.30573e-08
-4.89063e-08
-7.26768e-08
-4.63486e-08
-6.28652e-08
-4.35291e-08
-5.36714e-08
-4.04634e-08
-4.51399e-08
-3.71717e-08
-3.73099e-08
-3.36796e-08
-3.02142e-08
-3.00193e-08
-2.38785e-08
-2.62307e-08
-1.83194e-08
-2.23634e-08
-1.35441e-08
-1.84782e-08
-9.54813e-09
-1.46501e-08
-6.3149e-09
-1.09703e-08
-3.814e-09
-7.55059e-09
-2.00038e-09
-4.52714e-09
-8.13542e-10
-2.06435e-09
-1.77312e-10
-3.60528e-10
3.28686e-10
-2.94155e-10
6.27523e-11
-1.24039e-09
1.58382e-09
-2.89796e-09
4.15893e-09
-5.31717e-09
7.51765e-09
-8.53732e-09
1.14464e-08
-1.25858e-08
1.57667e-08
-1.74782e-08
2.03301e-08
-2.32184e-08
2.5014e-08
-2.97995e-08
2.97182e-08
-3.72051e-08
3.43605e-08
-4.54097e-08
3.88745e-08
-5.43803e-08
4.32066e-08
-6.40773e-08
4.73137e-08
-7.44554e-08
5.11621e-08
-8.54648e-08
5.47254e-08
-9.70519e-08
5.79836e-08
-1.0916e-07
6.09218e-08
-1.21731e-07
6.35296e-08
-1.34703e-07
6.58003e-08
-1.48016e-07
6.77304e-08
-1.61607e-07
6.93189e-08
-1.75414e-07
7.05671e-08
-1.89376e-07
7.1478e-08
-2.0343e-07
7.20565e-08
-2.17516e-07
7.23085e-08
-2.31575e-07
7.22412e-08
-2.45548e-07
7.18627e-08
-2.59378e-07
7.1182e-08
-2.73011e-07
7.02087e-08
-2.86393e-07
6.89528e-08
-2.99472e-07
6.74251e-08
-3.12199e-07
6.56366e-08
-3.24527e-07
6.35986e-08
-3.3641e-07
6.13227e-08
-3.47805e-07
5.88209e-08
-3.58671e-07
5.61051e-08
-3.6897e-07
5.31877e-08
-3.78665e-07
5.00809e-08
-3.87722e-07
4.67974e-08
-3.96111e-07
4.33497e-08
-4.03801e-07
3.97507e-08
-4.10767e-07
3.60131e-08
-4.16985e-07
3.21501e-08
-4.22432e-07
2.81746e-08
-4.2709e-07
2.40999e-08
-4.30943e-07
1.99393e-08
-4.33977e-07
1.57065e-08
-4.3618e-07
1.14149e-08
-4.37544e-07
7.07834e-09
-4.38063e-07
2.7108e-09
-4.37734e-07
-1.67365e-09
-4.36557e-07
-6.06076e-09
-4.34534e-07
-1.04361e-08
-4.31671e-07
-1.47851e-08
-4.27975e-07
-1.9093e-08
-4.23457e-07
-2.33449e-08
-4.18131e-07
-2.75258e-08
-4.12014e-07
-3.16206e-08
-4.05125e-07
-3.56139e-08
-3.97487e-07
-3.94904e-08
-3.89125e-07
-4.32347e-08
-3.80067e-07
-4.68314e-08
-3.70345e-07
-5.02651e-08
-3.59993e-07
-5.35204e-08
-3.49047e-07
-5.65821e-08
-3.37548e-07
-5.94351e-08
-3.25538e-07
-6.20647e-08
-3.13061e-07
-6.44561e-08
-3.00167e-07
-6.65953e-08
-2.86905e-07
-6.84685e-08
-2.73328e-07
-7.00625e-08
-2.59491e-07
-7.13647e-08
-2.45451e-07
-7.23632e-08
-2.31267e-07
-7.30471e-08
-2.16999e-07
-7.34063e-08
-2.0271e-07
-7.34318e-08
-1.88464e-07
-7.31159e-08
-1.74324e-07
-7.24524e-08
-1.60356e-07
-7.14365e-08
-1.46625e-07
-7.00654e-08
-1.33196e-07
-6.83381e-08
-1.20133e-07
-6.62563e-08
-1.075e-07
-6.38239e-08
-9.5358e-08
-6.10481e-08
-8.37672e-08
-5.79395e-08
-7.27836e-08
-5.45126e-08
-6.24602e-08
-5.07869e-08
-5.28451e-08
-4.67868e-08
-4.39813e-08
-4.25435e-08
-3.59051e-08
-3.80954e-08
-2.86458e-08
-3.349e-08
-2.2224e-08
-2.87851e-08
-1.66511e-08
-2.40512e-08
-1.1928e-08
-1.93732e-08
-8.04405e-09
-1.48542e-08
-4.97697e-09
-1.06177e-08
-2.69183e-09
-6.81228e-09
-1.14143e-09
-3.61474e-09
-2.66979e-10
-1.23498e-09
6.17064e-11
-3.85114e-10
4.47874e-10
-1.57647e-09
2.77518e-09
-3.61056e-09
6.19302e-09
-6.51923e-09
1.04263e-08
-1.03269e-08
1.52541e-08
-1.50491e-08
2.04889e-08
-2.06916e-08
2.59726e-08
-2.72505e-08
3.15729e-08
-3.47125e-08
3.71802e-08
-4.30554e-08
4.27035e-08
-5.22492e-08
4.80683e-08
-6.22563e-08
5.32137e-08
-7.30331e-08
5.80905e-08
-8.45304e-08
6.26594e-08
-9.66946e-08
6.68896e-08
-1.09468e-07
7.07571e-08
-1.22791e-07
7.42442e-08
-1.36599e-07
7.73381e-08
-1.50829e-07
8.00304e-08
-1.65415e-07
8.23165e-08
-1.80291e-07
8.41946e-08
-1.9539e-07
8.56659e-08
-2.10645e-07
8.67337e-08
-2.25992e-07
8.74032e-08
-2.41365e-07
8.76813e-08
-2.567e-07
8.75764e-08
-2.71935e-07
8.70977e-08
-2.87009e-07
8.62559e-08
-3.01862e-07
8.50621e-08
-3.16438e-07
8.35285e-08
-3.3068e-07
8.16675e-08
-3.44536e-07
7.94925e-08
-3.57954e-07
7.70168e-08
-3.70886e-07
7.42544e-08
-3.83285e-07
7.12195e-08
-3.95106e-07
6.79267e-08
-4.06309e-07
6.43906e-08
-4.16854e-07
6.0626e-08
-4.26705e-07
5.66481e-08
-4.35828e-07
5.24722e-08
-4.4419e-07
4.81135e-08
-4.51765e-07
4.35876e-08
-4.58525e-07
3.89103e-08
-4.64448e-07
3.40973e-08
-4.69513e-07
2.91646e-08
-4.73702e-07
2.41283e-08
-4.77e-07
1.90048e-08
-4.79396e-07
1.38106e-08
-4.80879e-07
8.56217e-09
-4.81445e-07
3.27649e-09
-4.81089e-07
-2.02944e-09
-4.79812e-07
-7.33841e-09
-4.77615e-07
-1.2633e-08
-4.74504e-07
-1.78956e-08
-4.70489e-07
-2.31084e-08
-4.6558e-07
-2.82535e-08
-4.59794e-07
-3.33127e-08
-4.53146e-07
-3.82677e-08
-4.4566e-07
-4.31002e-08
-4.37359e-07
-4.77916e-08
-4.2827e-07
-5.23235e-08
-4.18424e-07
-5.66772e-08
-4.07855e-07
-6.08342e-08
-3.96599e-07
-6.47761e-08
-3.84697e-07
-6.84846e-08
-3.72191e-07
-7.19416e-08
-3.59126e-07
-7.51293e-08
-3.45552e-07
-7.80302e-08
-3.3152e-07
-8.06275e-08
-3.17084e-07
-8.29046e-08
-3.023e-07
-8.48458e-08
-2.87229e-07
-8.64361e-08
-2.71931e-07
-8.76615e-08
-2.56469e-07
-8.85089e-08
-2.40909e-07
-8.89664e-08
-2.25317e-07
-8.90236e-08
-2.09761e-07
-8.86714e-08
-1.94311e-07
-8.79026e-08
-1.79036e-07
-8.67118e-08
-1.64005e-07
-8.5096e-08
-1.49289e-07
-8.30545e-08
-1.34956e-07
-8.05894e-08
-1.21073e-07
-7.77061e-08
-1.07708e-07
-7.44134e-08
-9.49234e-08
-7.07242e-08
-8.27797e-08
-6.66564e-08
-7.13337e-08
-6.22328e-08
-6.06378e-08
-5.74828e-08
-5.07385e-08
-5.24427e-08
-4.16765e-08
-4.71574e-08
-3.34851e-08
-4.16814e-08
-2.61897e-08
-3.60806e-08
-1.98068e-08
-3.04341e-08
-1.43434e-08
-2.48366e-08
-9.79643e-09
-1.94011e-08
-6.1525e-09
-1.42616e-08
-3.3879e-09
-9.57686e-09
-1.46941e-09
-5.53323e-09
-3.55671e-10
-2.34872e-09
-2.93959e-10
-4.74076e-10
9.2195e-10
-1.90822e-09
4.20933e-09
-4.31799e-09
8.60279e-09
-7.71749e-09
1.38258e-08
-1.21162e-08
1.96528e-08
-1.75172e-08
2.58899e-08
-2.39158e-08
3.23712e-08
-3.12996e-08
3.89567e-08
-3.96478e-08
4.55284e-08
-4.89321e-08
5.19878e-08
-5.91168e-08
5.8253e-08
-7.01596e-08
6.42565e-08
-8.20123e-08
6.99432e-08
-9.46215e-08
7.52687e-08
-1.0793e-07
8.01976e-08
-1.21875e-07
8.47025e-08
-1.36393e-07
8.87625e-08
-1.51418e-07
9.23626e-08
-1.6688e-07
9.54927e-08
-1.82711e-07
9.8147e-08
-1.98839e-07
1.00323e-07
-2.15195e-07
1.02022e-07
-2.31708e-07
1.03247e-07
-2.48308e-07
1.04003e-07
-2.64926e-07
1.043e-07
-2.81496e-07
1.04145e-07
-2.97949e-07
1.03551e-07
-3.14221e-07
1.02528e-07
-3.3025e-07
1.01091e-07
-3.45974e-07
9.92526e-08
-3.61335e-07
9.70278e-08
-3.76274e-07
9.44321e-08
-3.90739e-07
9.14813e-08
-4.04676e-07
8.81918e-08
-4.18037e-07
8.45802e-08
-4.30774e-07
8.06635e-08
-4.42842e-07
7.64591e-08
-4.54201e-07
7.19846e-08
-4.64811e-07
6.72578e-08
-4.74635e-07
6.22966e-08
-4.83641e-07
5.71192e-08
-4.91797e-07
5.17441e-08
-4.99077e-07
4.61897e-08
-5.05454e-07
4.04748e-08
-5.10908e-07
3.46184e-08
-5.15419e-07
2.86395e-08
-5.18972e-07
2.25574e-08
-5.21553e-07
1.63916e-08
-5.23153e-07
1.01619e-08
-5.23764e-07
3.88827e-09
-5.23385e-07
-2.40924e-09
-5.22013e-07
-8.71019e-09
-5.19652e-07
-1.4994e-08
-5.16308e-07
-2.12397e-08
-5.1199e-07
-2.74264e-08
-5.0671e-07
-3.35329e-08
-5.00485e-07
-3.95375e-08
-4.93334e-07
-4.54188e-08
-4.8528e-07
-5.1155e-08
-4.76347e-07
-5.67244e-08
-4.66565e-07
-6.21049e-08
-4.55968e-07
-6.72747e-08
-4.4459e-07
-7.22119e-08
-4.32471e-07
-7.68948e-08
-4.19654e-07
-8.13019e-08
-4.06184e-07
-8.54119e-08
-3.92109e-07
-8.92037e-08
-3.77483e-07
-9.2657e-08
-3.62358e-07
-9.57518e-08
-3.46794e-07
-9.84688e-08
-3.3085e-07
-1.0079e-07
-3.1459e-07
-1.02697e-07
-2.98078e-07
-1.04173e-07
-2.81382e-07
-1.05205e-07
-2.64571e-07
-1.05777e-07
-2.47716e-07
-1.05878e-07
-2.3089e-07
-1.05498e-07
-2.14165e-07
-1.04628e-07
-1.97615e-07
-1.03261e-07
-1.81315e-07
-1.01396e-07
-1.65338e-07
-9.90312e-08
-1.49758e-07
-9.61695e-08
-1.34647e-07
-9.28176e-08
-1.20074e-07
-8.89862e-08
-1.06108e-07
-8.46906e-08
-9.28124e-08
-7.99517e-08
-8.02489e-08
-7.47963e-08
-6.84737e-08
-6.9258e-08
-5.75377e-08
-6.33787e-08
-4.74859e-08
-5.72092e-08
-3.83565e-08
-5.08108e-08
-3.01802e-08
-4.42569e-08
-2.29795e-08
-3.76348e-08
-1.67684e-08
-3.10477e-08
-1.1552e-08
-2.46176e-08
-7.32655e-09
-1.8487e-08
-4.08017e-09
-1.28232e-08
-1.79367e-09
-7.81973e-09
-4.4251e-10
-3.69988e-09
-7.36468e-10
-5.6062e-10
1.48257e-09
-2.23354e-09
5.88224e-09
-5.01531e-09
1.13846e-08
-8.90327e-09
1.77138e-08
-1.38923e-08
2.46418e-08
-1.99728e-08
3.19704e-08
-2.71294e-08
3.95279e-08
-3.53405e-08
4.71677e-08
-4.45773e-08
5.47652e-08
-5.48047e-08
6.22151e-08
-6.59808e-08
6.94291e-08
-7.80581e-08
7.63337e-08
-9.09833e-08
8.28684e-08
-1.04699e-07
8.8984e-08
-1.19142e-07
9.46409e-08
-1.34248e-07
9.98082e-08
-1.49947e-07
1.04462e-07
-1.66171e-07
1.08586e-07
-1.82845e-07
1.12167e-07
-1.99897e-07
1.15199e-07
-2.17253e-07
1.17678e-07
-2.34837e-07
1.19606e-07
-2.52577e-07
1.20986e-07
-2.70398e-07
1.21825e-07
-2.88229e-07
1.2213e-07
-3.05996e-07
1.21913e-07
-3.23631e-07
1.21186e-07
-3.41065e-07
1.19962e-07
-3.58232e-07
1.18257e-07
-3.75066e-07
1.16087e-07
-3.91506e-07
1.13468e-07
-4.07491e-07
1.10418e-07
-4.22965e-07
1.06955e-07
-4.37871e-07
1.03098e-07
-4.52158e-07
9.8867e-08
-4.65775e-07
9.42811e-08
-4.78677e-07
8.93605e-08
-4.90818e-07
8.41256e-08
-5.02157e-07
7.8597e-08
-5.12656e-07
7.27958e-08
-5.2228e-07
6.6743e-08
-5.30996e-07
6.04599e-08
-5.38774e-07
5.39683e-08
-5.45589e-07
4.72899e-08
-5.51418e-07
4.04467e-08
-5.56239e-07
3.3461e-08
-5.60037e-07
2.63553e-08
-5.62798e-07
1.91522e-08
-5.64511e-07
1.18749e-08
-5.65169e-07
4.54638e-09
-5.64768e-07
-2.80974e-09
-5.63309e-07
-1.01698e-08
-5.60793e-07
-1.75097e-08
-5.57227e-07
-2.48052e-08
-5.52622e-07
-3.2032e-08
-5.4699e-07
-3.91651e-08
-5.40347e-07
-4.61797e-08
-5.32716e-07