/*--------------------------------*- C++ -*----------------------------------*\
| =========                 |                                                 |
| \\      /  F ield         | OpenFOAM: The Open Source CFD Toolbox           |
|  \\    /   O peration     | Version:  2212                                  |
|   \\  /    A nd           | Website:  www.openfoam.com                      |
|    \\/     M anipulation  |                                                 |
\*---------------------------------------------------------------------------*/
FoamFile
{
    version     2.0;
    format      ascii;
    arch        "LSB;label=32;scalar=64";
    class       volScalarField;
    location    "0.0455";
    object      p;
}
// * * * * * * * * * * * * * * * * * * * * * * * * * * * * * * * * * * * * * //

dimensions      [0 2 -2 0 0 0 0];

internalField   nonuniform List<scalar> 
10000
(
1.08961e-07
5.2186e-05
-0.000188331
-0.000743433
-0.00156211
-0.00259546
-0.00379367
-0.00510927
-0.00649929
-0.00792595
-0.00935632
-0.0107615
-0.0121161
-0.0133982
-0.014589
-0.0156724
-0.0166348
-0.0174645
-0.0181518
-0.0186886
-0.0190685
-0.0192863
-0.0193384
-0.0192221
-0.018936
-0.0184794
-0.0178529
-0.0170576
-0.0160957
-0.0149699
-0.0136838
-0.0122412
-0.0106467
-0.00890547
-0.00702288
-0.00500502
-0.00285831
-0.000589545
0.00179404
0.00428493
0.00687539
0.00955745
0.0123227
0.0151623
0.0180674
0.0210291
0.0240382
0.0270854
0.0301608
0.0332547
0.0363575
0.0394593
0.0425502
0.0456201
0.0486591
0.0516571
0.0546044
0.0574913
0.060308
0.0630448
0.0656924
0.0682415
0.0706836
0.07301
0.0752125
0.077283
0.0792141
0.0809987
0.0826304
0.0841035
0.0854129
0.086554
0.087523
0.0883168
0.0889332
0.0893712
0.0896307
0.0897129
0.08962
0.0893556
0.0889243
0.0883322
0.0875869
0.0866979
0.0856764
0.0845357
0.0832912
0.0819605
0.0805642
0.0791252
0.0776697
0.0762277
0.0748331
0.0735243
0.0723443
0.0713404
0.0705618
0.0700564
0.0698661
0.0699508
-9.41336e-05
-4.10477e-05
-0.000265951
-0.000755941
-0.00146253
-0.00234997
-0.00338157
-0.0045196
-0.00572823
-0.00697479
-0.00822985
-0.00946728
-0.0106637
-0.0117986
-0.0128539
-0.0138139
-0.0146655
-0.0153971
-0.015999
-0.0164633
-0.0167831
-0.0169534
-0.0169701
-0.0168304
-0.0165324
-0.0160753
-0.015459
-0.0146845
-0.0137536
-0.0126686
-0.0114324
-0.0100487
-0.00852169
-0.00685587
-0.00505637
-0.00312887
-0.00107935
0.00108587
0.00335999
0.00573589
0.00820626
0.0107636
0.0133998
0.0161067
0.0188758
0.0216985
0.0245662
0.0274698
0.0304003
0.0333481
0.0363043
0.0392593
0.0422036
0.0451279
0.0480224
0.0508779
0.0536851
0.0564347
0.0591174
0.0617241
0.0642459
0.0666743
0.069001
0.0712182
0.073318
0.0752929
0.0771358
0.0788404
0.0804007
0.0818117
0.0830685
0.0841673
0.0851044
0.0858773
0.0864842
0.0869244
0.0871982
0.0873073
0.087254
0.087042
0.0866761
0.0861625
0.085509
0.0847246
0.0838206
0.0828097
0.081707
0.0805293
0.0792959
0.0780283
0.0767508
0.0754903
0.0742769
0.0731436
0.0721261
0.0712619
0.0705871
0.0701354
0.0699502
0.0700355
8.3602e-05
0.000134424
-8.25426e-05
-0.000537104
-0.00117861
-0.00197664
-0.00290103
-0.00392028
-0.00500391
-0.00612326
-0.00725201
-0.00836642
-0.00944513
-0.0104691
-0.0114212
-0.0122867
-0.0130526
-0.0137079
-0.0142431
-0.0146503
-0.0149228
-0.0150554
-0.015044
-0.0148856
-0.0145781
-0.0141203
-0.0135122
-0.0127544
-0.0118484
-0.0107962
-0.00960043
-0.00826441
-0.00679196
-0.00518735
-0.00345538
-0.00160134
0.000369149
0.00245012
0.00463509
0.00691729
0.00928976
0.0117453
0.0142764
0.016875
0.0195331
0.0222424
0.0249946
0.0277812
0.0305934
0.0334222
0.0362587
0.039094
0.041919
0.0447246
0.0475016
0.0502413
0.0529345
0.0555725
0.0581463
0.0606473
0.0630672
0.0653978
0.0676313
0.0697601
0.0717769
0.0736745
0.0754464
0.0770864
0.0785894
0.0799504
0.0811652
0.0822299
0.0831415
0.0838976
0.0844968
0.0849387
0.0852239
0.085354
0.0853318
0.0851609
0.0848461
0.0843937
0.0838111
0.0831074
0.0822934
0.0813815
0.0803859
0.0793227
0.07821
0.0770678
0.0759182
0.0747857
0.0736969
0.0726805
0.0717671
0.070988
0.0703725
0.0699488
0.0697644
0.0698461
0.000579056
0.000577597
0.000336425
-0.000114059
-0.000728595
-0.00147957
-0.00234053
-0.00328419
-0.00428407
-0.00531502
-0.00635351
-0.00737792
-0.00836873
-0.00930839
-0.0101811
-0.0109729
-0.0116715
-0.0122664
-0.0127483
-0.0131096
-0.0133439
-0.013446
-0.0134118
-0.0132381
-0.0129229
-0.0124649
-0.0118638
-0.0111201
-0.010235
-0.00921045
-0.0080487
-0.00675288
-0.00532655
-0.00377367
-0.00209879
-0.000306917
0.00159661
0.00360611
0.00571545
0.00791812
0.0102075
0.0125766
0.0150184
0.017525
0.0200887
0.0227016
0.0253558
0.028043
0.0307548
0.0334825
0.0362175
0.0389511
0.0416749
0.04438
0.0470576
0.049699
0.0522958
0.0548394
0.0573212
0.0597331
0.0620671
0.0643153
0.0664703
0.0685248
0.0704718
0.0723045
0.0740168
0.0756029
0.0770579
0.0783771
0.0795567
0.080593
0.0814832
0.0822251
0.0828177
0.0832606
0.0835547
0.0837017
0.0837043
0.0835661
0.0832921
0.0828881
0.0823616
0.0817212
0.0809772
0.0801416
0.0792278
0.078251
0.0772279
0.076177
0.0751186
0.0740746
0.0730689
0.0721266
0.0712744
0.0705393
0.0699471
0.0695234
0.0693122
0.0693431
0.00135156
0.00124587
0.000946171
0.000473104
-0.000140668
-0.000870867
-0.00169422
-0.00258715
-0.00352665
-0.00449078
-0.00545884
-0.0064114
-0.0073307
-0.00820058
-0.00900667
-0.00973598
-0.010377
-0.0109197
-0.0113555
-0.0116768
-0.0118777
-0.0119531
-0.0118988
-0.0117119
-0.0113901
-0.0109323
-0.0103379
-0.00960747
-0.00874192
-0.00774289
-0.00661264
-0.00535404
-0.00397041
-0.00246543
-0.000843384
0.000890946
0.00273246
0.00467571
0.00671485
0.00884373
0.011056
0.0133451
0.0157039
0.0181252
0.0206012
0.0231247
0.0256879
0.028283
0.0309016
0.0335355
0.0361763
0.0388159
0.0414459
0.0440579
0.0466435
0.0491942
0.0517018
0.0541581
0.0565551
0.0588848
0.0611395
0.0633119
0.0653946
0.0673806
0.0692634
0.0710366
0.0726941
0.0742308
0.0756418
0.0769228
0.0780699
0.07908
0.0799504
0.0806792
0.0812653
0.0817087
0.0820103
0.0821717
0.0821957
0.082086
0.0818471
0.0814849
0.0810065
0.0804202
0.0797357
0.0789643
0.0781186
0.0772128
0.0762623
0.075284
0.0742962
0.0733188
0.0723726
0.0714798
0.0706635
0.0699473
0.0693535
0.0689053
0.068636
0.0685672
0.0023508
0.00210529
0.00171957
0.0012004
0.000564113
-0.000168423
-0.000976909
-0.00184122
-0.00274155
-0.00365875
-0.00457468
-0.00547219
-0.00633535
-0.00714946
-0.00790132
-0.00857909
-0.00917213
-0.009671
-0.0100676
-0.0103551
-0.0105275
-0.0105801
-0.0105088
-0.0103107
-0.00998365
-0.00952655
-0.00893885
-0.0082208
-0.00737333
-0.0063979
-0.00529662
-0.00407223
-0.00272781
-0.00126682
0.000306715
0.0019882
0.00377273
0.0056551
0.00762974
0.00969082
0.0118322
0.0140477
0.0163303
0.018673
0.0210685
0.0235098
0.0259894
0.0284998
0.0310328
0.0335805
0.0361349
0.0386881
0.0412321
0.0437589
0.0462601
0.0487277
0.0511536
0.0535301
0.0558495
0.0581042
0.0602867
0.0623898
0.0644066
0.0663303
0.0681547
0.0698736
0.0714815
0.0729732
0.0743442
0.0755904
0.076708
0.0776942
0.0785464
0.0792628
0.0798427
0.0802859
0.0805933
0.0807668
0.0808088
0.080723
0.0805138
0.0801868
0.0797486
0.0792071
0.0785717
0.0778527
0.077062
0.0762126
0.0753186
0.0743954
0.0734594
0.0725283
0.0716205
0.0707554
0.0699528
0.069233
0.0686156
0.0681209
0.0677675
0.0675638
0.00352868
0.00312078
0.00262874
0.00204396
0.00136501
0.000609757
-0.000203986
-0.00105952
-0.00193992
-0.0028286
-0.00370973
-0.00456817
-0.00538977
-0.00616149
-0.00687131
-0.00750834
-0.00806286
-0.00852624
-0.00889097
-0.0091506
-0.00929958
-0.00933331
-0.00924808
-0.00904104
-0.00871026
-0.00825455
-0.00767338
-0.00696695
-0.00613613
-0.0051823
-0.00410747
-0.00291417
-0.00160531
-0.000184174
0.00134536
0.00297885
0.00471162
0.00653876
0.00845495
0.0104546
0.0125317
0.0146803
0.0168936
0.019165
0.0214875
0.0238543
0.0262581
0.0286917
0.0311471
0.0336166
0.0360927
0.0385678
0.0410341
0.0434838
0.0459087
0.0483012
0.0506534
0.052958
0.0552076
0.0573947
0.0595121
0.061553
0.0635105
0.0653783
0.0671503
0.0688206
0.070384
0.0718355
0.0731706
0.0743855
0.0754766
0.0764412
0.0772768
0.0779818
0.0785555
0.0789978
0.0793096
0.0794926
0.0795492
0.0794827
0.0792976
0.078999
0.0785933
0.0780878
0.0774911
0.0768131
0.0760645
0.0752574
0.0744045
0.0735198
0.072618
0.0717145
0.0708258
0.0699685
0.0691598
0.0684165
0.0677563
0.0671966
0.0667392
0.0663782
0.00484062
0.00425711
0.00364447
0.002979
0.00224113
0.00144625
0.000610201
-0.000253365
-0.00113036
-0.00200648
-0.00286792
-0.00370153
-0.00449487
-0.00523627
-0.005915
-0.0065212
-0.00704604
-0.0074817
-0.00782127
-0.00805876
-0.00818902
-0.00820775
-0.00811156
-0.0078978
-0.00756466
-0.00711101
-0.00653632
-0.00584081
-0.00502535
-0.00409129
-0.0030405
-0.00187535
-0.00059859
0.000786566
0.00227635
0.00386649
0.00555256
0.00732989
0.00919337
0.0111375
0.0131567
0.0152448
0.0173957
0.0196028
0.0218595
0.0241591
0.0264946
0.0288588
0.0312442
0.0336435
0.0360492
0.038454
0.0408505
0.0432308
0.0455873
0.0479123
0.0501985
0.0524387
0.0546258
0.0567525
0.0588119
0.0607971
0.0627018
0.0645197
0.0662451
0.0678722
0.0693961
0.0708117
0.072115
0.073302
0.0743694
0.0753146
0.0761351
0.0768297
0.0773973
0.0778381
0.0781527
0.0783428
0.0784106
0.0783594
0.0781932
0.0779168
0.0775363
0.0770584
0.0764911
0.0758434
0.0751254
0.0743478
0.0735223
0.0726614
0.0717781
0.0708861
0.0699997
0.0691334
0.0683015
0.0675184
0.0667996
0.0661602
0.0655847
0.0650527
0.00624769
0.00548157
0.00473889
0.00398149
0.00317215
0.00232404
0.00145142
0.00056556
-0.000322029
-0.00119929
-0.0020543
-0.00287562
-0.0036524
-0.00437434
-0.00503188
-0.00561623
-0.00611948
-0.00653455
-0.00685516
-0.0070758
-0.00719174
-0.0071991
-0.00709478
-0.00687636
-0.00654219
-0.0060912
-0.00552298
-0.00483779
-0.00403652
-0.00312047
-0.00209138
-0.000951552
0.000296333
0.00164913
0.0031032
0.00465449
0.00629874
0.00803145
0.00984769
0.0117421
0.0137092
0.0157433
0.0178382
0.0199878
0.0221855
0.0244249
0.0266992
0.0290014
0.0313243
0.0336607
0.0360036
0.0383457
0.0406798
0.0429984
0.0452938
0.0475589
0.0497864
0.0519695
0.0541011
0.0561743
0.0581822
0.0601182
0.0619762
0.0637501
0.0654344
0.0670235
0.0685124
0.0698966
0.0711717
0.0723341
0.0733805
0.0743084
0.0751155
0.0758003
0.0763621
0.0768007
0.0771168
0.0773118
0.0773879
0.077348
0.0771958
0.076936
0.076574
0.0761161
0.0755696
0.0749428
0.0742448
0.0734854
0.072675
0.0718249
0.0709465
0.070052
0.0691536
0.0682638
0.0673947
0.0665582
0.0657683
0.065038
0.064335
0.0636246
0.0077164
0.00676499
0.00588642
0.0050289
0.00413842
0.00322634
0.00230563
0.00138546
0.00047527
-0.000414898
-0.00127495
-0.002095
-0.0028656
-0.00357774
-0.00422301
-0.00479368
-0.00528273
-0.00568374
-0.00599104
-0.00619968
-0.00630542
-0.00630479
-0.00619498
-0.00597382
-0.00563979
-0.00519204
-0.00463027
-0.00395484
-0.0031666
-0.0022668
-0.00125715
-0.00013995
0.00108215
0.0024061
0.00382841
0.00534518
0.00695232
0.00864543
0.0104197
0.0122699
0.0141908
0.0161768
0.0182222
0.0203207
0.0224661
0.0246521
0.0268721
0.0291194
0.031387
0.0336678
0.0359551
0.0382419
0.0405209
0.042785
0.0450267
0.047239
0.049415
0.0515479
0.0536309
0.0556571
0.05762
0.0595131
0.0613304
0.063066
0.0647144
0.0662704
0.0677291
0.0690858
0.0703364
0.0714774
0.0725055
0.0734182
0.0742133
0.0748893
0.0754454
0.0758813
0.0761976
0.0763956
0.0764772
0.076445
0.0763026
0.0760541
0.0757045
0.0752597
0.0747262
0.0741117
0.0734243
0.0726729
0.0718668
0.071016
0.0701306
0.0692213
0.0682987
0.0673733
0.0664554
0.0655546
0.0646837
0.0638543
0.0630178
0.0621261
0.00921812
0.00808174
0.00706404
0.00610058
0.0051216
0.00413711
0.00315904
0.00219465
0.0012517
0.000338485
-0.000536537
-0.00136492
-0.00213846
-0.00284939
-0.0034904
-0.00405476
-0.0045362
-0.00492902
-0.00522816
-0.00542926
-0.0055286
-0.00552305
-0.00541013
-0.00518791
-0.00485514
-0.00441114
-0.00385577
-0.00318945
-0.00241303
-0.00152777
-0.000535414
0.000561756
0.0017611
0.00305966
0.00445406
0.00594055
0.0075151
0.00917343
0.0109108
0.0127223
0.0146026
0.0165466
0.0185484
0.0206022
0.0227018
0.024841
0.0270135
0.0292128
0.031432
0.0336644
0.0359032
0.0381416
0.0403727
0.0425894
0.0447844
0.0469509
0.0490823
0.0511718
0.0532128
0.0551987
0.0571228
0.0589789
0.0607612
0.062464
0.0640818
0.0656095
0.0670423
0.0683756
0.0696054
0.070728
0.0717404
0.07264
0.0734246
0.0740927
0.0746434
0.0750763
0.0753918
0.075591
0.0756755
0.075648
0.0755113
0.0752694
0.0749268
0.0744887
0.0739612
0.0733512
0.072666
0.0719135
0.0711021
0.0702406
0.069338
0.0684034
0.067446
0.066475
0.0654986
0.0645247
0.0635653
0.062631
0.0616576
0.0605845
0.0107283
0.00940901
0.00825103
0.00717776
0.00610471
0.00504113
0.00399827
0.00298163
0.00199739
0.00105248
0.000153966
-0.000691021
-0.0014755
-0.00219283
-0.00283673
-0.00340129
-0.003881
-0.00427087
-0.00456653
-0.00476415
-0.00486047
-0.00485274
-0.00473881
-0.00451707
-0.00418652
-0.00374669
-0.00319757
-0.00253962
-0.00177378
-0.000901363
7.58134e-05
0.00115548
0.00233506
0.00361162
0.0049819
0.0064422
0.00798859
0.00961684
0.0113224
0.0131003
0.0149457
0.0168533
0.0188176
0.0208328
0.0228929
0.0249918
0.0271234
0.0292813
0.031459
0.0336497
0.035847
0.038044
0.0402341
0.0424102
0.0445655
0.0466931
0.0487865
0.0508392
0.0528447
0.0547964
0.0566878
0.058513
0.0602659
0.0619411
0.0635334
0.0650376
0.0664488
0.0677626
0.068975
0.0700824
0.0710817
0.0719702
0.072746
0.0734072
0.0739529
0.0743825
0.0746963
0.0748952
0.0749806
0.0749548
0.0748204
0.0745808
0.0742402
0.0738033
0.0732755
0.0726631
0.0719726
0.071211
0.0703859
0.069505
0.0685761
0.0676072
0.0666063
0.0655811
0.0645384
0.0634845
0.062431
0.0613877
0.0602759
0.059023
0.0122261
0.0107267
0.00942857
0.00824322
0.00707213
0.00592433
0.00481059
0.00373508
0.00270253
0.00171865
0.000789384
-7.93665e-05
-0.000881765
-0.00161219
-0.00226519
-0.00283565
-0.00331885
-0.00371051
-0.00400687
-0.00420461
-0.00430089
-0.00429338
-0.00418029
-0.00396036
-0.00363284
-0.00319744
-0.00265427
-0.00200389
-0.00124738
-0.000386124
0.000578003
0.00164272
0.00280547
0.00406338
0.00541323
0.00685137
0.00837389
0.00997668
0.0116553
0.0134049
0.0152207
0.0170976
0.0190302
0.0210128
0.0230395
0.0251044
0.0272015
0.0293247
0.0314675
0.0336233
0.0357856
0.0379481
0.0401039
0.0422462
0.0443684
0.0464637
0.0485258
0.0505482
0.0525244
0.0544481
0.0563128
0.0581126
0.0598417
0.0614947
0.0630663
0.0645515
0.0659455
0.0672437
0.0684423
0.0695375
0.0705263
0.071406
0.0721745
0.0728299
0.0733711
0.0737975
0.074109
0.0743063
0.0743908
0.0743642
0.0742289
0.0739879
0.0736449
0.0732042
0.0726706
0.0720497
0.0713472
0.0705696
0.0697234
0.0688154
0.0678526
0.0668418
0.0657899
0.0647034
0.063588
0.0624487
0.0612969
0.060142
0.0588914
0.0574615
0.0136936
0.0120175
0.0105798
0.00928115
0.00800934
0.00677338
0.00558398
0.00444417
0.00335749
0.00232859
0.00136236
0.000463644
-0.000362719
-0.00111196
-0.00177946
-0.00236084
-0.00285215
-0.00324977
-0.00355047
-0.00375146
-0.00385031
-0.00384513
-0.00373451
-0.0035175
-0.0031936
-0.00276269
-0.00222505
-0.0015814
-0.000832901
1.89162e-05
0.000972133
0.00202445
0.00317332
0.00441589
0.00574893
0.00716882
0.00867175
0.0102536
0.0119101
0.0136364
0.015428
0.0172797
0.0191862
0.0211421
0.0231414
0.0251785
0.0272476
0.0293424
0.0314567
0.0335841
0.0357182
0.0378526
0.0399808
0.042096
0.0441916
0.0462612
0.0482984
0.0502967
0.0522499
0.0541515
0.0559954
0.0577756
0.0594863
0.0611221
0.062678
0.0641488
0.0655297
0.0668163
0.0680045
0.0690907
0.0700717
0.0709448
0.0717077
0.0723586
0.072896
0.0733192
0.0736281
0.0738231
0.073905
0.0738755
0.0737367
0.073491
0.0731419
0.0726929
0.0721487
0.0715138
0.0707937
0.0699939
0.0691201
0.0681785
0.0671751
0.0661159
0.0650066
0.0638531
0.0626598
0.0614309
0.0601777
0.0589095
0.0575207
0.0559168
0.0151154
0.0132659
0.0116898
0.0102772
0.00890287
0.0075758
0.00630699
0.00509848
0.00395288
0.00287388
0.00186541
0.00093143
7.59539e-05
-0.000697023
-0.00138367
-0.00198036
-0.00248382
-0.00289101
-0.00319922
-0.00340612
-0.00350979
-0.00350876
-0.00340197
-0.00318874
-0.00286883
-0.00244231
-0.00190966
-0.00127176
-0.000529928
0.000314222
0.00125872
0.00230122
0.00343915
0.00466962
0.00598944
0.007395
0.00888251
0.0104479
0.012087
0.0137951
0.0155675
0.0173994
0.0192856
0.0212204
0.0231983
0.0252137
0.0272608
0.0293336
0.0314259
0.0335313
0.0356436
0.0377565
0.0398635
0.0419581
0.0440337
0.0460839
0.0481024
0.0500829
0.0520191
0.0539047
0.0557335
0.0574996
0.0591972
0.0608211
0.0623661
0.0638271
0.0651992
0.066478
0.0676594
0.0687397
0.0697156
0.0705845
0.0713437
0.0719914
0.072526
0.0729466
0.0732527
0.0734446
0.0735229
0.0734888
0.0733441
0.073091
0.0727324
0.0722715
0.0717123
0.0710589
0.070316
0.0694886
0.0685818
0.067601
0.0665513
0.065438
0.0642663
0.0630408
0.0617655
0.0604437
0.0590868
0.0577043
0.0561781
0.0544034
0.016478
0.0144584
0.0127451
0.0112183
0.00974024
0.00831993
0.00696873
0.00568801
0.00447955
0.00334617
0.00229103
0.00131733
0.000428399
-0.000372529
-0.00108236
-0.00169817
-0.00221723
-0.00263706
-0.00295546
-0.0031706
-0.003281
-0.0032856
-0.00318368
-0.00297486
-0.00265909
-0.00223669
-0.00170836
-0.00107516
-0.000338517
0.000499838
0.00143784
0.0024731
0.00360303
0.00482469
0.00613484
0.00752992
0.00900615
0.0105596
0.0121859
0.0138806
0.0156391
0.0174566
0.0193277
0.0212473
0.0232096
0.0252093
0.0272405
0.0292974
0.0313739
0.0334637
0.0355605
0.0376583
0.0397506
0.041831
0.0438929
0.0459301
0.0479362
0.049905
0.0518303
0.0537057
0.0555251
0.0572825
0.0589725
0.0605896
0.0621285
0.0635842
0.0649518
0.0662268
0.067405
0.0684827
0.0694565
0.0703234
0.0710811
0.0717272
0.0722601
0.0726787
0.0729822
0.0731706
0.0732444
0.0732044
0.0730521
0.0727893
0.0724184
0.0719424
0.0713645
0.0706885
0.0699186
0.069059
0.0681144
0.0670894
0.0659886
0.0648166
0.0635779
0.0622766
0.0609159
0.0594984
0.0580361
0.0565389
0.0548763
0.0529338
0.0177693
0.0155828
0.0137338
0.0120928
0.0105099
0.00899484
0.00755895
0.00620315
0.00492851
0.00373721
0.00263172
0.00161463
0.000688551
-0.000143946
-0.000880423
-0.00151853
-0.00205611
-0.00249118
-0.00282204
-0.00304733
-0.00316606
-0.00317748
-0.00308119
-0.00287709
-0.00256542
-0.00214673
-0.0016219
-0.000992184
-0.00025917
0.000575315
0.00150912
0.00253981
0.00366468
0.00488077
0.00618482
0.00757328
0.00904239
0.0105882
0.0122064
0.0138926
0.0156422
0.0174504
0.0193121
0.0212219
0.0231744
0.0251642
0.0271856
0.0292328
0.0312996
0.03338
0.0354677
0.0375567
0.0396406
0.0417131
0.0437676
0.045798
0.0477979
0.0497611
0.0516813
0.0535524
0.0553681
0.0571225
0.0588102
0.0604255
0.0619633
0.0634183
0.0647858
0.066061
0.0672397
0.068318
0.0692926
0.0701604
0.0709187
0.071565
0.0720976
0.072515
0.0728164
0.0730014
0.0730701
0.0730233
0.0728619
0.0725876
0.0722022
0.0717082
0.0711086
0.0704066
0.0696059
0.0687102
0.0677237
0.0666504
0.0654944
0.0642598
0.0629504
0.0615699
0.060121
0.0586058
0.0570368
0.0554243
0.0536263
0.0515188
0.0189784
0.0166278
0.0146446
0.0128895
0.0112014
0.00959016
0.00806779
0.00663458
0.00529107
0.00403893
0.00288007
0.00181648
0.00085015
-1.69556e-05
-0.000782968
-0.00144607
-0.00200457
-0.00245701
-0.00280222
-0.00303928
-0.00316754
-0.00318662
-0.00309644
-0.00289717
-0.00258933
-0.00217371
-0.00165143
-0.00102388
-0.000292796
0.000539883
0.00147189
0.00250066
0.00362346
0.00483727
0.00613881
0.00752451
0.0089906
0.0105331
0.0121478
0.0138303
0.0155761
0.0173803
0.0192378
0.0211434
0.0230919
0.0250776
0.0270951
0.0291385
0.0312018
0.0332789
0.0353638
0.0374502
0.039532
0.0416028
0.0436563
0.045686
0.0476858
0.0496494
0.0515705
0.053443
0.0552607
0.0570177
0.0587084
0.0603271
0.0618686
0.0633277
0.0646994
0.0659789
0.0671619
0.0682445
0.0692231
0.0700945
0.0708557
0.0715043
0.0720381
0.0724556
0.0727555
0.0729374
0.073001
0.0729467
0.0727753
0.0724879
0.0720862
0.0715721
0.0709482
0.0702174
0.0693827
0.0684476
0.0674157
0.0662906
0.065076
0.0637753
0.0623921
0.0609296
0.0593901
0.0577754
0.0560986
0.0543706
0.0524381
0.0501678
0.0200957
0.0175835
0.0154672
0.0135984
0.0118046
0.0100962
0.00848586
0.00697336
0.00555879
0.00424342
0.00302869
0.00191601
0.000906829
2.57441e-06
-0.000795333
-0.00148558
-0.00206701
-0.00253863
-0.00289969
-0.00314971
-0.00328839
-0.00331568
-0.00323179
-0.00303721
-0.00273273
-0.0023194
-0.00179851
-0.00117163
-0.000440629
0.000392387
0.00132502
0.00235465
0.00347844
0.00469331
0.00599595
0.00738276
0.00884996
0.0103936
0.0120094
0.013693
0.0154399
0.0172452
0.0191039
0.0210109
0.0229609
0.0249484
0.0269679
0.0290135
0.0310793
0.0331593
0.0352473
0.0373374
0.0394233
0.0414987
0.0435572
0.0455925
0.0475982
0.0495682
0.0514962
0.053376
0.0552014
0.0569665
0.0586655
0.0602929
0.0618432
0.0633111
0.0646914
0.0659795
0.0671708
0.0682612
0.0692471
0.070125
0.0708918
0.0715449
0.0720818
0.0725007
0.0728002
0.0729795
0.0730382
0.0729763
0.0727942
0.0724928
0.0720733
0.0715374
0.0708872
0.0701251
0.0692539
0.0682766
0.0671964
0.0660166
0.0647403
0.0633706
0.0619108
0.0603639
0.0587318
0.057016
0.0552305
0.0533866
0.0513202
0.0488889
0.0211125
0.0184405
0.0161923
0.0142099
0.0123101
0.0105038
0.00880419
0.00721085
0.00572348
0.00434295
0.00307023
0.00190629
0.000852134
-9.12868e-05
-0.000923032
-0.00164223
-0.00224818
-0.00274036
-0.00311844
-0.00338227
-0.00353191
-0.00356763
-0.00348997
-0.00329973
-0.00299795
-0.00258588
-0.00206504
-0.00143716
-0.000704287
0.000131322
0.00106715
0.00210048
0.00322838
0.00444771
0.00575511
0.00714695
0.00861943
0.0101685
0.01179
0.0134795
0.0152325
0.0170441
0.0189094
0.0208232
0.0227804
0.0247753
0.0268026
0.0288564
0.0309307
0.0330196
0.035117
0.0372169
0.0393131
0.0413993
0.043469
0.0455159
0.0475337
0.0495162
0.051457
0.0533499
0.0551887
0.0569675
0.0586803
0.0603216
0.0618856
0.0633671
0.0647608
0.0660617
0.0672654
0.0683675
0.0693641
0.0702517
0.071027
0.0716869
0.0722289
0.072651
0.0729514
0.0731291
0.0731834
0.073114
0.072921
0.072605
0.0721667
0.0716077
0.0709295
0.0701342
0.0692244
0.0682026
0.0670717
0.0658345
0.064494
0.0630529
0.0615142
0.0598807
0.0581541
0.0563359
0.0544405
0.0524804
0.0502805
0.0476893
0.0220207
0.0191904
0.0168108
0.0147151
0.0127089
0.010804
0.00901414
0.00733873
0.0057771
0.00432976
0.00299735
0.00178043
0.000679555
-0.000304688
-0.00117179
-0.00192133
-0.00255307
-0.00306686
-0.00346274
-0.00374089
-0.00390171
-0.00394583
-0.0038741
-0.00368759
-0.00338759
-0.00297557
-0.00245325
-0.00182257
-0.00108572
-0.000245125
0.000696568
0.00173653
0.00287176
0.00409902
0.00541491
0.00681576
0.0082977
0.00985668
0.0114885
0.0131886
0.0149527
0.0167757
0.0186529
0.0205791
0.022549
0.0245572
0.026598
0.0286659
0.0307547
0.0328586
0.0349715
0.0370874
0.0392
0.0413031
0.0433902
0.0454549
0.0474908
0.0494917
0.0514513
0.0533632
0.0552212
0.0570193
0.0587515
0.0604119
0.0619949
0.0634949
0.0649067
0.066225
0.0674453
0.068563
0.069574
0.0704746
0.0712613
0.0719308
0.0724803
0.0729075
0.0732104
0.0733877
0.0734385
0.073362
0.0731583
0.0728274
0.0723698
0.0717867
0.0710793
0.0702495
0.0692994
0.0682311
0.0670474
0.0657507
0.0643437
0.062829
0.0612093
0.0594873
0.0576646
0.0557425
0.0537363
0.0516594
0.0493258
0.0465754
0.0228129
0.0198251
0.0173145
0.0151054
0.0129926
0.0109884
0.00910742
0.00734885
0.00571174
0.00419627
0.00280275
0.00153142
0.000382486
-0.000643862
-0.00154752
-0.00232851
-0.00298694
-0.00352303
-0.00393713
-0.0042298
-0.00440178
-0.00445401
-0.00438764
-0.00420402
-0.00390466
-0.00349127
-0.00296578
-0.00233031
-0.00158723
-0.000739135
0.000211198
0.00126084
0.0024067
0.00364547
0.00497364
0.00638751
0.00788315
0.00945646
0.0111032
0.0128189
0.0145989
0.0164387
0.0183331
0.0202771
0.0222653
0.0242924
0.0263526
0.0284404
0.0305497
0.0326746
0.0348092
0.0369472
0.0390824
0.0412086
0.0433192
0.0454078
0.047468
0.0494935
0.0514778
0.0534146
0.0552977
0.0571209
0.0588779
0.0605629
0.0621701
0.0636938
0.0651284
0.0664688
0.06771
0.0688475
0.0698768
0.070794
0.0715953
0.0722773
0.0728369
0.0732715
0.0735788
0.0737573
0.0738057
0.0737231
0.073509
0.0731633
0.0726862
0.0720785
0.0713412
0.0704757
0.0694839
0.0683677
0.0671294
0.0657713
0.0642959
0.0627057
0.0610032
0.0591909
0.0572704
0.055243
0.053125
0.0509304
0.0484629
0.0455533
0.0234817
0.0203369
0.0176955
0.0153727
0.0131528
0.0110487
0.00907594
0.00723329
0.00551961
0.00393489
0.00247913
0.00115228
-4.57812e-05
-0.00111524
-0.00205638
-0.00286957
-0.00355525
-0.00411398
-0.00454645
-0.00485357
-0.0050364
-0.00509619
-0.00503438
-0.00485257
-0.00455251
-0.00413613
-0.00360558
-0.00296319
-0.0022115
-0.00135326
-0.00039137
0.000671127
0.00183104
0.00308493
0.00442926
0.00586022
0.00737385
0.00896596
0.0106323
0.0123683
0.0141695
0.0160311
0.0179481
0.0199153
0.0219275
0.0239791
0.0260646
0.0281782
0.030314
0.0324661
0.0346283
0.0367946
0.0389586
0.0411141
0.0432545
0.0453732
0.0474638
0.0495199
0.0515351
0.0535029
0.0554169
0.0572709
0.0590585
0.0607736
0.0624104
0.0639629
0.0654255
0.0667928
0.0680595
0.069221
0.0702727
0.0712103
0.0720298
0.0727275
0.0733001
0.0737445
0.0740585
0.07424
0.0742875
0.0741999
0.0739763
0.0736164
0.0731199
0.0724875
0.0717197
0.0708178
0.0697833
0.0686179
0.0673236
0.0659027
0.0643573
0.0626898
0.0609027
0.0589986
0.0569787
0.0548447
0.0526135
0.0503003
0.0476981
0.0446288
0.0240202
0.0207184
0.0179459
0.0155091
0.0131816
0.0109771
0.0089117
0.00698411
0.00519295
0.00353804
0.00201914
0.000635896
-0.000612117
-0.00172544
-0.00270468
-0.0035505
-0.00426369
-0.00484511
-0.00529583
-0.00561706
-0.00581018
-0.00587674
-0.00581844
-0.00563713
-0.00533481
-0.00491365
-0.004376
-0.00372439
-0.00296155
-0.00209036
-0.00111388
-3.52491e-05
0.00114221
0.00241496
0.00377937
0.00523158
0.00676753
0.00838298
0.0100736
0.0118349
0.0136623
0.015551
0.0174959
0.0194918
0.0215335
0.0236155
0.025732
0.0278774
0.0300457
0.0322309
0.0344269
0.0366277
0.0388268
0.0410177
0.0431941
0.0453491
0.0474764
0.0495694
0.0516216
0.0536264
0.0555775
0.0574681
0.0592921
0.061043
0.0627149
0.0643017
0.0657974
0.0671966
0.0684937
0.0696838
0.0707621
0.0717242
0.0725656
0.0732825
0.0738712
0.0743285
0.0746516
0.0748384
0.0748869
0.0747958
0.0745639
0.0741905
0.0736752
0.0730182
0.0722199
0.0712811
0.0702033
0.0689877
0.0676364
0.0661513
0.0645345
0.0627882
0.060915
0.0589173
0.0567966
0.0545544
0.0522087
0.0497756
0.0470375
0.0438074
0.0244215
0.0209623
0.0180582
0.0155069
0.0130712
0.0107656
0.00860677
0.00659344
0.00472402
0.00299814
0.00141536
-2.49585e-05
-0.00132354
-0.00248121
-0.00349887
-0.0043775
-0.00511817
-0.00572211
-0.0061907
-0.00652546
-0.00672807
-0.00680036
-0.00674428
-0.00656196
-0.00625563
-0.00582769
-0.00528072
-0.00461745
-0.00384076
-0.00295369
-0.00195944
-0.000861295
0.000337312
0.00163274
0.00302126
0.00449893
0.0060616
0.00770497
0.00942466
0.0112162
0.0130749
0.0149959
0.016974
0.0190042
0.0210811
0.0231991
0.0253525
0.0275356
0.0297424
0.0319669
0.034203
0.0364444
0.0386847
0.0409175
0.0431361
0.0453338
0.0475041
0.0496403
0.0517357
0.0537839
0.055778
0.0577114
0.0595777
0.0613703
0.063083
0.0647096
0.0662439
0.0676801
0.0690126
0.0702362
0.0713457
0.0723365
0.073204
0.0739439
0.0745522
0.0750254
0.0753606
0.0755551
0.0756069
0.0755142
0.0752755
0.0748898
0.0743566
0.0736755
0.0728468
0.0718712
0.0707496
0.0694833
0.068074
0.0665237
0.0648342
0.0630078
0.0610469
0.0589542
0.056731
0.0543791
0.0519174
0.0493628
0.0464873
0.0430946
0.0246791
0.0210615
0.0180252
0.0153586
0.0128139
0.0104062
0.00815323
0.00605342
0.00410502
0.00230751
0.00066024
-0.000837665
-0.0021872
-0.00338947
-0.00444564
-0.00535699
-0.0061249
-0.00675094
-0.00723677
-0.00758423
-0.00779529
-0.00787203
-0.00781668
-0.00763162
-0.00731934
-0.00688246
-0.00632379
-0.00564622
-0.00485282
-0.00394678
-0.00293148
-0.00181031
-0.000586838
0.000735186
0.00215191
0.00365932
0.0052532
0.00692917
0.00868279
0.0105095
0.0124047
0.0143632
0.0163801
0.0184501
0.0205677
0.0227275
0.0249238
0.0271505
0.0294019
0.0316719
0.0339542
0.0362425
0.0385304
0.0408113
0.0430785
0.0453253
0.047545
0.0497308
0.0518759
0.0539736
0.0560171
0.0579996
0.0599142
0.0617546
0.063514
0.0651861
0.0667646
0.0682433
0.0696165
0.0708786
0.0720243
0.0730485
0.0739464
0.0747133
0.075345
0.0758377
0.0761881
0.0763934
0.0764509
0.0763588
0.0761152
0.0757188
0.0751687
0.0744645
0.073606
0.0725937
0.0714282
0.0701109
0.0686431
0.0670266
0.0652634
0.0633556
0.0613057
0.0591164
0.0567892
0.0543258
0.0517462
0.0490685
0.0460535
0.0424958
0.0247863
0.0210089
0.0178391
0.0150563
0.0124016
0.00989113
0.00754312
0.00535608
0.00332804
0.00145833
-0.000253888
-0.00180973
-0.00321043
-0.00445731
-0.00555185
-0.00649561
-0.00729031
-0.0079378
-0.00844003
-0.00879914
-0.00901735
-0.00909703
-0.00904069
-0.00885097
-0.00853061
-0.00808244
-0.00750948
-0.00681481
-0.00600167
-0.00507344
-0.00403365
-0.00288582
-0.00163365
-0.00028102
0.00116812
0.00270966
0.00433932
0.00605263
0.0078451
0.00971211
0.0116489
0.0136503
0.0157113
0.0178267
0.0199909
0.0221983
0.0244432
0.0267197
0.0290218
0.0313434
0.0336782
0.0360198
0.0383616
0.0406971
0.0430194
0.0453218
0.0475973
0.0498392
0.0520405
0.0541943
0.0562936
0.0583314
0.0603008
0.062195
0.0640072
0.0657309
0.0673594
0.0688864
0.0703058
0.0716118
0.0727988
0.0738613
0.0747942
0.0755925
0.0762518
0.0767679
0.0771371
0.0773563
0.0774226
0.0773336
0.0770873
0.0766821
0.0761167
0.0753905
0.074503
0.0734545
0.0722454
0.0708769
0.0693501
0.0676669
0.0658291
0.0638388
0.0616986
0.0594112
0.0569782
0.0544014
0.051702
0.0488989
0.045742
0.0420163
0.0247361
0.0207972
0.0174926
0.0145923
0.0118266
0.00921226
0.0067684
0.00449337
0.00238508
0.000442689
-0.00133483
-0.0029488
-0.00440067
-0.00569202
-0.0068246
-0.00780029
-0.00862111
-0.00928916
-0.00980672
-0.0101762
-0.0104
-0.0104809
-0.0104217
-0.0102252
-0.00989439
-0.00943238
-0.00884235
-0.0081276
-0.00729153
-0.00633774
-0.00526987
-0.00409161
-0.0028068
-0.00141943
6.6434e-05
0.00164662
0.00331674
0.00507223
0.0069085
0.00882089
0.0108045
0.0128543
0.014965
0.0171313
0.0193478
0.0216088
0.0239084
0.0262407
0.0285997
0.0309792
0.0333728
0.035774
0.0381762
0.0405727
0.0429567
0.0453213
0.0476593
0.0499639
0.052228
0.0544444
0.0566061
0.0587058
0.0607364
0.0626909
0.0645623
0.0663437
0.0680283
0.0696096
0.071081
0.0724366
0.0736702
0.0747762
0.0757491