/*--------------------------------*- C++ -*----------------------------------*\
| =========                 |                                                 |
| \\      /  F ield         | OpenFOAM: The Open Source CFD Toolbox           |
|  \\    /   O peration     | Version:  2212                                  |
|   \\  /    A nd           | Website:  www.openfoam.com                      |
|    \\/     M anipulation  |                                                 |
\*---------------------------------------------------------------------------*/
FoamFile
{
    version     2.0;
    format      ascii;
    arch        "LSB;label=32;scalar=64";
    class       surfaceScalarField;
    location    "0.0455";
    object      phi;
}
// * * * * * * * * * * * * * * * * * * * * * * * * * * * * * * * * * * * * * //

dimensions      [0 3 -1 0 0 0 0];

oriented        oriented;

internalField   nonuniform List<scalar> 
19800
(
6.4175e-11
-6.42154e-11
2.16125e-10
-1.51948e-10
3.78348e-10
-1.62232e-10
5.00702e-10
-1.22347e-10
5.54508e-10
-5.38045e-11
5.24406e-10
3.01009e-11
4.03014e-10
1.21388e-10
1.87942e-10
2.15075e-10
-1.20061e-10
3.07993e-10
-5.18235e-10
3.98171e-10
-1.00255e-09
4.84306e-10
-1.5681e-09
5.65544e-10
-2.20941e-09
6.41306e-10
-2.92063e-09
7.1122e-10
-3.69571e-09
7.75086e-10
-4.52849e-09
8.3279e-10
-5.41277e-09
8.84294e-10
-6.34239e-09
9.29618e-10
-7.3112e-09
9.68822e-10
-8.3132e-09
1.002e-09
-9.34247e-09
1.02928e-09
-1.03932e-08
1.05078e-09
-1.14599e-08
1.06666e-09
-1.2537e-08
1.07708e-09
-1.36192e-08
1.08221e-09
-1.47015e-08
1.08224e-09
-1.57788e-08
1.07733e-09
-1.68465e-08
1.06767e-09
-1.78999e-08
1.05347e-09
-1.89348e-08
1.03489e-09
-1.9947e-08
1.01214e-09
-2.09324e-08
9.85436e-10
-2.18873e-08
9.54952e-10
-2.28082e-08
9.20863e-10
-2.36916e-08
8.83363e-10
-2.45342e-08
8.42662e-10
-2.53332e-08
7.98949e-10
-2.60856e-08
7.52403e-10
-2.67888e-08
7.0322e-10
-2.74404e-08
6.51598e-10
-2.80381e-08
5.97722e-10
-2.85799e-08
5.41771e-10
-2.90638e-08
4.83932e-10
-2.94882e-08
4.24413e-10
-2.98517e-08
3.63414e-10
-3.01528e-08
3.01119e-10
-3.03905e-08
2.37718e-10
-3.05639e-08
1.73406e-10
-3.06723e-08
1.08392e-10
-3.07152e-08
4.28884e-11
-3.06923e-08
-2.29044e-11
-3.06035e-08
-8.87871e-11
-3.0449e-08
-1.54544e-10
-3.0229e-08
-2.19954e-10
-2.99442e-08
-2.84798e-10
-2.95954e-08
-3.48848e-10
-2.91835e-08
-4.11885e-10
-2.87098e-08
-4.73688e-10
-2.81758e-08
-5.3402e-10
-2.75831e-08
-5.92642e-10
-2.69338e-08
-6.4932e-10
-2.623e-08
-7.03813e-10
-2.54741e-08
-7.55885e-10
-2.46688e-08
-8.053e-10
-2.3817e-08
-8.51815e-10
-2.29218e-08
-8.95178e-10
-2.19867e-08
-9.35151e-10
-2.10152e-08
-9.71493e-10
-2.00112e-08
-1.00396e-09
-1.89789e-08
-1.03232e-09
-1.79225e-08
-1.05635e-09
-1.68467e-08
-1.07582e-09
-1.57562e-08
-1.09051e-09
-1.4656e-08
-1.1002e-09
-1.35513e-08
-1.1047e-09
-1.24475e-08
-1.10381e-09
-1.13501e-08
-1.09737e-09
-1.02649e-08
-1.08521e-09
-9.19773e-09
-1.0672e-09
-8.15453e-09
-1.04321e-09
-7.1414e-09
-1.01312e-09
-6.16452e-09
-9.76864e-10
-5.23015e-09
-9.34378e-10
-4.34451e-09
-8.85641e-10
-3.51384e-09
-8.30669e-10
-2.7443e-09
-7.69538e-10
-2.04192e-09
-7.02382e-10
-1.41251e-09
-6.29414e-10
-8.61564e-10
-5.50948e-10
-3.94111e-10
-4.6745e-10
-1.45166e-11
-3.79592e-10
2.73833e-10
-2.88352e-10
4.68969e-10
-1.95137e-10
5.71057e-10
-1.02082e-10
5.83525e-10
-1.24599e-11
5.14898e-10
6.86284e-11
3.81738e-10
1.33153e-10
2.1364e-10
1.68096e-10
6.18518e-11
1.51795e-10
6.18505e-11
1.49895e-10
-2.14116e-10
4.07417e-10
-4.09456e-10
6.45768e-10
-4.00592e-10
7.74618e-10
-2.51199e-10
7.32901e-10
-1.20826e-11
4.82152e-10
2.8086e-10
5.19799e-13
6.03028e-10
-7.21979e-10
9.37587e-10
-1.68708e-09
1.2731e-09
-2.8906e-09
1.6017e-09
-4.32425e-09
1.91796e-09
-5.97683e-09
2.21813e-09
-7.83512e-09
2.4996e-09
-9.8845e-09
2.76059e-09
-1.21094e-08
2.99996e-09
-1.44936e-08
3.21699e-09
-1.70206e-08
3.4113e-09
-1.96737e-08
3.58275e-09
-2.24363e-08
3.73142e-09
-2.52919e-08
3.85753e-09
-2.8224e-08
3.96139e-09
-3.12167e-08
4.04346e-09
-3.42542e-08
4.10421e-09
-3.73213e-08
4.14419e-09
-4.04031e-08
4.16399e-09
-4.34851e-08
4.16425e-09
-4.65534e-08
4.14563e-09
-4.95945e-08
4.1088e-09
-5.25955e-08
4.05447e-09
-5.5544e-08
3.98336e-09
-5.84281e-08
3.89618e-09
-6.12363e-08
3.79367e-09
-6.39579e-08
3.67655e-09
-6.65826e-08
3.54556e-09
-6.91007e-08
3.40141e-09
-7.15028e-08
3.24485e-09
-7.37805e-08
3.0766e-09
-7.59254e-08
2.89739e-09
-7.79302e-08
2.70798e-09
-7.97877e-08
2.50911e-09
-8.14915e-08
2.3015e-09
-8.30356e-08
2.08589e-09
-8.44147e-08
1.86302e-09
-8.56239e-08
1.63363e-09
-8.6659e-08
1.39849e-09
-8.75162e-08
1.15835e-09
-8.81925e-08
9.13958e-10
-8.86852e-08
6.66105e-10
-8.89924e-08
4.15566e-10
-8.91126e-08
1.63133e-10
-8.90451e-08
-9.0391e-11
-8.87897e-08
-3.44203e-10
-8.83468e-08
-5.97477e-10
-8.77173e-08
-8.49365e-10
-8.69031e-08
-1.09902e-09
-8.59064e-08
-1.34559e-09
-8.47301e-08
-1.58819e-09
-8.33778e-08
-1.82596e-09
-8.18538e-08
-2.05799e-09
-8.01631e-08
-2.28338e-09
-7.83112e-08
-2.50121e-09
-7.63044e-08
-2.71058e-09
-7.41498e-08
-2.91057e-09
-7.18548e-08
-3.10023e-09
-6.9428e-08
-3.27866e-09
-6.68782e-08
-3.44493e-09
-6.42153e-08
-3.5981e-09
-6.14495e-08
-3.73727e-09
-5.85919e-08
-3.86153e-09
-5.56542e-08
-3.97001e-09
-5.26488e-08
-4.06182e-09
-4.95884e-08
-4.13614e-09
-4.64868e-08
-4.19215e-09
-4.33579e-08
-4.22907e-09
-4.02165e-08
-4.24615e-09
-3.70776e-08
-4.24273e-09
-3.39568e-08
-4.21817e-09
-3.08701e-08
-4.1719e-09
-2.78339e-08
-4.10342e-09
-2.48647e-08
-4.01232e-09
-2.19796e-08
-3.89826e-09
-1.91955e-08
-3.76101e-09
-1.65293e-08
-3.60048e-09
-1.39983e-08
-3.41672e-09
-1.1619e-08
-3.20995e-09
-9.40792e-09
-2.98062e-09
-7.38085e-09
-2.72945e-09
-5.55275e-09
-2.45752e-09
-3.93735e-09
-2.16635e-09
-2.54672e-09
-1.85809e-09
-1.39061e-09
-1.5357e-09
-4.75628e-10
-1.20334e-09
1.96042e-10
-8.66801e-10
6.2829e-10
-5.34324e-10
8.33515e-10
-2.17686e-10
8.36039e-10
6.60966e-11
6.76729e-10
2.92459e-10
4.18602e-10
4.26229e-10
1.51725e-10
4.18669e-10
2.13566e-10
1.62607e-10
-3.7673e-10
4.0182e-10
-6.48675e-10
5.64752e-10
-5.63534e-10
5.43287e-10
-2.29735e-10
2.60485e-10
2.70714e-10
-3.35261e-10
8.76605e-10
-1.27552e-09
1.54327e-09
-2.57646e-09
2.23854e-09
-4.24272e-09
2.93935e-09
-6.2702e-09
3.62917e-09
-8.64836e-09
4.29612e-09
-1.13619e-08
4.93167e-09
-1.4392e-08
5.52975e-09
-1.77175e-08
6.08605e-09
-2.13152e-08
6.59764e-09
-2.51607e-08
7.06258e-09
-2.92291e-08
7.47971e-09
-3.34948e-08
7.84846e-09
-3.79321e-08
8.1687e-09
-4.25153e-08
8.44069e-09
-4.72188e-08
8.66497e-09
-5.20177e-08
8.8423e-09
-5.68871e-08
8.97363e-09
-6.1803e-08
9.06004e-09
-6.67417e-08
9.10274e-09
-7.16805e-08
9.103e-09
-7.65971e-08
9.0622e-09
-8.147e-08
8.98177e-09
-8.62787e-08
8.8632e-09
-9.10034e-08
8.70798e-09
-9.56248e-08
8.51766e-09
-1.00125e-07
8.2938e-09
-1.04486e-07
8.03798e-09
-1.08693e-07
7.75176e-09
-1.12728e-07
7.43675e-09
-1.16578e-07
7.09454e-09
-1.20228e-07
6.72672e-09
-1.23665e-07
6.3349e-09
-1.26878e-07
5.92069e-09
-1.29855e-07
5.4857e-09
-1.32585e-07
5.03157e-09
-1.35059e-07
4.5599e-09
-1.37268e-07
4.07233e-09
-1.39205e-07
3.57049e-09
-1.40862e-07
3.05604e-09
-1.42235e-07
2.53066e-09
-1.43317e-07
1.99601e-09
-1.44104e-07
1.45379e-09
-1.44595e-07
9.05739e-10
-1.44785e-07
3.53582e-10
-1.44674e-07
-2.00917e-10
-1.44263e-07
-7.55972e-10
-1.4355e-07
-1.30978e-09
-1.42539e-07
-1.86049e-09
-1.41232e-07
-2.40625e-09
-1.39632e-07
-2.94516e-09
-1.37745e-07
-3.47533e-09
-1.35576e-07
-3.99482e-09
-1.33133e-07
-4.50168e-09
-1.30422e-07
-4.99393e-09
-1.27454e-07
-5.46959e-09
-1.24238e-07
-5.92664e-09
-1.20785e-07
-6.36309e-09
-1.17109e-07
-6.77692e-09
-1.13221e-07
-7.16612e-09
-1.09137e-07
-7.52867e-09
-1.04873e-07
-7.86259e-09
-1.00444e-07
-8.16591e-09
-9.58691e-08
-8.43667e-09
-9.11662e-08
-8.67297e-09
-8.6355e-08
-8.87298e-09
-8.14563e-08
-9.03488e-09
-7.64915e-08
-9.15693e-09
-7.14831e-08
-9.23751e-09
-6.64542e-08
-9.27507e-09
-6.14287e-08
-9.26816e-09
-5.64314e-08
-9.21548e-09
-5.14874e-08
-9.11588e-09
-4.66225e-08
-8.96837e-09
-4.18627e-08
-8.77211e-09
-3.72344e-08
-8.52653e-09
-3.27642e-08
-8.23127e-09
-2.84783e-08
-7.88629e-09
-2.44032e-08
-7.4919e-09
-2.05643e-08
-7.04881e-09
-1.69867e-08
-6.55826e-09
-1.3694e-08
-6.02212e-09
-1.07085e-08
-5.44308e-09
-8.04998e-09
-4.82483e-09
-5.73562e-09
-4.17244e-09
-3.77858e-09
-3.49274e-09
-2.18689e-09
-2.79502e-09
-9.61803e-10
-2.09189e-09
-9.5608e-11
-1.40051e-09
4.31199e-10
-7.4449e-10
6.53519e-10
-1.56225e-10
6.26088e-10
3.19892e-10
4.28221e-10
6.24096e-10
1.68613e-10
6.78264e-10
3.8218e-10
1.24627e-10
-5.01355e-10
2.58547e-10
-7.82586e-10
2.4148e-10
-5.46469e-10
-4.0919e-11
5.26827e-11
-6.71607e-10
9.01405e-10
-1.70798e-09
1.91299e-09
-3.18653e-09
3.02183e-09
-5.12699e-09
4.179e-09
-7.53581e-09
5.34817e-09
-1.0409e-08
6.50236e-09
-1.37345e-08
7.62162e-09
-1.74941e-08
8.69125e-09
-2.16648e-08
9.70043e-09
-2.622e-08
1.06413e-08
-3.11309e-08
1.15085e-08
-3.63663e-08
1.2298e-08
-4.1894e-08
1.30074e-08
-4.76809e-08
1.36354e-08
-5.36937e-08
1.41815e-08
-5.98987e-08
1.46457e-08
-6.62624e-08
1.50286e-08
-7.27515e-08
1.53315e-08
-7.93335e-08
1.55556e-08
-8.59763e-08
1.57028e-08
-9.26484e-08
1.57749e-08
-9.93194e-08
1.5774e-08
-1.0596e-07
1.57024e-08
-1.1254e-07
1.55625e-08
-1.19034e-07
1.53567e-08
-1.25413e-07
1.50876e-08
-1.31654e-07
1.47578e-08
-1.3773e-07
1.43699e-08
-1.43618e-07
1.39267e-08
-1.49297e-07
1.34308e-08
-1.54746e-07
1.2885e-08
-1.59943e-07
1.22921e-08
-1.64871e-07
1.16547e-08
-1.69512e-07
1.09756e-08
-1.73849e-07
1.02578e-08
-1.77867e-07
9.50383e-09
-1.81552e-07
8.71666e-09
-1.84891e-07
7.89906e-09
-1.87873e-07
7.05388e-09
-1.90486e-07
6.18397e-09
-1.92723e-07
5.29221e-09
-1.94573e-07
4.3815e-09
-1.96032e-07
3.45477e-09
-1.97093e-07
2.51497e-09
-1.97753e-07
1.56509e-09
-1.98007e-07
6.08174e-10
-1.97856e-07
-3.52728e-10
-1.97297e-07
-1.31451e-09
-1.96333e-07
-2.27401e-09
-1.94965e-07
-3.22806e-09
-1.93198e-07
-4.17342e-09
-1.91036e-07
-5.10681e-09
-1.88487e-07
-6.02492e-09
-1.85557e-07
-6.92443e-09
-1.82257e-07
-7.80192e-09
-1.78597e-07
-8.65399e-09
-1.74589e-07
-9.4772e-09
-1.70248e-07
-1.02681e-08
-1.65588e-07
-1.10232e-08
-1.60626e-07
-1.17391e-08
-1.55379e-07
-1.24123e-08
-1.49869e-07
-1.30392e-08
-1.44115e-07
-1.36166e-08
-1.3814e-07
-1.41411e-08
-1.31967e-07
-1.46093e-08
-1.25622e-07
-1.50179e-08
-1.19131e-07
-1.53638e-08
-1.12522e-07
-1.56441e-08
-1.05823e-07
-1.58557e-08
-9.9065e-08
-1.59958e-08
-9.2278e-08
-1.6062e-08
-8.54944e-08
-1.60518e-08
-7.87468e-08
-1.59631e-08
-7.20688e-08
-1.57939e-08
-6.54943e-08
-1.55428e-08
-5.9058e-08
-1.52084e-08
-5.27946e-08
-1.479e-08
-4.67388e-08
-1.42871e-08
-4.09252e-08
-1.36999e-08
-3.53879e-08
-1.30292e-08
-3.01601e-08
-1.22766e-08
-2.52739e-08
-1.14445e-08
-2.07594e-08
-1.05366e-08
-1.66446e-08
-9.55788e-09
-1.29543e-08
-8.51512e-09
-9.70933e-09
-7.41743e-09
-6.92525e-09
-6.27682e-09
-4.61104e-09
-5.10923e-09
-2.7672e-09
-3.93572e-09
-1.38349e-09
-2.78422e-09
-4.36178e-10
-1.6918e-09
1.15235e-10
-7.07644e-10
3.31916e-10
1.03214e-10
2.99868e-10
6.5614e-10
1.35341e-10
8.42789e-10
5.17529e-10
5.8824e-11
-5.60184e-10
2.72357e-11
-7.50999e-10
-2.45375e-10
-2.73861e-10
-8.70124e-10
6.7743e-10
-1.92904e-09
1.96033e-09
-3.47998e-09
3.46393e-09
-5.56046e-09
5.10232e-09
-8.19117e-09
6.80971e-09
-1.13789e-08
8.53587e-09
-1.51191e-08
1.02426e-08
-1.93982e-08
1.19008e-08
-2.41955e-08
1.34886e-08
-2.94846e-08
1.49895e-08
-3.52348e-08
1.63915e-08
-4.1412e-08
1.76857e-08
-4.79797e-08
1.88657e-08
-5.48997e-08
1.99274e-08
-6.21324e-08
2.08682e-08
-6.96377e-08
2.16868e-08
-7.73752e-08
2.23831e-08
-8.53042e-08
2.29577e-08
-9.33845e-08
2.34118e-08
-1.01576e-07
2.37474e-08
-1.0984e-07
2.39669e-08
-1.18138e-07
2.40729e-08
-1.26433e-07
2.40685e-08
-1.34688e-07
2.3957e-08
-1.42867e-07
2.37418e-08
-1.50937e-07
2.34266e-08
-1.58864e-07
2.30152e-08
-1.66618e-07
2.25114e-08
-1.74167e-07
2.19192e-08
-1.81483e-07
2.12428e-08
-1.88539e-07
2.04861e-08
-1.95307e-07
1.96532e-08
-2.01763e-07
1.87484e-08
-2.07884e-07
1.77759e-08
-2.13649e-07
1.67398e-08
-2.19035e-07
1.56445e-08
-2.24026e-07
1.44941e-08
-2.28602e-07
1.3293e-08
-2.32748e-07
1.20454e-08
-2.3645e-07
1.07558e-08
-2.39695e-07
9.42849e-09
-2.4247e-07
8.06784e-09
-2.44767e-07
6.67831e-09
-2.46577e-07
5.2644e-09
-2.47892e-07
3.83062e-09
-2.48709e-07
2.38154e-09
-2.49022e-07
9.21816e-10
-2.48831e-07
-5.43876e-10
-2.48135e-07
-2.01079e-09
-2.46935e-07
-3.47412e-09
-2.45234e-07
-4.92898e-09
-2.43037e-07
-6.37045e-09
-2.4035e-07
-7.79354e-09
-2.37182e-07
-9.19319e-09
-2.33542e-07
-1.05643e-08
-2.29442e-07
-1.19017e-08
-2.24896e-07
-1.32003e-08
-2.19918e-07
-1.44547e-08
-2.14527e-07
-1.56598e-08
-2.0874e-07
-1.68102e-08
-2.02578e-07
-1.79008e-08
-1.96064e-07
-1.89262e-08
-1.89222e-07
-1.98812e-08
-1.82078e-07
-2.07608e-08
-1.7466e-07
-2.15597e-08
-1.66996e-07
-2.22731e-08
-1.59118e-07
-2.28959e-08
-1.51058e-07
-2.34236e-08
-1.42851e-07
-2.38515e-08
-1.34531e-07
-2.41753e-08
-1.26136e-07
-2.43909e-08
-1.17703e-07
-2.44946e-08
-1.09272e-07
-2.44827e-08
-1.00883e-07
-2.43522e-08
-9.25768e-08
-2.41004e-08
-8.43945e-08
-2.37251e-08
-7.63783e-08
-2.32246e-08
-6.85705e-08
-2.25979e-08
-6.10129e-08
-2.18446e-08
-5.37473e-08
-2.09655e-08
-4.68145e-08
-1.99619e-08
-4.02543e-08
-1.88368e-08
-3.41047e-08
-1.75942e-08
-2.84013e-08
-1.624e-08
-2.31768e-08
-1.47824e-08
-1.846e-08
-1.32319e-08
-1.42749e-08
-1.16026e-08
-1.06391e-08
-9.91261e-09
-7.56268e-09
-8.18566e-09
-5.04614e-09
-6.45226e-09
-3.07837e-09
-4.752e-09
-1.63418e-09
-3.136e-09
-6.71437e-10
-1.67038e-09
-1.27916e-10
-4.40303e-10
8.23159e-11
4.45904e-10
7.36275e-11
8.51486e-10
5.9116e-10
-2.20949e-11
-5.38089e-10
-2.57467e-10
-5.1563e-10
-8.37422e-10
3.06099e-10
-1.86263e-09
1.70264e-09
-3.40888e-09
3.50659e-09
-5.53034e-09
5.58539e-09
-8.26235e-09
7.83434e-09
-1.16241e-08
1.01715e-08
-1.56212e-08
1.2533e-08
-2.02476e-08
1.4869e-08
-2.54879e-08
1.7141e-08
-3.13188e-08
1.93194e-08
-3.77107e-08
2.13815e-08
-4.46294e-08
2.33102e-08
-5.20364e-08
2.50926e-08
-5.98904e-08
2.67197e-08
-6.81481e-08
2.8185e-08
-7.67643e-08
2.94844e-08
-8.56931e-08
3.06157e-08
-9.4888e-08
3.1578e-08
-1.04302e-07
3.23719e-08
-1.13889e-07
3.29987e-08
-1.23603e-07
3.3461e-08
-1.33397e-07
3.37615e-08
-1.43228e-07
3.39039e-08
-1.53052e-07
3.38922e-08
-1.62826e-07
3.37308e-08
-1.72509e-07
3.34244e-08
-1.8206e-07
3.2978e-08
-1.91441e-07
3.23966e-08
-2.00616e-07
3.16858e-08
-2.09547e-07
3.0851e-08
-2.18202e-07
2.98977e-08
-2.26548e-07
2.88317e-08
-2.34554e-07
2.76587e-08
-2.4219e-07
2.63846e-08
-2.49429e-07
2.50152e-08
-2.56246e-07
2.35564e-08
-2.62615e-07
2.20142e-08
-2.68516e-07
2.03947e-08
-2.73927e-07
1.87037e-08
-2.78829e-07
1.69474e-08
-2.83205e-07
1.5132e-08
-2.8704e-07
1.32635e-08
-2.9032e-07
1.13481e-08
-2.93034e-07
9.39222e-09
-2.95172e-07
7.40207e-09
-2.96725e-07
5.38405e-09
-2.97688e-07
3.34464e-09
-2.98057e-07
1.29034e-09
-2.97828e-07
-7.72222e-10
-2.97003e-07
-2.83635e-09
-2.95582e-07
-4.89528e-09
-2.93569e-07
-6.94216e-09
-2.90969e-07
-8.97003e-09
-2.87791e-07
-1.09719e-08
-2.84043e-07
-1.29406e-08
-2.79738e-07
-1.48691e-08
-2.7489e-07
-1.675e-08
-2.69514e-07
-1.85761e-08
-2.63629e-07
-2.034e-08
-2.57254e-07
-2.20344e-08
-2.50413e-07
-2.3652e-08
-2.43128e-07
-2.51854e-08
-2.35427e-07
-2.66272e-08
-2.27338e-07
-2.79701e-08
-2.18892e-07
-2.9207e-08
-2.10121e-07
-3.03308e-08
-2.01059e-07
-3.13346e-08
-1.91744e-07
-3.22116e-08
-1.82212e-07
-3.29552e-08
-1.72504e-07
-3.35592e-08
-1.62662e-07
-3.40176e-08
-1.52728e-07
-3.43248e-08
-1.42747e-07
-3.44756e-08
-1.32765e-07
-3.44653e-08
-1.22827e-07
-3.42897e-08
-1.12982e-07
-3.39453e-08
-1.03278e-07
-3.34291e-08
-9.37635e-08
-3.27392e-08
-8.44869e-08
-3.18744e-08
-7.54969e-08
-3.08346e-08
-6.68414e-08
-2.96211e-08
-5.8567e-08
-2.82363e-08
-5.07193e-08
-2.66845e-08
-4.33413e-08
-2.49722e-08
-3.64735e-08
-2.31079e-08
-3.01526e-08
-2.11032e-08
-2.44112e-08
-1.89733e-08
-1.92758e-08
-1.67379e-08
-1.47665e-08
-1.4422e-08
-1.08948e-08
-1.20574e-08
-7.66223e-09
-9.68479e-09
-5.05864e-09
-7.35559e-09
-3.05974e-09
-5.1349e-09
-1.62504e-09
-3.10507e-09
-6.95336e-10
-1.37001e-09
-1.89996e-10
-5.94369e-11
-3.70773e-12
6.65205e-10
5.87446e-10
-1.10519e-10
-4.27568e-10
-5.72317e-10
-5.38285e-11
-1.493e-09
1.22678e-09
-2.95821e-09
3.16786e-09
-5.03363e-09
5.58201e-09
-7.76652e-09
8.31827e-09
-1.11874e-08
1.12552e-08
-1.5312e-08
1.42961e-08
-2.0143e-08
1.73639e-08
-2.56718e-08
2.03978e-08
-3.18805e-08
2.33497e-08
-3.87431e-08
2.6182e-08
-4.62269e-08
2.88653e-08
-5.42939e-08
3.13773e-08
-6.29021e-08
3.37008e-08
-7.20058e-08
3.58234e-08
-8.1557e-08
3.77362e-08
-9.15058e-08
3.94332e-08
-1.01801e-07
4.09108e-08
-1.12391e-07
4.21677e-08
-1.23223e-07
4.32038e-08
-1.34245e-07
4.40208e-08
-1.45405e-07
4.46213e-08
-1.56652e-07
4.50089e-08
-1.67936e-07
4.5188e-08
-1.79208e-07
4.51637e-08
-1.90418e-07
4.49414e-08
-2.01521e-07
4.45274e-08
-2.12471e-07
4.39279e-08
-2.23224e-07
4.31497e-08
-2.33738e-07
4.21998e-08
-2.43973e-07
4.10854e-08
-2.53889e-07
3.98137e-08
-2.63449e-07
3.83923e-08
-2.72619e-07
3.68287e-08
-2.81366e-07
3.51308e-08
-2.89657e-07
3.33061e-08
-2.97463e-07
3.13626e-08
-3.04757e-07
2.93082e-08
-3.11513e-07
2.71508e-08
-3.17708e-07
2.48985e-08
-3.2332e-07
2.25594e-08
-3.28329e-07
2.01415e-08
-3.32719e-07
1.7653e-08
-3.36473e-07
1.51024e-08
-3.39579e-07
1.24978e-08
-3.42024e-07
9.84778e-09
-3.43801e-07
7.16078e-09
-3.44902e-07
4.44542e-09
-3.45322e-07
1.71042e-09
-3.45059e-07
-1.03543e-09
-3.44112e-07
-3.78321e-09
-3.42483e-07
-6.52389e-09
-3.40177e-07
-9.24837e-09
-3.372e-07
-1.19474e-08
-3.3356e-07
-1.46116e-08
-3.29269e-07
-1.72316e-08
-3.2434e-07
-1.97979e-08
-3.18789e-07
-2.23007e-08
-3.12635e-07
-2.47306e-08
-3.05897e-07
-2.70777e-08
-2.98599e-07
-2.93323e-08
-2.90766e-07
-3.14847e-08
-2.82427e-07
-3.35251e-08
-2.7361e-07
-3.54438e-08
-2.64349e-07
-3.72313e-08
-2.54678e-07
-3.8878e-08
-2.44634e-07
-4.03746e-08
-2.34257e-07
-4.1712e-08
-2.23587e-07
-4.28814e-08
-2.12668e-07
-4.38741e-08
-2.01545e-07
-4.46821e-08
-1.90265e-07
-4.52974e-08
-1.78877e-07
-4.57129e-08
-1.67431e-07
-4.59218e-08
-1.55978e-07
-4.59181e-08
-1.44571e-07
-4.56965e-08
-1.33264e-07
-4.52525e-08
-1.22111e-07
-4.45826e-08
-1.11165e-07
-4.36845e-08
-1.00483e-07
-4.25569e-08
-9.01173e-08
-4.12001e-08
-8.01222e-08
-3.96162e-08
-7.05495e-08
-3.78089e-08
-6.14497e-08
-3.57844e-08
-5.28704e-08
-3.35514e-08
-4.48564e-08
-3.11218e-08
-3.74484e-08
-2.85112e-08
-3.06819e-08
-2.57398e-08
-2.45869e-08
-2.2833e-08
-1.91855e-08
-1.98233e-08
-1.44919e-08
-1.6751e-08
-1.05098e-08
-1.3667e-08
-7.23123e-09
-1.06341e-08
-4.63516e-09
-7.73096e-09
-2.68533e-09
-5.05491e-09
-1.3287e-09
-2.72665e-09
-4.93791e-10
-8.94342e-10
-8.89992e-11
2.6041e-10
4.98443e-10
-2.01896e-10
-2.25674e-10
-9.02102e-10
6.46375e-10
-2.18339e-09
2.50805e-09
-4.11386e-09
5.09834e-09
-6.74655e-09
8.21471e-09
-1.01194e-08
1.16911e-08
-1.42561e-08
1.53919e-08
-1.9167e-08
1.9207e-08
-2.48507e-08
2.30476e-08
-3.12949e-08
2.6842e-08
-3.84784e-08
3.05332e-08
-4.63718e-08
3.40754e-08
-5.49394e-08
3.74328e-08
-6.41396e-08
4.05775e-08
-7.39265e-08
4.34877e-08
-8.42506e-08
4.61476e-08
-9.50597e-08
4.85453e-08
-1.06299e-07
5.06728e-08
-1.17914e-07
5.25253e-08
-1.29846e-07
5.41001e-08
-1.4204e-07
5.53972e-08
-1.54437e-07
5.64178e-08
-1.6698e-07
5.7165e-08
-1.79614e-07
5.76429e-08
-1.92283e-07
5.78568e-08
-2.04932e-07
5.78128e-08
-2.17508e-07
5.75178e-08
-2.2996e-07
5.6979e-08
-2.42237e-07
5.62047e-08
-2.5429e-07
5.5203e-08
-2.66073e-07
5.39827e-08
-2.7754e-07
5.25528e-08
-2.88649e-07
5.09227e-08
-2.99359e-07
4.91016e-08
-3.09629e-07
4.70994e-08
-3.19424e-07
4.49256e-08
-3.28708e-07
4.25902e-08
-3.37449e-07
4.01031e-08
-3.45615e-07
3.74745e-08
-3.53179e-07
3.47144e-08
-3.60113e-07
3.18331e-08
-3.66395e-07
2.8841e-08
-3.72002e-07
2.57484e-08
-3.76914e-07
2.25657e-08
-3.81116e-07
1.93037e-08
-3.84591e-07
1.59729e-08
-3.87327e-07
1.25841e-08
-3.89315e-07
9.14831e-09
-3.90546e-07
5.6764e-09
-3.91015e-07
2.17954e-09
-3.90719e-07
-1.33099e-09
-3.89659e-07
-4.84381e-09
-3.87835e-07
-8.3474e-09
-3.85253e-07
-1.18301e-08
-3.81921e-07
-1.52801e-08
-3.77847e-07
-1.86855e-08
-3.73044e-07
-2.20343e-08
-3.67528e-07
-2.53142e-08
-3.61315e-07
-2.85132e-08
-3.54427e-07
-3.16188e-08
-3.46886e-07
-3.46187e-08
-3.38718e-07
-3.75004e-08
-3.29951e-07
-4.02517e-08
-3.20616e-07
-4.28601e-08
-3.10747e-07
-4.53133e-08
-3.00379e-07
-4.75992e-08
-2.89551e-07
-4.97058e-08
-2.78304e-07
-5.16212e-08
-2.66682e-07
-5.3334e-08
-2.54731e-07
-5.4833e-08
-2.42498e-07
-5.61073e-08
-2.30033e-07
-5.71469e-08
-2.17388e-07
-5.79418e-08
-2.04618e-07
-5.8483e-08
-1.91778e-07
-5.87622e-08
-1.78924e-07
-5.8772e-08
-1.66115e-07
-5.85058e-08
-1.53409e-07
-5.79583e-08
-1.40866e-07
-5.71253e-08
-1.28547e-07
-5.60041e-08
-1.1651e-07
-5.45936e-08
-1.04816e-07
-5.28947e-08
-9.35215e-08
-5.09102e-08
-8.26849e-08
-4.86455e-08
-7.23607e-08
-4.61086e-08
-6.2601e-08
-4.33112e-08
-5.34544e-08
-4.02685e-08
-4.49652e-08
-3.70004e-08
-3.71727e-08
-3.35323e-08
-3.01096e-08
-2.98961e-08
-2.38016e-08
-2.61313e-08
-1.82654e-08
-2.22871e-08
-1.35084e-08
-1.8424e-08
-9.5265e-09
-1.4616e-08
-6.30334e-09
-1.09541e-08
-3.80903e-09
-7.54923e-09
-1.99907e-09
-4.5366e-09
-8.13711e-10
-2.0797e-09
-1.77615e-10
-3.75693e-10
3.20835e-10
-2.93573e-10
6.78987e-11
-1.23713e-09
1.58995e-09
-2.88922e-09
4.16013e-09
-5.29952e-09
7.50865e-09
-8.5069e-09
1.14221e-08
-1.25384e-08
1.57227e-08
-1.74092e-08
2.02627e-08
-2.3123e-08
2.49208e-08
-2.96729e-08
2.95974e-08
-3.7042e-08
3.42112e-08
-4.5205e-08
3.86962e-08
-5.41289e-08
4.29993e-08
-6.37742e-08
4.70781e-08
-7.40956e-08
5.08989e-08
-8.50437e-08
5.44358e-08
-9.6565e-08
5.76689e-08
-1.08603e-07
6.05835e-08
-1.211e-07
6.31696e-08
-1.33995e-07
6.54203e-08
-1.47227e-07
6.73324e-08
-1.60735e-07
6.8905e-08
-1.74457e-07
7.01393e-08
-1.8833e-07
7.10386e-08
-2.02295e-07
7.16076e-08
-2.16291e-07
7.18524e-08
-2.30258e-07
7.17801e-08
-2.44139e-07
7.1399e-08
-2.57878e-07
7.07179e-08
-2.7142e-07
6.97464e-08
-2.84711e-07
6.84946e-08
-2.97702e-07
6.69731e-08
-3.10342e-07
6.5193e-08
-3.22585e-07
6.31655e-08
-3.34385e-07
6.09021e-08
-3.45701e-07
5.84148e-08
-3.56491e-07
5.57155e-08
-3.66717e-07
5.28162e-08
-3.76343e-07
4.97295e-08
-3.85336e-07
4.64676e-08
-3.93665e-07
4.30431e-08
-4.01301e-07
3.94687e-08
-4.08217e-07
3.57571e-08
-4.1439e-07
3.19213e-08
-4.19798e-07
2.79741e-08
-4.24423e-07
2.39287e-08
-4.28248e-07
1.97983e-08
-4.3126e-07
1.55962e-08
-4.33448e-07
1.1336e-08
-4.34803e-07
7.03135e-09
-4.35319e-07
2.69596e-09
-4.34994e-07
-1.6562e-09
-4.33827e-07
-6.01102e-09
-4.3182e-07
-1.03542e-08
-4.28979e-07
-1.46714e-08
-4.25311e-07
-1.89479e-08
-4.20827e-07
-2.31691e-08
-4.15542e-07
-2.732e-08
-4.0947e-07
-3.13856e-08
-4.02633e-07
-3.53508e-08
-3.95051e-07
-3.92004e-08
-3.86751e-07
-4.29192e-08
-3.77759e-07
-4.64919e-08
-3.68108e-07
-4.99031e-08
-3.5783e-07
-5.31377e-08
-3.46963e-07
-5.61806e-08
-3.35545e-07
-5.90167e-08
-3.2362e-07
-6.16313e-08
-3.11231e-07
-6.40101e-08
-2.98426e-07
-6.61388e-08
-2.85255e-07
-6.80038e-08
-2.71771e-07
-6.95919e-08
-2.58027e-07
-7.08907e-08
-2.4408e-07
-7.18882e-08
-2.2999e-07
-7.25736e-08
-2.15815e-07
-7.29367e-08
-2.01619e-07
-7.29686e-08
-1.87463e-07
-7.26616e-08
-1.73412e-07
-7.20094e-08
-1.5953e-07
-7.10071e-08
-1.45882e-07
-6.96519e-08
-1.32533e-07
-6.79427e-08
-1.19547e-07
-6.5881e-08
-1.06986e-07
-6.34707e-08
-9.49128e-08
-6.07187e-08
-8.33859e-08
-5.76356e-08
-7.24615e-08
-5.42356e-08
-6.21922e-08
-5.05378e-08
-5.26261e-08
-4.65665e-08
-4.3806e-08
-4.23524e-08
-3.57683e-08
-3.79338e-08
-2.85421e-08
-3.33575e-08
-2.21483e-08
-2.8681e-08
-1.65983e-08
-2.3974e-08
-1.18933e-08
-1.93211e-08
-8.02309e-09
-1.48243e-08
-4.96572e-09
-1.06066e-08
-2.68681e-09
-6.8155e-09
-1.13985e-09
-3.62666e-09
-2.66804e-10
-1.24874e-09
5.40392e-11
-3.84034e-10
4.51925e-10
-1.57134e-09
2.77726e-09
-3.59778e-09
6.18655e-09
-6.49465e-09
1.04055e-08
-1.0286e-08
1.52135e-08
-1.49871e-08
2.04237e-08
-2.06033e-08
2.5879e-08
-2.71307e-08
3.14482e-08
-3.45558e-08
3.70225e-08
-4.28563e-08
4.25117e-08
-5.20021e-08
4.7842e-08
-6.19559e-08
5.29531e-08
-7.26739e-08
5.77961e-08
-8.41074e-08
6.23324e-08
-9.62027e-08
6.65311e-08
-1.08903e-07
7.03689e-08
-1.22147e-07
7.3828e-08
-1.35874e-07
7.6896e-08
-1.50018e-07
7.95647e-08
-1.64515e-07
8.18294e-08
-1.79299e-07
8.36886e-08
-1.94303e-07
8.51436e-08
-2.09462e-07
8.61976e-08
-2.2471e-07
8.68561e-08
-2.39984e-07
8.71258e-08
-2.55219e-07
8.70152e-08
-2.70353e-07
8.65336e-08
-2.85327e-07
8.56915e-08
-3.00081e-07
8.45002e-08
-3.14558e-07
8.29717e-08
-3.28703e-07
8.11185e-08
-3.42464e-07
7.89538e-08
-3.55789e-07
7.6491e-08
-3.68631e-07
7.37439e-08
-3.80943e-07
7.07268e-08
-3.92682e-07
6.74539e-08
-4.03805e-07
6.394e-08
-4.14276e-07
6.01998e-08
-4.24056e-07
5.62482e-08
-4.33114e-07
5.21004e-08
-4.41416e-07
4.77716e-08
-4.48937e-07
4.32773e-08
-4.55648e-07
3.8633e-08
-4.61529e-07
3.38543e-08
-4.66557e-07
2.89571e-08
-4.70716e-07
2.39574e-08
-4.73991e-07
1.88713e-08
-4.7637e-07
1.37151e-08
-4.77844e-07
8.50532e-09
-4.78407e-07
3.2586e-09
-4.78055e-07
-2.00819e-09
-4.76788e-07
-7.27803e-09
-4.74608e-07
-1.25337e-08
-4.71522e-07
-1.77577e-08
-4.67537e-07
-2.29325e-08
-4.62666e-07
-2.80403e-08
-4.56923e-07
-3.30631e-08
-4.50326e-07
-3.79828e-08
-4.42895e-07
-4.27813e-08
-4.34656e-07
-4.74401e-08
-4.25634e-07
-5.1941e-08
-4.1586e-07
-5.62655e-08
-4.05368e-07
-6.03953e-08
-3.94194e-07
-6.4312e-08
-3.82377e-07
-6.79976e-08
-3.69959e-07
-7.1434e-08
-3.56987e-07
-7.46035e-08
-3.43508e-07
-7.74889e-08
-3.29574e-07
-8.00733e-08
-3.15237e-07
-8.23403e-08
-3.00555e-07
-8.42742e-08
-2.85586e-07
-8.58602e-08
-2.7039e-07
-8.70841e-08
-2.5503e-07
-8.7933e-08
-2.39572e-07
-8.8395e-08
-2.24081e-07
-8.84596e-08
-2.08625e-07
-8.81177e-08
-1.93272e-07
-8.73621e-08
-1.78092e-07
-8.61874e-08
-1.63154e-07
-8.45904e-08
-1.48526e-07
-8.25703e-08
-1.34278e-07
-8.01292e-08
-1.20476e-07
-7.7272e-08
-1.07187e-07
-7.40076e-08
-9.44743e-08
-7.03488e-08
-8.23971e-08
-6.63128e-08
-7.10124e-08
-6.19225e-08
-6.03721e-08
-5.72067e-08
-5.0523e-08
-5.22015e-08
-4.15055e-08
-4.69513e-08
-3.33529e-08
-4.15101e-08
-2.60907e-08
-3.59432e-08
-1.97356e-08
-3.03291e-08
-1.42947e-08
-2.47619e-08
-9.76537e-09
-1.93537e-08
-6.13449e-09
-1.42375e-08
-3.37891e-09
-9.57108e-09
-1.46597e-09
-5.53961e-09
-3.54988e-10
-2.35971e-09
-3.0095e-10
-4.72468e-10
9.24384e-10
-1.90111e-09
4.20592e-09
-4.30096e-09
8.58639e-09
-7.68566e-09
1.37902e-08
-1.20644e-08
1.95922e-08
-1.74399e-08
2.57992e-08
-2.38075e-08
3.22466e-08
-3.11544e-08
3.87951e-08
-3.946e-08
4.5328e-08
-4.86957e-08
5.17475e-08
-5.8826e-08
5.79723e-08
-6.98087e-08
6.39357e-08
-8.15956e-08
6.9583e-08
-9.41336e-08
7.48704e-08
-1.07365e-07
7.97627e-08
-1.21229e-07
8.42329e-08
-1.35662e-07
8.82604e-08
-1.50596e-07
9.18304e-08
-1.65964e-07
9.4933e-08
-1.81697e-07
9.75624e-08
-1.97725e-07
9.97165e-08
-2.13978e-07
1.01396e-07
-2.30386e-07
1.02605e-07
-2.46879e-07
1.03349e-07
-2.6339e-07
1.03636e-07
-2.7985e-07
1.03476e-07
-2.96194e-07
1.02878e-07
-3.12358e-07
1.01855e-07
-3.28279e-07
1.00421e-07
-3.43897e-07
9.85891e-08
-3.59152e-07
9.63738e-08
-3.73989e-07
9.37906e-08
-3.88353e-07
9.08553e-08
-4.02193e-07
8.75842e-08
-4.1546e-07
8.39937e-08
-4.28107e-07
8.0101e-08
-4.40091e-07
7.59232e-08
-4.51368e-07
7.14777e-08
-4.61902e-07
6.67822e-08
-4.71657e-07
6.18545e-08
-4.80598e-07
5.67128e-08
-4.88696e-07
5.13752e-08
-4.95923e-07
4.58601e-08
-5.02255e-07
4.01861e-08
-5.07669e-07
3.43718e-08
-5.12148e-07
2.84364e-08
-5.15676e-07
2.23987e-08
-5.18239e-07
1.62783e-08
-5.19828e-07
1.00945e-08
-5.20437e-07
3.8671e-09
-5.20061e-07
-2.38389e-09
-5.18701e-07
-8.63834e-09
-5.16358e-07
-1.48758e-08
-5.1304e-07
-2.10758e-08
-5.08756e-07
-2.72173e-08
-5.03516e-07
-3.32794e-08
-4.97339e-07
-3.92408e-08
-4.90241e-07
-4.50802e-08
-4.82247e-07
-5.0776e-08
-4.7338e-07
-5.63066e-08
-4.63671e-07
-6.16502e-08
-4.53151e-07
-6.67853e-08
-4.41856e-07
-7.16901e-08
-4.29826e-07
-7.6343e-08
-4.171e-07
-8.07227e-08
-4.03726e-07
-8.4808e-08
-3.89752e-07
-8.85782e-08
-3.75228e-07
-9.20128e-08
-3.60209e-07
-9.50921e-08
-3.44752e-07
-9.77968e-08
-3.28918e-07
-1.00109e-07
-3.12768e-07
-1.0201e-07
-2.96367e-07
-1.03485e-07
-2.79782e-07
-1.04518e-07
-2.63082e-07
-1.05095e-07
-2.46336e-07
-1.05205e-07
-2.29618e-07
-1.04836e-07
-2.12999e-07
-1.03981e-07
-1.96553e-07
-1.02633e-07
-1.80353e-07
-1.0079e-07
-1.64474e-07
-9.84499e-08
-1.48987e-07
-9.5616e-08
-1.33964e-07
-9.22946e-08
-1.19476e-07
-8.84962e-08
-1.05589e-07
-8.42359e-08
-9.23674e-08
-7.95342e-08
-7.98723e-08
-7.44175e-08
-6.81597e-08
-6.89193e-08
-5.72804e-08
-6.30808e-08
-4.72793e-08
-5.69524e-08
-3.81946e-08
-5.05948e-08
-3.0057e-08
-4.40808e-08
-2.28891e-08
-3.7497e-08
-1.67051e-08
-3.09459e-08
-1.15103e-08
-2.45484e-08
-7.30148e-09
-1.84463e-08
-4.06702e-09
-1.28055e-08
-1.78828e-09
-7.81835e-09
-4.4131e-10
-3.70668e-09
-7.42267e-10
-5.58451e-10
1.48283e-09
-2.22437e-09
5.87184e-09
-4.99387e-09
1.13559e-08
-8.86394e-09
1.76603e-08
-1.38292e-08
2.45574e-08
-1.98799e-08
3.18499e-08
-2.70006e-08
3.93673e-08
-3.51694e-08
4.6964e-08
-4.43577e-08
5.45164e-08
-5.45303e-08
6.19201e-08
-6.56455e-08
6.90875e-08
-7.76557e-08
7.59459e-08
-9.0508e-08
8.24353e-08
-1.04145e-07
8.85071e-08
-1.18504e-07
9.4122e-08
-1.33521e-07
9.92496e-08
-1.49127e-07
1.03866e-07
-1.65252e-07
1.07955e-07
-1.81824e-07
1.11505e-07
-1.9877e-07
1.14509e-07
-2.16017e-07
1.16963e-07
-2.3349e-07
1.1887e-07
-2.51116e-07
1.20232e-07
-2.68822e-07
1.21056e-07
-2.86536e-07
1.2135e-07
-3.04187e-07
1.21126e-07
-3.21705e-07
1.20396e-07
-3.39022e-07
1.19173e-07
-3.56072e-07
1.17472e-07
-3.72792e-07
1.15309e-07
-3.89119e-07
1.12701e-07
-4.04995e-07
1.09666e-07
-4.20361e-07
1.06221e-07
-4.35163e-07
1.02386e-07
-4.49349e-07
9.81803e-08
-4.62871e-07
9.36225e-08
-4.75681e-07
8.87331e-08
-4.87735e-07
8.35322e-08
-4.98994e-07
7.80405e-08
-5.09418e-07
7.22786e-08
-5.18972e-07
6.62675e-08
-5.27626e-07
6.00284e-08
-5.35348e-07
5.35828e-08
-5.42114e-07
4.69522e-08
-5.47901e-07
4.01584e-08
-5.52688e-07
3.32235e-08
-5.56459e-07
2.61698e-08
-5.59201e-07
1.90197e-08
-5.60902e-07
1.1796e-08
-5.61557e-07
4.52171e-09
-5.61161e-07
-2.78002e-09
-5.59713e-07
-1.00857e-08
-5.57218e-07
-1.73715e-08
-5.5368e-07
-2.46135e-08
-5.4911e-07
-3.17873e-08
-5.43521e-07
-3.88687e-08
-5.36929e-07
-4.58327e-08
-5.29354e-07
-5.26547e-08
-5.20821e-07
-5.93096e-08