/*--------------------------------*- C++ -*----------------------------------*\
| =========                 |                                                 |
| \\      /  F ield         | OpenFOAM: The Open Source CFD Toolbox           |
|  \\    /   O peration     | Version:  2212                                  |
|   \\  /    A nd           | Website:  www.openfoam.com                      |
|    \\/     M anipulation  |                                                 |
\*---------------------------------------------------------------------------*/
FoamFile
{
    version     2.0;
    format      ascii;
    arch        "LSB;label=32;scalar=64";
    class       surfaceScalarField;
    location    "0.0995";
    object      phi;
}
// * * * * * * * * * * * * * * * * * * * * * * * * * * * * * * * * * * * * * //

dimensions      [0 3 -1 0 0 0 0];

oriented        oriented;

internalField   nonuniform List<scalar> 
19800
(
7.10457e-11
-7.09048e-11
2.44149e-10
-1.73108e-10
4.35019e-10
-1.9087e-10
5.85055e-10
-1.50034e-10
6.60681e-10
-7.5625e-11
6.43358e-10
1.73254e-11
5.23779e-10
1.19576e-10
2.98485e-10
2.25283e-10
-3.22438e-11
3.30726e-10
-4.65751e-10
4.33496e-10
-9.97778e-10
5.32025e-10
-1.62303e-09
6.25256e-10
-2.33551e-09
7.12487e-10
-3.12877e-09
7.93265e-10
-3.99607e-09
8.67304e-10
-4.93052e-09
9.34444e-10
-5.92514e-09
9.9461e-10
-6.97295e-09
1.0478e-09
-8.06699e-09
1.09406e-09
-9.20045e-09
1.13345e-09
-1.03666e-08
1.16611e-09
-1.15587e-08
1.19216e-09
-1.27705e-08
1.21177e-09
-1.39956e-08
1.22511e-09
-1.5228e-08
1.23234e-09
-1.64616e-08
1.23367e-09
-1.76909e-08
1.22929e-09
-1.89103e-08
1.21941e-09
-2.01146e-08
1.20423e-09
-2.12985e-08
1.18397e-09
-2.24574e-08
1.15884e-09
-2.35864e-08
1.12906e-09
-2.46813e-08
1.09482e-09
-2.57376e-08
1.05636e-09
-2.67515e-08
1.01388e-09
-2.77191e-08
9.67602e-10
-2.86368e-08
9.17748e-10
-2.95014e-08
8.64533e-10
-3.03096e-08
8.08181e-10
-3.10585e-08
7.48913e-10
-3.17454e-08
6.86945e-10
-3.23679e-08
6.22507e-10
-3.29238e-08
5.55829e-10
-3.34109e-08
4.87131e-10
-3.38275e-08
4.1665e-10
-3.41722e-08
3.44624e-10
-3.44434e-08
2.71282e-10
-3.46403e-08
1.96871e-10
-3.47619e-08
1.21635e-10
-3.48078e-08
4.58145e-11
-3.47774e-08
-3.03391e-11
-3.46709e-08
-1.0657e-10
-3.44882e-08
-1.82624e-10
-3.423e-08
-2.58239e-10
-3.38969e-08
-3.33144e-10
-3.34898e-08
-4.07073e-10
-3.301e-08
-4.79755e-10
-3.24591e-08
-5.50912e-10
-3.18388e-08
-6.20269e-10
-3.11513e-08
-6.8755e-10
-3.03988e-08
-7.5247e-10
-2.95841e-08
-8.14742e-10
-2.871e-08
-8.7409e-10
-2.77798e-08
-9.3023e-10
-2.67969e-08
-9.82871e-10
-2.57652e-08
-1.03173e-09
-2.46886e-08
-1.07654e-09
-2.35716e-08
-1.11704e-09
-2.24186e-08
-1.15295e-09
-2.12346e-08
-1.18399e-09
-2.00247e-08
-1.20994e-09
-1.87942e-08
-1.23053e-09
-1.75486e-08
-1.24553e-09
-1.62939e-08
-1.25471e-09
-1.50361e-08
-1.25787e-09
-1.37812e-08
-1.25481e-09
-1.25359e-08
-1.24535e-09
-1.13066e-08
-1.22932e-09
-1.01e-08
-1.20657e-09
-8.92302e-09
-1.17699e-09
-7.78252e-09
-1.14049e-09
-6.6855e-09
-1.09701e-09
-5.63897e-09
-1.04652e-09
-4.64994e-09
-9.89028e-10
-3.72535e-09
-9.24601e-10
-2.872e-09
-8.53351e-10
-2.09653e-09
-7.75471e-10
-1.40527e-09
-6.91256e-10
-8.04142e-10
-6.01128e-10
-2.98471e-10
-5.05673e-10
1.07251e-10
-4.05718e-10
4.09705e-10
-3.02446e-10
6.07273e-10
-1.97562e-10
7.00868e-10
-9.35929e-11
6.95219e-10
5.64469e-12
6.00969e-10
9.42468e-11
4.37918e-10
1.63051e-10
2.4057e-10
1.97346e-10
6.74694e-11
1.731e-10
6.74686e-11
1.73216e-10
-2.44125e-10
4.7636e-10
-4.76262e-10
7.67541e-10
-4.82063e-10
9.43901e-10
-3.26393e-10
9.33944e-10
-6.56727e-11
6.91842e-10
2.5943e-10
1.90838e-10
6.20597e-10
-5.82145e-10
9.98273e-10
-1.63044e-09
1.37903e-09
-2.95052e-09
1.75356e-09
-4.53389e-09
2.11539e-09
-6.36863e-09
2.45999e-09
-8.44034e-09
2.78418e-09
-1.07329e-08
3.0858e-09
-1.32289e-08
3.36336e-09
-1.59104e-08
3.61593e-09
-1.87588e-08
3.84294e-09
-2.17551e-08
4.04414e-09
-2.48806e-08
4.21953e-09
-2.81164e-08
4.36925e-09
-3.14439e-08
4.4936e-09
-3.48447e-08
4.593e-09
-3.83009e-08
4.66794e-09
-4.17948e-08
4.71899e-09
-4.53092e-08
4.74679e-09
-4.88276e-08
4.752e-09
-5.23336e-08
4.73533e-09
-5.58117e-08
4.69754e-09
-5.92469e-08
4.63938e-09
-6.26246e-08
4.56163e-09
-6.59308e-08
4.46509e-09
-6.91523e-08
4.35057e-09
-7.22764e-08
4.21888e-09
-7.52909e-08
4.07082e-09
-7.81842e-08
3.90724e-09
-8.09456e-08
3.72897e-09
-8.35647e-08
3.53685e-09
-8.60319e-08
3.33172e-09
-8.83381e-08
3.11445e-09
-9.04751e-08
2.88589e-09
-9.24351e-08
2.6469e-09
-9.42109e-08
2.39835e-09
-9.57962e-08
2.14114e-09
-9.71852e-08
1.87613e-09
-9.83728e-08
1.60424e-09
-9.93546e-08
1.32638e-09
-1.00127e-07
1.04348e-09
-1.00686e-07
7.56454e-10
-1.01031e-07
4.66269e-10
-1.01159e-07
1.7388e-10
-1.0107e-07
-1.19751e-10
-1.00763e-07
-4.13636e-10
-1.00238e-07
-7.06771e-10
-9.94985e-08
-9.98147e-10
-9.85449e-08
-1.28674e-09
-9.73805e-08
-1.57149e-09
-9.60089e-08
-1.85136e-09
-9.44346e-08
-2.12528e-09
-9.26626e-08
-2.3922e-09
-9.06992e-08
-2.65102e-09
-8.85509e-08
-2.90067e-09
-8.62256e-08
-3.14007e-09
-8.37316e-08
-3.36813e-09
-8.10781e-08
-3.58376e-09
-7.8275e-08
-3.78588e-09
-7.53334e-08
-3.97344e-09
-7.22646e-08
-4.14536e-09
-6.9081e-08
-4.30061e-09
-6.57957e-08
-4.4382e-09
-6.24226e-08
-4.55713e-09
-5.89761e-08
-4.65644e-09
-5.54714e-08
-4.73521e-09
-5.19244e-08
-4.79256e-09
-4.83514e-08
-4.82767e-09
-4.47695e-08
-4.83976e-09
-4.11962e-08
-4.8281e-09
-3.76495e-08
-4.79207e-09
-3.41477e-08
-4.73108e-09
-3.07096e-08
-4.64467e-09
-2.73542e-08
-4.53243e-09
-2.41005e-08
-4.39411e-09
-2.0968e-08
-4.22956e-09
-1.79757e-08
-4.03882e-09
-1.51427e-08
-3.82206e-09
-1.24876e-08
-3.57968e-09
-1.00286e-08
-3.31235e-09
-7.78298e-09
-3.02105e-09
-5.76702e-09
-2.7072e-09
-3.99544e-09
-2.37272e-09
-2.48087e-09
-2.02024e-09
-1.2332e-09
-1.65339e-09
-2.58506e-10
-1.27714e-09
4.42265e-10
-8.98344e-10
8.75301e-10
-5.26641e-10
1.05662e-09
-1.7568e-10
1.01585e-09
1.35013e-10
8.01345e-10
3.77563e-10
4.86164e-10
5.12528e-10
1.72999e-10
4.86263e-10
2.40469e-10
1.91666e-10
-4.3579e-10
4.8442e-10
-7.69014e-10
7.03631e-10
-7.01278e-10
7.25402e-10
-3.48166e-10
4.59928e-10
1.99801e-10
-1.54089e-10
8.73442e-10
-1.15505e-09
1.62155e-09
-2.56365e-09
2.40688e-09
-4.38712e-09
3.2025e-09
-6.62255e-09
3.98898e-09
-9.25936e-09
4.75221e-09
-1.22814e-08
5.48201e-09
-1.56682e-08
6.17104e-09
-1.93965e-08
6.81405e-09
-2.34405e-08
7.40737e-09
-2.77731e-08
7.94852e-09
-3.23661e-08
8.43591e-09
-3.71906e-08
8.86867e-09
-4.22175e-08
9.24646e-09
-4.74176e-08
9.56937e-09
-5.27619e-08
9.83786e-09
-5.82215e-08
1.00526e-08
-6.37682e-08
1.02146e-08
-6.93741e-08
1.03249e-08
-7.50121e-08
1.03848e-08
-8.06557e-08
1.03956e-08
-8.62792e-08
1.03588e-08
-9.18577e-08
1.02761e-08
-9.73671e-08
1.01488e-08
-1.02784e-07
9.97884e-09
-1.08087e-07
9.76777e-09
-1.13254e-07
9.51736e-09
-1.18264e-07
9.22935e-09
-1.23099e-07
8.90552e-09
-1.27739e-07
8.54769e-09
-1.32168e-07
8.15765e-09
-1.36369e-07
7.73726e-09
-1.40325e-07
7.28836e-09
-1.44024e-07
6.81282e-09
-1.4745e-07
6.31253e-09
-1.50593e-07
5.78938e-09
-1.5344e-07
5.24531e-09
-1.55981e-07
4.68222e-09
-1.58207e-07
4.10211e-09
-1.60109e-07
3.50692e-09
-1.61682e-07
2.89868e-09
-1.62918e-07
2.27942e-09
-1.63812e-07
1.65119e-09
-1.64362e-07
1.01608e-09
-1.64564e-07
3.76187e-10
-1.64418e-07
-2.66336e-10
-1.63922e-07
-9.09334e-10
-1.63078e-07
-1.55061e-09
-1.61889e-07
-2.18794e-09
-1.60356e-07
-2.81906e-09
-1.58486e-07
-3.4417e-09
-1.56284e-07
-4.05356e-09
-1.53757e-07
-4.6523e-09
-1.50913e-07
-5.23561e-09
-1.47763e-07
-5.80112e-09
-1.44317e-07
-6.34647e-09
-1.40588e-07
-6.86931e-09
-1.36589e-07
-7.36726e-09
-1.32335e-07
-7.83798e-09
-1.27842e-07
-8.27912e-09
-1.23127e-07
-8.68837e-09
-1.18209e-07
-9.06345e-09
-1.13107e-07
-9.40213e-09
-1.07843e-07
-9.70222e-09
-1.02439e-07
-9.96159e-09
-9.69169e-08
-1.01782e-08
-9.1302e-08
-1.03501e-08
-8.56192e-08
-1.04754e-08
-7.98946e-08
-1.05523e-08
-7.41551e-08
-1.05792e-08
-6.84285e-08
-1.05547e-08
-6.27432e-08
-1.04774e-08
-5.71282e-08
-1.03461e-08
-5.16129e-08
-1.01599e-08
-4.62272e-08
-9.91818e-09
-4.10009e-08
-9.62041e-09
-3.5964e-08
-9.26646e-09
-3.11462e-08
-8.85655e-09
-2.6577e-08
-8.39132e-09
-2.22847e-08
-7.8719e-09
-1.82971e-08
-7.30002e-09
-1.464e-08
-6.67816e-09
-1.13374e-08
-6.00974e-09
-8.41075e-09
-5.29936e-09
-5.87777e-09
-4.55321e-09
-3.75163e-09
-3.77953e-09
-2.03942e-09
-2.98934e-09
-7.40314e-10
-2.19745e-09
1.56911e-10
-1.42387e-09
6.77025e-10
-6.95802e-10
8.62323e-10
-5.02946e-11
7.77445e-10
4.62442e-10
5.14466e-10
7.75513e-10
1.97813e-10
8.02921e-10
4.38283e-10
1.52501e-10
-5.88299e-10
3.33785e-10
-9.50291e-10
3.59455e-10
-7.2695e-10
9.73919e-11
-8.61008e-11
-5.49461e-10
8.4666e-10
-1.64934e-09
1.97334e-09
-3.24667e-09
3.21887e-09
-5.36654e-09
4.52675e-09
-8.01869e-09
5.85465e-09
-1.12007e-08
7.17098e-09
-1.49007e-08
8.45217e-09
-1.90993e-08
9.68068e-09
-2.37718e-08
1.08436e-08
-2.88891e-08
1.19313e-08
-3.44188e-08
1.29371e-08
-4.03264e-08
1.38561e-08
-4.65757e-08
1.46851e-08
-5.31292e-08
1.54222e-08
-5.99491e-08
1.60664e-08
-6.69972e-08
1.66175e-08
-7.42353e-08
1.70759e-08
-8.16253e-08
1.74426e-08
-8.91297e-08
1.7719e-08
-9.67117e-08
1.79069e-08
-1.04335e-07
1.80081e-08
-1.11964e-07
1.8025e-08
-1.19565e-07
1.79599e-08
-1.27105e-07
1.78153e-08
-1.3455e-07
1.75941e-08
-1.4187e-07
1.72989e-08
-1.49035e-07
1.69326e-08
-1.56016e-07
1.64983e-08
-1.62785e-07
1.59988e-08
-1.69317e-07
1.54372e-08
-1.75586e-07
1.48167e-08
-1.81569e-07
1.41403e-08
-1.87243e-07
1.34113e-08
-1.92587e-07
1.26328e-08
-1.97582e-07
1.18081e-08
-2.0221e-07
1.09404e-08
-2.06454e-07
1.00331e-08
-2.10298e-07
9.08947e-09
-2.13729e-07
8.11289e-09
-2.16733e-07
7.10678e-09
-2.19301e-07
6.07458e-09
-2.21422e-07
5.01978e-09
-2.23089e-07
3.9459e-09
-2.24294e-07
2.85655e-09
-2.25033e-07
1.75533e-09
-2.25303e-07
6.45925e-10
-2.25101e-07
-4.67954e-10
-2.24428e-07
-1.58253e-09
-2.23285e-07
-2.69399e-09
-2.21674e-07
-3.79848e-09
-2.19601e-07
-4.89208e-09
-2.17072e-07
-5.97084e-09
-2.14095e-07
-7.03076e-09
-2.10679e-07
-8.06785e-09
-2.06837e-07
-9.07803e-09
-2.02581e-07
-1.00572e-08
-1.97926e-07
-1.10014e-08
-1.92889e-07
-1.19065e-08
-1.87488e-07
-1.27684e-08
-1.81743e-07
-1.3583e-08
-1.75675e-07
-1.43463e-08
-1.69309e-07
-1.50545e-08
-1.62669e-07
-1.57034e-08
-1.55782e-07
-1.62894e-08
-1.48676e-07
-1.68087e-08
-1.41379e-07
-1.72577e-08
-1.33925e-07
-1.76328e-08
-1.26344e-07
-1.79308e-08
-1.18671e-07
-1.81484e-08
-1.1094e-07
-1.82829e-08
-1.03188e-07
-1.83313e-08
-9.54517e-08
-1.82913e-08
-8.77684e-08
-1.81607e-08
-8.01769e-08
-1.79376e-08
-7.27161e-08
-1.76207e-08
-6.54255e-08
-1.72088e-08
-5.83445e-08
-1.67014e-08
-5.15124e-08
-1.60986e-08
-4.49681e-08
-1.54008e-08
-3.87498e-08
-1.46097e-08
-3.28943e-08
-1.37273e-08
-2.74372e-08
-1.27572e-08
-2.24114e-08
-1.1704e-08
-1.78471e-08
-1.0574e-08
-1.37709e-08
-9.37555e-09
-1.02044e-08
-8.11974e-09
-7.16304e-09
-6.82092e-09
-4.65446e-09
-5.49791e-09
-2.6765e-09
-4.1754e-09
-1.21459e-09
-2.88578e-09
-2.38688e-10
-1.67171e-09
3.003e-10
-5.89289e-10
4.74799e-10
2.87946e-10
3.85093e-10
8.65231e-10
1.65223e-10
1.0228e-09
6.03507e-10
8.05507e-11
-6.68856e-10
8.01884e-11
-9.49935e-10
-1.76091e-10
-4.70673e-10
-8.17717e-10
5.55526e-10
-1.94117e-09
1.97012e-09
-3.61549e-09
3.64767e-09
-5.88649e-09
5.48988e-09
-8.78061e-09
7.42086e-09
-1.23082e-08
9.38224e-09
-1.64665e-08
1.13293e-08
-2.12422e-08
1.32278e-08
-2.66134e-08
1.50519e-08
-3.25516e-08
1.67817e-08
-3.9023e-08
1.84027e-08
-4.59899e-08
1.9904e-08
-5.34114e-08
2.12777e-08
-6.12447e-08
2.25184e-08
-6.94451e-08
2.36226e-08
-7.7967e-08
2.45884e-08
-8.67646e-08
2.5415e-08
-9.57914e-08
2.61027e-08
-1.05001e-07
2.66526e-08
-1.14349e-07
2.70665e-08
-1.23789e-07
2.73468e-08
-1.33277e-07
2.74961e-08
-1.42769e-07
2.75178e-08
-1.52225e-07
2.74152e-08
-1.61602e-07
2.71921e-08
-1.7086e-07
2.68524e-08
-1.79961e-07
2.64004e-08
-1.88869e-07
2.58403e-08
-1.97547e-07
2.51764e-08
-2.05962e-07
2.44133e-08
-2.1408e-07
2.35556e-08
-2.21871e-07
2.26081e-08
-2.29306e-07
2.15753e-08
-2.36357e-07
2.04622e-08
-2.42998e-07
1.92737e-08
-2.49205e-07
1.80146e-08
-2.54954e-07
1.669e-08
-2.60226e-07
1.53049e-08
-2.65001e-07
1.38644e-08
-2.69262e-07
1.23736e-08
-2.72993e-07
1.08378e-08
-2.7618e-07
9.26221e-09
-2.78813e-07
7.65223e-09
-2.8088e-07
6.01325e-09
-2.82374e-07
4.35072e-09
-2.83289e-07
2.67021e-09
-2.83621e-07
9.77334e-10
-2.83366e-07
-7.22224e-10
-2.82526e-07
-2.4227e-09
-2.81102e-07
-4.11827e-09
-2.79097e-07
-5.80302e-09
-2.76519e-07
-7.47098e-09
-2.73373e-07
-9.11615e-09
-2.69672e-07
-1.07324e-08
-2.65426e-07
-1.23137e-08
-2.6065e-07
-1.38538e-08
-2.55361e-07
-1.53465e-08
-2.49576e-07
-1.67857e-08
-2.43318e-07
-1.81651e-08
-2.36608e-07
-1.94786e-08
-2.29471e-07
-2.07201e-08
-2.21934e-07
-2.18833e-08
-2.14026e-07
-2.29625e-08
-2.05777e-07
-2.39516e-08
-1.97222e-07
-2.48448e-08
-1.88394e-07
-2.56366e-08
-1.7933e-07
-2.63216e-08
-1.70069e-07
-2.68944e-08
-1.60649e-07
-2.73501e-08
-1.51114e-07
-2.7684e-08
-1.41505e-07
-2.78918e-08
-1.31867e-07
-2.79694e-08
-1.22245e-07
-2.79133e-08
-1.12685e-07
-2.77204e-08
-1.03235e-07
-2.7388e-08
-9.39411e-08
-2.69142e-08
-8.48523e-08
-2.62976e-08
-7.60161e-08
-2.55376e-08
-6.748e-08
-2.46346e-08
-5.92909e-08
-2.35899e-08
-5.14945e-08
-2.2406e-08
-4.4135e-08
-2.10868e-08
-3.72543e-08
-1.96379e-08
-3.08915e-08
-1.80668e-08
-2.5082e-08
-1.63835e-08
-1.98564e-08
-1.46011e-08
-1.52396e-08
-1.27365e-08
-1.12492e-08
-1.08114e-08
-7.89353e-09
-8.85355e-09
-5.17021e-09
-6.89872e-09
-3.0633e-09
-4.9927e-09
-1.54076e-09
-3.19426e-09
-5.51276e-10
-1.57878e-09
-2.07337e-11
-2.42592e-10
1.51792e-10
6.92713e-10
9.93399e-11
1.07525e-09
7.02849e-10
-9.51724e-12
-6.5934e-10
-2.36962e-10
-7.22493e-10
-8.36585e-10
1.28948e-10
-1.92682e-09
1.64576e-09
-3.59749e-09
3.64079e-09
-5.91367e-09
5.96384e-09
-8.91886e-09
8.49508e-09
-1.2638e-08
1.114e-08
-1.70802e-08
1.38244e-08
-2.22412e-08
1.64903e-08
-2.81056e-08
1.90922e-08
-3.46489e-08
2.15952e-08
-4.18392e-08
2.3972e-08
-4.96387e-08
2.62022e-08
-5.80047e-08
2.82701e-08
-6.68914e-08
3.01643e-08
-7.62497e-08
3.18767e-08
-8.60289e-08
3.34018e-08
-9.61769e-08
3.47363e-08
-1.06641e-07
3.58787e-08
-1.17367e-07
3.68289e-08
-1.28302e-07
3.7588e-08
-1.39394e-07
3.81582e-08
-1.50589e-07
3.85422e-08
-1.61837e-07
3.87438e-08
-1.73087e-07
3.87671e-08
-1.84288e-07
3.86168e-08
-1.95394e-07
3.82979e-08
-2.06357e-07
3.78157e-08
-2.17133e-07
3.71761e-08
-2.27677e-07
3.63847e-08
-2.37949e-07
3.54478e-08
-2.47907e-07
3.43716e-08
-2.57514e-07
3.31625e-08
-2.66733e-07
3.1827e-08
-2.75529e-07
3.03718e-08
-2.83871e-07
2.88036e-08
-2.91726e-07
2.71293e-08
-2.99067e-07
2.53557e-08
-3.05867e-07
2.349e-08
-3.12102e-07
2.15392e-08
-3.17748e-07
1.95104e-08
-3.22785e-07
1.7411e-08
-3.27196e-07
1.52482e-08
-3.30963e-07
1.30296e-08
-3.34074e-07
1.07627e-08
-3.36515e-07
8.45509e-09
-3.38279e-07
6.11447e-09
-3.39358e-07
3.74869e-09
-3.39746e-07
1.36567e-09
-3.39442e-07
-1.02657e-09
-3.38444e-07
-3.41992e-09
-3.36756e-07
-5.80616e-09
-3.34383e-07
-8.17698e-09
-3.3133e-07
-1.0524e-08
-3.27607e-07
-1.28387e-08
-3.23227e-07
-1.51126e-08
-3.18203e-07
-1.73371e-08
-3.12554e-07
-1.95035e-08
-3.06297e-07
-2.16031e-08
-2.99455e-07
-2.36273e-08
-2.92053e-07
-2.55674e-08
-2.84117e-07
-2.74148e-08
-2.75676e-07
-2.91608e-08
-2.66762e-07
-3.0797e-08
-2.5741e-07
-3.23151e-08
-2.47655e-07
-3.37067e-08
-2.37536e-07
-3.49638e-08
-2.27094e-07
-3.60787e-08
-2.16371e-07
-3.70438e-08
-2.05414e-07
-3.78519e-08
-1.94268e-07
-3.84962e-08
-1.82982e-07
-3.89701e-08
-1.71606e-07
-3.92678e-08
-1.60191e-07
-3.93837e-08
-1.48791e-07
-3.93131e-08
-1.3746e-07
-3.90518e-08
-1.26252e-07
-3.85965e-08
-1.15221e-07
-3.79445e-08
-1.04425e-07
-3.70943e-08
-9.39168e-08
-3.60455e-08
-8.37526e-08
-3.47988e-08
-7.39859e-08
-3.33567e-08
-6.4669e-08
-3.17229e-08
-5.58525e-08
-2.99034e-08
-4.75839e-08
-2.79065e-08
-3.99076e-08
-2.57431e-08
-3.28634e-08
-2.34277e-08
-2.64857e-08
-2.09788e-08
-2.08025e-08
-1.84198e-08
-1.58334e-08
-1.57805e-08
-1.15885e-08
-1.30984e-08
-8.06627e-09
-1.04209e-08
-5.25151e-09
-7.80746e-09
-3.11296e-09
-5.33282e-09
-1.60081e-09
-3.09093e-09
-6.43915e-10
-1.19949e-09
-1.46704e-10
1.95505e-10
1.46865e-11
9.13864e-10
7.17537e-10
-1.08932e-10
-5.50412e-10
-5.91017e-10
-2.40408e-10
-1.57432e-09
1.11225e-09
-3.16085e-09
3.23229e-09
-5.4293e-09
5.90925e-09
-8.43709e-09
8.97162e-09
-1.22224e-08
1.22803e-08
-1.68062e-08
1.57238e-08
-2.21944e-08
1.92127e-08
-2.83802e-08
2.2676e-08
-3.53451e-08
2.60572e-08
-4.30618e-08
2.93118e-08
-5.14948e-08
3.2405e-08
-6.06025e-08
3.53098e-08
-7.0338e-08
3.80056e-08
-8.06504e-08
4.04767e-08
-9.14858e-08
4.2712e-08
-1.02788e-07
4.47037e-08
-1.14498e-07
4.64469e-08
-1.26558e-07
4.79388e-08
-1.38908e-07
4.9179e-08
-1.51489e-07
5.01683e-08
-1.6424e-07
5.09092e-08
-1.77103e-07
5.1405e-08
-1.90019e-07
5.16603e-08
-2.02932e-07
5.16801e-08
-2.15786e-07
5.14704e-08
-2.28526e-07
5.10378e-08
-2.41099e-07
5.03889e-08
-2.53454e-07
4.95313e-08
-2.65542e-07
4.84726e-08
-2.77315e-07
4.72207e-08
-2.88727e-07
4.57839e-08
-2.99735e-07
4.41706e-08
-3.10298e-07
4.23893e-08
-3.20375e-07
4.04489e-08
-3.29929e-07
3.83584e-08
-3.38927e-07
3.61267e-08
-3.47334e-07
3.37631e-08
-3.55121e-07
3.12768e-08
-3.62259e-07
2.86775e-08
-3.68723e-07
2.59745e-08
-3.7449e-07
2.31775e-08
-3.79538e-07
2.02964e-08
-3.8385e-07
1.73411e-08
-3.87409e-07
1.43217e-08
-3.90202e-07
1.12482e-08
-3.92218e-07
8.13094e-09
-3.9345e-07
4.98041e-09
-3.93891e-07
1.80714e-09
-3.9354e-07
-1.37819e-09
-3.92395e-07
-4.56477e-09
-3.90459e-07
-7.74167e-09
-3.87739e-07
-1.08978e-08
-3.8424e-07
-1.40221e-08
-3.79976e-07
-1.71032e-08
-3.74959e-07
-2.01298e-08
-3.69206e-07
-2.30904e-08
-3.62735e-07
-2.59736e-08
-3.55571e-07
-2.87679e-08
-3.47736e-07
-3.14618e-08
-3.3926e-07
-3.40438e-08
-3.30172e-07
-3.65025e-08
-3.20506e-07
-3.88265e-08
-3.10299e-07
-4.10045e-08
-2.99588e-07
-4.30257e-08
-2.88416e-07
-4.4879e-08
-2.76826e-07
-4.6554e-08
-2.64864e-07
-4.80405e-08
-2.52579e-07
-4.93284e-08
-2.40023e-07
-5.04084e-08
-2.27248e-07
-5.12715e-08
-2.14308e-07
-5.19094e-08
-2.01262e-07
-5.23143e-08
-1.88166e-07
-5.24792e-08
-1.75082e-07
-5.23979e-08
-1.62068e-07
-5.20653e-08
-1.49188e-07
-5.1477e-08
-1.36502e-07
-5.06302e-08
-1.24073e-07
-4.95229e-08
-1.11963e-07
-4.81552e-08
-1.00234e-07
-4.65283e-08
-8.89447e-08
-4.46459e-08
-7.81541e-08
-4.25135e-08
-6.7918e-08
-4.01395e-08
-5.82892e-08
-3.75352e-08
-4.93167e-08
-3.47156e-08
-4.10446e-08
-3.16999e-08
-3.35109e-08
-2.85125e-08
-2.67466e-08
-2.5184e-08
-2.07742e-08
-2.17529e-08
-1.56062e-08
-1.82665e-08
-1.12432e-08
-1.47839e-08
-7.67271e-09
-1.1378e-08
-4.86664e-09
-8.1389e-09
-2.77971e-09
-5.17786e-09
-1.34738e-09
-2.63182e-09
-4.83833e-10
-6.68028e-10
-7.99316e-11
5.09961e-10
6.37605e-10
-2.12385e-10
-3.38034e-10
-9.64338e-10
5.11525e-10
-2.35603e-09
2.50394e-09
-4.46999e-09
5.34624e-09
-7.37075e-09
8.81001e-09
-1.11053e-08
1.27062e-08
-1.57041e-08
1.68791e-08
-2.11821e-08
2.12018e-08
-2.75406e-08
2.55712e-08
-3.47684e-08
2.99038e-08
-4.28437e-08
3.41325e-08
-5.17353e-08
3.82034e-08
-6.14042e-08
4.20739e-08
-7.18047e-08
4.57104e-08
-8.28859e-08
4.90868e-08
-9.45924e-08
5.21832e-08
-1.06865e-07
5.49851e-08
-1.19644e-07
5.7482e-08
-1.32864e-07
5.96671e-08
-1.46462e-07
6.15365e-08
-1.60372e-07
6.30889e-08
-1.74528e-07
6.43249e-08
-1.88866e-07
6.52471e-08
-2.03321e-07
6.58594e-08
-2.17827e-07
6.6167e-08
-2.32323e-07
6.61762e-08
-2.46747e-07
6.58942e-08
-2.61038e-07
6.53289e-08
-2.75138e-07
6.44889e-08
-2.8899e-07
6.33834e-08
-3.0254e-07
6.20218e-08
-3.15733e-07
6.04142e-08
-3.2852e-07
5.8571e-08
-3.40852e-07
5.65028e-08
-3.52683e-07
5.42204e-08
-3.6397e-07
5.17351e-08
-3.7467e-07
4.90582e-08
-3.84744e-07
4.62012e-08
-3.94157e-07
4.31759e-08
-4.02874e-07
3.99941e-08
-4.10865e-07
3.66679e-08
-4.181e-07
3.32094e-08
-4.24553e-07
2.96311e-08
-4.30202e-07
2.59455e-08
-4.35026e-07
2.21651e-08
-4.39008e-07
1.8303e-08
-4.42131e-07
1.43721e-08
-4.44386e-07
1.03855e-08
-4.45762e-07
6.35659e-09
-4.46254e-07
2.29885e-09
-4.45858e-07
-1.77405e-09
-4.44574e-07
-5.84832e-09
-4.42406e-07
-9.90997e-09
-4.39359e-07
-1.39449e-08
-4.35442e-07
-1.79388e-08
-4.30668e-07
-2.18774e-08
-4.25052e-07
-2.57462e-08
-4.18611e-07
-2.95306e-08
-4.11369e-07
-3.32161e-08
-4.03349e-07
-3.67879e-08
-3.94579e-07
-4.02314e-08
-3.85091e-07
-4.35321e-08
-3.74918e-07
-4.66753e-08
-3.64098e-07
-4.96468e-08
-3.5267e-07
-5.24323e-08
-3.40678e-07
-5.50177e-08
-3.28168e-07
-5.73895e-08
-3.15188e-07
-5.95341e-08
-3.01789e-07
-6.14388e-08
-2.88027e-07
-6.3091e-08
-2.73956e-07
-6.44788e-08
-2.59637e-07
-6.5591e-08
-2.45129e-07
-6.64172e-08
-2.30495e-07
-6.69478e-08
-2.15801e-07
-6.7174e-08
-2.0111e-07
-6.70883e-08
-1.86491e-07
-6.66843e-08
-1.72011e-07
-6.59569e-08
-1.57739e-07
-6.49027e-08
-1.43742e-07
-6.352e-08
-1.30088e-07
-6.18087e-08
-1.16845e-07
-5.97714e-08
-1.04078e-07
-5.74127e-08
-9.18515e-08
-5.47404e-08
-8.02256e-08
-5.17655e-08
-6.92582e-08
-4.85026e-08
-5.90026e-08
-4.49711e-08
-4.95071e-08
-4.11954e-08
-4.08133e-08
-3.72062e-08
-3.29559e-08
-3.30415e-08
-2.59605e-08
-2.87483e-08
-1.9843e-08
-2.4384e-08
-1.46077e-08
-2.00191e-08
-1.02462e-08
-1.57395e-08
-6.73579e-09
-1.16494e-08
-4.038e-09
-7.87564e-09
-2.09767e-09
-4.57214e-09
-8.41792e-10
-1.92389e-09
-1.79099e-10
-1.52732e-10
4.58503e-10
-3.16722e-10
-2.13102e-11
-1.34548e-09
1.54027e-09
-3.15895e-09
4.31741e-09
-5.8189e-09
8.00619e-09
-9.37389e-09
1.2365e-08
-1.38586e-08
1.71909e-08
-1.92938e-08
2.23143e-08
-2.56869e-08
2.75949e-08
-3.3033e-08
3.29173e-08
-4.13157e-08
3.81865e-08
-5.05086e-08
4.33253e-08
-6.05761e-08
4.8271e-08
-7.14753e-08
5.29731e-08
-8.31563e-08
5.73914e-08
-9.5564e-08
6.14945e-08
-1.08639e-07
6.5258e-08
-1.22317e-07
6.86637e-08
-1.36534e-07
7.16983e-08
-1.5122e-07
7.43531e-08
-1.66306e-07
7.66226e-08
-1.81721e-07
7.85046e-08
-1.97396e-07
7.99996e-08
-2.13259e-07
8.11101e-08
-2.2924e-07
8.18404e-08
-2.4527e-07
8.21966e-08
-2.61279e-07
8.2186e-08
-2.77202e-07
8.18172e-08
-2.92973e-07
8.10995e-08
-3.08527e-07
8.00433e-08
-3.23804e-07
7.86597e-08
-3.38742e-07
7.69603e-08
-3.53285e-07
7.49573e-08
-3.67378e-07
7.26632e-08
-3.80966e-07
7.00912e-08
-3.94e-07
6.72546e-08
-4.06432e-07
6.41672e-08
-4.18217e-07
6.08428e-08
-4.29311e-07
5.72958e-08
-4.39676e-07
5.35406e-08
-4.49274e-07
4.95918e-08
-4.5807e-07
4.54645e-08
-4.66035e-07
4.11736e-08
-4.73138e-07
3.67345e-08
-4.79355e-07
3.21627e-08
-4.84664e-07
2.74739e-08
-4.89045e-07
2.2684e-08
-4.92482e-07
1.78091e-08
-4.94962e-07
1.28656e-08
-4.96475e-07
7.86989e-09
-4.97015e-07
2.83874e-09
-4.96578e-07
-2.21094e-09
-4.95165e-07
-7.26204e-09
-4.92777e-07
-1.22973e-08
-4.89423e-07
-1.72992e-08
-4.85112e-07
-2.22502e-08
-4.79857e-07
-2.71324e-08
-4.73675e-07
-3.1928e-08
-4.66587e-07
-3.66191e-08
-4.58615e-07
-4.11876e-08
-4.49788e-07
-4.56153e-08
-4.40135e-07
-4.98843e-08
-4.2969e-07
-5.39766e-08
-4.18491e-07
-5.78743e-08
-4.06578e-07
-6.15596e-08
-3.93995e-07
-6.50152e-08
-3.8079e-07
-6.82236e-08
-3.67011e-07
-7.11683e-08
-3.52712e-07
-7.38327e-08
-3.3795e-07
-7.6201e-08
-3.22783e-07
-7.8258e-08
-3.07272e-07
-7.99893e-08
-2.91482e-07
-8.13811e-08
-2.75479e-07
-8.24207e-08
-2.5933e-07
-8.30965e-08
-2.43106e-07
-8.33981e-08
-2.26878e-07
-8.33164e-08
-2.10718e-07
-8.28439e-08
-1.94701e-07
-8.19746e-08
-1.78899e-07
-8.07047e-08
-1.63386e-07
-7.90323e-08
-1.48237e-07
-7.69581e-08
-1.33523e-07
-7.44854e-08
-1.19315e-07
-7.16204e-08
-1.05682e-07
-6.83732e-08
-9.26902e-08
-6.47575e-08
-8.0401e-08
-6.07918e-08
-6.88724e-08
-5.64997e-08
-5.81566e-08
-5.19112e-08
-4.82994e-08
-4.70634e-08
-3.93392e-08
-4.20017e-08
-3.13059e-08
-3.67816e-08
-2.42195e-08
-3.14705e-08
-1.8089e-08
-2.61496e-08
-1.29119e-08
-2.09167e-08
-8.67205e-09
-1.58892e-08
-5.33999e-09
-1.12077e-08
-2.87171e-09
-7.04042e-09
-1.20889e-09
-3.5867e-09
-2.79551e-10
-1.08207e-09
1.78951e-10
-4.20086e-10
3.98768e-10
-1.72713e-09
2.8473e-09
-3.96782e-09
6.5581e-09
-7.18299e-09
1.12214e-08
-1.14044e-08
1.65864e-08
-1.66532e-08
2.24397e-08
-2.29392e-08
2.86003e-08
-3.0261e-08
3.49167e-08
-3.86062e-08
4.12625e-08
-4.79523e-08
4.75326e-08
-5.82672e-08
5.36403e-08
-6.95107e-08
5.95145e-08
-8.16352e-08
6.50975e-08
-9.45864e-08
7.03426e-08
-1.08305e-07
7.5213e-08
-1.22727e-07
7.96798e-08
-1.37784e-07
8.37211e-08
-1.53407e-07
8.73208e-08
-1.69521e-07
9.0468e-08
-1.86055e-07
9.31557e-08
-2.02931e-07
9.53808e-08
-2.20074e-07
9.71433e-08
-2.3741e-07
9.84456e-08
-2.54862e-07
9.92926e-08
-2.72357e-07
9.96912e-08
-2.8982e-07
9.96497e-08
-3.07181e-07
9.9178e-08
-3.24369e-07
9.82871e-08
-3.41315e-07
9.69892e-08
-3.57952e-07
9.52974e-08
-3.74218e-07
9.32255e-08
-3.90048e-07
9.07878e-08
-4.05385e-07
8.79996e-08
-4.2017e-07
8.48764e-08
-4.34349e-07
8.14342e-08
-4.47872e-07
7.76895e-08
-4.60688e-07
7.36591e-08
-4.72752e-07
6.93601e-08
-4.84022e-07
6.48099e-08
-4.94456e-07
6.00261e-08
-5.04018e-07
5.50269e-08
-5.12675e-07
4.98304e-08
-5.20396e-07
4.44551e-08
-5.27153e-07
3.89197e-08
-5.32922e-07
3.32432e-08
-5.37683e-07
2.74448e-08
-5.41418e-07
2.15441e-08
-5.44113e-07
1.55606e-08
-5.45757e-07
9.51433e-09
-5.46344e-07
3.42554e-09
-5.45869e-07
-2.68538e-09
-5.44334e-07
-8.79776e-09
-5.4174e-07
-1.48907e-08
-5.38096e-07
-2.09433e-08
-5.33412e-07
-2.6934e-08
-5.27703e-07
-3.28416e-08
-5.20987e-07
-3.86445e-08
-5.13285e-07
-4.43209e-08
-5.04623e-07
-4.98493e-08
-4.95031e-07
-5.52077e-08
-4.84541e-07
-6.03746e-08
-4.73189e-07
-6.53282e-08
-4.61016e-07
-7.0047e-08
-4.48066e-07
-7.45099e-08
-4.34386e-07
-7.86957e-08
-4.20025e-07
-8.25838e-08
-4.0504e-07
-8.61542e-08
-3.89485e-07
-8.93871e-08
-3.73422e-07
-9.22637e-08
-3.56915e-07
-9.47657e-08
-3.40028e-07
-9.68759e-08
-3.22831e-07
-9.8578e-08
-3.05395e-07
-9.9857e-08
-2.87792e-07
-1.00699e-07
-2.70098e-07
-1.01092e-07
-2.5239e-07
-1.01025e-07
-2.34744e-07
-1.00489e-07
-2.1724e-07
-9.94786e-08
-1.99957e-07
-9.79881e-08
-1.82973e-07
-9.60161e-08
-1.66368e-07
-9.35638e-08
-1.50217e-07
-9.06356e-08
-1.34598e-07
-8.72395e-08
-1.19584e-07
-8.33876e-08
-1.05244e-07
-7.90969e-08
-9.16468e-08
-7.43895e-08
-7.88529e-08
-6.92936e-08
-6.69193e-08
-6.38448e-08
-5.58962e-08
-5.80864e-08
-4.58265e-08
-5.20714e-08
-3.67445e-08
-4.58636e-08
-2.86755e-08
-3.95395e-08
-2.16345e-08
-3.31906e-08
-1.56254e-08
-2.69257e-08
-1.06407e-08
-2.08739e-08
-6.66066e-09
-1.51877e-08
-3.65387e-09
-1.00472e-08
-1.57759e-09
-5.66298e-09
-3.79344e-10
-2.28031e-09
-2.00394e-10
-5.21438e-10
9.20201e-10
-2.10475e-09
4.4306e-09
-4.77259e-09
9.22594e-09
-8.54551e-09
1.49943e-08
-1.34383e-08
2.14792e-08
-1.94578e-08
2.84592e-08
-2.66022e-08
3.57447e-08
-3.48601e-08
4.31747e-08
-4.4211e-08
5.06133e-08
-5.4625e-08
5.79466e-08
-6.60641e-08
6.50794e-08
-7.84823e-08
7.19328e-08
-9.18271e-08
7.84422e-08
-1.06039e-07
8.4555e-08
-1.21055e-07
9.02289e-08
-1.36806e-07
9.54308e-08
-1.5322e-07
1.00135e-07
-1.70223e-07
1.04323e-07
-1.87736e-07
1.07981e-07
-2.05682e-07
1.11101e-07
-2.2398e-07
1.13679e-07
-2.42551e-07
1.15714e-07
-2.61314e-07
1.17209e-07
-2.80191e-07
1.18169e-07
-2.99101e-07
1.18601e-07
-3.17967e-07
1.18516e-07
-3.36713e-07
1.17924e-07
-3.55264e-07
1.16838e-07
-3.73547e-07
1.15272e-07
-3.91492e-07
1.13242e-07
-4.09029e-07
1.10763e-07
-4.26093e-07
1.07852e-07
-4.42621e-07
1.04527e-07
-4.58551e-07
1.00806e-07
-4.73825e-07
9.67088e-08
-4.88389e-07
9.22536e-08
-5.02191e-07
8.74606e-08
-5.15181e-07
8.235e-08
-5.27313e-07
7.69423e-08
-5.38546e-07
7.12585e-08
-5.48839e-07
6.53199e-08
-5.58156e-07
5.91479e-08
-5.66465e-07
5.27644e-08
-5.73737e-07
4.61917e-08
-5.79946e-07
3.94521e-08
-5.8507e-07
3.25685e-08
-5.8909e-07
2.55638e-08
-5.91991e-07
1.84615e-08
-5.93762e-07
1.12852e-08
-5.94395e-07
4.05873e-09
-5.93886e-07
-3.1937e-09
-5.92237e-07
-1.04476e-08
-5.89449e-07
-1.76784e-08
-5.85531e-07
-2.4861e-08
-5.80495e-07
-3.19703e-08
-5.74355e-07
-3.8981e-08
-5.67132e-07
-4.58677e-08
-5.58848e-07
-5.26047e-08
-5.49531e-07
-5.91663e-08
-5.39212e-07
-6.5527e-08
-5.27926e-07
-7.16609e-08
-5.15711e-07
-7.75428e-08
-5.02611e-07
-8.31471e-08
-4.88672e-07
-8.84488e-08
-4.73945e-07
-9.34232e-08
-4.58482e-07
-9.80461e-08
-4.42343e-07
-1.02294e-07
-4.25587e-07
-1.06143e-07
-4.08279e-07
-1.09572e-07
-3.90486e-07
-1.12559e-07
-3.72279e-07
-1.15083e-07
-3.53729e-07
-1.17127e-07
-3.34914e-07
-1.18673e-07
-3.1591e-07
-1.19703e-07
-2.96797e-07
-1.20205e-07
-2.77656e-07
-1.20166e-07
-2.58571e-07
-1.19575e-07
-2.39623e-07
-1.18426e-07
-2.20898e-07
-1.16713e-07
-2.02479e-07
-1.14435e-07
-1.8445e-07
-1.11594e-07
-1.66891e-07
-1.08194e-07
-1.49885e-07
-1.04246e-07
-1.33508e-07
-9.97642e-08
-1.17837e-07
-9.47686e-08
-1.02941e-07
-8.92851e-08
-8.8888e-08
-8.33466e-08
-7.57389e-08
-7.69939e-08
-6.35485e-08
-7.02768e-08
-5.23646e-08
-6.32553e-08
-4.2227e-08
-5.60012e-08
-3.31668e-08
-4.85997e-08
-2.52056e-08
-4.11517e-08
-1.83553e-08
-3.37761e-08
-1.26173e-08
-2.66119e-08
-7.98291e-09
-1.98221e-08
-4.43384e-09
-1.35963e-08
-1.94315e-09
-8.15366e-09
-4.77359e-10
-3.74609e-09
-6.77753e-10
-6.2021e-10
1.54042e-09
-2.47561e-09
6.28598e-09
-5.56693e-09
1.23173e-08
-9.89541e-09
1.93228e-08
-1.54591e-08
2.70428e-08
-2.22505e-08
3.52507e-08
-3.02555e-08
4.37497e-08
-3.94523e-08
5.23714e-08
-4.98111e-08
6.09721e-08
-6.12944e-08
6.943e-08
-7.38574e-08
7.76423e-08
-8.7448e-08
8.55234e-08
-1.02008e-07
9.30021e-08
-1.17473e-07
1.0002e-07
-1.33775e-07
1.06531e-07
-1.5084e-07
1.12496e-07
-1.68593e-07
1.17887e-07
-1.86952e-07
1.22683e-07
-2.05838e-07
1.26867e-07
-2.25168e-07
1.30431e-07
-2.44856e-07
1.33368e-07
-2.6482e-07
1.35678e-07
-2.84973e-07
1.37363e-07
-3.05234e-07
1.38429e-07
-3.25518e-07
1.38885e-07
-3.45743e-07
1.38741e-07
-3.65829e-07
1.3801e-07
-3.85698e-07
1.36706e-07
-4.05271e-07
1.34846e-07
-4.24475e-07
1.32446e-07
-4.43237e-07
1.29525e-07
-4.61488e-07
1.26103e-07
-4.79161e-07
1.22199e-07
-4.9619e-07
1.17836e-07
-5.12516e-07
1.13034e-07
-5.28079e-07
1.07817e-07
-5.42826e-07
1.02207e-07
-5.56703e-07
9.62272e-08
-5.69663e-07
8.9902e-08
-5.8166e-07
8.32555e-08
-5.92652e-07
7.63126e-08
-6.02603e-07
6.90982e-08
-6.11476e-07
6.16378e-08
-6.19241e-07
5.39572e-08
-6.25872e-07
4.60826e-08
-6.31344e-07
3.80404e-08
-6.35638e-07
2.98576e-08
-6.38737e-07
2.15613e-08
-6.40631e-07
1.3179e-08
-6.41311e-07
4.73849e-09
-6.40773e-07
-3.73199e-09
-6.39016e-07
-1.2204e-08
-6.36046e-07
-2.06488e-08
-6.31869e-07
-2.90375e-08
-6.26499e-07
-3.73406e-08
-6.19951e-07
-4.55289e-08
-6.12246e-07
-5.35726e-08
-6.03409e-07