/*--------------------------------*- C++ -*----------------------------------*\
| =========                 |                                                 |
| \\      /  F ield         | OpenFOAM: The Open Source CFD Toolbox           |
|  \\    /   O peration     | Version:  2212                                  |
|   \\  /    A nd           | Website:  www.openfoam.com                      |
|    \\/     M anipulation  |                                                 |
\*---------------------------------------------------------------------------*/
FoamFile
{
    version     2.0;
    format      ascii;
    arch        "LSB;label=32;scalar=64";
    class       volVectorField;
    location    "0.0995";
    object      U_0;
}
// * * * * * * * * * * * * * * * * * * * * * * * * * * * * * * * * * * * * * //

dimensions      [0 1 -1 0 0 0 0];

internalField   nonuniform List<vector> 
10000
(
(3.02456e-06 -3.01553e-06 0)
(1.50463e-05 -7.77782e-06 0)
(3.42143e-05 -8.99256e-06 0)
(5.22674e-05 -7.76677e-06 0)
(6.41448e-05 -5.24952e-06 0)
(6.73865e-05 -2.09956e-06 0)
(6.07128e-05 1.31286e-06 0)
(4.35363e-05 4.77957e-06 0)
(1.57311e-05 8.18069e-06 0)
(-2.2535e-05 1.14481e-05 0)
(-7.08987e-05 1.45421e-05 0)
(-0.000128872 1.74382e-05 0)
(-0.000195884 2.01235e-05 0)
(-0.000271306 2.25911e-05 0)
(-0.000354475 2.48377e-05 0)
(-0.000444706 2.68623e-05 0)
(-0.000541302 2.86675e-05 0)
(-0.000643564 3.02559e-05 0)
(-0.000750797 3.16315e-05 0)
(-0.000862308 3.2799e-05 0)
(-0.000977418 3.37629e-05 0)
(-0.00109546 3.45294e-05 0)
(-0.00121578 3.51043e-05 0)
(-0.00133774 3.54939e-05 0)
(-0.00146073 3.57042e-05 0)
(-0.00158414 3.57412e-05 0)
(-0.0017074 3.56111e-05 0)
(-0.00182994 3.5321e-05 0)
(-0.00195123 3.48773e-05 0)
(-0.00207073 3.42864e-05 0)
(-0.00218797 3.35544e-05 0)
(-0.00230245 3.26876e-05 0)
(-0.00241373 3.16924e-05 0)
(-0.00252136 3.05753e-05 0)
(-0.00262495 2.93433e-05 0)
(-0.00272409 2.80026e-05 0)
(-0.00281841 2.65591e-05 0)
(-0.00290758 2.50192e-05 0)
(-0.00299127 2.3389e-05 0)
(-0.00306917 2.16747e-05 0)
(-0.003141 1.98837e-05 0)
(-0.00320651 1.8022e-05 0)
(-0.00326546 1.60958e-05 0)
(-0.00331764 1.41121e-05 0)
(-0.00336286 1.20766e-05 0)
(-0.00340094 9.99573e-06 0)
(-0.00343176 7.87715e-06 0)
(-0.00345518 5.72731e-06 0)
(-0.00347112 3.55299e-06 0)
(-0.0034795 1.36183e-06 0)
(-0.00348028 -8.39526e-07 0)
(-0.00347344 -3.04434e-06 0)
(-0.00345898 -5.2446e-06 0)
(-0.00343692 -7.43269e-06 0)
(-0.00340734 -9.60151e-06 0)
(-0.00337032 -1.17432e-05 0)
(-0.00332595 -1.38497e-05 0)
(-0.00327439 -1.59134e-05 0)
(-0.0032158 -1.79261e-05 0)
(-0.00315037 -1.98793e-05 0)
(-0.00307833 -2.1765e-05 0)
(-0.00299992 -2.35753e-05 0)
(-0.00291543 -2.53018e-05 0)
(-0.00282515 -2.6936e-05 0)
(-0.00272943 -2.847e-05 0)
(-0.00262863 -2.98955e-05 0)
(-0.00252314 -3.12037e-05 0)
(-0.00241337 -3.23863e-05 0)
(-0.00229979 -3.3436e-05 0)
(-0.00218285 -3.43451e-05 0)
(-0.00206305 -3.51054e-05 0)
(-0.00194092 -3.57093e-05 0)
(-0.00181701 -3.61498e-05 0)
(-0.00169189 -3.64203e-05 0)
(-0.00156614 -3.65138e-05 0)
(-0.00144038 -3.64236e-05 0)
(-0.00131525 -3.6144e-05 0)
(-0.00119139 -3.56697e-05 0)
(-0.00106947 -3.49958e-05 0)
(-0.000950155 -3.41178e-05 0)
(-0.000834143 -3.30318e-05 0)
(-0.000722128 -3.17345e-05 0)
(-0.000614811 -3.02234e-05 0)
(-0.000512892 -2.84968e-05 0)
(-0.00041707 -2.65538e-05 0)
(-0.000328035 -2.43952e-05 0)
(-0.000246462 -2.20237e-05 0)
(-0.000173 -1.94437e-05 0)
(-0.000108268 -1.66626e-05 0)
(-5.28312e-05 -1.36922e-05 0)
(-7.19017e-06 -1.05504e-05 0)
(2.82543e-05 -7.26584e-06 0)
(5.32411e-05 -3.88361e-06 0)
(6.77128e-05 -4.77422e-07 0)
(7.19185e-05 2.82856e-06 0)
(6.65761e-05 5.82143e-06 0)
(5.30982e-05 8.13304e-06 0)
(3.40596e-05 9.1101e-06 0)
(1.45757e-05 7.64977e-06 0)
(2.79298e-06 2.79314e-06 0)
(7.78835e-06 -1.50299e-05 0)
(3.16013e-05 -3.15692e-05 0)
(6.35857e-05 -3.37668e-05 0)
(8.92513e-05 -2.58388e-05 0)
(9.89918e-05 -1.16625e-05 0)
(8.72442e-05 6.13501e-06 0)
(5.05835e-05 2.58362e-05 0)
(-1.28854e-05 4.6314e-05 0)
(-0.000103916 6.68299e-05 0)
(-0.000222439 8.68959e-05 0)
(-0.000367815 0.000106185 0)
(-0.000538995 0.000124474 0)
(-0.000734639 0.000141617 0)
(-0.000953206 0.000157514 0)
(-0.00119301 0.000172103 0)
(-0.00145227 0.000185345 0)
(-0.00172916 0.000197223 0)
(-0.00202178 0.000207729 0)
(-0.00232826 0.000216873 0)
(-0.00264671 0.000224668 0)
(-0.00297525 0.000231133 0)
(-0.00331203 0.000236295 0)
(-0.00365523 0.000240184 0)
(-0.00400307 0.000242831 0)
(-0.00435382 0.000244274 0)
(-0.00470578 0.000244548 0)
(-0.0050573 0.000243691 0)
(-0.00540681 0.000241743 0)
(-0.00575275 0.000238745 0)
(-0.00609366 0.000234737 0)
(-0.00642812 0.000229762 0)
(-0.00675475 0.000223861 0)
(-0.00707226 0.000217077 0)
(-0.0073794 0.000209452 0)
(-0.007675 0.00020103 0)
(-0.00795793 0.000191856 0)
(-0.00822713 0.000181971 0)
(-0.00848161 0.000171418 0)
(-0.00872044 0.000160243 0)
(-0.00894274 0.000148489 0)
(-0.00914772 0.000136199 0)
(-0.00933462 0.00012342 0)
(-0.00950279 0.000110196 0)
(-0.0096516 9.6572e-05 0)
(-0.00978051 8.25948e-05 0)
(-0.00988905 6.831e-05 0)
(-0.00997681 5.37649e-05 0)
(-0.0100435 3.90073e-05 0)
(-0.0100887 2.40858e-05 0)
(-0.0101124 9.04937e-06 0)
(-0.0101143 -6.05252e-06 0)
(-0.0100945 -2.11696e-05 0)
(-0.0100529 -3.62501e-05 0)
(-0.00998971 -5.12421e-05 0)
(-0.009905 -6.60934e-05 0)
(-0.00979905 -8.07502e-05 0)
(-0.00967219 -9.51583e-05 0)
(-0.00952481 -0.000109264 0)
(-0.00935741 -0.000123012 0)
(-0.00917053 -0.000136346 0)
(-0.00896483 -0.00014921 0)
(-0.00874101 -0.000161549 0)
(-0.00849989 -0.000173306 0)
(-0.00824234 -0.000184426 0)
(-0.00796933 -0.000194852 0)
(-0.00768189 -0.000204529 0)
(-0.00738115 -0.000213403 0)
(-0.0070683 -0.000221419 0)
(-0.00674461 -0.000228524 0)
(-0.00641142 -0.000234667 0)
(-0.00607016 -0.000239798 0)
(-0.0057223 -0.000243868 0)
(-0.0053694 -0.00024683 0)
(-0.00501308 -0.000248641 0)
(-0.004655 -0.000249259 0)
(-0.00429689 -0.000248646 0)
(-0.00394053 -0.000246767 0)
(-0.00358774 -0.000243589 0)
(-0.00324037 -0.000239087 0)
(-0.0029003 -0.000233238 0)
(-0.00256946 -0.000226025 0)
(-0.00224976 -0.000217435 0)
(-0.00194312 -0.000207466 0)
(-0.00165146 -0.000196121 0)
(-0.00137667 -0.000183415 0)
(-0.00112059 -0.000169376 0)
(-0.000885001 -0.000154044 0)
(-0.000671595 -0.000137484 0)
(-0.000481928 -0.000119782 0)
(-0.000317385 -0.000101064 0)
(-0.000179111 -8.15039e-05 0)
(-6.79347e-05 -6.13469e-05 0)
(1.5755e-05 -4.09439e-05 0)
(7.21651e-05 -2.08041e-05 0)
(0.000102335 -1.68042e-06 0)
(0.000108457 1.52981e-05 0)
(9.42311e-05 2.8432e-05 0)
(6.54364e-05 3.51584e-05 0)
(3.17775e-05 3.1776e-05 0)
(7.64082e-06 1.45638e-05 0)
(9.02739e-06 -3.42321e-05 0)
(3.39421e-05 -6.36015e-05 0)
(6.25375e-05 -6.22293e-05 0)
(7.74766e-05 -3.90131e-05 0)
(6.71687e-05 -1.20045e-06 0)
(2.43985e-05 4.57983e-05 0)
(-5.5608e-05 9.80905e-05 0)
(-0.000175708 0.000152914 0)
(-0.000337212 0.000208327 0)
(-0.000540268 0.00026296 0)
(-0.000784146 0.000315843 0)
(-0.00106747 0.000366292 0)
(-0.00138837 0.000413822 0)
(-0.00174465 0.000458094 0)
(-0.00213382 0.000498878 0)
(-0.00255323 0.000536022 0)
(-0.0030001 0.000569432 0)
(-0.00347158 0.000599066 0)
(-0.00396475 0.000624912 0)
(-0.00447669 0.000646987 0)
(-0.0050045 0.000665332 0)
(-0.00554526 0.000680002 0)
(-0.00609613 0.000691066 0)
(-0.0066543 0.000698607 0)
(-0.00721702 0.000702716 0)
(-0.0077816 0.000703488 0)
(-0.00834544 0.000701029 0)
(-0.00890601 0.000695443 0)
(-0.00946085 0.000686844 0)
(-0.0100076 0.000675343 0)
(-0.010544 0.00066106 0)
(-0.0110679 0.000644111 0)
(-0.0115771 0.000624617 0)
(-0.0120697 0.0006027 0)
(-0.0125438 0.000578483 0)
(-0.0129975 0.000552088 0)
(-0.0134293 0.000523642 0)
(-0.0138374 0.000493269 0)
(-0.0142204 0.000461096 0)
(-0.0145769 0.00042725 0)
(-0.0149056 0.000391859 0)
(-0.0152052 0.000355053 0)
(-0.0154748 0.000316962 0)
(-0.0157133 0.00027772 0)
(-0.0159199 0.000237458 0)
(-0.0160938 0.000196312 0)
(-0.0162343 0.000154419 0)
(-0.0163409 0.000111918 0)
(-0.0164132 6.89473e-05 0)
(-0.0164508 2.56513e-05 0)
(-0.0164537 -1.78262e-05 0)
(-0.0164216 -6.13393e-05 0)
(-0.0163546 -0.00010474 0)
(-0.0162529 -0.000147877 0)
(-0.0161167 -0.000190599 0)
(-0.0159465 -0.000232751 0)
(-0.0157428 -0.000274177 0)
(-0.0155062 -0.000314721 0)
(-0.0152375 -0.000354225 0)
(-0.0149377 -0.000392529 0)
(-0.0146077 -0.000429472 0)
(-0.0142487 -0.000464893 0)
(-0.013862 -0.000498634 0)
(-0.0134491 -0.000530532 0)
(-0.0130114 -0.00056043 0)
(-0.0125507 -0.00058817 0)
(-0.0120687 -0.000613597 0)
(-0.0115674 -0.000636557 0)
(-0.0110487 -0.000656901 0)
(-0.0105148 -0.000674484 0)
(-0.00996808 -0.000689165 0)
(-0.00941078 -0.000700808 0)
(-0.0088454 -0.000709286 0)
(-0.00827452 -0.000714476 0)
(-0.00770078 -0.000716265 0)
(-0.00712693 -0.00071455 0)
(-0.00655577 -0.000709236 0)
(-0.00599016 -0.000700243 0)
(-0.00543305 -0.000687502 0)
(-0.00488739 -0.00067096 0)
(-0.00435617 -0.00065058 0)
(-0.0038424 -0.000626345 0)
(-0.00334905 -0.000598263 0)
(-0.0028791 -0.000566367 0)
(-0.00243543 -0.000530722 0)
(-0.00202087 -0.000491434 0)
(-0.0016381 -0.000448659 0)
(-0.00128963 -0.000402613 0)
(-0.000977757 -0.000353595 0)
(-0.000704451 -0.000302008 0)
(-0.000471292 -0.000248403 0)
(-0.000279331 -0.000193525 0)
(-0.000128937 -0.000138398 0)
(-1.95737e-05 -8.44315e-05 0)
(5.04773e-05 -3.359e-05 0)
(8.44753e-05 1.13786e-05 0)
(8.75613e-05 4.66457e-05 0)
(6.72305e-05 6.69686e-05 0)
(3.52754e-05 6.54599e-05 0)
(9.11792e-06 3.40465e-05 0)
(7.86958e-06 -5.24423e-05 0)
(2.63165e-05 -8.9556e-05 0)
(3.99957e-05 -7.73169e-05 0)
(3.12297e-05 -2.99999e-05 0)
(-1.21476e-05 4.15591e-05 0)
(-9.80989e-05 0.000129009 0)
(-0.000232073 0.000226043 0)
(-0.000417454 0.000327995 0)
(-0.000655905 0.00043143 0)
(-0.000947717 0.000533826 0)
(-0.00129211 0.000633338 0)
(-0.00168749 0.000728612 0)
(-0.00213161 0.000818666 0)
(-0.00262174 0.000902791 0)
(-0.00315479 0.000980484 0)
(-0.00372739 0.0010514 0)
(-0.00433599 0.00111531 0)
(-0.0049769 0.00117209 0)
(-0.00564635 0.00122169 0)
(-0.00634053 0.0012641 0)
(-0.0070556 0.00129936 0)
(-0.00778775 0.00132758 0)
(-0.00853321 0.00134887 0)
(-0.00928824 0.00136335 0)
(-0.0100492 0.00137121 0)
(-0.0108125 0.0013726 0)
(-0.0115747 0.00136773 0)
(-0.0123323 0.00135678 0)
(-0.0130821 0.00133998 0)
(-0.013821 0.00131754 0)
(-0.0145458 0.00128967 0)
(-0.0152536 0.0012566 0)
(-0.0159416 0.00121857 0)
(-0.0166071 0.00117582 0)
(-0.0172476 0.00112857 0)
(-0.0178606 0.00107706 0)
(-0.0184438 0.00102155 0)
(-0.0189951 0.000962274 0)
(-0.0195124 0.000899477 0)
(-0.0199939 0.000833411 0)
(-0.0204377 0.000764326 0)
(-0.0208424 0.000692475 0)
(-0.0212064 0.000618116 0)
(-0.0215284 0.000541507 0)
(-0.0218072 0.000462911 0)
(-0.0220418 0.000382591 0)
(-0.0222313 0.000300817 0)
(-0.022375 0.00021786 0)
(-0.0224723 0.000133996 0)
(-0.0225228 4.95031e-05 0)
(-0.0225263 -3.53353e-05 0)
(-0.0224825 -0.000120232 0)
(-0.0223917 -0.000204898 0)
(-0.022254 -0.000289038 0)
(-0.0220697 -0.000372356 0)
(-0.0218395 -0.000454549 0)
(-0.021564 -0.000535314 0)
(-0.0212442 -0.000614345 0)
(-0.0208811 -0.000691333 0)
(-0.020476 -0.000765968 0)
(-0.0200302 -0.000837938 0)
(-0.0195452 -0.000906931 0)
(-0.019023 -0.000972637 0)
(-0.0184653 -0.00103474 0)
(-0.0178743 -0.00109295 0)
(-0.0172522 -0.00114694 0)
(-0.0166015 -0.00119642 0)
(-0.0159246 -0.0012411 0)
(-0.0152244 -0.00128069 0)
(-0.0145037 -0.0013149 0)
(-0.0137655 -0.00134348 0)
(-0.0130132 -0.00136617 0)
(-0.0122498 -0.00138271 0)
(-0.0114789 -0.00139288 0)
(-0.0107041 -0.00139647 0)
(-0.00992893 -0.00139329 0)
(-0.00915718 -0.00138316 0)
(-0.00839266 -0.00136594 0)
(-0.00763926 -0.00134151 0)
(-0.00690089 -0.00130978 0)
(-0.0061815 -0.0012707 0)
(-0.00548504 -0.00122425 0)
(-0.00481542 -0.00117049 0)
(-0.0041765 -0.00110949 0)
(-0.00357206 -0.00104141 0)
(-0.00300571 -0.000966511 0)
(-0.00248089 -0.000885118 0)
(-0.00200079 -0.000797699 0)
(-0.00156826 -0.000704879 0)
(-0.00118575 -0.000607488 0)
(-0.00085513 -0.000506623 0)
(-0.000577613 -0.000403742 0)
(-0.000353528 -0.000300779 0)
(-0.000182106 -0.000200319 0)
(-6.11951e-05 -0.000105821 0)
(1.30749e-05 -2.192e-05 0)
(4.65973e-05 4.52021e-05 0)
(4.76952e-05 8.74589e-05 0)
(2.88774e-05 9.45375e-05 0)
(8.20378e-06 5.31922e-05 0)
(5.44977e-06 -6.46758e-05 0)
(1.25764e-05 -9.9993e-05 0)
(3.12733e-06 -6.76321e-05 0)
(-3.88613e-05 1.31298e-05 0)
(-0.000125042 0.000127993 0)
(-0.000263496 0.000265749 0)
(-0.000459827 0.000417711 0)
(-0.000717565 0.000577243 0)
(-0.00103848 0.000739313 0)
(-0.00142288 0.000900113 0)
(-0.0018699 0.00105677 0)
(-0.00237775 0.00120714 0)
(-0.00294385 0.0013496 0)
(-0.00356506 0.00148296 0)
(-0.00423779 0.00160637 0)
(-0.00495807 0.00171921 0)
(-0.0057217 0.00182105 0)
(-0.0065243 0.00191164 0)
(-0.00736134 0.00199085 0)
(-0.00822824 0.00205862 0)
(-0.00912038 0.00211501 0)
(-0.0100331 0.00216012 0)
(-0.0109619 0.00219411 0)
(-0.0119021 0.00221718 0)
(-0.0128494 0.00222957 0)
(-0.0137992 0.00223155 0)
(-0.0147474 0.0022234 0)
(-0.0156898 0.00220545 0)
(-0.0166223 0.00217802 0)
(-0.017541 0.00214144 0)
(-0.0184421 0.00209608 0)
(-0.019322 0.00204229 0)
(-0.0201772 0.00198044 0)
(-0.0210045 0.00191091 0)
(-0.0218005 0.00183408 0)
(-0.0225623 0.00175034 0)
(-0.0232871 0.00166007 0)
(-0.0239722 0.00156369 0)
(-0.0246149 0.00146158 0)
(-0.0252131 0.00135416 0)
(-0.0257646 0.00124183 0)
(-0.0262672 0.001125 0)
(-0.0267193 0.00100409 0)
(-0.0271192 0.00087953 0)
(-0.0274653 0.000751741 0)
(-0.0277565 0.000621156 0)
(-0.0279917 0.000488214 0)
(-0.0281699 0.000353357 0)
(-0.0282905 0.000217036 0)
(-0.0283529 7.97044e-05 0)
(-0.0283568 -5.81763e-05 0)
(-0.0283021 -0.000196139 0)
(-0.0281888 -0.00033371 0)
(-0.0280173 -0.000470412 0)
(-0.027788 -0.000605761 0)
(-0.0275017 -0.000739267 0)
(-0.0271592 -0.000870436 0)
(-0.0267616 -0.000998772 0)
(-0.0263103 -0.00112377 0)
(-0.0258067 -0.00124494 0)
(-0.0252527 -0.00136176 0)
(-0.0246502 -0.00147374 0)
(-0.0240014 -0.00158037 0)
(-0.0233085 -0.00168115 0)
(-0.0225743 -0.00177559 0)
(-0.0218016 -0.00186319 0)
(-0.0209932 -0.00194348 0)
(-0.0201524 -0.00201598 0)
(-0.0192826 -0.00208023 0)
(-0.0183873 -0.00213579 0)
(-0.0174703 -0.00218222 0)
(-0.0165355 -0.00221912 0)
(-0.0155869 -0.00224611 0)
(-0.0146289 -0.00226282 0)
(-0.0136656 -0.00226891 0)
(-0.0127017 -0.0022641 0)
(-0.0117417 -0.00224812 0)
(-0.0107903 -0.00222075 0)
(-0.00985212 -0.00218181 0)
(-0.00893204 -0.00213119 0)
(-0.00803482 -0.00206883 0)
(-0.00716524 -0.00199474 0)
(-0.00632802 -0.00190901 0)
(-0.00552782 -0.00181182 0)
(-0.00476912 -0.00170348 0)
(-0.00405627 -0.00158442 0)
(-0.00339331 -0.00145523 0)
(-0.00278401 -0.00131672 0)
(-0.00223168 -0.00116993 0)
(-0.00173914 -0.00101623 0)
(-0.00130854 -0.000857417 0)
(-0.000941226 -0.000695786 0)
(-0.000637556 -0.000534338 0)
(-0.000396673 -0.000376967 0)
(-0.000216251 -0.000228738 0)
(-9.21971e-05 -9.62329e-05 0)
(-1.8383e-05 1.20309e-05 0)
(1.37235e-05 8.51891e-05 0)
(1.62951e-05 0.000109564 0)
(6.00472e-06 6.701e-05 0)
(2.42494e-06 -6.85436e-05 0)
(-4.71097e-06 -8.94446e-05 0)
(-4.28292e-05 -2.60418e-05 0)
(-0.000124776 9.83044e-05 0)
(-0.000260882 0.000266191 0)
(-0.000458842 0.000463778 0)
(-0.000724007 0.00068012 0)
(-0.00105973 0.000906669 0)
(-0.00146764 0.00113678 0)
(-0.00194792 0.0013653 0)
(-0.00249955 0.00158826 0)
(-0.00312048 0.00180261 0)
(-0.00380786 0.00200604 0)
(-0.00455816 0.00219679 0)
(-0.00536733 0.00237355 0)
(-0.00623093 0.00253538 0)
(-0.00714418 0.0026816 0)
(-0.0081021 0.00281179 0)
(-0.00909951 0.00292569 0)
(-0.0101312 0.00302319 0)
(-0.0111917 0.0031043 0)
(-0.0122758 0.00316915 0)
(-0.0133782 0.00321792 0)
(-0.0144936 0.00325088 0)
(-0.0156167 0.00326836 0)
(-0.0167425 0.0032707 0)
(-0.017866 0.00325833 0)
(-0.0189822 0.00323168 0)
(-0.0200865 0.00319121 0)
(-0.0211743 0.0031374 0)
(-0.0222411 0.00307076 0)
(-0.0232826 0.0029918 0)
(-0.0242948 0.00290107 0)
(-0.0252738 0.00279911 0)
(-0.0262157 0.00268647 0)
(-0.0271171 0.00256371 0)
(-0.0279745 0.00243141 0)
(-0.0287849 0.00229014 0)
(-0.0295452 0.00214049 0)
(-0.0302528 0.00198306 0)
(-0.0309049 0.00181844 0)
(-0.0314993 0.00164724 0)
(-0.0320338 0.00147007 0)
(-0.0325065 0.00128755 0)
(-0.0329157 0.00110031 0)
(-0.0332598 0.000908978 0)
(-0.0335377 0.000714209 0)
(-0.0337481 0.000516648 0)
(-0.0338903 0.000316955 0)
(-0.0339638 0.000115798 0)
(-0.033968 -8.6147e-05 0)
(-0.0339029 -0.000288194 0)
(-0.0337687 -0.000489651 0)
(-0.0335655 -0.000689815 0)
(-0.033294 -0.000887978 0)
(-0.0329551 -0.00108342 0)
(-0.0325498 -0.00127543 0)
(-0.0320793 -0.00146327 0)
(-0.0315454 -0.00164622 0)
(-0.0309497 -0.00182353 0)
(-0.0302944 -0.00199448 0)
(-0.0295818 -0.00215832 0)
(-0.0288144 -0.00231433 0)
(-0.027995 -0.00246179 0)
(-0.0271267 -0.00259996 0)
(-0.0262128 -0.00272814 0)
(-0.0252567 -0.00284563 0)
(-0.0242623 -0.00295175 0)
(-0.0232335 -0.00304583 0)
(-0.0221744 -0.00312723 0)
(-0.0210896 -0.00319534 0)
(-0.0199835 -0.00324957 0)
(-0.0188609 -0.00328936 0)
(-0.0177269 -0.00331421 0)
(-0.0165863 -0.00332365 0)
(-0.0154446 -0.00331726 0)
(-0.014307 -0.00329467 0)
(-0.0131789 -0.00325559 0)
(-0.0120658 -0.0031998 0)
(-0.0109734 -0.00312714 0)
(-0.00990704 -0.00303756 0)
(-0.00887233 -0.00293111 0)
(-0.0078747 -0.00280797 0)
(-0.00691946 -0.00266845 0)
(-0.00601178 -0.00251302 0)
(-0.00515658 -0.00234238 0)
(-0.00435846 -0.00215743 0)
(-0.00362167 -0.00195938 0)
(-0.00294994 -0.0017498 0)
(-0.00234643 -0.00153067 0)
(-0.00181354 -0.00130457 0)
(-0.00135283 -0.00107475 0)
(-0.000964748 -0.000845348 0)
(-0.000648527 -0.000621625 0)
(-0.000401901 -0.000410273 0)
(-0.000220886 -0.000219779 0)
(-9.95228e-05 -6.08908e-05 0)
(-2.9552e-05 5.29427e-05 0)
(5.43464e-08 0.00010499 0)
(3.16816e-06 7.3043e-05 0)
(-8.53667e-07 -6.27913e-05 0)
(-2.39139e-05 -5.44771e-05 0)
(-9.42114e-05 5.2318e-05 0)
(-0.000220665 0.000231165 0)
(-0.000411706 0.000462067 0)
(-0.000674268 0.00072887 0)
(-0.00101312 0.00101858 0)
(-0.00143114 0.00132085 0)
(-0.00192964 0.00162748 0)
(-0.00250851 0.00193199 0)
(-0.00316645 0.00222929 0)
(-0.00390114 0.00251539 0)
(-0.00470938 0.0027872 0)
(-0.00558729 0.00304236 0)
(-0.00653043 0.00327905 0)
(-0.00753387 0.00349596 0)
(-0.00859236 0.0036921 0)
(-0.00970037 0.00386684 0)
(-0.0108522 0.00401977 0)
(-0.0120419 0.00415068 0)
(-0.0132635 0.00425955 0)
(-0.0145112 0.00434648 0)
(-0.0157789 0.00441169 0)
(-0.0170607 0.00445551 0)
(-0.0183508 0.00447834 0)
(-0.0196433 0.00448065 0)
(-0.0209327 0.00446297 0)
(-0.0222134 0.00442585 0)
(-0.02348 0.00436993 0)
(-0.0247274 0.00429584 0)
(-0.0259504 0.00420425 0)
(-0.0271443 0.00409588 0)
(-0.0283044 0.00397142 0)
(-0.0294262 0.00383163 0)
(-0.0305054 0.00367724 0)
(-0.0315381 0.00350904 0)
(-0.0325203 0.00332779 0)
(-0.0334485 0.00313428 0)
(-0.0343193 0.00292932 0)
(-0.0351296 0.00271371 0)
(-0.0358763 0.00248827 0)
(-0.0365568 0.00225384 0)
(-0.0371688 0.00201124 0)
(-0.0377099 0.00176134 0)
(-0.0381782 0.00150499 0)
(-0.038572 0.00124307 0)
(-0.0388898 0.000976443 0)
(-0.0391305 0.000706015 0)
(-0.039293 0.000432689 0)
(-0.0393768 0.000157378 0)
(-0.0393813 -0.000118991 0)
(-0.0393065 -0.000395478 0)
(-0.0391525 -0.000671136 0)
(-0.0389196 -0.000945005 0)
(-0.0386085 -0.00121611 0)
(-0.0382202 -0.00148349 0)
(-0.0377558 -0.00174614 0)
(-0.037217 -0.00200307 0)
(-0.0366055 -0.00225329 0)
(-0.0359234 -0.0024958 0)
(-0.035173 -0.00272959 0)
(-0.0343569 -0.00295367 0)
(-0.0334782 -0.00316704 0)
(-0.0325399 -0.0033687 0)
(-0.0315456 -0.0035577 0)
(-0.030499 -0.00373305 0)
(-0.0294041 -0.00389381 0)
(-0.0282651 -0.00403907 0)
(-0.0270867 -0.00416793 0)
(-0.0258734 -0.00427951 0)
(-0.0246304 -0.00437299 0)
(-0.0233628 -0.00444759 0)
(-0.022076 -0.00450258 0)
(-0.0207756 -0.00453726 0)
(-0.0194674 -0.00455102 0)
(-0.0181572 -0.00454331 0)
(-0.0168511 -0.00451367 0)
(-0.0155552 -0.00446171 0)
(-0.0142756 -0.00438716 0)
(-0.0130187 -0.00428985 0)
(-0.0117905 -0.00416974 0)
(-0.0105973 -0.00402695 0)
(-0.0094452 -0.00386175 0)
(-0.00834004 -0.00367462 0)
(-0.00728759 -0.00346626 0)
(-0.0062933 -0.00323765 0)
(-0.00536229 -0.00299006 0)
(-0.00449922 -0.00272517 0)
(-0.00370824 -0.00244511 0)
(-0.00299282 -0.00215258 0)
(-0.00235568 -0.00185098 0)
(-0.0017986 -0.00154456 0)
(-0.00132229 -0.00123862 0)
(-0.000926192 -0.000939802 0)
(-0.000608327 -0.000656373 0)
(-0.000365089 -0.000398622 0)
(-0.000191013 -0.000179339 0)
(-7.84937e-05 -1.4269e-05 0)
(-1.82158e-05 7.72671e-05 0)
(5.01258e-08 6.99669e-05 0)
(-4.19415e-06 -4.68043e-05 0)
(-4.40117e-05 6.94684e-06 0)
(-0.000148541 0.000170589 0)
(-0.000322377 0.000415552 0)
(-0.000571709 0.000719785 0)
(-0.000902419 0.00106519 0)
(-0.00131843 0.00143699 0)
(-0.00182195 0.0018232 0)
(-0.00241376 0.00221417 0)
(-0.00309332 0.00260213 0)
(-0.00385895 0.0029809 0)
(-0.00470796 0.00334556 0)
(-0.00563681 0.00369223 0)
(-0.00664122 0.00401787 0)
(-0.00771636 0.00432016 0)
(-0.00885688 0.00459735 0)
(-0.010057 0.00484813 0)
(-0.0113108 0.00507161 0)
(-0.012612 0.0052672 0)
(-0.0139542 0.00543459 0)
(-0.0153309 0.00557368 0)
(-0.0167354 0.00568456 0)
(-0.0181614 0.00576747 0)
(-0.0196023 0.00582278 0)
(-0.0210515 0.00585098 0)
(-0.0225028 0.00585263 0)
(-0.02395 0.0058284 0)
(-0.0253868 0.005779 0)
(-0.0268075 0.00570519 0)
(-0.0282061 0.00560781 0)
(-0.0295771 0.0054877 0)
(-0.0309152 0.00534577 0)
(-0.0322151 0.00518294 0)
(-0.0334719 0.00500015 0)
(-0.0346809 0.00479838 0)
(-0.0358375 0.00457862 0)
(-0.0369376 0.00434187 0)
(-0.037977 0.00408916 0)
(-0.038952 0.00382153 0)
(-0.039859 0.00354004 0)
(-0.040695 0.00324575 0)
(-0.0414567 0.00293973 0)
(-0.0421416 0.0026231 0)
(-0.0427471 0.00229695 0)
(-0.0432711 0.00196241 0)
(-0.0437117 0.00162061 0)
(-0.0440672 0.00127271 0)
(-0.0443363 0.00091987 0)
(-0.044518 0.000563271 0)
(-0.0446115 0.000204107 0)
(-0.0446164 -0.000156413 0)
(-0.0445324 -0.000517064 0)
(-0.0443598 -0.00087661 0)
(-0.0440989 -0.0012338 0)
(-0.0437506 -0.00158737 0)
(-0.0433158 -0.00193605 0)
(-0.042796 -0.00227855 0)
(-0.0421929 -0.00261359 0)
(-0.0415084 -0.00293987 0)
(-0.0407448 -0.00325608 0)
(-0.0399049 -0.00356093 0)
(-0.0389914 -0.00385312 0)
(-0.0380078 -0.00413137 0)
(-0.0369574 -0.00439438 0)
(-0.0358443 -0.0046409 0)
(-0.0346725 -0.00486968 0)
(-0.0334465 -0.0050795 0)
(-0.0321711 -0.00526918 0)
(-0.0308512 -0.00543754 0)
(-0.0294922 -0.0055835 0)
(-0.0280994 -0.00570598 0)
(-0.0266788 -0.00580397 0)
(-0.0252363 -0.00587655 0)
(-0.023778 -0.00592285 0)
(-0.0223103 -0.00594208 0)
(-0.0208398 -0.00593357 0)
(-0.019373 -0.00589672 0)
(-0.0179168 -0.00583108 0)
(-0.0164778 -0.00573633 0)
(-0.0150629 -0.00561228 0)
(-0.0136791 -0.00545893 0)
(-0.0123329 -0.00527646 0)
(-0.0110311 -0.0050653 0)
(-0.00978016 -0.00482609 0)
(-0.00858631 -0.00455979 0)
(-0.00745552 -0.00426771 0)
(-0.00639335 -0.00395154 0)
(-0.00540489 -0.00361346 0)
(-0.00449466 -0.00325622 0)
(-0.00366653 -0.00288325 0)
(-0.00292352 -0.00249881 0)
(-0.00226776 -0.00210816 0)
(-0.00170028 -0.00171776 0)
(-0.00122092 -0.00133559 0)
(-0.000828151 -0.000971379 0)
(-0.000518983 -0.000637083 0)
(-0.000288689 -0.0003473 0)
(-0.000130602 -0.000119726 0)
(-3.74781e-05 2.42452e-05 0)
(-3.15197e-06 5.71074e-05 0)
(-7.49793e-06 -2.03703e-05 0)
(-6.43766e-05 9.58572e-05 0)
(-0.00020417 0.000330589 0)
(-0.00042703 0.000653861 0)
(-0.000736721 0.00104209 0)
(-0.00113789 0.00147561 0)
(-0.00163342 0.00193811 0)
(-0.00222467 0.00241619 0)
(-0.00291174 0.00289887 0)
(-0.00369352 0.0033772 0)
(-0.00456786 0.00384395 0)
(-0.00553162 0.00429327 0)
(-0.00658084 0.0047205 0)
(-0.00771088 0.00512195 0)
(-0.00891644 0.00549474 0)
(-0.0101918 0.00583668 0)
(-0.0115307 0.00614611 0)
(-0.0129268 0.00642187 0)
(-0.0143732 0.00666316 0)
(-0.0158632 0.00686954 0)
(-0.0173896 0.00704083 0)
(-0.0189455 0.00717708 0)
(-0.0205238 0.00727855 0)
(-0.0221173 0.00734565 0)
(-0.0237191 0.00737896 0)
(-0.0253224 0.00737914 0)
(-0.0269202 0.00734699 0)
(-0.0285061 0.00728336 0)
(-0.0300735 0.00718921 0)
(-0.0316162 0.00706554 0)
(-0.033128 0.0069134 0)
(-0.0346031 0.0067339 0)
(-0.0360358 0.00652818 0)
(-0.0374208 0.00629744 0)
(-0.0387528 0.00604287 0)
(-0.0400269 0.00576571 0)
(-0.0412385 0.00546722 0)
(-0.0423832 0.00514869 0)
(-0.0434569 0.00481142 0)
(-0.0444556 0.00445673 0)
(-0.0453759 0.00408596 0)
(-0.0462145 0.00370048 0)
(-0.0469684 0.00330165 0)
(-0.0476349 0.00289088 0)
(-0.0482115 0.00246958 0)
(-0.0486964 0.00203917 0)
(-0.0490875 0.0016011 0)
(-0.0493836 0.00115685 0)
(-0.0495835 0.000707894 0)
(-0.0496862 0.000255737 0)
(-0.0496915 -0.0001981 0)
(-0.0495989 -0.000652077 0)
(-0.0494088 -0.00110464 0)
(-0.0491217 -0.00155421 0)
(-0.0487382 -0.00199922 0)
(-0.0482597 -0.00243805 0)
(-0.0476875 -0.0028691 0)
(-0.0470237 -0.00329075 0)
(-0.0462703 -0.00370137 0)
(-0.0454299 -0.00409933 0)
(-0.0445053 -0.00448301 0)
(-0.0434998 -0.00485079 0)
(-0.042417 -0.00520105 0)
(-0.0412607 -0.00553219 0)
(-0.0400351 -0.00584263 0)
(-0.0387448 -0.00613082 0)
(-0.0373946 -0.00639524 0)
(-0.0359898 -0.00663441 0)
(-0.0345357 -0.0068469 0)
(-0.0330381 -0.00703131 0)
(-0.0315031 -0.00718635 0)
(-0.0299368 -0.00731077 0)
(-0.0283459 -0.00740342 0)
(-0.026737 -0.00746323 0)
(-0.025117 -0.00748926 0)
(-0.023493 -0.00748067 0)
(-0.0218722 -0.00743676 0)
(-0.0202619 -0.007357 0)
(-0.0186694 -0.007241 0)
(-0.0171023 -0.0070886 0)
(-0.0155677 -0.00689982 0)
(-0.0140731 -0.00667495 0)
(-0.0126256 -0.00641453 0)
(-0.0112323 -0.00611945 0)
(-0.00989972 -0.00579094 0)
(-0.00863445 -0.00543065 0)
(-0.00744246 -0.00504072 0)
(-0.00632926 -0.00462387 0)
(-0.00529978 -0.00418349 0)
(-0.00435826 -0.00372375 0)
(-0.00350814 -0.00324977 0)
(-0.00275194 -0.00276781 0)
(-0.00209115 -0.00228546 0)
(-0.00152611 -0.00181192 0)
(-0.00105592 -0.00135832 0)
(-0.000678355 -0.000938063 0)
(-0.000389628 -0.000567315 0)
(-0.000184198 -0.000265373 0)
(-5.7085e-05 -5.52091e-05 0)
(-6.33205e-06 3.42067e-05 0)
(-1.07148e-05 1.64824e-05 0)
(-8.463e-05 0.000212622 0)
(-0.000260022 0.000533187 0)
(-0.000532653 0.000947409 0)
(-0.000903802 0.00143061 0)
(-0.00137676 0.00196192 0)
(-0.00195327 0.00252377 0)
(-0.00263367 0.00310151 0)
(-0.00341727 0.00368302 0)
(-0.0043023 0.00425826 0)
(-0.00528601 0.00481901 0)
(-0.00636477 0.00535857 0)
(-0.00753414 0.00587151 0)
(-0.00878902 0.00635349 0)
(-0.0101237 0.00680108 0)
(-0.011532 0.00721164 0)
(-0.0130073 0.00758315 0)
(-0.0145427 0.00791415 0)
(-0.016131 0.00820364 0)
(-0.0177648 0.00845103 0)
(-0.0194368 0.00865604 0)
(-0.0211392 0.0088187 0)
(-0.0228646 0.00893925 0)
(-0.0246054 0.00901816 0)
(-0.0263541 0.00905607 0)
(-0.0281034 0.00905376 0)
(-0.0298459 0.00901216 0)
(-0.0315746 0.00893229 0)
(-0.0332826 0.00881526 0)
(-0.0349629 0.00866229 0)
(-0.0366092 0.00847463 0)
(-0.0382151 0.00825363 0)
(-0.0397745 0.00800066 0)
(-0.0412816 0.00771714 0)
(-0.0427308 0.00740455 0)
(-0.0441168 0.00706439 0)
(-0.0454345 0.00669819 0)
(-0.0466794 0.00630751 0)
(-0.0478468 0.00589395 0)
(-0.0489326 0.00545911 0)
(-0.0499331 0.00500463 0)
(-0.0508447 0.00453218 0)
(-0.051664 0.00404344 0)
(-0.0523884 0.00354011 0)
(-0.0530151 0.00302392 0)
(-0.053542 0.00249662 0)
(-0.0539671 0.00195998 0)
(-0.0542888 0.0014158 0)
(-0.054506 0.000865896 0)
(-0.0546177 0.000312103 0)
(-0.0546234 -0.000243718 0)
(-0.0545229 -0.000799684 0)
(-0.0543163 -0.0013539 0)
(-0.0540043 -0.00190443 0)
(-0.0535878 -0.00244936 0)
(-0.0530679 -0.00298671 0)
(-0.0524463 -0.00351454 0)
(-0.051725 -0.00403086 0)
(-0.0509064 -0.0045337 0)
(-0.0499932 -0.00502106 0)
(-0.0489885 -0.00549097 0)
(-0.0478957 -0.00594145 0)
(-0.0467188 -0.00637054 0)
(-0.0454619 -0.00677629 0)
(-0.0441295 -0.00715679 0)
(-0.0427265 -0.00751015 0)
(-0.0412582 -0.00783452 0)
(-0.0397302 -0.00812812 0)
(-0.0381482 -0.00838921 0)
(-0.0365185 -0.00861612 0)
(-0.0348475 -0.00880727 0)
(-0.033142 -0.00896117 0)
(-0.031409 -0.00907643 0)
(-0.0296557 -0.00915179 0)
(-0.0278894 -0.0091861 0)
(-0.0261178 -0.0091784 0)
(-0.0243486 -0.00912785 0)
(-0.0225896 -0.00903384 0)
(-0.0208487 -0.00889596 0)
(-0.0191338 -0.00871401 0)
(-0.0174527 -0.00848809 0)
(-0.0158134 -0.00821858 0)
(-0.0142235 -0.00790619 0)
(-0.0126903 -0.00755202 0)
(-0.0112213 -0.00715761 0)
(-0.00982315 -0.00672499 0)
(-0.00850239 -0.00625675 0)
(-0.00726495 -0.00575615 0)
(-0.00611621 -0.00522723 0)
(-0.00506083 -0.0046749 0)
(-0.0041027 -0.00410513 0)
(-0.00324483 -0.00352515 0)
(-0.00248925 -0.00294359 0)
(-0.00183692 -0.00237081 0)
(-0.00128768 -0.00181916 0)
(-0.000840217 -0.00130335 0)
(-0.000491816 -0.000840839 0)
(-0.000238174 -0.000452197 0)
(-7.66402e-05 -0.000161546 0)
(-9.43546e-06 1.2572e-06 0)
(-1.38222e-05 6.35902e-05 0)
(-0.000104549 0.000357174 0)
(-0.000315416 0.0007786 0)
(-0.000637933 0.00129673 0)
(-0.00107092 0.00188616 0)
(-0.00161628 0.00252511 0)
(-0.00227448 0.00319501 0)
(-0.00304482 0.00388019 0)
(-0.00392568 0.00456749 0)
(-0.00491452 0.00524595 0)
(-0.00600796 0.00590642 0)
(-0.00720176 0.00654141 0)
(-0.00849098 0.00714477 0)
(-0.00987003 0.00771153 0)
(-0.0113327 0.00823775 0)
(-0.0128724 0.0087203 0)
(-0.0144821 0.00915683 0)
(-0.0161544 0.00954557 0)
(-0.0178817 0.00988532 0)
(-0.0196561 0.0101753 0)
(-0.0214699 0.0104152 0)
(-0.0233149 0.0106049 0)
(-0.0251831 0.0107448 0)
(-0.0270666 0.0108352 0)
(-0.0289574 0.010877 0)
(-0.0308477 0.010871 0)
(-0.0327297 0.0108183 0)
(-0.0345959 0.01072 0)
(-0.0364389 0.0105775 0)
(-0.0382516 0.0103922 0)
(-0.0400269 0.0101656 0)
(-0.0417581 0.00989919 0)
(-0.0434388 0.00959467 0)
(-0.0450627 0.00925372 0)
(-0.046624 0.00887806 0)
(-0.0481169 0.00846949 0)
(-0.049536 0.00802982 0)
(-0.0508765 0.00756093 0)
(-0.0521334 0.00706471 0)
(-0.0533023 0.00654307 0)
(-0.0543793 0.00599798 0)
(-0.0553604 0.00543142 0)
(-0.0562423 0.0048454 0)
(-0.0570219 0.00424197 0)
(-0.0576964 0.00362318 0)
(-0.0582634 0.00299113 0)
(-0.0587209 0.00234794 0)
(-0.0590672 0.00169575 0)
(-0.059301 0.00103674 0)
(-0.0594213 0.000373116 0)
(-0.0594276 -0.00029291 0)
(-0.0593197 -0.000959087 0)
(-0.0590978 -0.00162314 0)
(-0.0587624 -0.00228278 0)
(-0.0583145 -0.00293569 0)
(-0.0577555 -0.00357953 0)
(-0.057087 -0.00421197 0)
(-0.0563112 -0.00483065 0)
(-0.0554307 -0.0054332 0)
(-0.0544484 -0.00601726 0)
(-0.0533675 -0.00658046 0)
(-0.0521917 -0.00712046 0)
(-0.0509253 -0.00763492 0)
(-0.0495725 -0.00812152 0)