/*--------------------------------*- C++ -*----------------------------------*\
| =========                 |                                                 |
| \\      /  F ield         | OpenFOAM: The Open Source CFD Toolbox           |
|  \\    /   O peration     | Version:  2212                                  |
|   \\  /    A nd           | Website:  www.openfoam.com                      |
|    \\/     M anipulation  |                                                 |
\*---------------------------------------------------------------------------*/
FoamFile
{
    version     2.0;
    format      ascii;
    arch        "LSB;label=32;scalar=64";
    class       surfaceScalarField;
    location    "0.051";
    object      phi;
}
// * * * * * * * * * * * * * * * * * * * * * * * * * * * * * * * * * * * * * //

dimensions      [0 3 -1 0 0 0 0];

oriented        oriented;

internalField   nonuniform List<scalar> 
19800
(
6.55442e-11
-6.55535e-11
2.17409e-10
-1.51878e-10
3.86308e-10
-1.68872e-10
5.15748e-10
-1.29469e-10
5.76203e-10
-6.04453e-11
5.51194e-10
2.50146e-11
4.32644e-10
1.18554e-10
2.17793e-10
2.14855e-10
-9.28097e-11
3.10609e-10
-4.96477e-10
4.03675e-10
-9.89149e-10
4.92666e-10
-1.56582e-09
5.76676e-10
-2.22093e-09
6.5511e-10
-2.94851e-09
7.27594e-10
-3.7424e-09
7.93901e-10
-4.59629e-09
8.53883e-10
-5.50379e-09
9.07501e-10
-6.45857e-09
9.54774e-10
-7.45433e-09
9.95752e-10
-8.48486e-09
1.03053e-09
-9.54408e-09
1.05921e-09
-1.0626e-08
1.08192e-09
-1.17248e-08
1.09881e-09
-1.28349e-08
1.11006e-09
-1.39507e-08
1.11583e-09
-1.5067e-08
1.1163e-09
-1.61787e-08
1.11166e-09
-1.72808e-08
1.1021e-09
-1.83685e-08
1.08779e-09
-1.94375e-08
1.06895e-09
-2.04833e-08
1.04577e-09
-2.15017e-08
1.01846e-09
-2.24889e-08
9.87191e-10
-2.34411e-08
9.52179e-10
-2.43548e-08
9.13644e-10
-2.52265e-08
8.71761e-10
-2.60532e-08
8.26706e-10
-2.68319e-08
7.78683e-10
-2.75598e-08
7.27907e-10
-2.82344e-08
6.74575e-10
-2.88533e-08
6.18871e-10
-2.94143e-08
5.60999e-10
-2.99154e-08
5.01163e-10
-3.0355e-08
4.39554e-10
-3.07313e-08
3.76371e-10
-3.10432e-08
3.11816e-10
-3.12893e-08
2.46104e-10
-3.14687e-08
1.79449e-10
-3.15808e-08
1.12049e-10
-3.16249e-08
4.41124e-11
-3.16007e-08
-2.4134e-11
-3.15083e-08
-9.24644e-11
-3.13476e-08
-1.60647e-10
-3.11192e-08
-2.28458e-10
-3.08235e-08
-2.9568e-10
-3.04614e-08
-3.62082e-10
-3.0034e-08
-4.27418e-10
-2.95425e-08
-4.91444e-10
-2.89886e-08
-5.53912e-10
-2.83741e-08
-6.14572e-10
-2.77009e-08
-6.73189e-10
-2.69714e-08
-7.2952e-10
-2.61881e-08
-7.83304e-10
-2.53538e-08
-8.34281e-10
-2.44716e-08
-8.82205e-10
-2.35447e-08
-9.26823e-10
-2.25769e-08
-9.67885e-10
-2.15717e-08
-1.00515e-09
-2.05333e-08
-1.03838e-09
-1.9466e-08
-1.06732e-09
-1.83743e-08
-1.09173e-09
-1.72629e-08
-1.11138e-09
-1.61368e-08
-1.12605e-09
-1.50013e-08
-1.13553e-09
-1.38617e-08
-1.13962e-09
-1.27235e-08
-1.13813e-09
-1.15927e-08
-1.13089e-09
-1.04749e-08
-1.11772e-09
-9.37644e-09
-1.09849e-09
-8.30337e-09
-1.07308e-09
-7.262e-09
-1.04137e-09
-6.2587e-09
-1.00331e-09
-5.29987e-09
-9.58829e-10
-4.39193e-09
-9.07939e-10
-3.54127e-09
-8.50668e-10
-2.75418e-09
-7.87096e-10
-2.0368e-09
-7.17375e-10
-1.39505e-09
-6.41742e-10
-8.34513e-10
-5.60542e-10
-3.60246e-10
-4.74269e-10
2.33912e-11
-3.83637e-10
3.13067e-10
-2.89676e-10
5.06934e-10
-1.93871e-10
6.05376e-10
-9.84472e-11
6.12181e-10
-6.8069e-12
5.36417e-10
7.57636e-11
3.95445e-10
1.40972e-10
2.20022e-10
1.75424e-10
6.30751e-11
1.56945e-10
6.3077e-11
1.6002e-10
-2.2559e-10
4.28423e-10
-4.20274e-10
6.78365e-10
-4.18796e-10
8.20186e-10
-2.71276e-10
7.89334e-10
-2.96043e-11
5.45218e-10
2.69132e-10
6.44947e-11
5.99242e-10
-6.63767e-10
9.43109e-10
-1.64185e-09
1.28866e-09
-2.86582e-09
1.62764e-09
-4.32747e-09
1.95432e-09
-6.01553e-09
2.26471e-09
-7.91655e-09
2.55611e-09
-1.00156e-08
2.82665e-09
-1.22968e-08
3.0751e-09
-1.47436e-08
3.30065e-09
-1.73389e-08
3.50289e-09
-2.00658e-08
3.68165e-09
-2.2907e-08
3.83697e-09
-2.58455e-08
3.96905e-09
-2.88645e-08
4.0782e-09
-3.19474e-08
4.16481e-09
-3.5078e-08
4.22938e-09
-3.82404e-08
4.27245e-09
-4.14192e-08
4.29465e-09
-4.45995e-08
4.29659e-09
-4.77668e-08
4.27896e-09
-5.09071e-08
4.24242e-09
-5.4007e-08
4.18772e-09
-5.70537e-08
4.11557e-09
-6.00346e-08
4.02669e-09
-6.29379e-08
3.92183e-09
-6.57524e-08
3.80173e-09
-6.84674e-08
3.66716e-09
-7.10726e-08
3.51886e-09
-7.35585e-08
3.35761e-09
-7.5916e-08
3.18415e-09
-7.81365e-08
2.99925e-09
-8.02123e-08
2.80365e-09
-8.21358e-08
2.59813e-09
-8.39004e-08
2.38343e-09
-8.54997e-08
2.16035e-09
-8.69282e-08
1.92965e-09
-8.81807e-08
1.6921e-09
-8.92529e-08
1.4485e-09
-9.01407e-08
1.19964e-09
-9.08409e-08
9.46322e-10
-9.13508e-08
6.89353e-10
-9.16683e-08
4.29554e-10
-9.1792e-08
1.6775e-10
-9.17209e-08
-9.52036e-11
-9.14549e-08
-3.58441e-10
-9.09945e-08
-6.21097e-10
-9.03407e-08
-8.8229e-10
-8.94952e-08
-1.14113e-09
-8.84606e-08
-1.39672e-09
-8.72398e-08
-1.64814e-09
-8.58368e-08
-1.89445e-09
-8.4256e-08
-2.13472e-09
-8.25026e-08
-2.36799e-09
-8.05825e-08
-2.5933e-09
-7.85023e-08
-2.80972e-09
-7.62694e-08
-3.01626e-09
-7.38917e-08
-3.21198e-09
-7.1378e-08
-3.39588e-09
-6.87378e-08
-3.56702e-09
-6.59812e-08
-3.72446e-09
-6.31192e-08
-3.86724e-09
-6.01631e-08
-3.99444e-09
-5.71252e-08
-4.10516e-09
-5.40185e-08
-4.1985e-09
-5.08563e-08
-4.27359e-09
-4.76527e-08
-4.32961e-09
-4.44224e-08
-4.3658e-09
-4.11807e-08
-4.38139e-09
-3.79431e-08
-4.3757e-09
-3.47259e-08
-4.34809e-09
-3.15456e-08
-4.29801e-09
-2.84191e-08
-4.22496e-09
-2.53637e-08
-4.12852e-09
-2.23967e-08
-4.00839e-09
-1.95356e-08
-3.86437e-09
-1.6798e-08
-3.69641e-09
-1.42014e-08
-3.50458e-09
-1.17629e-08
-3.28917e-09
-9.49929e-09
-3.05071e-09
-7.42669e-09
-2.78997e-09
-5.56031e-09
-2.50813e-09
-3.91404e-09
-2.20681e-09
-2.50002e-09
-1.88829e-09
-1.32793e-09
-1.55573e-09
-4.04167e-10
-1.21345e-09
2.69486e-10
-8.67529e-10
6.97566e-10
-5.26532e-10
8.9343e-10
-2.02678e-10
8.82761e-10
8.64279e-11
7.08245e-10
3.15486e-10
4.35271e-10
4.48398e-10
1.56815e-10
4.35402e-10
2.19899e-10
1.69726e-10
-3.95288e-10
4.24168e-10
-6.74718e-10
6.02413e-10
-5.97012e-10
5.95058e-10
-2.63934e-10
3.22231e-10
2.43251e-10
-2.70377e-10
8.61733e-10
-1.21623e-09
1.54512e-09
-2.5329e-09
2.25978e-09
-4.2258e-09
2.98155e-09
-6.29128e-09
3.69313e-09
-8.71896e-09
4.382e-09
-1.14935e-08
5.03923e-09
-1.45958e-08
5.65842e-09
-1.80042e-08
6.23505e-09
-2.16951e-08
6.766e-09
-2.56436e-08
7.24918e-09
-2.98241e-08
7.68331e-09
-3.42101e-08
8.06771e-09
-3.87754e-08
8.40223e-09
-4.34934e-08
8.68705e-09
-4.83378e-08
8.92265e-09
-5.32828e-08
9.10978e-09
-5.83028e-08
9.24936e-09
-6.33728e-08
9.34246e-09
-6.84684e-08
9.39029e-09
-7.3566e-08
9.39416e-09
-7.86425e-08
9.35546e-09
-8.36757e-08
9.27562e-09
-8.86441e-08
9.15614e-09
-9.35271e-08
8.99856e-09
-9.83049e-08
8.80446e-09
-1.02958e-07
8.57543e-09
-1.0747e-07
8.31306e-09
-1.11822e-07
8.01899e-09
-1.15998e-07
7.69485e-09
-1.19982e-07
7.34229e-09
-1.23761e-07
6.96297e-09
-1.2732e-07
6.55854e-09
-1.30647e-07
6.13068e-09
-1.3373e-07
5.68105e-09
-1.36558e-07
5.21133e-09
-1.39121e-07
4.72321e-09
-1.4141e-07
4.2184e-09
-1.43416e-07
3.69861e-09
-1.45133e-07
3.16557e-09
-1.46555e-07
2.62103e-09
-1.47675e-07
2.06676e-09
-1.4849e-07
1.50453e-09
-1.48997e-07
9.36162e-10
-1.49193e-07
3.63482e-10
-1.49076e-07
-2.11656e-10
-1.48647e-07
-7.87363e-10
-1.47907e-07
-1.36173e-09
-1.46856e-07
-1.93282e-09
-1.45499e-07
-2.49869e-09
-1.43838e-07
-3.05733e-09
-1.41879e-07
-3.60677e-09
-1.39629e-07
-4.14495e-09
-1.37094e-07
-4.66982e-09
-1.34283e-07
-5.17931e-09
-1.31204e-07
-5.67133e-09
-1.2787e-07
-6.14381e-09
-1.24292e-07
-6.59462e-09
-1.20482e-07
-7.02168e-09
-1.16455e-07
-7.42291e-09
-1.12226e-07
-7.7962e-09
-1.07811e-07
-8.1395e-09
-1.03228e-07
-8.45079e-09
-9.84939e-08
-8.72806e-09
-9.36297e-08
-8.96934e-09
-8.86555e-08
-9.17274e-09
-8.35926e-08
-9.33644e-09
-7.84636e-08
-9.45867e-09
-7.32916e-08
-9.53776e-09
-6.81008e-08
-9.57215e-09
-6.29161e-08
-9.56042e-09
-5.7763e-08
-9.50124e-09
-5.26675e-08
-9.39347e-09
-4.76563e-08
-9.23613e-09
-4.27564e-08
-9.02845e-09
-3.79949e-08
-8.76987e-09
-3.33992e-08
-8.46012e-09
-2.89963e-08
-8.09922e-09
-2.48133e-08
-7.68759e-09
-2.08765e-08
-7.22606e-09
-1.72112e-08
-6.716e-09
-1.38417e-08
-6.15946e-09
-1.07905e-08
-5.55932e-09
-8.07776e-09
-4.91951e-09
-5.72066e-09
-4.2454e-09
-3.73221e-09
-3.54418e-09
-2.1201e-09
-2.82555e-09
-8.84955e-10
-2.10267e-09
-1.80836e-11
-1.39341e-09
5.01422e-10
-7.2219e-10
7.10335e-10
-1.22476e-10
6.65802e-10
3.6003e-10
4.50177e-10
6.64025e-10
1.75827e-10
7.09762e-10
3.9573e-10
1.31561e-10
-5.26863e-10
2.78463e-10
-8.2162e-10
2.74292e-10
-5.92848e-10
1.72256e-12
8.65087e-12
-6.25256e-10
8.70209e-10
-1.66698e-09
1.90345e-09
-3.16216e-09
3.0403e-09
-5.13218e-09
4.22979e-09
-7.58455e-09
5.43393e-09
-1.05159e-08
6.62448e-09
-1.39145e-08
7.78054e-09
-1.77619e-08
8.88667e-09
-2.2035e-08
9.93151e-09
-2.67068e-08
1.09068e-08
-3.17475e-08
1.18068e-08
-3.71255e-08
1.26272e-08
-4.28078e-08
1.33656e-08
-4.87603e-08
1.40202e-08
-5.49487e-08
1.45906e-08
-6.13382e-08
1.50766e-08
-6.78944e-08
1.54789e-08
-7.45831e-08
1.57984e-08
-8.13704e-08
1.60366e-08
-8.82231e-08
1.61952e-08
-9.51088e-08
1.6276e-08
-1.01996e-07
1.62813e-08
-1.08854e-07
1.62132e-08
-1.15652e-07
1.60741e-08
-1.22363e-07
1.58667e-08
-1.28957e-07
1.55934e-08
-1.3541e-07
1.52569e-08
-1.41694e-07
1.486e-08
-1.47787e-07
1.44053e-08
-1.53663e-07
1.38957e-08
-1.59303e-07
1.3334e-08
-1.64683e-07
1.27229e-08
-1.69786e-07
1.20655e-08
-1.74592e-07
1.13645e-08
-1.79084e-07
1.06228e-08
-1.83246e-07
9.84329e-09
-1.87064e-07
9.02896e-09
-1.90523e-07
8.18272e-09
-1.93612e-07
7.30752e-09
-1.9632e-07
6.40635e-09
-1.98637e-07
5.48224e-09
-2.00554e-07
4.53821e-09
-2.02064e-07
3.57735e-09
-2.03163e-07
2.60276e-09
-2.03844e-07
1.61758e-09
-2.04106e-07
6.25011e-10
-2.03945e-07
-3.7172e-10
-2.03364e-07
-1.36935e-09
-2.02361e-07
-2.36455e-09
-2.0094e-07
-3.35397e-09
-1.99104e-07
-4.33421e-09
-1.96859e-07
-5.30184e-09
-1.94213e-07
-6.25336e-09
-1.91173e-07
-7.18526e-09
-1.87748e-07
-8.09399e-09
-1.83952e-07
-8.97596e-09
-1.79796e-07
-9.82757e-09
-1.75294e-07
-1.06452e-08
-1.70463e-07
-1.14253e-08
-1.65321e-07
-1.21641e-08
-1.59886e-07
-1.28582e-08
-1.54178e-07
-1.35039e-08
-1.4822e-07
-1.40977e-08
-1.42035e-07
-1.4636e-08
-1.35647e-07
-1.51156e-08
-1.29084e-07
-1.55329e-08
-1.22371e-07
-1.58849e-08
-1.15539e-07
-1.61684e-08
-1.08617e-07
-1.63805e-08
-1.01637e-07
-1.65183e-08
-9.46299e-08
-1.65792e-08
-8.76295e-08
-1.65609e-08
-8.06696e-08
-1.64611e-08
-7.3785e-08
-1.62781e-08
-6.70108e-08
-1.60103e-08
-6.03828e-08
-1.56565e-08
-5.39367e-08
-1.5216e-08
-4.77084e-08
-1.46884e-08
-4.17334e-08
-1.40742e-08
-3.60467e-08
-1.33743e-08
-3.06824e-08
-1.25904e-08
-2.56731e-08
-1.17252e-08
-2.10498e-08
-1.07828e-08
-1.68408e-08
-9.76837e-09
-1.30711e-08
-8.68922e-09
-9.76157e-09
-7.55489e-09
-6.92772e-09
-6.37802e-09
-4.57801e-09
-5.17526e-09
-2.71214e-09
-3.96855e-09
-1.31865e-09
-2.7869e-09
-3.72165e-10
-1.66867e-09
1.70008e-10
-6.6464e-10
3.71791e-10
1.58246e-10
3.22642e-10
7.1317e-10
1.43031e-10
8.89384e-10
5.38758e-10
6.42249e-11
-5.91071e-10
4.21692e-11
-7.99574e-10
-2.22913e-10
-3.27733e-10
-8.45505e-10
6.31219e-10
-1.91083e-09
1.93555e-09
-3.47956e-09
3.47217e-09
-5.59152e-09
5.15227e-09
-8.26912e-09
6.9074e-09
-1.15204e-08
8.68517e-09
-1.53415e-08
1.04456e-08
-1.97192e-08
1.21583e-08
-2.46328e-08
1.38003e-08
-3.00557e-08
1.53543e-08
-3.59564e-08
1.68076e-08
-4.23004e-08
1.81507e-08
-4.90501e-08
1.9377e-08
-5.61665e-08
2.04819e-08
-6.36089e-08
2.14626e-08
-7.1336e-08
2.23177e-08
-7.93061e-08
2.30467e-08
-8.74774e-08
2.36502e-08
-9.58084e-08
2.41294e-08
-1.04258e-07
2.44861e-08
-1.12785e-07
2.47226e-08
-1.21351e-07
2.48417e-08
-1.29916e-07
2.48464e-08
-1.38443e-07
2.47399e-08
-1.46895e-07
2.45259e-08
-1.55236e-07
2.42079e-08
-1.63432e-07
2.37899e-08
-1.71451e-07
2.32758e-08
-1.79261e-07
2.26696e-08
-1.86831e-07
2.19754e-08
-1.94133e-07
2.11976e-08
-2.01139e-07
2.03403e-08
-2.07824e-07
1.94078e-08
-2.14163e-07
1.84044e-08
-2.20133e-07
1.73346e-08
-2.25713e-07
1.62027e-08
-2.30883e-07
1.50132e-08
-2.35624e-07
1.37704e-08
-2.39921e-07
1.2479e-08
-2.43757e-07
1.11434e-08
-2.47118e-07
9.76818e-09
-2.49994e-07
8.358e-09
-2.52373e-07
6.91749e-09
-2.54247e-07
5.45135e-09
-2.55609e-07
3.96435e-09
-2.56453e-07
2.4613e-09
-2.56775e-07
9.47072e-10
-2.56573e-07
-5.73392e-10
-2.55847e-07
-2.09509e-09
-2.54599e-07
-3.61295e-09
-2.52831e-07
-5.12187e-09
-2.50549e-07
-6.61663e-09
-2.47758e-07
-8.092e-09
-2.44469e-07
-9.54266e-09
-2.40691e-07
-1.09633e-08
-2.36437e-07
-1.23484e-08
-2.3172e-07
-1.36926e-08
-2.26557e-07
-1.49904e-08
-2.20966e-07
-1.62363e-08
-2.14967e-07
-1.74249e-08
-2.0858e-07
-1.85506e-08
-2.0183e-07
-1.9608e-08
-1.94743e-07
-2.05917e-08
-1.87344e-07
-2.14963e-08
-1.79663e-07
-2.23166e-08
-1.71731e-07
-2.30475e-08
-1.6358e-07
-2.36839e-08
-1.55244e-07
-2.4221e-08
-1.46759e-07
-2.46542e-08
-1.3816e-07
-2.4979e-08
-1.29487e-07
-2.51913e-08
-1.20779e-07
-2.52872e-08
-1.12077e-07
-2.52633e-08
-1.03422e-07
-2.51164e-08
-9.48558e-08
-2.48439e-08
-8.64224e-08
-2.44436e-08
-7.81648e-08
-2.39141e-08
-7.01264e-08
-2.32543e-08
-6.23506e-08
-2.24643e-08
-5.48801e-08
-2.15447e-08
-4.77569e-08
-2.04974e-08
-4.10218e-08
-1.93255e-08
-3.47135e-08
-1.80335e-08
-2.88684e-08
-1.66278e-08
-2.35198e-08
-1.5117e-08
-1.86968e-08
-1.35122e-08
-1.44233e-08
-1.18284e-08
-1.07169e-08
-1.00845e-08
-7.58694e-09
-8.3052e-09
-5.03314e-09
-6.52236e-09
-3.04303e-09
-4.77701e-09
-1.58961e-09
-3.12208e-09
-6.28423e-10
-1.62583e-09
-9.42681e-11
-3.75918e-10
1.02466e-10
5.16433e-10
8.06489e-11
9.11205e-10
6.19401e-10
-1.86558e-11
-5.7241e-10
-2.49271e-10
-5.6896e-10
-8.29032e-10
2.5201e-10
-1.86222e-09
1.66442e-09
-3.42768e-09
3.50103e-09
-5.58226e-09
5.62674e-09
-8.36351e-09
7.93352e-09
-1.17924e-08
1.03363e-08
-1.58756e-08
1.27684e-08
-2.06079e-08
1.51779e-08
-2.59743e-08
1.75246e-08
-3.19514e-08
1.97774e-08
-3.85095e-08
2.19124e-08
-4.56135e-08
2.39116e-08
-5.32244e-08
2.57616e-08
-6.12998e-08
2.74524e-08
-6.97953e-08
2.89774e-08
-7.86646e-08
3.03319e-08
-8.78604e-08
3.15135e-08
-9.73347e-08
3.2521e-08
-1.07039e-07
3.33549e-08
-1.16926e-07
3.40163e-08
-1.26948e-07
3.45076e-08
-1.37057e-07
3.48317e-08
-1.47207e-07
3.49921e-08
-1.57354e-07
3.49927e-08
-1.67452e-07
3.48381e-08
-1.77459e-07
3.45329e-08
-1.87333e-07
3.40822e-08
-1.97034e-07
3.34913e-08
-2.06524e-07
3.27656e-08
-2.15765e-07
3.19107e-08
-2.24722e-07
3.09323e-08
-2.33361e-07
2.98363e-08
-2.41649e-07
2.86286e-08
-2.49557e-07
2.73152e-08
-2.57054e-07
2.59022e-08
-2.64116e-07
2.43956e-08
-2.70715e-07
2.28018e-08
-2.76828e-07
2.11268e-08
-2.82435e-07
1.9377e-08
-2.87514e-07
1.75587e-08
-2.92049e-07
1.56782e-08
-2.96023e-07
1.37421e-08
-2.99422e-07
1.17569e-08
-3.02234e-07
9.729e-09
-3.04447e-07
7.66515e-09
-3.06055e-07
5.57205e-09
-3.0705e-07
3.45649e-09
-3.07429e-07
1.32534e-09
-3.07188e-07
-8.14444e-10
-3.06327e-07
-2.95581e-09
-3.04848e-07
-5.09162e-09
-3.02755e-07
-7.21467e-09
-3.00054e-07
-9.31765e-09
-2.96753e-07
-1.13932e-08
-2.92862e-07
-1.34338e-08
-2.88393e-07
-1.54319e-08
-2.83362e-07
-1.738e-08
-2.77784e-07
-1.92705e-08
-2.71679e-07
-2.10956e-08
-2.65067e-07
-2.28476e-08
-2.57973e-07
-2.4519e-08
-2.50422e-07
-2.61019e-08
-2.42441e-07
-2.75889e-08
-2.3406e-07
-2.89723e-08
-2.25312e-07
-3.02447e-08
-2.1623e-07
-3.13989e-08
-2.0685e-07
-3.24275e-08
-1.9721e-07
-3.33238e-08
-1.8735e-07
-3.40811e-08
-1.77311e-07
-3.46928e-08
-1.67137e-07
-3.5153e-08
-1.56872e-07
-3.54559e-08
-1.46563e-07
-3.55964e-08
-1.36257e-07
-3.55697e-08
-1.26001e-07
-3.53717e-08
-1.15847e-07
-3.49988e-08
-1.05842e-07
-3.44483e-08
-9.60377e-08
-3.37183e-08
-8.64841e-08
-3.2808e-08
-7.7231e-08
-3.17174e-08
-6.83277e-08
-3.0448e-08
-5.98223e-08
-2.90028e-08
-5.17612e-08
-2.73866e-08
-4.41886e-08
-2.56062e-08
-3.71456e-08
-2.36708e-08
-3.06697e-08
-2.15929e-08
-2.47936e-08
-1.93883e-08
-1.95441e-08
-1.70778e-08
-1.4941e-08
-1.46876e-08
-1.09953e-08
-1.2251e-08
-7.70753e-09
-9.8101e-09
-5.06617e-09
-7.41837e-09
-3.04508e-09
-5.14317e-09
-1.60137e-09
-3.06954e-09
-6.72801e-10
-1.30449e-09
-1.75012e-10
1.86462e-11
1.87675e-12
7.34317e-10
6.21277e-10
-1.09309e-10
-4.63091e-10
-5.72148e-10
-1.06138e-10
-1.50145e-09
1.18133e-09
-2.98657e-09
3.14953e-09
-5.09603e-09
5.61049e-09
-7.87953e-09
8.41025e-09
-1.13696e-08
1.14236e-08
-1.55837e-08
1.45503e-08
-2.05255e-08
1.77102e-08
-2.61872e-08
2.08397e-08
-3.25511e-08
2.38886e-08
-3.95912e-08
2.68175e-08
-4.72745e-08
2.95957e-08
-5.55625e-08
3.21995e-08
-6.4412e-08
3.46111e-08
-7.37765e-08
3.68169e-08
-8.36067e-08
3.88076e-08
-9.38513e-08
4.05766e-08
-1.04458e-07
4.21199e-08
-1.15373e-07
4.34358e-08
-1.26542e-07
4.45242e-08
-1.37912e-07
4.53863e-08
-1.49429e-07
4.60246e-08
-1.6104e-07
4.64428e-08
-1.72693e-07
4.66451e-08
-1.84337e-07
4.66366e-08
-1.95921e-07
4.64228e-08
-2.07398e-07
4.60099e-08
-2.1872e-07
4.54043e-08
-2.29842e-07
4.46129e-08
-2.40719e-07
4.36427e-08
-2.5131e-07
4.25011e-08
-2.61573e-07
4.11956e-08
-2.71471e-07
3.97339e-08
-2.80966e-07
3.81237e-08
-2.90024e-07
3.63731e-08
-2.98611e-07
3.449e-08
-3.06698e-07
3.24826e-08
-3.14256e-07
3.0359e-08
-3.21256e-07
2.81275e-08
-3.27676e-07
2.57966e-08
-3.33492e-07
2.33745e-08
-3.38683e-07
2.08698e-08
-3.43232e-07
1.82911e-08
-3.47122e-07
1.56471e-08
-3.5034e-07
1.29464e-08
-3.52873e-07
1.0198e-08
-3.54712e-07
7.41084e-09
-3.55849e-07
4.5939e-09
-3.5628e-07
1.75637e-09
-3.56002e-07
-1.09247e-09
-3.55015e-07
-3.94324e-09
-3.5332e-07
-6.78645e-09
-3.50922e-07
-9.61248e-09
-3.47828e-07
-1.24116e-08
-3.44047e-07
-1.51741e-08
-3.39591e-07
-1.78899e-08
-3.34474e-07
-2.0549e-08
-3.28712e-07
-2.31415e-08
-3.22326e-07
-2.56572e-08
-3.15335e-07
-2.80858e-08
-3.07766e-07
-3.04173e-08
-2.99643e-07
-3.26414e-08
-2.90997e-07
-3.4748e-08
-2.81859e-07
-3.67271e-08
-2.72263e-07
-3.85687e-08
-2.62245e-07
-4.02629e-08
-2.51843e-07
-4.18002e-08
-2.411e-07
-4.31712e-08
-2.30057e-07
-4.43667e-08
-2.1876e-07
-4.5378e-08
-2.07256e-07
-4.61968e-08
-1.95594e-07
-4.6815e-08
-1.83824e-07
-4.72255e-08
-1.71999e-07
-4.74213e-08
-1.60173e-07
-4.73965e-08
-1.48398e-07
-4.71459e-08
-1.36732e-07
-4.66649e-08
-1.2523e-07
-4.59503e-08
-1.13949e-07
-4.5e-08
-1.02944e-07
-4.38129e-08
-9.22712e-08
-4.23898e-08
-8.19861e-08
-4.07331e-08
-7.21419e-08
-3.8847e-08
-6.27902e-08
-3.67383e-08
-5.39799e-08
-3.44165e-08
-4.57565e-08
-3.18942e-08
-3.81614e-08
-2.9188e-08
-3.12306e-08
-2.63191e-08
-2.4994e-08
-2.33144e-08
-1.9474e-08
-2.02077e-08
-1.46837e-08
-1.70412e-08
-1.06261e-08
-1.38677e-08
-7.29208e-09
-1.07524e-08
-4.65849e-09
-7.77676e-09
-2.68676e-09
-5.04126e-09
-1.3209e-09
-2.67034e-09
-4.85803e-10
-8.16459e-10
-8.53728e-11
3.33886e-10
5.35908e-10
-2.0315e-10
-2.59946e-10
-9.10912e-10
6.01614e-10
-2.21079e-09
2.48121e-09
-4.17447e-09
5.11319e-09
-6.85754e-09
8.29357e-09
-1.03002e-08
1.18529e-08
-1.45279e-08
1.56513e-08
-1.95523e-08
1.95748e-08
-2.53731e-08
2.35309e-08
-3.19786e-08
2.74452e-08
-3.93478e-08
3.12577e-08
-4.74512e-08
3.49209e-08
-5.62526e-08
3.83971e-08
-6.57098e-08
4.16567e-08
-7.57759e-08
4.46772e-08
-8.64002e-08
4.74413e-08
-9.75293e-08
4.99366e-08
-1.09107e-07
5.21544e-08
-1.21076e-07
5.40892e-08
-1.33379e-07
5.57381e-08
-1.45955e-07
5.71005e-08
-1.58746e-07
5.81776e-08
-1.71694e-07
5.89721e-08
-1.84739e-07
5.94881e-08
-1.97825e-07
5.97307e-08
-2.10894e-07
5.97061e-08
-2.23892e-07
5.9421e-08
-2.36766e-07
5.8883e-08
-2.49462e-07
5.81002e-08
-2.6193e-07
5.70809e-08
-2.74121e-07
5.58341e-08
-2.85989e-07
5.4369e-08
-2.97488e-07
5.26951e-08
-3.08576e-07
5.0822e-08
-3.19212e-07
4.87596e-08
-3.29357e-07
4.65181e-08
-3.38975e-07
4.41075e-08
-3.4803e-07
4.15382e-08
-3.56492e-07
3.88207e-08
-3.6433e-07
3.59655e-08
-3.71517e-07
3.29833e-08
-3.78027e-07
2.98848e-08
-3.83838e-07
2.66808e-08
-3.88929e-07
2.33824e-08
-3.93283e-07
2.00007e-08
-3.96883e-07
1.65467e-08
-3.99717e-07
1.3032e-08
-4.01774e-07
9.46776e-09
-4.03046e-07
5.86573e-09
-4.03527e-07
2.23757e-09
-4.03215e-07
-1.40486e-09
-4.02109e-07
-5.04955e-09
-4.00211e-07
-8.68439e-09
-3.97526e-07
-1.22971e-08
-3.94062e-07
-1.58753e-08
-3.8983e-07
-1.94064e-08
-3.84842e-07
-2.28778e-08
-3.79114e-07
-2.62767e-08
-3.72665e-07
-2.95904e-08
-3.65517e-07
-3.28058e-08
-3.57692e-07
-3.59101e-08
-3.49219e-07
-3.88903e-08
-3.40127e-07
-4.17336e-08
-3.30448e-07
-4.44269e-08
-3.20218e-07
-4.69576e-08
-3.09474e-07
-4.9313e-08
-2.98256e-07
-5.14807e-08
-2.86607e-07
-5.34486e-08
-2.74574e-07
-5.52047e-08
-2.62203e-07
-5.67377e-08
-2.49544e-07
-5.80364e-08
-2.36651e-07
-5.90904e-08
-2.23576e-07
-5.98898e-08
-2.10376e-07
-6.04254e-08
-1.97109e-07
-6.06888e-08
-1.83832e-07
-6.06726e-08
-1.70608e-07
-6.03704e-08
-1.57496e-07
-5.97768e-08
-1.44558e-07
-5.8888e-08
-1.31857e-07
-5.77015e-08
-1.19453e-07
-5.62167e-08
-1.07408e-07
-5.44346e-08
-9.57823e-08
-5.23589e-08
-8.4634e-08
-4.99953e-08
-7.40194e-08
-4.73529e-08
-6.39919e-08
-4.44441e-08
-5.46009e-08
-4.12851e-08
-4.58918e-08
-3.78971e-08
-3.79041e-08
-3.43068e-08
-3.06708e-08
-3.05477e-08
-2.42174e-08
-2.66611e-08
-1.85603e-08
-2.26983e-08
-1.37058e-08
-1.87221e-08
-9.64869e-09
-1.48096e-08
-6.37076e-09
-1.10547e-08
-3.83985e-09
-7.57216e-09
-2.00866e-09
-4.50152e-09
-8.13977e-10
-2.01115e-09
-1.76275e-10
-3.03814e-10
3.59633e-10
-2.97432e-10
3.74977e-11
-1.25562e-09
1.5598e-09
-2.93716e-09
4.16276e-09
-5.39498e-09
7.57101e-09
-8.67026e-09
1.15689e-08
-1.2792e-08
1.59746e-08
-1.77768e-08
2.06361e-08
-2.36295e-08
2.54276e-08
-3.03441e-08
3.02455e-08
-3.79042e-08
3.50052e-08
-4.62844e-08
3.9638e-08
-5.54516e-08
4.40881e-08
-6.53657e-08
4.83111e-08
-7.59807e-08
5.22718e-08
-8.7246e-08
5.59425e-08
-9.9107e-08
5.93023e-08
-1.11506e-07
6.23356e-08
-1.24383e-07
6.50313e-08
-1.37676e-07
6.73821e-08
-1.51322e-07
6.93841e-08
-1.65257e-07
7.1036e-08
-1.79419e-07
7.23387e-08
-1.93742e-07
7.32952e-08
-2.08164e-07
7.39101e-08
-2.22622e-07
7.41893e-08
-2.37056e-07
7.41399e-08
-2.51405e-07
7.37702e-08
-2.65611e-07
7.3089e-08
-2.79617e-07
7.2106e-08
-2.93368e-07
7.08316e-08
-3.0681e-07
6.92765e-08
-3.19893e-07
6.7452e-08
-3.32568e-07
6.53695e-08
-3.44786e-07
6.30409e-08
-3.56505e-07
6.04785e-08
-3.67682e-07
5.76945e-08
-3.78276e-07
5.47016e-08
-3.8825e-07
5.15124e-08
-3.97569e-07
4.81398e-08
-4.06201e-07
4.45969e-08
-4.14114e-07
4.08969e-08
-4.21283e-07
3.7053e-08
-4.2768e-07
3.30787e-08
-4.33286e-07
2.89876e-08
-4.38078e-07
2.47934e-08
-4.42042e-07
2.051e-08
-4.45161e-07
1.61514e-08
-4.47425e-07
1.17318e-08
-4.48825e-07
7.26553e-09
-4.49354e-07
2.7671e-09
-4.4901e-07
-1.7488e-09
-4.47793e-07
-6.26732e-09
-4.45704e-07
-1.07734e-08
-4.42749e-07
-1.5252e-08
-4.38937e-07
-1.96876e-08
-4.34278e-07
-2.40648e-08
-4.28788e-07
-2.83679e-08
-4.22484e-07
-3.25812e-08
-4.15385e-07
-3.66888e-08
-4.07516e-07
-4.06748e-08
-3.98903e-07
-4.45233e-08
-3.89575e-07
-4.82182e-08
-3.79565e-07
-5.17438e-08
-3.68908e-07
-5.5084e-08
-3.57642e-07
-5.82233e-08
-3.45809e-07
-6.1146e-08
-3.33453e-07
-6.3837e-08
-3.2062e-07
-6.62813e-08
-3.07361e-07
-6.84643e-08
-2.93726e-07
-7.03722e-08
-2.79771e-07
-7.19913e-08
-2.65553e-07
-7.33089e-08
-2.5113e-07
-7.43129e-08
-2.36563e-07
-7.49924e-08
-2.21914e-07
-7.53371e-08
-2.07249e-07
-7.53381e-08
-1.92632e-07
-7.49878e-08
-1.78128e-07
-7.428e-08
-1.63806e-07
-7.32103e-08
-1.49732e-07
-7.17759e-08
-1.35972e-07
-6.99764e-08
-1.22593e-07
-6.78137e-08
-1.09659e-07
-6.52925e-08
-9.72342e-08
-6.24205e-08
-8.53782e-08
-5.92089e-08
-7.41489e-08
-5.56734e-08
-6.35999e-08
-5.18341e-08
-5.37801e-08
-4.77169e-08
-4.4733e-08
-4.3354e-08
-3.64952e-08
-3.87855e-08
-2.90958e-08
-3.40605e-08
-2.25553e-08
-2.92388e-08
-1.68843e-08
-2.43931e-08
-1.20828e-08
-1.9611e-08
-8.13912e-09
-1.49984e-08
-5.02903e-09
-1.06822e-08
-2.71565e-09
-6.81491e-09
-1.14922e-09
-3.57758e-09
-2.67971e-10
-1.18507e-09
9.16577e-11
-3.90591e-10
4.28086e-10
-1.6e-09
2.76917e-09
-3.66736e-09
6.23015e-09
-6.62685e-09
1.05305e-08
-1.05045e-08
1.54465e-08
-1.53171e-08
2.07872e-08
-2.10713e-08
2.63904e-08
-2.7764e-08
3.21203e-08
-3.53824e-08
3.78638e-08
-4.39044e-08
4.35272e-08
-5.32997e-08
4.90333e-08
-6.35307e-08
5.43191e-08
-7.45532e-08
5.93336e-08
-8.63171e-08
6.40357e-08
-9.87679e-08
6.83933e-08
-1.11847e-07
7.23815e-08
-1.25493e-07
7.59813e-08
-1.39641e-07
7.91794e-08
-1.54226e-07
8.19667e-08
-1.69179e-07
8.43379e-08
-1.84434e-07
8.62911e-08
-1.99923e-07
8.78268e-08
-2.15576e-07
8.89483e-08
-2.31326e-07
8.96606e-08
-2.47107e-07
8.99704e-08
-2.62853e-07
8.9886e-08
-2.785e-07
8.94169e-08
-2.93984e-07
8.85735e-08
-3.09246e-07
8.73672e-08
-3.24224e-07
8.58103e-08
-3.38863e-07
8.39154e-08
-3.53107e-07
8.1696e-08
-3.66904e-07
7.91658e-08
-3.80202e-07
7.63391e-08
-3.92953e-07
7.32303e-08
-4.05113e-07
6.98544e-08
-4.16638e-07
6.62263e-08
-4.27487e-07
6.23615e-08
-4.37623e-07
5.82754e-08
-4.47009e-07
5.39837e-08
-4.55615e-07
4.95024e-08
-4.63409e-07
4.48474e-08
-4.70366e-07
4.00351e-08
-4.7646e-07
3.50819e-08
-4.81671e-07
3.00043e-08
-4.8598e-07
2.4819e-08
-4.89372e-07
1.95432e-08
-4.91834e-07
1.41937e-08
-4.93356e-07
8.78814e-09
-4.93933e-07
3.34388e-09
-4.93561e-07
-2.1213e-09
-4.92238e-07
-7.58946e-09
-4.89969e-07
-1.30425e-08
-4.86759e-07
-1.8462e-08
-4.82618e-07
-2.38295e-08
-4.77556e-07
-2.91262e-08
-4.7159e-07
-3.43334e-08
-4.6474e-07
-3.94321e-08
-4.57025e-07
-4.44031e-08
-4.48473e-07
-4.92272e-08
-4.39111e-07
-5.38853e-08
-4.28971e-07
-5.83582e-08
-4.18088e-07
-6.26266e-08
-4.065e-07
-6.66716e-08
-3.94249e-07
-7.04743e-08
-3.81379e-07
-7.4016e-08
-3.67938e-07
-7.72785e-08
-3.53975e-07
-8.02439e-08
-3.39545e-07
-8.28949e-08
-3.24702e-07
-8.52146e-08
-3.09507e-07
-8.7187e-08
-2.94019e-07
-8.87968e-08
-2.78302e-07
-9.00299e-08
-2.62421e-07
-9.08729e-08
-2.46444e-07
-9.13141e-08
-2.30439e-07
-9.13429e-08
-2.14477e-07
-9.09504e-08
-1.98627e-07
-9.01295e-08
-1.82962e-07
-8.88752e-08
-1.67554e-07
-8.71847e-08
-1.52472e-07
-8.50576e-08
-1.37789e-07
-8.24968e-08
-1.23574e-07
-7.95081e-08
-1.09893e-07
-7.61012e-08
-9.6812e-08
-7.22899e-08
-8.43925e-08
-6.80929e-08
-7.26923e-08
-6.35344e-08
-6.17641e-08
-5.8645e-08
-5.16554e-08
-5.34627e-08
-4.2407e-08
-4.80339e-08
-3.40523e-08
-4.24151e-08
-2.66165e-08
-3.66746e-08
-2.01157e-08
-3.08939e-08
-1.4556e-08
-2.51707e-08
-9.93323e-09
-1.96212e-08
-6.23248e-09
-1.4383e-08
-3.42823e-09
-9.61917e-09
-1.485e-09
-5.52082e-09
-3.58796e-10
-2.31128e-09
-2.6714e-10
-4.81787e-10
9.0988e-10
-1.9402e-09
4.22758e-09
-4.39293e-09
8.68287e-09
-7.85588e-09
1.39934e-08
-1.23399e-08
1.99305e-08
-1.78489e-08
2.62962e-08
-2.43792e-08
3.29206e-08
-3.19185e-08
3.96597e-08
-4.04466e-08
4.63919e-08
-4.99349e-08
5.30155e-08
-6.03476e-08
5.9446e-08
-7.16419e-08
6.56135e-08
-8.37691e-08
7.14607e-08
-9.66747e-08
7.69414e-08
-1.103e-07
8.20188e-08
-1.24583e-07
8.6664e-08
-1.39457e-07
9.08553e-08
-1.54854e-07
9.45766e-08
-1.70704e-07
9.78171e-08
-1.86936e-07
1.0057e-07
-2.03479e-07
1.02833e-07
-2.20258e-07
1.04606e-07
-2.37203e-07
1.05893e-07
-2.54242e-07
1.06699e-07
-2.71303e-07
1.07032e-07
-2.88318e-07
1.06901e-07
-3.05217e-07
1.06316e-07
-3.21934e-07
1.05291e-07
-3.38404e-07
1.03837e-07
-3.54564e-07
1.0197e-07
-3.70353e-07
9.9704e-08
-3.85711e-07
9.70548e-08
-4.00584e-07
9.40385e-08
-4.14917e-07
9.06718e-08
-4.28658e-07
8.69718e-08
-4.4176e-07
8.29558e-08
-4.54175e-07
7.86418e-08
-4.65862e-07
7.40477e-08
-4.76778e-07
6.91918e-08
-4.86887e-07
6.40928e-08
-4.96154e-07
5.87695e-08
-5.04548e-07
5.32407e-08
-5.12038e-07
4.75258e-08
-5.186e-07
4.16441e-08
-5.24211e-07
3.56154e-08
-5.28852e-07
2.94593e-08
-5.32505e-07
2.31961e-08
-5.35157e-07
1.6846e-08
-5.36798e-07
1.04296e-08
-5.37422e-07
3.96749e-09
-5.37024e-07
-2.51917e-09
-5.35604e-07
-9.00919e-09
-5.33166e-07
-1.54811e-08
-5.29715e-07
-2.19132e-08
-5.2526e-07
-2.82836e-08
-5.19816e-07
-3.45702e-08
-5.13399e-07
-4.07507e-08
-5.06029e-07
-4.68026e-08
-4.97728e-07
-5.27034e-08
-4.88525e-07
-5.84304e-08
-4.78449e-07
-6.3961e-08
-4.67535e-07
-6.92725e-08
-4.5582e-07
-7.43423e-08
-4.43343e-07
-7.91479e-08
-4.3015e-07
-8.36672e-08
-4.16288e-07
-8.78782e-08
-4.01807e-07
-9.17595e-08
-3.86761e-07
-9.52899e-08
-3.71207e-07
-9.84492e-08
-3.55204e-07
-1.01218e-07
-3.38814e-07
-1.03576e-07
-3.22104e-07
-1.05508e-07
-3.05139e-07
-1.06995e-07
-2.8799e-07
-1.08022e-07
-2.70727e-07
-1.08577e-07
-2.53424e-07
-1.08646e-07
-2.36156e-07
-1.08219e-07
-2.18997e-07
-1.07289e-07
-2.02023e-07
-1.05849e-07
-1.8531e-07
-1.03897e-07
-1.68935e-07
-1.01433e-07
-1.52972e-07
-9.846e-08
-1.37494e-07
-9.49856e-08
-1.22574e-07
-9.10213e-08
-1.08281e-07
-8.65834e-08
-9.46794e-08
-8.1694e-08
-8.18326e-08
-7.63812e-08
-6.97973e-08
-7.06803e-08
-5.86253e-08
-6.46347e-08
-4.83618e-08
-5.82973e-08
-3.90454e-08
-5.17316e-08
-3.07064e-08
-4.50135e-08
-2.33673e-08
-3.82331e-08
-1.70412e-08
-3.14969e-08
-1.17322e-08
-2.49301e-08
-7.43558e-09
-1.86796e-08
-4.13763e-09
-1.29171e-08
-1.81731e-09
-7.84114e-09
-4.4782e-10
-3.68077e-09
-7.14952e-10
-5.706e-10
1.4805e-09
-2.2741e-09
5.93106e-09
-5.10866e-09
1.15174e-08
-9.07294e-09
1.79578e-08
-1.41629e-08
2.50205e-08
-2.03695e-08
3.25029e-08
-2.7678e-08
4.02291e-08
-3.60667e-08
4.80484e-08
-4.55072e-08
5.58323e-08
-5.59638e-08
6.34722e-08
-6.73946e-08
7.08768e-08
-7.97513e-08
7.79701e-08
-9.29798e-08
8.46892e-08
-1.07021e-07
9.09829e-08
-1.21813e-07
9.68101e-08
-1.37287e-07
1.02138e-07
-1.53375e-07
1.06943e-07
-1.70003e-07
1.11205e-07
-1.87098e-07
1.14912e-07
-2.04585e-07
1.18057e-07
-2.22388e-07
1.20636e-07
-2.4043e-07
1.22649e-07
-2.58636e-07
1.24099e-07
-2.7693e-07
1.24993e-07
-2.95237e-07
1.25339e-07
-3.13483e-07
1.25147e-07
-3.31597e-07
1.2443e-07
-3.49508e-07
1.23201e-07
-3.67147e-07
1.21477e-07
-3.84449e-07
1.19271e-07
-4.01347e-07
1.16603e-07
-4.17782e-07
1.13489e-07
-4.33692e-07
1.09949e-07
-4.49021e-07
1.06001e-07
-4.63715e-07
1.01666e-07
-4.77723e-07
9.69633e-08
-4.90995e-07
9.19139e-08
-5.03486e-07
8.65387e-08
-5.15153e-07
8.08589e-08
-5.25956e-07
7.48961e-08
-5.35859e-07
6.86723e-08
-5.44828e-07
6.22094e-08
-5.52832e-07
5.55299e-08
-5.59844e-07
4.86563e-08
-5.6584e-07
4.16115e-08
-5.708e-07
3.44187e-08
-5.74705e-07
2.71012e-08
-5.77541e-07
1.96826e-08
-5.79299e-07
1.21869e-08
-5.79969e-07
4.6382e-09
-5.79549e-07
-2.93899e-09
-5.78039e-07
-1.052e-08
-5.7544e-07
-1.80797e-08
-5.7176e-07
-2.55931e-08
-5.67009e-07
-3.30345e-08
-5.61201e-07
-4.03782e-08
-5.54354e-07
-4.75983e-08
-5.46488e-07
-5.46687e-08
-5.37628e-07