/*--------------------------------*- C++ -*----------------------------------*\
| =========                 |                                                 |
| \\      /  F ield         | OpenFOAM: The Open Source CFD Toolbox           |
|  \\    /   O peration     | Version:  2212                                  |
|   \\  /    A nd           | Website:  www.openfoam.com                      |
|    \\/     M anipulation  |                                                 |
\*---------------------------------------------------------------------------*/
FoamFile
{
    version     2.0;
    format      ascii;
    arch        "LSB;label=32;scalar=64";
    class       volVectorField;
    location    "0.051";
    object      U_0;
}
// * * * * * * * * * * * * * * * * * * * * * * * * * * * * * * * * * * * * * //

dimensions      [0 1 -1 0 0 0 0];

internalField   nonuniform List<vector> 
10000
(
(2.79735e-06 -2.84229e-06 0)
(1.37976e-05 -7.30738e-06 0)
(3.13105e-05 -8.42128e-06 0)
(4.75903e-05 -7.12951e-06 0)
(5.79355e-05 -4.65654e-06 0)
(6.0126e-05 -1.66283e-06 0)
(5.31133e-05 1.51601e-06 0)
(3.64632e-05 4.70611e-06 0)
(1.0129e-05 7.80829e-06 0)
(-2.56896e-05 1.07727e-05 0)
(-7.06246e-05 1.35695e-05 0)
(-0.000124211 1.61751e-05 0)
(-0.000185911 1.85842e-05 0)
(-0.000255142 2.07944e-05 0)
(-0.000331295 2.27996e-05 0)
(-0.000413742 2.46032e-05 0)
(-0.000501846 2.62082e-05 0)
(-0.000594974 2.76129e-05 0)
(-0.000692492 2.88236e-05 0)
(-0.000793772 2.98477e-05 0)
(-0.000898205 3.06888e-05 0)
(-0.00100519 3.13522e-05 0)
(-0.00111413 3.18439e-05 0)
(-0.00122447 3.2169e-05 0)
(-0.00133564 3.23318e-05 0)
(-0.00144712 3.23394e-05 0)
(-0.00155837 3.21986e-05 0)
(-0.0016689 3.1915e-05 0)
(-0.00177824 3.14939e-05 0)
(-0.00188592 3.09416e-05 0)
(-0.00199149 3.02653e-05 0)
(-0.00209454 2.94706e-05 0)
(-0.00219466 2.85623e-05 0)
(-0.00229147 2.75458e-05 0)
(-0.00238461 2.64281e-05 0)
(-0.00247373 2.52152e-05 0)
(-0.00255851 2.39116e-05 0)
(-0.00263864 2.25228e-05 0)
(-0.00271384 2.10543e-05 0)
(-0.00278384 1.95123e-05 0)
(-0.0028484 1.79031e-05 0)
(-0.00290729 1.62318e-05 0)
(-0.0029603 1.45041e-05 0)
(-0.00300726 1.27263e-05 0)
(-0.00304798 1.0903e-05 0)
(-0.00308233 9.03954e-06 0)
(-0.00311018 7.1426e-06 0)
(-0.00313143 5.2178e-06 0)
(-0.00314599 3.27146e-06 0)
(-0.00315379 1.31062e-06 0)
(-0.0031548 -6.59721e-07 0)
(-0.003149 -2.63391e-06 0)
(-0.00313639 -4.6043e-06 0)
(-0.003117 -6.56464e-06 0)
(-0.00309086 -8.50924e-06 0)
(-0.00305806 -1.04307e-05 0)
(-0.00301869 -1.2322e-05 0)
(-0.00297286 -1.4177e-05 0)
(-0.00292072 -1.59882e-05 0)
(-0.00286243 -1.77477e-05 0)
(-0.00279819 -1.94491e-05 0)
(-0.00272821 -2.10853e-05 0)
(-0.00265273 -2.26485e-05 0)
(-0.00257203 -2.41312e-05 0)
(-0.00248638 -2.55265e-05 0)
(-0.00239611 -2.68268e-05 0)
(-0.00230156 -2.80244e-05 0)
(-0.0022031 -2.91121e-05 0)
(-0.00210112 -3.00828e-05 0)
(-0.00199604 -3.09288e-05 0)
(-0.00188828 -3.16431e-05 0)
(-0.00177833 -3.22193e-05 0)
(-0.00166665 -3.26512e-05 0)
(-0.00155376 -3.2932e-05 0)
(-0.00144019 -3.30546e-05 0)
(-0.00132648 -3.3013e-05 0)
(-0.00121319 -3.28019e-05 0)
(-0.00110091 -3.24167e-05 0)
(-0.00099024 -3.18521e-05 0)
(-0.000881782 -3.11024e-05 0)
(-0.000776162 -3.01633e-05 0)
(-0.000674011 -2.90318e-05 0)
(-0.000575969 -2.77051e-05 0)
(-0.000482676 -2.61808e-05 0)
(-0.000394774 -2.44574e-05 0)
(-0.000312898 -2.25351e-05 0)
(-0.000237673 -2.04155e-05 0)
(-0.000169705 -1.81017e-05 0)
(-0.000109571 -1.5599e-05 0)
(-5.78088e-05 -1.29167e-05 0)
(-1.48945e-05 -1.00706e-05 0)
(1.87768e-05 -7.08546e-06 0)
(4.29334e-05 -3.99964e-06 0)
(5.74828e-05 -8.769e-07 0)
(6.26034e-05 2.17339e-06 0)
(5.88906e-05 4.96153e-06 0)
(4.75604e-05 7.1584e-06 0)
(3.08804e-05 8.17281e-06 0)
(1.34362e-05 6.99149e-06 0)
(2.65552e-06 2.65536e-06 0)
(6.79253e-06 -1.36345e-05 0)
(2.79184e-05 -2.85987e-05 0)
(5.6098e-05 -3.04966e-05 0)
(7.82192e-05 -2.27889e-05 0)
(8.5468e-05 -9.35193e-06 0)
(7.27709e-05 7.2253e-06 0)
(3.71601e-05 2.53761e-05 0)
(-2.29479e-05 4.40898e-05 0)
(-0.000108117 6.27297e-05 0)
(-0.000218182 8.08871e-05 0)
(-0.000352487 9.82784e-05 0)
(-0.000510017 0.000114723 0)
(-0.000689508 0.000130097 0)
(-0.000889535 0.000144318 0)
(-0.00110854 0.000157337 0)
(-0.00134489 0.000169127 0)
(-0.00159691 0.000179672 0)
(-0.00186288 0.000188972 0)
(-0.00214111 0.000197036 0)
(-0.00242987 0.00020388 0)
(-0.00272747 0.000209524 0)
(-0.00303225 0.000213995 0)
(-0.00334258 0.000217324 0)
(-0.00365684 0.000219538 0)
(-0.00397349 0.000220672 0)
(-0.00429101 0.000220761 0)
(-0.00460793 0.000219841 0)
(-0.00492283 0.00021795 0)
(-0.00523436 0.000215124 0)
(-0.00554119 0.000211401 0)
(-0.00584206 0.000206822 0)
(-0.00613577 0.000201424 0)
(-0.00642117 0.000195246 0)
(-0.00669715 0.000188326 0)
(-0.00696268 0.000180703 0)
(-0.00721677 0.000172418 0)
(-0.00745849 0.000163508 0)
(-0.00768696 0.000154012 0)
(-0.00790137 0.000143969 0)
(-0.00810095 0.000133418 0)
(-0.008285 0.000122398 0)
(-0.00845287 0.000110948 0)
(-0.00860397 9.911e-05 0)
(-0.00873776 8.69222e-05 0)
(-0.00885377 7.44251e-05 0)
(-0.00895159 6.16571e-05 0)
(-0.00903085 4.86592e-05 0)
(-0.00909125 3.54746e-05 0)
(-0.00913256 2.21452e-05 0)
(-0.00915459 8.71269e-06 0)
(-0.00915724 -4.77992e-06 0)
(-0.00914046 -1.82894e-05 0)
(-0.00910425 -3.17713e-05 0)
(-0.00904868 -4.51803e-05 0)
(-0.00897391 -5.84708e-05 0)
(-0.00888014 -7.15966e-05 0)
(-0.00876764 -8.45107e-05 0)
(-0.00863676 -9.71661e-05 0)
(-0.00848791 -0.000109514 0)
(-0.00832157 -0.000121506 0)
(-0.00813829 -0.000133093 0)
(-0.00793871 -0.000144225 0)
(-0.00772351 -0.000154852 0)
(-0.00749345 -0.000164924 0)
(-0.00724937 -0.000174393 0)
(-0.00699219 -0.000183209 0)
(-0.00672287 -0.00019132 0)
(-0.00644247 -0.000198679 0)
(-0.0061521 -0.000205236 0)
(-0.00585295 -0.000210947 0)
(-0.00554625 -0.000215763 0)
(-0.00523334 -0.00021964 0)
(-0.00491557 -0.000222537 0)
(-0.00459439 -0.00022441 0)
(-0.00427128 -0.00022522 0)
(-0.00394778 -0.00022493 0)
(-0.00362548 -0.000223505 0)
(-0.00330601 -0.000220916 0)
(-0.00299105 -0.000217133 0)
(-0.0026823 -0.000212134 0)
(-0.00238147 -0.000205897 0)
(-0.00209032 -0.000198409 0)
(-0.00181059 -0.000189661 0)
(-0.00154405 -0.000179654 0)
(-0.00129241 -0.000168395 0)
(-0.00105739 -0.000155904 0)
(-0.000840625 -0.000142214 0)
(-0.000643693 -0.000127375 0)
(-0.000468058 -0.000111462 0)
(-0.000315033 -9.45807e-05 0)
(-0.000185727 -7.68806e-05 0)
(-8.09719e-05 -5.85764e-05 0)
(-1.21212e-06 -3.99751e-05 0)
(5.36374e-05 -2.15267e-05 0)
(8.4403e-05 -3.90106e-06 0)
(9.29435e-05 1.18889e-05 0)
(8.24822e-05 2.43091e-05 0)
(5.81399e-05 3.10264e-05 0)
(2.86227e-05 2.86178e-05 0)
(6.9858e-06 1.34266e-05 0)
(7.64627e-06 -3.02791e-05 0)
(2.90117e-05 -5.63457e-05 0)
(5.29397e-05 -5.47349e-05 0)
(6.40902e-05 -3.27386e-05 0)
(5.19465e-05 2.56996e-06 0)
(9.96386e-06 4.60065e-05 0)
(-6.60651e-05 9.39541e-05 0)
(-0.000178604 0.000143929 0)
(-0.0003287 0.000194214 0)
(-0.000516384 0.000243606 0)
(-0.000740886 0.000291274 0)
(-0.00100087 0.000336627 0)
(-0.00129459 0.000379249 0)
(-0.00161998 0.000418857 0)
(-0.00197477 0.000455258 0)
(-0.00235651 0.000488328 0)
(-0.00276268 0.000517997 0)
(-0.00319066 0.000544235 0)
(-0.00363782 0.000567039 0)
(-0.00410152 0.000586434 0)
(-0.00457913 0.000602463 0)
(-0.00506803 0.000615183 0)
(-0.00556565 0.000624663 0)
(-0.00606948 0.000630984 0)
(-0.00657705 0.00063423 0)
(-0.00708596 0.000634495 0)
(-0.00759389 0.000631876 0)
(-0.00809857 0.000626473 0)
(-0.00859784 0.000618389 0)
(-0.00908958 0.000607731 0)
(-0.00957179 0.000594605 0)
(-0.0100425 0.000579122 0)
(-0.0104999 0.000561389 0)
(-0.0109423 0.000541518 0)
(-0.0113679 0.00051962 0)
(-0.0117751 0.000495806 0)
(-0.0121626 0.000470188 0)
(-0.0125288 0.000442878 0)
(-0.0128724 0.000413988 0)
(-0.0131923 0.000383633 0)
(-0.0134872 0.000351924 0)
(-0.0137562 0.000318973 0)
(-0.0139983 0.0002849 0)
(-0.0142127 0.000249818 0)
(-0.0143985 0.000213842 0)
(-0.0145551 0.000177091 0)
(-0.0146819 0.000139683 0)
(-0.0147785 0.000101737 0)
(-0.0148445 6.33765e-05 0)
(-0.0148796 2.47242e-05 0)
(-0.0148836 -1.4097e-05 0)
(-0.0148564 -5.29597e-05 0)
(-0.0147981 -9.1735e-05 0)
(-0.0147088 -0.000130294 0)
(-0.0145887 -0.000168503 0)
(-0.0144381 -0.000206231 0)
(-0.0142576 -0.00024334 0)
(-0.0140476 -0.000279694 0)
(-0.0138089 -0.000315156 0)
(-0.0135421 -0.000349584 0)
(-0.0132483 -0.000382838 0)
(-0.0129284 -0.000414777 0)
(-0.0125835 -0.000445256 0)
(-0.0122148 -0.000474135 0)
(-0.0118238 -0.000501272 0)
(-0.0114118 -0.000526525 0)
(-0.0109804 -0.000549754 0)
(-0.0105313 -0.000570818 0)
(-0.0100663 -0.000589583 0)
(-0.00958724 -0.000605916 0)
(-0.00909617 -0.000619688 0)
(-0.00859515 -0.000630772 0)
(-0.00808638 -0.000639049 0)
(-0.00757213 -0.000644403 0)
(-0.00705477 -0.000646725 0)
(-0.00653673 -0.000645916 0)
(-0.00602053 -0.000641884 0)
(-0.00550876 -0.000634547 0)
(-0.00500403 -0.000623834 0)
(-0.00450903 -0.000609687 0)
(-0.00402645 -0.000592062 0)
(-0.00355902 -0.000570934 0)
(-0.00310946 -0.000546295 0)
(-0.00268048 -0.000518162 0)
(-0.00227474 -0.000486584 0)
(-0.00189482 -0.00045164 0)
(-0.00154322 -0.000413456 0)
(-0.00122229 -0.000372214 0)
(-0.000934164 -0.000328165 0)
(-0.000680737 -0.000281659 0)
(-0.000463542 -0.000233173 0)
(-0.000283654 -0.000183361 0)
(-0.000141541 -0.000133125 0)
(-3.68661e-05 -8.37206e-05 0)
(3.17669e-05 -3.69039e-05 0)
(6.71402e-05 4.85105e-06 0)
(7.37452e-05 3.80733e-05 0)
(5.82302e-05 5.79708e-05 0)
(3.11461e-05 5.81612e-05 0)
(8.18442e-06 3.08743e-05 0)
(6.57816e-06 -4.56581e-05 0)
(2.16992e-05 -7.77233e-05 0)
(3.13304e-05 -6.57135e-05 0)
(2.0012e-05 -2.14169e-05 0)
(-2.30946e-05 4.49001e-05 0)
(-0.000105153 0.000125321 0)
(-0.000230981 0.000214029 0)
(-0.000403495 0.000306796 0)
(-0.000624081 0.000400547 0)
(-0.000892869 0.00049306 0)
(-0.00120904 0.000582719 0)
(-0.00157106 0.000668343 0)
(-0.00197681 0.000749087 0)
(-0.00242375 0.000824344 0)
(-0.00290902 0.000893684 0)
(-0.00342956 0.000956823 0)
(-0.0039821 0.00101358 0)
(-0.00456329 0.00106386 0)
(-0.00516972 0.00110762 0)
(-0.00579792 0.00114489 0)
(-0.00644445 0.00117572 0)
(-0.00710587 0.0012002 0)
(-0.00777878 0.00121845 0)
(-0.00845983 0.00123061 0)
(-0.00914576 0.00123682 0)
(-0.00983337 0.00123727 0)
(-0.0105195 0.00123212 0)
(-0.0112012 0.00122156 0)
(-0.0118756 0.0012058 0)
(-0.0125397 0.00118503 0)
(-0.0131909 0.00115945 0)
(-0.0138266 0.00112927 0)
(-0.0144443 0.00109471 0)
(-0.0150417 0.00105597 0)
(-0.0156164 0.00101328 0)
(-0.0161663 0.000966839 0)
(-0.0166894 0.000916876 0)
(-0.0171839 0.000863608 0)
(-0.0176479 0.000807253 0)
(-0.0180797 0.000748031 0)
(-0.0184779 0.000686164 0)
(-0.018841 0.000621876 0)
(-0.0191678 0.000555391 0)
(-0.0194571 0.000486937 0)
(-0.0197078 0.000416739 0)
(-0.0199191 0.000345029 0)
(-0.0200901 0.00027204 0)
(-0.0202203 0.000198008 0)
(-0.0203092 0.000123171 0)
(-0.0203563 4.77694e-05 0)
(-0.0203614 -2.79522e-05 0)
(-0.0203244 -0.000103747 0)
(-0.0202454 -0.000179362 0)
(-0.0201245 -0.000254544 0)
(-0.019962 -0.000329035 0)
(-0.0197585 -0.000402574 0)
(-0.0195145 -0.000474897 0)
(-0.0192308 -0.000545735 0)
(-0.0189083 -0.00061482 0)
(-0.0185481 -0.00068188 0)
(-0.0181513 -0.000746641 0)
(-0.0177193 -0.000808826 0)
(-0.0172537 -0.00086816 0)
(-0.016756 -0.000924367 0)
(-0.0162282 -0.000977173 0)
(-0.0156722 -0.0010263 0)
(-0.01509 -0.00107149 0)
(-0.014484 -0.00111246 0)
(-0.0138565 -0.00114896 0)
(-0.0132101 -0.00118073 0)
(-0.0125474 -0.00120752 0)
(-0.0118713 -0.00122909 0)
(-0.0111848 -0.00124521 0)
(-0.0104907 -0.00125568 0)
(-0.0097924 -0.00126027 0)
(-0.00909303 -0.00125882 0)
(-0.00839597 -0.00125114 0)
(-0.00770465 -0.00123709 0)
(-0.00702255 -0.00121654 0)
(-0.00635321 -0.0011894 0)
(-0.0057002 -0.0011556 0)
(-0.00506711 -0.00111511 0)
(-0.00445749 -0.00106794 0)
(-0.00387489 -0.00101414 0)
(-0.00332274 -0.000953844 0)
(-0.00280439 -0.000887234 0)
(-0.00232303 -0.000814594 0)
(-0.00188163 -0.000736314 0)
(-0.00148289 -0.000652929 0)
(-0.00112911 -0.000565156 0)
(-0.000822153 -0.000473955 0)
(-0.000563254 -0.000380608 0)
(-0.000352881 -0.000286829 0)
(-0.000190516 -0.000194921 0)
(-7.44027e-05 -0.000107987 0)
(-1.23239e-06 -3.02106e-05 0)
(3.41399e-05 3.27969e-05 0)
(3.90859e-05 7.36388e-05 0)
(2.47425e-05 8.27777e-05 0)
(7.22992e-06 4.76625e-05 0)
(4.44586e-06 -5.55336e-05 0)
(9.17744e-06 -8.45777e-05 0)
(-2.6043e-06 -5.35131e-05 0)
(-4.46639e-05 2.16627e-05 0)
(-0.000127252 0.000127637 0)
(-0.000257562 0.000253928 0)
(-0.000440504 0.000392555 0)
(-0.000679144 0.000537504 0)
(-0.000974927 0.000684262 0)
(-0.00132801 0.000829452 0)
(-0.00173749 0.000970535 0)
(-0.00220162 0.00110563 0)
(-0.002718 0.00123333 0)
(-0.00328371 0.00135262 0)
(-0.00389542 0.00146275 0)
(-0.00454951 0.00156321 0)
(-0.00524215 0.00165365 0)
(-0.00596934 0.00173387 0)
(-0.00672699 0.00180377 0)
(-0.00751093 0.00186333 0)
(-0.00831701 0.00191263 0)
(-0.00914105 0.00195178 0)
(-0.00997893 0.00198093 0)
(-0.0108266 0.00200029 0)
(-0.01168 0.0020101 0)
(-0.0125352 0.0020106 0)
(-0.0133884 0.00200207 0)
(-0.0142359 0.00198481 0)
(-0.0150742 0.00195912 0)
(-0.0158996 0.00192531 0)
(-0.016709 0.00188372 0)
(-0.017499 0.00183466 0)
(-0.0182665 0.00177849 0)
(-0.0190087 0.00171554 0)
(-0.0197228 0.00164616 0)
(-0.020406 0.00157069 0)
(-0.0210559 0.0014895 0)
(-0.0216702 0.00140293 0)
(-0.0222465 0.00131134 0)
(-0.0227829 0.00121509 0)
(-0.0232775 0.00111453 0)
(-0.0237285 0.00101004 0)
(-0.0241343 0.000901981 0)
(-0.0244934 0.000790719 0)
(-0.0248047 0.000676626 0)
(-0.0250669 0.000560079 0)
(-0.0252792 0.000441458 0)
(-0.0254407 0.000321148 0)
(-0.0255507 0.000199537 0)
(-0.025609 7.70168e-05 0)
(-0.025615 -4.60128e-05 0)
(-0.0255688 -0.000169148 0)
(-0.0254704 -0.00029198 0)
(-0.0253199 -0.000414095 0)
(-0.0251179 -0.000535074 0)
(-0.0248649 -0.000654492 0)
(-0.0245616 -0.000771919 0)
(-0.0242091 -0.000886922 0)
(-0.0238083 -0.000999064 0)
(-0.0233608 -0.0011079 0)
(-0.0228679 -0.001213 0)
(-0.0223313 -0.0013139 0)
(-0.021753 -0.00141016 0)
(-0.0211349 -0.00150134 0)
(-0.0204794 -0.001587 0)
(-0.0197889 -0.00166669 0)
(-0.019066 -0.00173997 0)
(-0.0183134 -0.00180643 0)
(-0.0175343 -0.00186564 0)
(-0.0167315 -0.00191719 0)
(-0.0159086 -0.00196069 0)
(-0.015069 -0.00199575 0)
(-0.0142161 -0.00202201 0)
(-0.0133539 -0.00203914 0)
(-0.0124862 -0.0020468 0)
(-0.011617 -0.00204472 0)
(-0.0107503 -0.00203264 0)
(-0.00989039 -0.00201031 0)
(-0.00904152 -0.00197758 0)
(-0.00820797 -0.00193428 0)
(-0.00739408 -0.00188035 0)
(-0.0066042 -0.00181575 0)
(-0.00584263 -0.00174054 0)
(-0.0051136 -0.00165484 0)
(-0.00442126 -0.00155888 0)
(-0.00376958 -0.00145301 0)
(-0.00316234 -0.00133774 0)
(-0.00260303 -0.00121373 0)
(-0.00209479 -0.00108189 0)
(-0.00164029 -0.000943414 0)
(-0.00124165 -0.000799859 0)
(-0.000900262 -0.000653263 0)
(-0.000616633 -0.000506288 0)
(-0.000390192 -0.000362413 0)
(-0.000219044 -0.000226186 0)
(-9.97032e-05 -0.00010355 0)
(-2.68344e-05 -2.24164e-06 0)
(7.09445e-06 6.78128e-05 0)
(1.28465e-05 9.40075e-05 0)
(5.13977e-06 5.93232e-05 0)
(1.76724e-06 -5.78768e-05 0)
(-6.452e-06 -7.22615e-05 0)
(-4.44084e-05 -1.20182e-05 0)
(-0.000123034 0.000103341 0)
(-0.000251266 0.000257803 0)
(-0.000435888 0.000438571 0)
(-0.000681565 0.000635624 0)
(-0.000991154 0.000841236 0)
(-0.00136599 0.00104945 0)
(-0.00180611 0.00125566 0)
(-0.00231043 0.00145638 0)
(-0.00287701 0.00164891 0)
(-0.00350316 0.00183123 0)
(-0.00418562 0.00200182 0)
(-0.00492066 0.00215955 0)
(-0.00570419 0.00230362 0)
(-0.00653187 0.00243347 0)
(-0.00739915 0.00254875 0)
(-0.00830135 0.00264927 0)
(-0.00923372 0.00273497 0)
(-0.0101914 0.00280589 0)
(-0.0111697 0.00286217 0)
(-0.0121637 0.00290401 0)
(-0.0131688 0.00293168 0)
(-0.0141802 0.00294548 0)
(-0.0151935 0.00294577 0)
(-0.0162041 0.00293293 0)
(-0.0172076 0.00290738 0)
(-0.0182 0.00286953 0)
(-0.0191771 0.00281986 0)
(-0.0201349 0.00275881 0)
(-0.0210698 0.00268686 0)
(-0.021978 0.00260452 0)
(-0.0228561 0.00251226 0)
(-0.0237008 0.00241059 0)
(-0.024509 0.00230002 0)
(-0.0252778 0.00218106 0)
(-0.0260043 0.00205423 0)
(-0.0266859 0.00192005 0)
(-0.0273203 0.00177904 0)
(-0.0279051 0.00163173 0)
(-0.0284383 0.00147866 0)
(-0.0289181 0.00132036 0)
(-0.0293427 0.00115737 0)
(-0.0297106 0.000990246 0)
(-0.0300205 0.000819533 0)
(-0.0302713 0.00064579 0)
(-0.030462 0.000469581 0)
(-0.0305919 0.000291476 0)
(-0.0306605 0.000112054 0)
(-0.0306674 -6.81007e-05 0)
(-0.0306125 -0.000248396 0)
(-0.0304959 -0.000428233 0)
(-0.0303178 -0.000607005 0)
(-0.0300786 -0.000784096 0)
(-0.0297792 -0.000958885 0)
(-0.0294205 -0.00113074 0)
(-0.0290034 -0.00129904 0)
(-0.0285295 -0.00146313 0)
(-0.0280001 -0.00162238 0)
(-0.0274172 -0.00177613 0)
(-0.0267828 -0.00192373 0)
(-0.0260989 -0.00206455 0)
(-0.0253682 -0.00219792 0)
(-0.0245931 -0.00232321 0)
(-0.0237767 -0.00243978 0)
(-0.0229219 -0.002547 0)
(-0.022032 -0.00264424 0)
(-0.0211106 -0.0027309 0)
(-0.0201613 -0.00280639 0)
(-0.019188 -0.00287015 0)
(-0.0181948 -0.00292161 0)
(-0.0171858 -0.00296028 0)
(-0.0161656 -0.00298566 0)
(-0.0151384 -0.00299729 0)
(-0.0141092 -0.00299478 0)
(-0.0130826 -0.00297776 0)
(-0.0120635 -0.00294592 0)
(-0.0110568 -0.00289902 0)
(-0.0100676 -0.00283689 0)
(-0.00910086 -0.00275942 0)
(-0.00816157 -0.00266662 0)
(-0.0072547 -0.00255859 0)
(-0.00638512 -0.00243557 0)
(-0.00555756 -0.00229792 0)
(-0.00477655 -0.00214621 0)
(-0.00404636 -0.0019812 0)
(-0.00337096 -0.00180392 0)
(-0.00275387 -0.00161571 0)
(-0.00219808 -0.00141833 0)
(-0.00170597 -0.00121402 0)
(-0.0012791 -0.00100565 0)
(-0.000918126 -0.000796914 0)
(-0.000622547 -0.000592512 0)
(-0.000390546 -0.000398456 0)
(-0.000218753 -0.000222413 0)
(-0.000102009 -7.41374e-05 0)
(-3.30596e-05 3.4105e-05 0)
(-2.24359e-06 8.69448e-05 0)
(2.49977e-06 6.36993e-05 0)
(-1.15478e-06 -5.15612e-05 0)
(-2.37628e-05 -3.77859e-05 0)
(-9.09186e-05 6.29641e-05 0)
(-0.00020999 0.000228469 0)
(-0.000388158 0.000440507 0)
(-0.000631475 0.000684224 0)
(-0.000944034 0.000947809 0)
(-0.00132827 0.00122192 0)
(-0.00178521 0.00149919 0)
(-0.00231459 0.00177385 0)
(-0.00291512 0.0020414 0)
(-0.00358457 0.00229831 0)
(-0.00431996 0.00254188 0)
(-0.00511769 0.00277004 0)
(-0.00597366 0.00298124 0)
(-0.00688338 0.00317433 0)
(-0.00784203 0.00334851 0)
(-0.0088446 0.00350324 0)
(-0.00988588 0.00363821 0)
(-0.0109606 0.00375329 0)
(-0.0120633 0.00384848 0)
(-0.0131887 0.00392393 0)
(-0.0143314 0.00397988 0)
(-0.0154861 0.00401665 0)
(-0.0166475 0.00403463 0)
(-0.0178104 0.00403428 0)
(-0.01897 0.0040161 0)
(-0.0201211 0.00398062 0)
(-0.0212591 0.00392841 0)
(-0.0223793 0.00386009 0)
(-0.0234772 0.00377626 0)
(-0.0245487 0.00367757 0)
(-0.0255894 0.00356468 0)
(-0.0265955 0.00343826 0)
(-0.0275633 0.00329898 0)
(-0.0284891 0.00314754 0)
(-0.0293697 0.00298463 0)
(-0.0302018 0.00281096 0)
(-0.0309824 0.00262724 0)
(-0.0317088 0.00243418 0)
(-0.0323785 0.00223251 0)
(-0.032989 0.00202296 0)
(-0.0335383 0.00180626 0)
(-0.0340243 0.00158315 0)
(-0.0344454 0.00135439 0)
(-0.0348001 0.00112073 0)
(-0.0350871 0.000882932 0)
(-0.0353053 0.000641776 0)
(-0.0354538 0.000398039 0)
(-0.0355322 0.000152515 0)
(-0.0355399 -9.39962e-05 0)
(-0.0354768 -0.000340683 0)
(-0.0353431 -0.000586724 0)
(-0.035139 -0.000831291 0)
(-0.034865 -0.00107354 0)
(-0.0345221 -0.00131262 0)
(-0.0341112 -0.00154768 0)
(-0.0336336 -0.00177785 0)
(-0.0330909 -0.00200226 0)
(-0.0324848 -0.00222003 0)
(-0.0318174 -0.00243027 0)
(-0.031091 -0.00263211 0)
(-0.030308 -0.00282466 0)
(-0.0294713 -0.00300704 0)
(-0.0285839 -0.00317838 0)
(-0.0276491 -0.00333781 0)
(-0.0266702 -0.00348448 0)
(-0.0256512 -0.00361754 0)
(-0.0245959 -0.00373619 0)
(-0.0235086 -0.00383962 0)
(-0.0223936 -0.00392706 0)
(-0.0212555 -0.00399779 0)
(-0.0200991 -0.00405112 0)
(-0.0189295 -0.00408639 0)
(-0.0177516 -0.00410301 0)
(-0.0165708 -0.00410044 0)
(-0.0153925 -0.00407821 0)
(-0.0142221 -0.00403594 0)
(-0.0130653 -0.00397331 0)
(-0.0119276 -0.00389011 0)
(-0.0108146 -0.00378626 0)
(-0.00973201 -0.00366179 0)
(-0.0086853 -0.00351688 0)
(-0.0076799 -0.00335188 0)
(-0.00672107 -0.00316736 0)
(-0.00581384 -0.00296412 0)
(-0.00496294 -0.00274325 0)
(-0.00417274 -0.00250617 0)
(-0.00344712 -0.00225472 0)
(-0.00278942 -0.00199127 0)
(-0.00220226 -0.00171881 0)
(-0.00168746 -0.00144108 0)
(-0.00124589 -0.00116283 0)
(-0.000877274 -0.000889982 0)
(-0.000580064 -0.000629974 0)
(-0.000351248 -0.000392095 0)
(-0.000186135 -0.000187941 0)
(-7.80928e-05 -3.18443e-05 0)
(-1.90635e-05 5.85047e-05 0)
(-3.71926e-07 5.96572e-05 0)
(-4.14114e-06 -3.60321e-05 0)
(-4.1859e-05 2.06025e-05 0)
(-0.000139951 0.000174102 0)
(-0.000301899 0.00040033 0)
(-0.000532847 0.000679281 0)
(-0.000837868 0.00099445 0)
(-0.00122027 0.00133242 0)
(-0.00168187 0.00168242 0)
(-0.0022232 0.00203578 0)
(-0.00284361 0.0023856 0)
(-0.00354145 0.00272638 0)
(-0.00431416 0.00305377 0)
(-0.00515845 0.00336438 0)
(-0.00607035 0.00365555 0)
(-0.00704541 0.00392526 0)
(-0.00807874 0.00417202 0)
(-0.00916512 0.00439472 0)
(-0.0102991 0.00459262 0)
(-0.0114749 0.00476526 0)
(-0.0126869 0.00491241 0)
(-0.0139291 0.00503404 0)
(-0.0151957 0.00513028 0)
(-0.0164807 0.0052014 0)
(-0.0177783 0.00524778 0)
(-0.0190828 0.00526989 0)
(-0.0203885 0.0052683 0)
(-0.0216897 0.00524361 0)
(-0.022981 0.00519652 0)
(-0.0242573 0.00512773 0)
(-0.0255132 0.00503802 0)
(-0.0267439 0.00492817 0)
(-0.0279447 0.00479902 0)
(-0.0291108 0.0046514 0)
(-0.0302381 0.00448617 0)
(-0.0313222 0.00430421 0)
(-0.0323592 0.00410642 0)
(-0.0333453 0.0038937 0)
(-0.0342771 0.00366696 0)
(-0.0351512 0.00342713 0)
(-0.0359646 0.00317514 0)
(-0.0367143 0.00291193 0)
(-0.0373977 0.00263845 0)
(-0.0380126 0.00235566 0)
(-0.0385566 0.00206454 0)
(-0.0390279 0.00176604 0)
(-0.0394248 0.00146118 0)
(-0.0397459 0.00115094 0)
(-0.03999 0.000836325 0)
(-0.0401561 0.000518366 0)
(-0.0402437 0.000198095 0)
(-0.0402522 -0.000123445 0)
(-0.0401815 -0.000445196 0)
(-0.0400317 -0.000766086 0)
(-0.0398032 -0.00108503 0)
(-0.0394965 -0.00140094 0)
(-0.0391126 -0.00171271 0)
(-0.0386527 -0.00201921 0)
(-0.0381181 -0.00231933 0)
(-0.0375106 -0.00261192 0)
(-0.0368323 -0.00289586 0)
(-0.0360852 -0.00316998 0)
(-0.0352721 -0.00343315 0)
(-0.0343957 -0.00368422 0)
(-0.0334591 -0.00392205 0)
(-0.0324656 -0.00414551 0)
(-0.031419 -0.00435348 0)
(-0.030323 -0.00454486 0)
(-0.0291819 -0.00471856 0)
(-0.028 -0.00487354 0)
(-0.026782 -0.00500876 0)
(-0.0255328 -0.00512325 0)
(-0.0242574 -0.00521606 0)
(-0.0229612 -0.00528633 0)
(-0.0216496 -0.00533321 0)
(-0.0203284 -0.00535596 0)
(-0.0190033 -0.00535391 0)
(-0.0176802 -0.00532646 0)
(-0.0163653 -0.00527315 0)
(-0.0150646 -0.0051936 0)
(-0.0137844 -0.00508758 0)
(-0.0125307 -0.004955 0)
(-0.0113098 -0.00479596 0)
(-0.0101276 -0.00461073 0)
(-0.00899022 -0.00439982 0)
(-0.00790325 -0.00416401 0)
(-0.00687221 -0.00390436 0)
(-0.00590227 -0.00362232 0)
(-0.00499818 -0.00331976 0)
(-0.0041642 -0.00299906 0)
(-0.00340397 -0.00266322 0)
(-0.00272046 -0.00231599 0)
(-0.00211579 -0.00196203 0)
(-0.00159113 -0.0016071 0)
(-0.00114658 -0.00125833 0)
(-0.000781018 -0.000924485 0)
(-0.000491987 -0.000616332 0)
(-0.000275493 -0.000347094 0)
(-0.000125774 -0.000132854 0)
(-3.66883e-05 6.85799e-06 0)
(-3.3009e-06 4.66419e-05 0)
(-7.10062e-06 -1.11068e-05 0)
(-6.01775e-05 0.00010377 0)
(-0.000190051 0.000322925 0)
(-0.000396243 0.000620918 0)
(-0.000681698 0.000976452 0)
(-0.00105036 0.00137166 0)
(-0.0015046 0.00179181 0)
(-0.00204545 0.00222484 0)
(-0.0026728 0.00266094 0)
(-0.00338553 0.00309213 0)
(-0.00418151 0.00351198 0)
(-0.00505781 0.00391533 0)
(-0.00601074 0.0042981 0)
(-0.00703598 0.00465704 0)
(-0.00812869 0.00498966 0)
(-0.0092836 0.00529407 0)
(-0.0104951 0.00556886 0)
(-0.0117573 0.00581307 0)
(-0.013064 0.00602606 0)
(-0.0144091 0.0062075 0)
(-0.0157862 0.0063573 0)
(-0.017189 0.00647557 0)
(-0.018611 0.00656259 0)
(-0.020046 0.00661881 0)
(-0.0214878 0.00664478 0)
(-0.02293 0.00664116 0)
(-0.0243667 0.00660871 0)
(-0.025792 0.00654823 0)
(-0.0272001 0.00646061 0)
(-0.0285854 0.00634679 0)
(-0.0299426 0.00620775 0)
(-0.0312664 0.0060445 0)
(-0.0325518 0.00585809 0)
(-0.0337941 0.00564959 0)
(-0.0349887 0.0054201 0)
(-0.0361312 0.00517073 0)
(-0.0372175 0.0049026 0)
(-0.0382439 0.00461687 0)
(-0.0392066 0.0043147 0)
(-0.0401023 0.00399724 0)
(-0.0409279 0.00366569 0)
(-0.0416805 0.00332124 0)
(-0.0423574 0.0029651 0)
(-0.0429563 0.00259848 0)
(-0.0434752 0.00222261 0)
(-0.0439121 0.00183874 0)
(-0.0442656 0.00144812 0)
(-0.0445342 0.00105203 0)
(-0.0447171 0.000651748 0)
(-0.0448135 0.000248573 0)
(-0.0448228 -0.000156177 0)
(-0.044745 -0.000561173 0)
(-0.0445801 -0.000965068 0)
(-0.0443286 -0.0013665 0)
(-0.0439911 -0.00176409 0)
(-0.0435685 -0.00215646 0)
(-0.0430623 -0.0025422 0)
(-0.0424739 -0.00291989 0)
(-0.0418053 -0.00328811 0)
(-0.0410586 -0.00364544 0)
(-0.0402363 -0.00399044 0)
(-0.0393411 -0.00432167 0)
(-0.0383763 -0.00463771 0)
(-0.037345 -0.00493712 0)
(-0.0362511 -0.0052185 0)
(-0.0350985 -0.00548044 0)
(-0.0338914 -0.00572158 0)
(-0.0326344 -0.00594056 0)
(-0.0313323 -0.00613608 0)
(-0.02999 -0.00630686 0)
(-0.0286131 -0.00645169 0)
(-0.0272069 -0.00656941 0)
(-0.0257773 -0.00665893 0)
(-0.0243302 -0.00671924 0)
(-0.0228718 -0.00674942 0)
(-0.0214084 -0.00674864 0)
(-0.0199465 -0.00671622 0)
(-0.0184926 -0.00665156 0)
(-0.0170534 -0.00655426 0)
(-0.0156355 -0.00642406 0)
(-0.0142457 -0.00626089 0)
(-0.0128905 -0.00606489 0)
(-0.0115764 -0.00583647 0)
(-0.01031 -0.00557631 0)
(-0.00909734 -0.0052854 0)
(-0.00794435 -0.00496513 0)
(-0.00685662 -0.00461731 0)
(-0.00583929 -0.00424427 0)
(-0.00489698 -0.00384896 0)
(-0.00403372 -0.00343503 0)
(-0.00325282 -0.003007 0)
(-0.0025568 -0.00257041 0)
(-0.00194723 -0.00213203 0)
(-0.00142468 -0.00170009 0)
(-0.0009886 -0.00128458 0)
(-0.000637251 -0.000897599 0)
(-0.0003675 -0.000553756 0)
(-0.000174624 -0.000270557 0)
(-5.45519e-05 -6.89231e-05 0)
(-6.19529e-06 2.44639e-05 0)
(-9.98427e-06 2.31799e-05 0)
(-7.8374e-05 0.000212009 0)
(-0.000240285 0.000510123 0)
(-0.000491306 0.000891319 0)
(-0.000832159 0.00133337 0)
(-0.00126557 0.00181738 0)
(-0.00179287 0.0023275 0)
(-0.00241417 0.00285062 0)
(-0.00312865 0.00337586 0)
(-0.00393456 0.00389432 0)
(-0.00482927 0.00439868 0)
(-0.00580936 0.00488302 0)
(-0.00687073 0.00534256 0)
(-0.00800864 0.00577352 0)
(-0.00921787 0.0061729 0)
(-0.0104928 0.00653843 0)
(-0.0118273 0.00686838 0)
(-0.0132151 0.00716155 0)
(-0.0146498 0.00741712 0)
(-0.0161246 0.00763464 0)
(-0.0176328 0.00781394 0)
(-0.0191677 0.00795512 0)
(-0.0207223 0.00805849 0)
(-0.02229 0.00812452 0)
(-0.023864 0.00815386 0)
(-0.0254377 0.00814727 0)
(-0.0270047 0.00810563 0)
(-0.0285585 0.00802992 0)
(-0.0300931 0.00792118 0)
(-0.0316023 0.00778053 0)
(-0.0330804 0.00760915 0)
(-0.0345219 0.00740825 0)
(-0.0359212 0.00717911 0)
(-0.0372733 0.00692302 0)
(-0.0385733 0.0066413 0)
(-0.0398164 0.00633532 0)
(-0.0409983 0.00600643 0)
(-0.0421147 0.00565604 0)
(-0.0431618 0.00528556 0)
(-0.0441359 0.00489642 0)
(-0.0450337 0.00449006 0)
(-0.045852 0.00406794 0)
(-0.0465881 0.00363154 0)
(-0.0472393 0.00318233 0)
(-0.0478034 0.00272184 0)
(-0.0482785 0.00225157 0)
(-0.0486628 0.00177307 0)
(-0.0489549 0.00128789 0)
(-0.0491538 0.000797608 0)
(-0.0492587 0.000303806 0)
(-0.049269 -0.000191903 0)
(-0.0491845 -0.000687894 0)
(-0.0490055 -0.00118252 0)
(-0.0487322 -0.00167411 0)
(-0.0483655 -0.002161 0)
(-0.0479065 -0.00264148 0)
(-0.0473564 -0.00311383 0)
(-0.0467171 -0.00357635 0)
(-0.0459904 -0.00402728 0)
(-0.0451789 -0.00446489 0)
(-0.0442851 -0.00488743 0)
(-0.0433121 -0.00529315 0)
(-0.0422632 -0.00568031 0)
(-0.041142 -0.00604718 0)
(-0.0399526 -0.00639204 0)
(-0.038699 -0.00671319 0)
(-0.0373861 -0.00700897 0)
(-0.0360185 -0.00727774 0)
(-0.0346015 -0.00751792 0)
(-0.0331406 -0.00772796 0)
(-0.0316414 -0.00790642 0)
(-0.03011 -0.00805188 0)
(-0.0285525 -0.00816304 0)
(-0.0269753 -0.0082387 0)
(-0.025385 -0.00827774 0)
(-0.0237885 -0.00827921 0)
(-0.0221926 -0.00824227 0)
(-0.0206044 -0.00816626 0)
(-0.019031 -0.00805071 0)
(-0.0174795 -0.00789533 0)
(-0.0159571 -0.00770009 0)
(-0.0144708 -0.00746521 0)
(-0.0130277 -0.00719121 0)
(-0.0116346 -0.00687895 0)
(-0.0102982 -0.00652968 0)
(-0.00902462 -0.0061451 0)
(-0.00782002 -0.00572741 0)
(-0.00668988 -0.00527943 0)
(-0.00563925 -0.00480465 0)
(-0.00467253 -0.00430739 0)
(-0.00379348 -0.00379292 0)
(-0.00300503 -0.00326762 0)
(-0.00230927 -0.00273921 0)
(-0.00170734 -0.00221695 0)
(-0.00119936 -0.00171193 0)
(-0.000784439 -0.0012374 0)
(-0.000460409 -0.00080913 0)
(-0.000223683 -0.000445743 0)
(-7.23144e-05 -0.000169169 0)
(-9.01029e-06 -6.85096e-06 0)
(-1.27681e-05 6.66782e-05 0)
(-9.62613e-05 0.000345221 0)
(-0.000290057 0.000735844 0)
(-0.000585963 0.00121195 0)
(-0.000982512 0.00175069 0)
(-0.00148116 0.00233241 0)
(-0.00208213 0.00294039 0)
(-0.00278456 0.00356062 0)
(-0.00358681 0.00418133 0)
(-0.00448643 0.00479275 0)
(-0.0054802 0.00538679 0)
(-0.00656418 0.0059568 0)
(-0.00773378 0.00649739 0)
(-0.00898383 0.0070042 0)
(-0.0103087 0.00747379 0)
(-0.0117022 0.00790347 0)
(-0.0131581 0.00829122 0)
(-0.0146696 0.00863558 0)
(-0.0162297 0.00893556 0)
(-0.0178315 0.00919058 0)
(-0.0194678 0.0094004 0)
(-0.0211313 0.00956508 0)
(-0.0228149 0.00968494 0)
(-0.0245114 0.00976052 0)
(-0.0262135 0.00979253 0)
(-0.0279145 0.00978186 0)
(-0.0296072 0.00972951 0)
(-0.0312851 0.00963662 0)
(-0.0329414 0.00950441 0)
(-0.0345699 0.00933419 0)
(-0.0361644 0.00912733 0)
(-0.0377188 0.00888529 0)
(-0.0392275 0.00860956 0)
(-0.0406849 0.00830166 0)
(-0.0420859 0.00796318 0)
(-0.0434254 0.00759572 0)
(-0.0446987 0.00720092 0)
(-0.0459013 0.00678043 0)
(-0.0470292 0.00633594 0)
(-0.0480783 0.00586916 0)
(-0.0490451 0.0053818 0)
(-0.0499264 0.00487562 0)
(-0.0507189 0.00435236 0)
(-0.0514202 0.00381382 0)
(-0.0520276 0.00326179 0)
(-0.0525392 0.0026981 0)
(-0.052953 0.00212457 0)
(-0.0532677 0.00154308 0)
(-0.053482 0.000955491 0)
(-0.0535952 0.000363719 0)
(-0.0536065 -0.000230316 0)
(-0.053516 -0.000824668 0)
(-0.0533236 -0.00141737 0)
(-0.0530299 -0.00200643 0)
(-0.0526356 -0.00258985 0)
(-0.0521418 -0.00316559 0)
(-0.0515502 -0.00373162 0)
(-0.0508624 -0.00428587 0)
(-0.0500806 -0.00482627 0)
(-0.0492074 -0.00535074 0)
(-0.0482455 -0.00585721 0)
(-0.0471983 -0.00634359 0)