/*--------------------------------*- C++ -*----------------------------------*\
| =========                 |                                                 |
| \\      /  F ield         | OpenFOAM: The Open Source CFD Toolbox           |
|  \\    /   O peration     | Version:  2212                                  |
|   \\  /    A nd           | Website:  www.openfoam.com                      |
|    \\/     M anipulation  |                                                 |
\*---------------------------------------------------------------------------*/
FoamFile
{
    version     2.0;
    format      ascii;
    arch        "LSB;label=32;scalar=64";
    class       surfaceScalarField;
    location    "0.0805";
    object      phi;
}
// * * * * * * * * * * * * * * * * * * * * * * * * * * * * * * * * * * * * * //

dimensions      [0 3 -1 0 0 0 0];

oriented        oriented;

internalField   nonuniform List<scalar> 
19800
(
6.99667e-11
-7.00043e-11
2.40223e-10
-1.70262e-10
4.27615e-10
-1.87385e-10
5.74539e-10
-1.4693e-10
6.48036e-10
-7.3507e-11
6.29935e-10
1.8098e-11
5.11126e-10
1.18803e-10
2.88274e-10
2.22861e-10
-3.83313e-11
3.2661e-10
-4.66032e-10
4.27696e-10
-9.90628e-10
5.24587e-10
-1.60688e-09
6.16251e-10
-2.30888e-09
7.02005e-10
-3.09028e-09
7.81399e-10
-3.94443e-09
8.54155e-10
-4.86455e-09
9.20115e-10
-5.84378e-09
9.79215e-10
-6.87523e-09
1.03145e-09
-7.9521e-09
1.07687e-09
-9.06765e-09
1.11554e-09
-1.02152e-08
1.14759e-09
-1.13884e-08
1.17316e-09
-1.25808e-08
1.19238e-09
-1.37862e-08
1.20544e-09
-1.49987e-08
1.21251e-09
-1.62125e-08
1.21377e-09
-1.74219e-08
1.20943e-09
-1.86216e-08
1.19967e-09
-1.98063e-08
1.18472e-09
-2.09711e-08
1.16476e-09
-2.21111e-08
1.14002e-09
-2.32218e-08
1.11069e-09
-2.42988e-08
1.07699e-09
-2.53379e-08
1.03915e-09
-2.63353e-08
9.97366e-10
-2.72872e-08
9.51861e-10
-2.819e-08
9.02846e-10
-2.90405e-08
8.50533e-10
-2.98357e-08
7.95137e-10
-3.05725e-08
7.36876e-10
-3.12485e-08
6.75967e-10
-3.18612e-08
6.12638e-10
-3.24083e-08
5.47113e-10
-3.28879e-08
4.79611e-10
-3.32982e-08
4.10363e-10
-3.36378e-08
3.39594e-10
-3.39054e-08
2.6753e-10
-3.40998e-08
1.9441e-10
-3.42202e-08
1.20468e-10
-3.42662e-08
4.5943e-11
-3.42373e-08
-2.89128e-11
-3.41334e-08
-1.03852e-10
-3.39548e-08
-1.78621e-10
-3.37018e-08
-2.52958e-10
-3.33752e-08
-3.26606e-10
-3.29759e-08
-3.99308e-10
-3.25051e-08
-4.7079e-10
-3.19643e-08
-5.40784e-10
-3.13553e-08
-6.09025e-10
-3.06801e-08
-6.75236e-10
-2.9941e-08
-7.39129e-10
-2.91405e-08
-8.00431e-10
-2.82816e-08
-8.5887e-10
-2.73675e-08
-9.14164e-10
-2.64014e-08
-9.66034e-10
-2.53872e-08
-1.01421e-09
-2.43288e-08
-1.05843e-09
-2.32304e-08
-1.09841e-09
-2.20965e-08
-1.13388e-09
-2.09319e-08
-1.16459e-09
-1.97416e-08
-1.19029e-09
-1.85309e-08
-1.21072e-09
-1.73053e-08
-1.22566e-09
-1.60704e-08
-1.23488e-09
-1.48322e-08
-1.23817e-09
-1.35969e-08
-1.23534e-09
-1.23707e-08
-1.22621e-09
-1.116e-08
-1.21061e-09
-9.97163e-09
-1.18842e-09
-8.81214e-09
-1.1595e-09
-7.68837e-09
-1.12376e-09
-6.60723e-09
-1.08114e-09
-5.57561e-09
-1.03161e-09
-4.60044e-09
-9.75179e-10
-3.68855e-09
-9.11893e-10
-2.84667e-09
-8.4187e-10
-2.08137e-09
-7.65306e-10
-1.39889e-09
-6.82487e-10
-8.05082e-10
-5.93817e-10
-3.05219e-10
-4.99867e-10
9.6235e-11
-4.01453e-10
3.95967e-10
-2.99736e-10
5.92341e-10
-1.96385e-10
6.8621e-10
-9.38751e-11
6.82165e-10
4.0489e-12
5.90606e-10
9.15699e-11
4.30941e-10
1.59669e-10
2.37078e-10
1.93855e-10
6.66553e-11
1.70419e-10
6.66598e-11
1.70265e-10
-2.40264e-10
4.67791e-10
-4.67791e-10
7.52907e-10
-4.72487e-10
9.24491e-10
-3.18499e-10
9.12327e-10
-6.1335e-11
6.71452e-10
2.58984e-10
1.75634e-10
6.14613e-10
-5.87857e-10
9.86343e-10
-1.62221e-09
1.36097e-09
-2.92386e-09
1.72936e-09
-4.48443e-09
2.08516e-09
-6.29213e-09
2.42395e-09
-8.33275e-09
2.74263e-09
-1.05904e-08
3.03905e-09
-1.3048e-08
3.3118e-09
-1.56879e-08
3.55993e-09
-1.84916e-08
3.78292e-09
-2.14406e-08
3.98053e-09
-2.45165e-08
4.15274e-09
-2.77007e-08
4.29971e-09
-3.09748e-08
4.42174e-09
-3.43209e-08
4.51925e-09
-3.77213e-08
4.59272e-09
-4.11585e-08
4.64272e-09
-4.46159e-08
4.66986e-09
-4.80769e-08
4.67481e-09
-5.15258e-08
4.65827e-09
-5.49471e-08
4.62097e-09
-5.8326e-08
4.56365e-09
-6.16483e-08
4.48708e-09
-6.49003e-08
4.39205e-09
-6.8069e-08
4.27934e-09
-7.11418e-08
4.14977e-09
-7.41068e-08
4.00415e-09
-7.69527e-08
3.84329e-09
-7.96689e-08
3.66801e-09
-8.22452e-08
3.47915e-09
-8.46722e-08
3.27752e-09
-8.6941e-08
3.06398e-09
-8.90435e-08
2.83934e-09
-9.0972e-08
2.60448e-09
-9.27196e-08
2.36023e-09
-9.42799e-08
2.10748e-09
-9.56474e-08
1.84709e-09
-9.6817e-08
1.57995e-09
-9.77844e-08
1.30695e-09
-9.85458e-08
1.02898e-09
-9.90984e-08
7.46951e-10
-9.94397e-08
4.61791e-10
-9.95682e-08
1.74433e-10
-9.94829e-08
-1.14171e-10
-9.91837e-08
-4.03041e-10
-9.86711e-08
-6.91194e-10
-9.79465e-08
-9.77641e-10
-9.70117e-08
-1.26137e-09
-9.58696e-08
-1.54136e-09
-9.45238e-08
-1.81659e-09
-9.29786e-08
-2.08603e-09
-9.1239e-08
-2.34862e-09
-8.93109e-08
-2.60329e-09
-8.72011e-08
-2.849e-09
-8.49168e-08
-3.08467e-09
-8.24665e-08
-3.30922e-09
-7.9859e-08
-3.5216e-09
-7.71043e-08
-3.72077e-09
-7.42128e-08
-3.90566e-09
-7.1196e-08
-4.07524e-09
-6.80659e-08
-4.22849e-09
-6.48354e-08
-4.3644e-09
-6.1518e-08
-4.48199e-09
-5.8128e-08
-4.58032e-09
-5.46802e-08
-4.65847e-09
-5.11903e-08
-4.71558e-09
-4.76744e-08
-4.75081e-09
-4.41491e-08
-4.7634e-09
-4.06318e-08
-4.75264e-09
-3.71402e-08
-4.71789e-09
-3.36922e-08
-4.65858e-09
-3.03064e-08
-4.57425e-09
-2.70014e-08
-4.46449e-09
-2.37961e-08
-4.32906e-09
-2.07095e-08
-4.16778e-09
-1.77604e-08
-3.98066e-09
-1.49677e-08
-3.76788e-09
-1.23498e-08
-3.52983e-09
-9.92449e-09
-3.26714e-09
-7.70901e-09
-2.98079e-09
-5.71938e-09
-2.67212e-09
-3.97015e-09
-2.34305e-09
-2.47387e-09
-1.99615e-09
-1.24035e-09
-1.63497e-09
-2.75717e-10
-1.26438e-09
4.19013e-10
-8.91119e-10
8.49791e-10
-5.24652e-10
1.03224e-09
-1.78399e-10
9.95387e-10
1.28429e-10
7.86681e-10
3.6838e-10
4.77955e-10
5.02575e-10
1.70314e-10
4.7806e-10
2.3698e-10
1.88055e-10
-4.28315e-10
4.74631e-10
-7.5438e-10
6.88016e-10
-6.85882e-10
7.06458e-10
-3.36938e-10
4.41748e-10
2.03375e-10
-1.66254e-10
8.66999e-10
-1.15519e-09
1.60355e-09
-2.54529e-09
2.37643e-09
-4.34352e-09
3.15919e-09
-6.54688e-09
3.93273e-09
-9.14494e-09
4.68322e-09
-1.21217e-08
5.4007e-09
-1.5457e-08
6.07797e-09
-1.91279e-08
6.70991e-09
-2.3109e-08
7.29292e-09
-2.73737e-08
7.82458e-09
-3.18941e-08
8.30334e-09
-3.66419e-08
8.72836e-09
-4.15885e-08
9.09932e-09
-4.67051e-08
9.41631e-09
-5.19631e-08
9.67979e-09
-5.73343e-08
9.89046e-09
-6.27909e-08
1.00492e-08
-6.83054e-08
1.01573e-08
-7.38513e-08
1.02157e-08
-7.94024e-08
1.0226e-08
-8.49336e-08
1.01895e-08
-9.04204e-08
1.01078e-08
-9.58392e-08
9.98241e-09
-1.01167e-07
9.81502e-09
-1.06382e-07
9.60728e-09
-1.11464e-07
9.3609e-09
-1.16392e-07
9.07761e-09
-1.21147e-07
8.75915e-09
-1.25711e-07
8.40732e-09
-1.30067e-07
8.02389e-09
-1.34198e-07
7.61066e-09
-1.3809e-07
7.16946e-09
-1.41728e-07
6.70211e-09
-1.45099e-07
6.21047e-09
-1.48191e-07
5.6964e-09
-1.50993e-07
5.16178e-09
-1.53494e-07
4.60852e-09
-1.55685e-07
4.03853e-09
-1.57559e-07
3.45374e-09
-1.59108e-07
2.85613e-09
-1.60327e-07
2.24769e-09
-1.61211e-07
1.6304e-09
-1.61755e-07
1.00631e-09
-1.61958e-07
3.77484e-10
-1.61818e-07
-2.53983e-10
-1.61335e-07
-8.85967e-10
-1.6051e-07
-1.5163e-09
-1.59345e-07
-2.14281e-09
-1.57843e-07
-2.76329e-09
-1.56009e-07
-3.37551e-09
-1.53848e-07
-3.9772e-09
-1.51368e-07
-4.5661e-09
-1.48577e-07
-5.13993e-09
-1.45484e-07
-5.69635e-09
-1.421e-07
-6.23306e-09
-1.38437e-07
-6.74772e-09
-1.34508e-07
-7.23803e-09
-1.30328e-07
-7.70166e-09
-1.25912e-07
-8.13632e-09
-1.21278e-07
-8.53974e-09
-1.16444e-07
-8.90968e-09
-1.11428e-07
-9.24391e-09
-1.06253e-07
-9.54029e-09
-1.00938e-07
-9.7967e-09
-9.5507e-08
-1.00111e-08
-8.99839e-08
-1.01816e-08
-8.43931e-08
-1.03063e-08
-7.87604e-08
-1.03835e-08
-7.31123e-08
-1.04115e-08
-6.74761e-08
-1.03889e-08
-6.18796e-08
-1.03144e-08
-5.63515e-08
-1.01867e-08
-5.09206e-08
-1.00051e-08
-4.56164e-08
-9.76869e-09
-4.04684e-08
-9.47711e-09
-3.5506e-08
-9.13017e-09
-3.07586e-08
-8.72807e-09
-2.62551e-08
-8.27141e-09
-2.20236e-08
-7.76127e-09
-1.80914e-08
-7.19934e-09
-1.44842e-08
-6.58804e-09
-1.12256e-08
-5.9307e-09
-8.33681e-09
-5.23184e-09
-5.83545e-09
-4.49752e-09
-3.73461e-09
-3.73581e-09
-2.04145e-09
-2.95754e-09
-7.55313e-10
-2.17725e-09
1.34668e-10
-1.41463e-09
6.52684e-10
-6.96415e-10
8.4018e-10
-5.90673e-11
7.6062e-10
4.47947e-10
5.04512e-10
7.58685e-10
1.94322e-10
7.88257e-10
4.31305e-10
1.49255e-10
-5.7756e-10
3.25607e-10
-9.30719e-10
3.47874e-10
-7.08149e-10
8.62823e-11
-7.53494e-11
-5.54473e-10
8.4412e-10
-1.64134e-09
1.95387e-09
-3.21784e-09
3.18006e-09
-5.30852e-09
4.46712e-09
-7.92281e-09
5.77348e-09
-1.10582e-08
7.06811e-09
-1.47029e-08
8.32788e-09
-1.88378e-08
9.53564e-09
-2.34385e-08
1.06787e-08
-2.84762e-08
1.17477e-08
-3.39193e-08
1.2736e-08
-3.97336e-08
1.36389e-08
-4.58835e-08
1.44532e-08
-5.23322e-08
1.51771e-08
-5.90426e-08
1.58096e-08
-6.59769e-08
1.63506e-08
-7.30976e-08
1.68005e-08
-8.03674e-08
1.71602e-08
-8.77493e-08
1.74312e-08
-9.52072e-08
1.76152e-08
-1.02705e-07
1.7714e-08
-1.10209e-07
1.77299e-08
-1.17685e-07
1.76653e-08
-1.251e-07
1.75226e-08
-1.32422e-07
1.73046e-08
-1.39621e-07
1.7014e-08
-1.46668e-07
1.66536e-08
-1.53533e-07
1.62263e-08
-1.6019e-07
1.5735e-08
-1.66614e-07
1.51829e-08
-1.7278e-07
1.45728e-08
-1.78664e-07
1.39079e-08
-1.84244e-07
1.31914e-08
-1.89501e-07
1.24263e-08
-1.94415e-07
1.16159e-08
-1.98968e-07
1.07632e-08
-2.03143e-07
9.87172e-09
-2.06926e-07
8.94455e-09
-2.10302e-07
7.98504e-09
-2.1326e-07
6.99652e-09
-2.15789e-07
5.98239e-09
-2.17879e-07
4.94604e-09
-2.19522e-07
3.89094e-09
-2.20712e-07
2.82058e-09
-2.21445e-07
1.73852e-09
-2.21715e-07
6.48334e-10
-2.21523e-07
-4.46316e-10
-2.20867e-07
-1.54174e-09
-2.19749e-07
-2.6342e-09
-2.18172e-07
-3.71991e-09
-2.16141e-07
-4.79503e-09
-2.1366e-07
-5.85569e-09
-2.1074e-07
-6.898e-09
-2.07388e-07
-7.918e-09
-2.03616e-07
-8.91172e-09
-1.99437e-07
-9.87517e-09
-1.94866e-07
-1.08044e-08
-1.89918e-07
-1.16953e-08
-1.84612e-07
-1.25439e-08
-1.78968e-07
-1.33462e-08
-1.73006e-07
-1.40983e-08
-1.66749e-07
-1.47963e-08
-1.60223e-07
-1.54364e-08
-1.53452e-07
-1.60146e-08
-1.46465e-07
-1.65274e-08
-1.3929e-07
-1.69712e-08
-1.31959e-07
-1.73425e-08
-1.24502e-07
-1.7638e-08
-1.16954e-07
-1.78546e-08
-1.09348e-07
-1.79894e-08
-1.0172e-07
-1.80397e-08
-9.4106e-08
-1.80029e-08
-8.65433e-08
-1.78771e-08
-7.90698e-08
-1.76602e-08
-7.17239e-08
-1.7351e-08
-6.45444e-08
-1.69482e-08
-5.757e-08
-1.64514e-08
-5.08397e-08
-1.58605e-08
-4.43917e-08
-1.51761e-08
-3.82636e-08
-1.43995e-08
-3.24919e-08
-1.35329e-08
-2.71115e-08
-1.25797e-08
-2.21552e-08
-1.15444e-08
-1.76527e-08
-1.04332e-08
-1.36304e-08
-9.25421e-09
-1.01096e-08
-8.01833e-09
-7.10571e-09
-6.73966e-09
-4.62658e-09
-5.43666e-09
-2.67023e-09
-4.1336e-09
-1.22251e-09
-2.86234e-09
-2.54085e-10
-1.66483e-09
2.83157e-10
-5.96305e-10
4.60304e-10
2.70801e-10
3.75917e-10
8.43071e-10
1.61849e-10
1.00233e-09
5.93156e-10
7.83095e-11
-6.55871e-10
7.56053e-11
-9.28009e-10
-1.79967e-10
-4.52562e-10
-8.15484e-10
5.6018e-10
-1.92566e-09
1.95429e-09
-3.5782e-09
3.60641e-09
-5.81799e-09
5.41985e-09
-8.67088e-09
7.32e-09
-1.21469e-08
9.2495e-09
-1.62432e-08
1.11644e-08
-2.09465e-08
1.30312e-08
-2.62353e-08
1.48244e-08
-3.20814e-08
1.65247e-08
-3.84516e-08
1.81178e-08
-4.53085e-08
1.9593e-08
-5.26122e-08
2.09426e-08
-6.03204e-08
2.21613e-08
-6.8389e-08
2.32458e-08
-7.67735e-08
2.41941e-08
-8.54285e-08
2.50056e-08
-9.43085e-08
2.56805e-08
-1.03368e-07
2.62199e-08
-1.12563e-07
2.66257e-08
-1.21848e-07
2.69001e-08
-1.3118e-07
2.70459e-08
-1.40516e-07
2.70662e-08
-1.49815e-07
2.69644e-08
-1.59037e-07
2.67443e-08
-1.68142e-07
2.64097e-08
-1.77092e-07
2.59647e-08
-1.85852e-07
2.54135e-08
-1.94387e-07
2.47605e-08
-2.02662e-07
2.40101e-08
-2.10646e-07
2.31668e-08
-2.18308e-07
2.22353e-08
-2.2562e-07
2.12202e-08
-2.32555e-07
2.01263e-08
-2.39087e-07
1.89582e-08
-2.45192e-07
1.7721e-08
-2.50849e-07
1.64194e-08
-2.56035e-07
1.50585e-08
-2.60734e-07
1.36431e-08
-2.64927e-07
1.21785e-08
-2.686e-07
1.06696e-08
-2.7174e-07
9.12162e-09
-2.74333e-07
7.53985e-09
-2.76372e-07
5.92953e-09
-2.77847e-07
4.29603e-09
-2.78754e-07
2.64479e-09
-2.79087e-07
9.81295e-10
-2.78844e-07
-6.88887e-10
-2.78026e-07
-2.3601e-09
-2.76633e-07
-4.02662e-09
-2.74671e-07
-5.68269e-09
-2.72143e-07
-7.32245e-09
-2.69059e-07
-8.93999e-09
-2.65427e-07
-1.05293e-08
-2.61261e-07
-1.20845e-08
-2.56573e-07
-1.35995e-08
-2.5138e-07
-1.50682e-08
-2.457e-07
-1.64845e-08
-2.39553e-07
-1.78423e-08
-2.32961e-07
-1.91355e-08
-2.25949e-07
-2.03583e-08
-2.18543e-07
-2.15044e-08
-2.10772e-07
-2.25681e-08
-2.02664e-07
-2.35435e-08
-1.94254e-07
-2.44249e-08
-1.85575e-07
-2.52068e-08
-1.76662e-07
-2.58837e-08
-1.67554e-07
-2.64506e-08
-1.5829e-07
-2.69025e-08
-1.4891e-07
-2.72347e-08
-1.39456e-07
-2.7443e-08
-1.29972e-07
-2.75233e-08
-1.20503e-07
-2.74721e-08
-1.11094e-07
-2.72862e-08
-1.01791e-07
-2.69632e-08
-9.26413e-08
-2.65009e-08
-8.36916e-08
-2.5898e-08
-7.49892e-08
-2.51538e-08
-6.65809e-08
-2.42688e-08
-5.8513e-08
-2.3244e-08
-5.08305e-08
-2.2082e-08
-4.35771e-08
-2.07864e-08
-3.67941e-08
-1.93627e-08
-3.05202e-08
-1.78183e-08
-2.47904e-08
-1.6163e-08
-1.9635e-08
-1.44096e-08
-1.50787e-08
-1.25746e-08
-1.11389e-08
-1.06794e-08
-7.82432e-09
-8.75129e-09
-5.13263e-09
-6.82531e-09
-3.04843e-09
-4.94654e-09
-1.54043e-09
-3.17282e-09
-5.5838e-10
-1.57835e-09
-2.95474e-11
-2.58033e-10
1.45208e-10
6.68314e-10
9.66753e-11
1.05086e-09
6.89832e-10
-1.03626e-11
-6.45507e-10
-2.36641e-10
-7.0173e-10
-8.30236e-10
1.4103e-10
-1.90737e-09
1.63731e-09
-3.55616e-09
3.6031e-09
-5.84044e-09
5.89068e-09
-8.8028e-09
8.38222e-09
-1.24676e-08
1.09848e-08
-1.68437e-08
1.36255e-08
-2.19266e-08
1.62474e-08
-2.77012e-08
1.88058e-08
-3.41432e-08
2.12664e-08
-4.12212e-08
2.36028e-08
-4.88979e-08
2.57945e-08
-5.71314e-08
2.78265e-08
-6.58764e-08
2.96875e-08
-7.50847e-08
3.13696e-08
-8.47064e-08
3.28675e-08
-9.46902e-08
3.41779e-08
-1.04984e-07
3.52994e-08
-1.15536e-07
3.62319e-08
-1.26292e-07
3.69766e-08
-1.37202e-07
3.75355e-08
-1.48213e-07
3.79116e-08
-1.59276e-07
3.81083e-08
-1.7034e-07
3.81299e-08
-1.81356e-07
3.79809e-08
-1.92278e-07
3.76662e-08
-2.03059e-07
3.71913e-08
-2.13656e-07
3.65617e-08
-2.24026e-07
3.57831e-08
-2.34127e-07
3.48616e-08
-2.4392e-07
3.38033e-08
-2.53368e-07
3.26146e-08
-2.62434e-07
3.13018e-08
-2.71086e-07
2.98715e-08
-2.7929e-07
2.83303e-08
-2.87016e-07
2.66849e-08
-2.94238e-07
2.49422e-08
-3.00927e-07
2.3109e-08
-3.07061e-07
2.11923e-08
-3.12617e-07
1.9199e-08
-3.17575e-07
1.71364e-08
-3.21917e-07
1.50116e-08
-3.25627e-07
1.2832e-08
-3.28692e-07
1.06048e-08
-3.311e-07
8.33754e-09
-3.32842e-07
6.03783e-09
-3.3391e-07
3.71328e-09
-3.34301e-07
1.37165e-09
-3.34011e-07
-9.79197e-10
-3.33039e-07
-3.33132e-09
-3.31389e-07
-5.67666e-09
-3.29065e-07
-8.00709e-09
-3.26073e-07
-1.03144e-08
-3.22423e-07
-1.25902e-08
-3.18126e-07
-1.48262e-08
-3.13196e-07
-1.7014e-08
-3.07651e-07
-1.9145e-08
-3.01508e-07
-2.12108e-08
-2.9479e-07
-2.32028e-08
-2.8752e-07
-2.51125e-08
-2.79724e-07
-2.69314e-08
-2.71431e-07
-2.86511e-08
-2.62672e-07
-3.02631e-08
-2.53481e-07
-3.17594e-08
-2.43893e-07
-3.31316e-08
-2.33946e-07
-3.43721e-08
-2.23679e-07
-3.54729e-08
-2.13136e-07
-3.64268e-08
-2.0236e-07
-3.72265e-08
-1.91398e-07
-3.78652e-08
-1.80296e-07
-3.83366e-08
-1.69104e-07
-3.86348e-08
-1.57873e-07
-3.87543e-08
-1.46655e-07
-3.86904e-08
-1.35502e-07
-3.84389e-08
-1.24469e-07
-3.79963e-08
-1.13609e-07
-3.73602e-08
-1.02978e-07
-3.6529e-08
-9.26302e-08
-3.55021e-08
-8.26187e-08
-3.42802e-08
-7.29972e-08
-3.28656e-08
-6.38172e-08
-3.12619e-08
-5.51286e-08
-2.9475e-08
-4.69783e-08
-2.75129e-08
-3.94102e-08
-2.53864e-08
-3.24636e-08
-2.31096e-08
-2.61728e-08
-2.07004e-08
-2.05652e-08
-1.81822e-08
-1.56607e-08
-1.5584e-08
-1.14693e-08
-1.29427e-08
-7.98986e-09
-1.03048e-08
-5.20755e-09
-7.72885e-09
-3.09192e-09
-5.28845e-09
-1.59423e-09
-3.07604e-09
-6.44687e-10
-1.20757e-09
-1.49469e-10
1.73096e-10
1.30979e-11
8.88283e-10
7.02935e-10
-1.0817e-10
-5.37331e-10
-5.84996e-10
-2.24901e-10
-1.55611e-09
1.11215e-09
-3.12158e-09
3.20278e-09
-5.35856e-09
5.84009e-09
-8.32333e-09
8.85545e-09
-1.20532e-08
1.21121e-08
-1.65688e-08
1.55003e-08
-2.18756e-08
1.89324e-08
-2.79668e-08
2.23385e-08
-3.48242e-08
2.56632e-08
-4.24207e-08
2.88629e-08
-5.07213e-08
3.19034e-08
-5.9685e-08
3.47582e-08
-6.92657e-08
3.74072e-08
-7.94133e-08
3.98351e-08
-9.00746e-08
4.20309e-08
-1.01194e-07
4.39871e-08
-1.12715e-07
4.56988e-08
-1.24579e-07
4.71635e-08
-1.36728e-07
4.83806e-08
-1.49102e-07
4.93511e-08
-1.61644e-07
5.00774e-08
-1.74296e-07
5.05629e-08
-1.86999e-07
5.0812e-08
-1.99699e-07
5.08298e-08
-2.1234e-07
5.06221e-08
-2.24869e-07
5.01953e-08
-2.37234e-07
4.95563e-08
-2.49385e-07
4.87122e-08
-2.61272e-07
4.76706e-08
-2.7285e-07
4.64394e-08
-2.84073e-07
4.50265e-08
-2.94899e-07
4.34405e-08
-3.05287e-07
4.16896e-08
-3.15198e-07
3.97825e-08
-3.24596e-07
3.7728e-08
-3.33446e-07
3.5535e-08
-3.41716e-07
3.32125e-08
-3.49377e-07
3.07696e-08
-3.564e-07
2.82157e-08
-3.62761e-07
2.55601e-08
-3.68437e-07
2.28122e-08
-3.73407e-07
1.99817e-08
-3.77654e-07
1.70783e-08
-3.81161e-07
1.41118e-08
-3.83915e-07
1.10921e-08
-3.85907e-07
8.02939e-09
-3.87127e-07
4.93379e-09
-3.87571e-07
1.81565e-09
-3.87236e-07
-1.31455e-09
-3.86121e-07
-4.44622e-09
-3.84229e-07
-7.56867e-09
-3.81565e-07
-1.0671e-08
-3.78137e-07
-1.37424e-08
-3.73955e-07
-1.67718e-08
-3.69034e-07
-1.97479e-08
-3.63388e-07
-2.26597e-08
-3.57037e-07
-2.54959e-08
-3.50003e-07
-2.82451e-08
-3.42309e-07
-3.08962e-08
-3.33984e-07
-3.34377e-08
-3.25057e-07
-3.58584e-08
-3.15561e-07
-3.81473e-08
-3.05531e-07
-4.02932e-08
-2.95005e-07
-4.22853e-08
-2.84024e-07
-4.41129e-08
-2.7263e-07
-4.57656e-08
-2.6087e-07
-4.72332e-08
-2.4879e-07
-4.85061e-08
-2.36442e-07
-4.95747e-08
-2.23877e-07
-5.04304e-08
-2.11149e-07
-5.10647e-08
-1.98314e-07
-5.14701e-08
-1.85429e-07
-5.16395e-08
-1.72552e-07
-5.15669e-08
-1.59744e-07
-5.12469e-08
-1.47065e-07
-5.06753e-08
-1.34576e-07
-4.98492e-08
-1.22338e-07
-4.87667e-08
-1.10413e-07
-4.74275e-08
-9.88601e-08
-4.5833e-08
-8.77391e-08
-4.39865e-08
-7.71075e-08
-4.18935e-08
-6.70205e-08
-3.95621e-08
-5.75302e-08
-3.70032e-08
-4.86851e-08
-3.42316e-08
-4.05286e-08
-3.1266e-08
-3.30985e-08
-2.81305e-08
-2.64256e-08
-2.48551e-08
-2.05322e-08
-2.14774e-08
-1.54308e-08
-1.8044e-08
-1.11225e-08
-1.46131e-08
-7.59515e-09
-1.12562e-08
-4.82136e-09
-8.06223e-09
-2.7569e-09
-5.14051e-09
-1.3385e-09
-2.62597e-09
-4.81988e-10
-6.83409e-10
-8.02257e-11
4.86517e-10
6.22716e-10
-2.09916e-10
-3.27414e-10
-9.52168e-10
5.17358e-10
-2.325e-09
2.48497e-09
-4.4093e-09
5.28708e-09
-7.26832e-09
8.69911e-09
-1.09481e-08
1.25352e-08
-1.54783e-08
1.66423e-08
-2.08736e-08
2.08956e-08
-2.7135e-08
2.51938e-08
-3.42514e-08
2.9455e-08
-4.22012e-08
3.3613e-08
-5.09537e-08
3.76153e-08
-6.04702e-08
4.14199e-08
-7.0706e-08
4.4994e-08
-8.16107e-08
4.83119e-08
-9.31299e-08
5.13543e-08
-1.05206e-07
5.41068e-08
-1.17778e-07
5.65592e-08
-1.30784e-07
5.87049e-08
-1.44161e-07
6.05402e-08
-1.57844e-07
6.20638e-08
-1.71769e-07
6.32764e-08
-1.85872e-07
6.41804e-08
-2.00089e-07
6.47799e-08
-2.14357e-07
6.50801e-08
-2.28615e-07
6.5087e-08
-2.428e-07
6.48078e-08
-2.56855e-07
6.42504e-08
-2.70722e-07
6.34231e-08
-2.84345e-07
6.2335e-08
-2.9767e-07
6.09956e-08
-3.10645e-07
5.94146e-08
-3.23221e-07
5.76022e-08
-3.3535e-07
5.5569e-08
-3.46986e-07
5.33256e-08
-3.58086e-07
5.0883e-08
-3.68611e-07
4.82523e-08
-3.7852e-07
4.54449e-08
-3.8778e-07
4.24723e-08
-3.96357e-07
3.9346e-08
-4.04219e-07
3.6078e-08
-4.11339e-07
3.26802e-08
-4.17691e-07
2.91647e-08
-4.23253e-07
2.55437e-08
-4.28005e-07
2.18298e-08
-4.31928e-07
1.80354e-08
-4.3501e-07
1.41733e-08
-4.37237e-07
1.02564e-08
-4.38601e-07
6.29768e-09
-4.39095e-07
2.31043e-09
-4.38718e-07
-1.692e-09
-4.37468e-07
-5.69609e-09
-4.35348e-07
-9.68815e-09
-4.32365e-07
-1.36544e-08
-4.28527e-07
-1.75807e-08
-4.23845e-07
-2.14532e-08
-4.18336e-07
-2.52576e-08
-4.12016e-07
-2.89796e-08
-4.04907e-07
-3.26049e-08
-3.97033e-07
-3.61192e-08
-3.88421e-07
-3.95079e-08
-3.79102e-07
-4.27569e-08
-3.69108e-07
-4.58517e-08
-3.58477e-07
-4.87783e-08
-3.47248e-07
-5.15227e-08
-3.35462e-07
-5.4071e-08
-3.23165e-07
-5.64098e-08
-3.10405e-07
-5.85258e-08
-2.97232e-07
-6.04063e-08
-2.83699e-07
-6.2039e-08
-2.69862e-07
-6.34122e-08
-2.55777e-07
-6.45147e-08
-2.41506e-07
-6.53362e-08
-2.27109e-07
-6.5867e-08
-2.1265e-07
-6.60987e-08
-1.98193e-07
-6.60235e-08
-1.83805e-07
-6.56353e-08
-1.69551e-07
-6.49288e-08
-1.555e-07
-6.39006e-08
-1.41718e-07
-6.25487e-08
-1.28272e-07
-6.08733e-08
-1.15229e-07
-5.88765e-08
-1.02652e-07
-5.65628e-08
-9.0606e-08
-5.39399e-08
-7.91499e-08
-5.10182e-08
-6.83408e-08
-4.78123e-08
-5.82314e-08
-4.43409e-08
-4.88694e-08
-4.0628e-08
-4.02962e-08
-3.67037e-08
-3.25459e-08
-3.26054e-08
-2.56443e-08
-2.8379e-08
-1.96072e-08
-2.40812e-08
-1.44391e-08
-1.97812e-08
-1.0132e-08
-1.55633e-08
-6.66392e-09
-1.15303e-08
-3.9973e-09
-7.80713e-09
-2.07812e-09
-4.54515e-09
-8.34853e-10
-1.92668e-09
-1.77976e-10
-1.70357e-10
4.44745e-10
-3.12507e-10
-1.49059e-11
-1.32696e-09
1.53183e-09
-3.11462e-09
4.27264e-09
-5.73595e-09
7.90841e-09
-9.23851e-09
1.22017e-08
-1.36562e-08
1.69529e-08
-1.90093e-08
2.19954e-08
-2.53049e-08
2.71912e-08
-3.2538e-08
3.24269e-08
-4.06923e-08
3.76093e-08
-4.97418e-08
4.26625e-08
-5.96513e-08
4.75249e-08
-7.03785e-08
5.21471e-08
-8.18743e-08
5.64898e-08
-9.40844e-08
6.0522e-08
-1.0695e-07
6.42199e-08
-1.20409e-07
6.75657e-08
-1.34396e-07
7.05464e-08
-1.48845e-07
7.31534e-08
-1.63686e-07
7.53816e-08
-1.78851e-07
7.72288e-08
-1.9427e-07
7.86955e-08
-2.09874e-07
7.97841e-08
-2.25593e-07
8.04992e-08
-2.4136e-07
8.08466e-08
-2.57106e-07
8.08337e-08
-2.72767e-07
8.04687e-08
-2.88278e-07
7.97612e-08
-3.03576e-07
7.87211e-08
-3.186e-07
7.73595e-08
-3.33293e-07
7.56877e-08
-3.47596e-07
7.37178e-08
-3.61456e-07
7.14623e-08
-3.74821e-07
6.89339e-08
-3.87641e-07
6.61457e-08
-3.99869e-07
6.31113e-08
-4.11461e-07
5.98444e-08
-4.22375e-07
5.63589e-08
-4.32572e-07
5.26691e-08
-4.42015e-07
4.87893e-08
-4.50672e-07
4.47342e-08
-4.5851e-07
4.05185e-08
-4.65502e-07
3.61573e-08
-4.71624e-07
3.16657e-08
-4.76854e-07
2.70592e-08
-4.81172e-07
2.23532e-08
-4.84562e-07
1.75637e-08
-4.87012e-07
1.27065e-08
-4.88512e-07
7.79776e-09
-4.89056e-07
2.85394e-09
-4.88639e-07
-2.10844e-09
-4.87263e-07
-7.07262e-09
-4.84929e-07
-1.20217e-08
-4.81645e-07
-1.69385e-08
-4.7742e-07
-2.18058e-08
-4.72267e-07
-2.66062e-08
-4.66203e-07
-3.13221e-08
-4.59247e-07
-3.59359e-08
-4.51422e-07
-4.04299e-08
-4.42754e-07
-4.47864e-08
-4.33275e-07
-4.89876e-08
-4.23016e-07
-5.30159e-08
-4.12014e-07
-5.68536e-08
-4.00309e-07
-6.04833e-08
-3.87944e-07
-6.38879e-08
-3.74964e-07
-6.70503e-08
-3.6142e-07
-6.9954e-08
-3.47363e-07
-7.25828e-08
-3.32848e-07
-7.49211e-08
-3.17934e-07
-7.69539e-08
-3.02679e-07
-7.86667e-08
-2.87148e-07
-8.00462e-08
-2.71404e-07
-8.10796e-08
-2.55516e-07
-8.17554e-08
-2.39551e-07
-8.20633e-08
-2.2358e-07
-8.19943e-08
-2.07675e-07
-8.15406e-08
-1.91907e-07
-8.06966e-08
-1.7635e-07
-7.94581e-08
-1.61075e-07
-7.78232e-08
-1.46156e-07
-7.57925e-08
-1.31664e-07
-7.33689e-08
-1.17668e-07
-7.05587e-08
-1.04236e-07
-6.73714e-08
-9.1434e-08
-6.38204e-08
-7.93225e-08
-5.99238e-08
-6.79586e-08
-5.57048e-08
-5.73941e-08
-5.11926e-08
-4.76743e-08
-4.64235e-08
-3.88372e-08
-4.14424e-08
-3.09126e-08
-3.63036e-08
-2.39205e-08
-3.10733e-08
-1.78702e-08
-2.58315e-08
-1.27591e-08
-2.06743e-08
-8.57218e-09
-1.57173e-08
-5.28042e-09
-1.10989e-08
-2.84092e-09
-6.98465e-09
-1.1966e-09
-3.571e-09
-2.76952e-10
-1.09e-09
1.67794e-10
-4.14126e-10
3.9921e-10
-1.70224e-09
2.81995e-09
-3.91004e-09
6.48045e-09
-7.0775e-09
1.10759e-08
-1.12356e-08
1.63598e-08
-1.6405e-08
2.21223e-08
-2.25952e-08
2.81855e-08
-2.98045e-08
3.44006e-08
-3.80207e-08
4.06432e-08
-4.72215e-08
4.68101e-08
-5.73753e-08
5.28162e-08
-6.84422e-08
5.85919e-08
-8.03753e-08
6.40803e-08
-9.31214e-08
6.92358e-08
-1.06622e-07
7.40223e-08
-1.20813e-07
7.84114e-08
-1.35629e-07
8.23818e-08
-1.51001e-07
8.59178e-08
-1.66856e-07
8.90085e-08
-1.83122e-07
9.16474e-08
-1.99724e-07
9.38314e-08
-2.16589e-07
9.55605e-08
-2.33642e-07
9.68374e-08
-2.5081e-07
9.76667e-08
-2.68019e-07
9.80553e-08
-2.85197e-07
9.80115e-08
-3.02273e-07
9.75451e-08
-3.19179e-07
9.66669e-08
-3.35846e-07
9.53889e-08
-3.52211e-07
9.3724e-08
-3.68209e-07
9.16858e-08
-3.8378e-07
8.92886e-08
-3.98865e-07
8.65472e-08
-4.13408e-07
8.34769e-08
-4.27356e-07
8.00935e-08
-4.40658e-07
7.64132e-08
-4.53266e-07
7.24524e-08
-4.65135e-07
6.82279e-08
-4.76222e-07
6.37569e-08
-4.8649e-07
5.90567e-08
-4.959e-07
5.41449e-08
-5.04421e-07
4.90394e-08
-5.12022e-07
4.37583e-08
-5.18676e-07
3.83199e-08
-5.2436e-07
3.27429e-08
-5.29053e-07
2.7046e-08
-5.32738e-07
2.12484e-08
-5.354e-07
1.53693e-08
-5.37031e-07
9.42818e-09
-5.37622e-07
3.44493e-09
-5.3717e-07
-2.56049e-09
-5.35675e-07
-8.56786e-09
-5.3314e-07
-1.45567e-08
-5.29572e-07
-2.05064e-08
-5.24981e-07
-2.63961e-08
-5.19383e-07
-3.22048e-08
-5.12793e-07
-3.79114e-08
-5.05235e-07
-4.34945e-08
-4.96732e-07
-4.89329e-08
-4.87313e-07
-5.42053e-08
-4.7701e-07
-5.92902e-08
-4.6586e-07
-6.41664e-08
-4.539e-07
-6.88128e-08
-4.41175e-07
-7.32085e-08
-4.2773e-07
-7.73326e-08
-4.13616e-07
-8.1165e-08
-3.98884e-07
-8.46858e-08
-3.83591e-07
-8.78756e-08
-3.67796e-07
-9.07157e-08
-3.51562e-07
-9.31881e-08
-3.34953e-07
-9.52758e-08
-3.18036e-07
-9.69627e-08
-3.00882e-07
-9.82338e-08
-2.83562e-07
-9.90754e-08
-2.6615e-07
-9.94753e-08
-2.48722e-07
-9.9423e-08
-2.31353e-07
-9.89096e-08
-2.14121e-07
-9.79284e-08
-1.97104e-07
-9.6475e-08
-1.8038e-07
-9.45474e-08
-1.64025e-07
-9.21466e-08
-1.48118e-07
-8.92767e-08
-1.32731e-07
-8.59454e-08
-1.17938e-07
-8.21645e-08
-1.03808e-07
-7.79505e-08
-9.04066e-08
-7.3325e-08
-7.77956e-08
-6.83158e-08
-6.60308e-08
-6.29574e-08
-5.51618e-08
-5.72925e-08
-4.5231e-08
-5.13731e-08
-3.62728e-08
-4.52618e-08
-2.83122e-08
-3.90339e-08
-2.13643e-08
-3.27794e-08
-1.54333e-08
-2.66053e-08
-1.05121e-08
-2.06385e-08
-6.58178e-09
-1.50292e-08
-3.61159e-09
-9.95485e-09
-1.55984e-09
-5.62274e-09
-3.75256e-10
-2.27458e-09
-2.07463e-10
-5.13765e-10
9.12973e-10
-2.07356e-09
4.37974e-09
-4.70149e-09
9.1084e-09
-8.41759e-09
1.4792e-08
-1.32362e-08
2.11784e-08
-1.91639e-08
2.805e-08
-2.61987e-08
3.52204e-08
-3.43294e-08
4.25312e-08
-4.35354e-08
4.98491e-08
-5.37874e-08
5.70621e-08
-6.50477e-08
6.40766e-08
-7.72712e-08
7.08154e-08
-9.04058e-08
7.72149e-08
-1.04394e-07
8.32235e-08
-1.19171e-07
8.88e-08
-1.34672e-07
9.39118e-08
-1.50824e-07
9.85339e-08
-1.67554e-07
1.02648e-07
-1.84786e-07
1.06241e-07
-2.02443e-07
1.09304e-07
-2.20446e-07
1.11835e-07
-2.38717e-07
1.13831e-07
-2.57176e-07
1.15297e-07
-2.75747e-07
1.16237e-07
-2.94349e-07
1.16658e-07
-3.12909e-07
1.16571e-07
-3.31349e-07
1.15986e-07
-3.49598e-07
1.14915e-07
-3.67582e-07
1.13374e-07
-3.85234e-07
1.11376e-07
-4.02485e-07
1.08937e-07
-4.19271e-07
1.06074e-07
-4.35529e-07
1.02805e-07
-4.512e-07
9.91477e-08
-4.66226e-07
9.512e-08
-4.80554e-07
9.07413e-08
-4.94133e-07
8.60311e-08
-5.06914e-07
8.1009e-08
-5.18853e-07
7.56954e-08
-5.29907e-07
7.01106e-08
-5.40037e-07
6.42757e-08
-5.4921e-07
5.82116e-08
-5.57391e-07
5.19399e-08
-5.64553e-07
4.54822e-08
-5.70671e-07
3.88605e-08
-5.75722e-07
3.20972e-08
-5.79688e-07
2.52148e-08
-5.82555e-07
1.82361e-08
-5.84311e-07
1.11843e-08
-5.84949e-07
4.08287e-09
-5.84465e-07
-3.04461e-09
-5.82859e-07
-1.01742e-08
-5.80134e-07
-1.72816e-08
-5.76298e-07
-2.43425e-08
-5.71362e-07
-3.13321e-08
-5.65341e-07
-3.82258e-08
-5.58254e-07
-4.49984e-08
-5.50124e-07
-5.16249e-08
-5.40976e-07
-5.80801e-08
-5.30843e-07
-6.43388e-08
-5.19757e-07
-7.03757e-08
-5.07758e-07
-7.61659e-08
-4.94886e-07
-8.16844e-08
-4.81188e-07
-8.69064e-08
-4.66713e-07
-9.18078e-08
-4.51514e-07
-9.63645e-08
-4.35646e-07
-1.00553e-07
-4.19171e-07
-1.04351e-07
-4.0215e-07
-1.07736e-07
-3.8465e-07
-1.10688e-07
-3.6674e-07
-1.13186e-07
-3.48492e-07
-1.15211e-07
-3.29979e-07
-1.16747e-07
-3.11278e-07
-1.17776e-07
-2.92468e-07
-1.18286e-07
-2.73628e-07
-1.18263e-07
-2.5484e-07
-1.17698e-07
-2.36186e-07
-1.16583e-07
-2.17748e-07
-1.14913e-07
-1.99609e-07
-1.12686e-07
-1.81851e-07
-1.09904e-07
-1.64555e-07
-1.06573e-07
-1.47801e-07
-1.027e-07
-1.31665e-07
-9.83006e-08
-1.16221e-07
-9.33942e-08
-1.0154e-07
-8.80059e-08
-8.76881e-08
-8.21681e-08
-7.47248e-08
-7.59207e-08
-6.27049e-08
-6.93125e-08
-5.16756e-08
-6.24023e-08
-4.16766e-08
-5.52608e-08
-3.27388e-08
-4.79718e-08
-2.48838e-08
-4.06344e-08
-1.81236e-08
-3.33655e-08
-1.24599e-08
-2.63021e-08
-7.88468e-09
-1.96045e-08
-4.38007e-09
-1.34595e-08
-1.91998e-09
-8.08283e-09
-4.71801e-10
-3.72276e-09
-6.79263e-10
-6.10881e-10
1.52386e-09
-2.43828e-09
6.20713e-09
-5.48279e-09
1.21529e-08
-9.7455e-09
1.90547e-08
-1.52243e-08
2.66571e-08
-2.19117e-08
3.47374e-08
-2.97936e-08
4.31023e-08
-3.88484e-08
5.15861e-08
-4.90468e-08
6.00475e-08
-6.03518e-08
6.8367e-08
-7.27189e-08
7.64437e-08
-8.60969e-08
8.41934e-08
-1.00428e-07
9.15464e-08
-1.1565e-07
9.84455e-08
-1.31695e-07
1.04845e-07
-1.4849e-07
1.10707e-07
-1.6596e-07
1.16004e-07
-1.84028e-07
1.20715e-07
-2.02613e-07
1.24825e-07
-2.21633e-07
1.28324e-07
-2.41006e-07
1.31208e-07
-2.60649e-07
1.33474e-07
-2.80478e-07
1.35127e-07
-3.00412e-07
1.36171e-07
-3.20369e-07
1.36615e-07
-3.40267e-07
1.36469e-07
-3.60028e-07
1.35747e-07
-3.79575e-07
1.34462e-07
-3.98831e-07
1.3263e-07
-4.17724e-07
1.30269e-07
-4.36182e-07
1.27395e-07
-4.54138e-07
1.2403e-07
-4.71524e-07
1.20192e-07
-4.88279e-07
1.15902e-07
-5.04342e-07
1.11183e-07
-5.19655e-07
1.06055e-07
-5.34165e-07
1.00541e-07
-5.47821e-07
9.46649e-08
-5.60575e-07
8.84495e-08
-5.72383e-07
8.19186e-08
-5.83204e-07
7.50967e-08
-5.93001e-07
6.80082e-08
-6.01739e-07
6.06781e-08
-6.09388e-07
5.31316e-08
-6.15922e-07
4.53945e-08
-6.21318e-07
3.74926e-08
-6.25555e-07
2.94522e-08
-6.28619e-07
2.12999e-08
-6.30497e-07
1.30628e-08
-6.31182e-07
4.76795e-09
-6.3067e-07
-3.55696e-09
-6.2896e-07
-1.18841e-08
-6.26056e-07
-2.01853e-08
-6.21967e-07
-2.84321e-08
-6.16703e-07
-3.6596e-08
-6.10281e-07
-4.46479e-08
-6.0272e-07
-5.25588e-08
-5.94046e-07
-6.02997e-08
-5.84285e-07