/*--------------------------------*- C++ -*----------------------------------*\
| =========                 |                                                 |
| \\      /  F ield         | OpenFOAM: The Open Source CFD Toolbox           |
|  \\    /   O peration     | Version:  2212                                  |
|   \\  /    A nd           | Website:  www.openfoam.com                      |
|    \\/     M anipulation  |                                                 |
\*---------------------------------------------------------------------------*/
FoamFile
{
    version     2.0;
    format      ascii;
    arch        "LSB;label=32;scalar=64";
    class       volVectorField;
    location    "0.0805";
    object      U;
}
// * * * * * * * * * * * * * * * * * * * * * * * * * * * * * * * * * * * * * //

dimensions      [0 1 -1 0 0 0 0];

internalField   nonuniform List<vector> 
10000
(
(2.98532e-06 -2.98295e-06 0)
(1.48186e-05 -7.66119e-06 0)
(3.36626e-05 -8.84131e-06 0)
(5.13763e-05 -7.62334e-06 0)
(6.29822e-05 -5.13528e-06 0)
(6.60692e-05 -2.02959e-06 0)
(5.93848e-05 1.33285e-06 0)
(4.23579e-05 4.74675e-06 0)
(1.48694e-05 8.0944e-06 0)
(-2.29104e-05 1.13087e-05 0)
(-7.06233e-05 1.43516e-05 0)
(-0.000127787 1.72001e-05 0)
(-0.000193836 1.9841e-05 0)
(-0.000268154 2.22671e-05 0)
(-0.000350086 2.44753e-05 0)
(-0.000438958 2.64653e-05 0)
(-0.000534086 2.82391e-05 0)
(-0.000634781 2.97996e-05 0)
(-0.000740358 3.11507e-05 0)
(-0.000850138 3.22967e-05 0)
(-0.000963452 3.32431e-05 0)
(-0.00107964 3.39956e-05 0)
(-0.00119807 3.45597e-05 0)
(-0.00131811 3.49414e-05 0)
(-0.00143915 3.51465e-05 0)
(-0.0015606 3.5181e-05 0)
(-0.00168189 3.50517e-05 0)
(-0.00180247 3.47649e-05 0)
(-0.00192182 3.4327e-05 0)
(-0.00203941 3.37442e-05 0)
(-0.00215476 3.3023e-05 0)
(-0.00226741 3.21696e-05 0)
(-0.00237689 3.11901e-05 0)
(-0.0024828 3.0091e-05 0)
(-0.00258472 2.88788e-05 0)
(-0.00268227 2.75597e-05 0)
(-0.00277509 2.61401e-05 0)
(-0.00286283 2.46258e-05 0)
(-0.00294519 2.3023e-05 0)
(-0.00302186 2.1338e-05 0)
(-0.00309256 1.95768e-05 0)
(-0.00315705 1.77461e-05 0)
(-0.00321509 1.58521e-05 0)
(-0.00326647 1.39011e-05 0)
(-0.00331101 1.18999e-05 0)
(-0.00334854 9.85491e-06 0)
(-0.00337892 7.77243e-06 0)
(-0.00340204 5.65909e-06 0)
(-0.0034178 3.52143e-06 0)
(-0.00342614 1.36634e-06 0)
(-0.00342699 -7.98976e-07 0)
(-0.00342035 -2.96753e-06 0)
(-0.00340622 -5.13198e-06 0)
(-0.00338463 -7.28457e-06 0)
(-0.00335563 -9.41798e-06 0)
(-0.00331931 -1.15249e-05 0)
(-0.00327577 -1.35973e-05 0)
(-0.00322515 -1.56276e-05 0)
(-0.00316761 -1.76085e-05 0)
(-0.00310335 -1.95318e-05 0)
(-0.00303257 -2.13887e-05 0)
(-0.00295552 -2.31713e-05 0)
(-0.00287249 -2.48718e-05 0)
(-0.00278375 -2.64821e-05 0)
(-0.00268966 -2.79938e-05 0)
(-0.00259055 -2.93993e-05 0)
(-0.00248682 -3.06906e-05 0)
(-0.00237887 -3.18595e-05 0)
(-0.00226714 -3.28977e-05 0)
(-0.0021521 -3.37974e-05 0)
(-0.00203423 -3.45511e-05 0)
(-0.00191405 -3.5151e-05 0)
(-0.0017921 -3.55903e-05 0)
(-0.00166893 -3.58622e-05 0)
(-0.00154514 -3.59601e-05 0)
(-0.00142131 -3.58772e-05 0)
(-0.00129808 -3.56077e-05 0)
(-0.00117608 -3.51466e-05 0)
(-0.00105597 -3.44889e-05 0)
(-0.000938414 -3.363e-05 0)
(-0.000824088 -3.25656e-05 0)
(-0.000713678 -3.12928e-05 0)
(-0.000607877 -2.98094e-05 0)
(-0.000507375 -2.81135e-05 0)
(-0.000412863 -2.62041e-05 0)
(-0.000325021 -2.40818e-05 0)
(-0.000244515 -2.17492e-05 0)
(-0.000171988 -1.92108e-05 0)
(-0.00010805 -1.64736e-05 0)
(-5.32618e-05 -1.35491e-05 0)
(-8.11705e-06 -1.04551e-05 0)
(2.69849e-05 -7.21954e-06 0)
(5.17817e-05 -3.88622e-06 0)
(6.62115e-05 -5.26948e-07 0)
(7.05144e-05 2.73649e-06 0)
(6.53912e-05 5.69434e-06 0)
(5.2225e-05 7.98384e-06 0)
(3.35433e-05 8.96158e-06 0)
(1.438e-05 7.53995e-06 0)
(2.7644e-06 2.76483e-06 0)
(7.66257e-06 -1.48144e-05 0)
(3.1061e-05 -3.10444e-05 0)
(6.24356e-05 -3.31488e-05 0)
(8.75256e-05 -2.52918e-05 0)
(9.689e-05 -1.12949e-05 0)
(8.50661e-05 6.25189e-06 0)
(4.86968e-05 2.56584e-05 0)
(-1.40703e-05 4.58185e-05 0)
(-0.00010396 6.60078e-05 0)
(-0.000220897 8.57468e-05 0)
(-0.000364246 0.000104717 0)
(-0.000532969 0.000122701 0)
(-0.000725746 0.000139556 0)
(-0.000941057 0.000155183 0)
(-0.00117724 0.000169522 0)
(-0.00143256 0.000182535 0)
(-0.00170518 0.000194205 0)
(-0.00199327 0.000204527 0)
(-0.00229497 0.000213508 0)
(-0.00260843 0.000221162 0)
(-0.00293179 0.00022751 0)
(-0.00326324 0.000232576 0)
(-0.00360099 0.00023639 0)
(-0.00394329 0.000238984 0)
(-0.00428843 0.000240392 0)
(-0.00463475 0.000240651 0)
(-0.00498063 0.000239798 0)
(-0.00532451 0.000237874 0)
(-0.00566488 0.000234916 0)
(-0.00600028 0.000230968 0)
(-0.00632933 0.000226068 0)
(-0.00665068 0.00022026 0)
(-0.00696305 0.000213584 0)
(-0.00726523 0.000206084 0)
(-0.00755605 0.000197801 0)
(-0.00783441 0.000188779 0)
(-0.00809927 0.000179059 0)
(-0.00834967 0.000168684 0)
(-0.00858467 0.000157698 0)
(-0.00880343 0.000146142 0)
(-0.00900516 0.000134061 0)
(-0.00918913 0.000121499 0)
(-0.00935467 0.0001085 0)
(-0.0095012 9.51082e-05 0)
(-0.00962817 8.13698e-05 0)
(-0.00973511 6.73298e-05 0)
(-0.00982164 5.30337e-05 0)
(-0.0098874 3.8528e-05 0)
(-0.00993214 2.38598e-05 0)
(-0.00995566 9.07676e-06 0)
(-0.00995784 -5.77187e-06 0)
(-0.00993861 -2.06359e-05 0)
(-0.009898 -3.54653e-05 0)
(-0.0098361 -5.02089e-05 0)
(-0.00975306 -6.48148e-05 0)
(-0.00964915 -7.92308e-05 0)
(-0.00952465 -9.34045e-05 0)
(-0.00937998 -0.000107282 0)
(-0.00921561 -0.000120811 0)
(-0.00903207 -0.000133935 0)
(-0.00883 -0.000146599 0)
(-0.0086101 -0.000158749 0)
(-0.00837316 -0.000170328 0)
(-0.00812003 -0.000181283 0)
(-0.00785167 -0.000191559 0)
(-0.00756909 -0.000201102 0)
(-0.00727339 -0.000209857 0)
(-0.00696574 -0.000217772 0)
(-0.00664738 -0.000224793 0)
(-0.00631964 -0.000230869 0)
(-0.00598391 -0.000235952 0)
(-0.00564164 -0.000239991 0)
(-0.00529437 -0.000242942 0)
(-0.00494367 -0.000244761 0)
(-0.0045912 -0.000245407 0)
(-0.00423864 -0.00024484 0)
(-0.00388775 -0.000243028 0)
(-0.00354032 -0.000239938 0)
(-0.00319818 -0.000235543 0)
(-0.00286317 -0.000229822 0)
(-0.0025372 -0.000222755 0)
(-0.00222214 -0.000214332 0)
(-0.00191989 -0.000204548 0)
(-0.00163235 -0.000193408 0)
(-0.00136137 -0.000180924 0)
(-0.00110879 -0.000167124 0)
(-0.000876349 -0.000152047 0)
(-0.000665724 -0.000135756 0)
(-0.000478455 -0.000118336 0)
(-0.000315914 -9.99098e-05 0)
(-0.000179238 -8.06474e-05 0)
(-6.92512e-05 -6.07896e-05 0)
(1.36509e-05 -4.06799e-05 0)
(6.96609e-05 -2.08183e-05 0)
(9.97892e-05 -1.94538e-06 0)
(0.000106178 1.48275e-05 0)
(9.24579e-05 2.78261e-05 0)
(6.43062e-05 3.4525e-05 0)
(3.12734e-05 3.12715e-05 0)
(7.53146e-06 1.43687e-05 0)
(8.86586e-06 -3.3674e-05 0)
(3.32955e-05 -6.24553e-05 0)
(6.1249e-05 -6.09739e-05 0)
(7.56845e-05 -3.80043e-05 0)
(6.52057e-05 -6.90716e-07 0)
(2.27311e-05 4.56343e-05 0)
(-5.6421e-05 9.71359e-05 0)
(-0.000175044 0.000151103 0)
(-0.000334413 0.000205629 0)
(-0.000534658 0.000259371 0)
(-0.000775054 0.00031138 0)
(-0.00105424 0.000360985 0)
(-0.00137037 0.000407713 0)
(-0.00172128 0.000451233 0)
(-0.00210451 0.000491318 0)
(-0.00251747 0.00052782 0)
(-0.00295742 0.000560648 0)
(-0.00342154 0.000589761 0)
(-0.00390696 0.000615147 0)
(-0.00441083 0.000636825 0)
(-0.00493027 0.000654833 0)
(-0.00546242 0.000669228 0)
(-0.00600449 0.000680078 0)
(-0.00655371 0.000687465 0)
(-0.00710739 0.000691476 0)
(-0.00766287 0.000692209 0)
(-0.00821761 0.000689764 0)
(-0.00876911 0.000684247 0)
(-0.00931496 0.000675768 0)
(-0.00985285 0.00066444 0)
(-0.0103805 0.000650377 0)
(-0.0108959 0.000633697 0)
(-0.0113968 0.000614518 0)
(-0.0118814 0.00059296 0)
(-0.0123478 0.000569144 0)
(-0.0127942 0.00054319 0)
(-0.013219 0.000515222 0)
(-0.0136205 0.000485362 0)
(-0.0139974 0.000453735 0)
(-0.0143482 0.000420464 0)
(-0.0146716 0.000385677 0)
(-0.0149666 0.000349499 0)
(-0.0152319 0.000312061 0)
(-0.0154668 0.000273491 0)
(-0.0156702 0.00023392 0)
(-0.0158415 0.000193481 0)
(-0.01598 0.000152307 0)
(-0.0160853 0.000110532 0)
(-0.0161567 6.82945e-05 0)
(-0.0161942 2.57339e-05 0)
(-0.0161973 -1.70091e-05 0)
(-0.0161662 -5.97903e-05 0)
(-0.0161007 -0.000102463 0)
(-0.0160012 -0.000144881 0)
(-0.0158677 -0.000186894 0)
(-0.0157008 -0.000228352 0)
(-0.0155009 -0.000269102 0)
(-0.0152687 -0.00030899 0)
(-0.0150049 -0.000347862 0)
(-0.0147104 -0.000385559 0)
(-0.0143863 -0.000421925 0)
(-0.0140336 -0.000456802 0)
(-0.0136537 -0.000490033 0)
(-0.0132478 -0.000521459 0)
(-0.0128177 -0.000550925 0)
(-0.0123647 -0.000578277 0)
(-0.0118908 -0.00060336 0)
(-0.0113979 -0.000626025 0)
(-0.0108878 -0.000646124 0)
(-0.0103627 -0.000663511 0)
(-0.00982483 -0.000678048 0)
(-0.00927653 -0.000689602 0)
(-0.00872021 -0.000698043 0)
(-0.0081584 -0.000703252 0)
(-0.00759369 -0.000705116 0)
(-0.00702879 -0.000703532 0)
(-0.00646645 -0.000698408 0)
(-0.00590951 -0.000689661 0)
(-0.00536084 -0.000677224 0)
(-0.00482336 -0.000661042 0)
(-0.00430002 -0.000641079 0)
(-0.00379377 -0.000617317 0)
(-0.00330756 -0.00058976 0)
(-0.00284431 -0.00055844 0)
(-0.00240688 -0.000523421 0)
(-0.00199805 -0.000484805 0)
(-0.00162047 -0.000442744 0)
(-0.00127662 -0.000397448 0)
(-0.000968779 -0.000349212 0)
(-0.000698895 -0.000298431 0)
(-0.000468537 -0.000245642 0)
(-0.000278757 -0.00019158 0)
(-0.000129931 -0.000137246 0)
(-2.15499e-05 -8.40295e-05 0)
(4.80593e-05 -3.38619e-05 0)
(8.20867e-05 1.05516e-05 0)
(8.5577e-05 4.5439e-05 0)
(6.58963e-05 6.56317e-05 0)
(3.4645e-05 6.433e-05 0)
(8.9706e-06 3.35315e-05 0)
(7.71475e-06 -5.1522e-05 0)
(2.57457e-05 -8.78197e-05 0)
(3.89612e-05 -7.5552e-05 0)
(2.99962e-05 -2.87893e-05 0)
(-1.31021e-05 4.17984e-05 0)
(-9.81519e-05 0.000127976 0)
(-0.000230495 0.000223534 0)
(-0.000413443 0.000323886 0)
(-0.000648612 0.00042566 0)
(-0.000936277 0.000526385 0)
(-0.00127566 0.00062425 0)
(-0.00166518 0.000717932 0)
(-0.00210262 0.000806467 0)
(-0.00258529 0.000889162 0)
(-0.00311015 0.000965522 0)
(-0.00367388 0.00103521 0)
(-0.00427299 0.00109801 0)
(-0.00490384 0.00115379 0)
(-0.00556272 0.00120251 0)
(-0.00624588 0.00124415 0)
(-0.00694957 0.00127877 0)
(-0.00767001 0.00130646 0)
(-0.00840351 0.00132733 0)
(-0.00914639 0.00134152 0)
(-0.00989507 0.00134919 0)
(-0.010646 0.00135051 0)
(-0.0113958 0.00134567 0)
(-0.0121412 0.00133486 0)
(-0.0128788 0.0013183 0)
(-0.0136056 0.00129619 0)
(-0.0143186 0.00126876 0)
(-0.0150149 0.00123622 0)
(-0.0156917 0.00119881 0)
(-0.0163464 0.00115676 0)
(-0.0169764 0.00111029 0)
(-0.0175795 0.00105966 0)
(-0.0181532 0.00100508 0)
(-0.0186956 0.000946805 0)
(-0.0192046 0.000885077 0)
(-0.0196783 0.000820138 0)
(-0.0201151 0.000752235 0)
(-0.0205134 0.000681617 0)
(-0.0208717 0.000608535 0)
(-0.0211887 0.000533244 0)
(-0.0214633 0.000455999 0)
(-0.0216944 0.000377061 0)
(-0.0218813 0.000296692 0)
(-0.0220231 0.000215157 0)
(-0.0221193 0.000132727 0)
(-0.0221695 4.96734e-05 0)
(-0.0221735 -3.37252e-05 0)
(-0.022131 -0.000117188 0)
(-0.0220423 -0.000200431 0)
(-0.0219075 -0.000283164 0)
(-0.0217269 -0.000365096 0)
(-0.0215011 -0.000445933 0)
(-0.0212308 -0.000525377 0)
(-0.020917 -0.000603127 0)
(-0.0205605 -0.00067888 0)
(-0.0201626 -0.000752332 0)
(-0.0197247 -0.000823176 0)
(-0.0192483 -0.000891106 0)
(-0.0187352 -0.000955817 0)
(-0.0181872 -0.001017 0)
(-0.0176063 -0.00107436 0)
(-0.0169948 -0.0011276 0)
(-0.016355 -0.00117641 0)
(-0.0156895 -0.00122051 0)
(-0.0150009 -0.00125961 0)
(-0.014292 -0.00129344 0)
(-0.013566 -0.00132174 0)
(-0.0128258 -0.00134424 0)
(-0.0120747 -0.0013607 0)
(-0.0113161 -0.00137091 0)
(-0.0105535 -0.00137464 0)
(-0.0097905 -0.00137171 0)
(-0.00903073 -0.00136194 0)
(-0.00827797 -0.00134519 0)
(-0.00753604 -0.00132134 0)
(-0.00680881 -0.00129031 0)
(-0.00610015 -0.00125203 0)
(-0.00541396 -0.00120649 0)
(-0.0047541 -0.00115373 0)
(-0.00412438 -0.00109384 0)
(-0.00352851 -0.00102696 0)
(-0.00297006 -0.000953342 0)
(-0.00245245 -0.000873309 0)
(-0.00197882 -0.000787318 0)
(-0.00155199 -0.000695982 0)
(-0.00117437 -0.000600113 0)
(-0.000847849 -0.000500788 0)
(-0.000573624 -0.000399437 0)
(-0.000352043 -0.000297963 0)
(-0.000182368 -0.000198906 0)
(-6.25027e-05 -0.000105672 0)
(1.13416e-05 -2.28234e-05 0)
(4.49468e-05 4.3549e-05 0)
(4.64918e-05 8.5472e-05 0)
(2.8275e-05 9.27657e-05 0)
(8.05599e-06 5.2322e-05 0)
(5.33135e-06 -6.34732e-05 0)
(1.22013e-05 -9.78741e-05 0)
(2.62166e-06 -6.57035e-05 0)
(-3.90778e-05 1.40567e-05 0)
(-0.000124342 0.000127323 0)
(-0.000261105 0.000263054 0)
(-0.00045486 0.000412691 0)
(-0.000709059 0.000569714 0)
(-0.00102542 0.000729179 0)
(-0.00140425 0.000887353 0)
(-0.00184466 0.00104142 0)
(-0.00234489 0.00118927 0)
(-0.0029024 0.00132933 0)
(-0.00351409 0.00146043 0)
(-0.00417641 0.00158172 0)
(-0.00488547 0.00169261 0)
(-0.00563713 0.00179268 0)
(-0.00642707 0.00188167 0)
(-0.00725085 0.00195947 0)
(-0.00810395 0.00202602 0)
(-0.00898182 0.00208137 0)
(-0.00987993 0.00212564 0)
(-0.0107937 0.00215897 0)
(-0.0117188 0.00218156 0)
(-0.0126507 0.00219366 0)
(-0.0135852 0.00219553 0)
(-0.014518 0.00218745 0)
(-0.015445 0.00216973 0)
(-0.0163623 0.00214269 0)
(-0.017266 0.00210667 0)
(-0.0181524 0.00206202 0)
(-0.019018 0.00200909 0)
(-0.0198593 0.00194825 0)
(-0.020673 0.00187987 0)
(-0.0214561 0.00180432 0)
(-0.0222055 0.00172199 0)
(-0.0229185 0.00163325 0)
(-0.0235925 0.00153851 0)
(-0.0242249 0.00143814 0)
(-0.0248135 0.00133256 0)
(-0.0253561 0.00122215 0)
(-0.0258508 0.00110733 0)
(-0.0262958 0.000988507 0)
(-0.0266895 0.000866092 0)
(-0.0270304 0.000740506 0)
(-0.0273174 0.000612171 0)
(-0.0275492 0.000481516 0)
(-0.0277251 0.000348976 0)
(-0.0278443 0.000214989 0)
(-0.0279063 8.00019e-05 0)
(-0.0279109 -5.55338e-05 0)
(-0.0278578 -0.00019116 0)
(-0.0277472 -0.000326414 0)
(-0.0275793 -0.000460826 0)
(-0.0273547 -0.000593921 0)
(-0.0270739 -0.000725221 0)
(-0.0267378 -0.000854241 0)
(-0.0263476 -0.000980494 0)
(-0.0259045 -0.00110349 0)
(-0.02541 -0.00122273 0)
(-0.0248659 -0.00133772 0)
(-0.024274 -0.00144798 0)
(-0.0236365 -0.00155299 0)
(-0.0229557 -0.00165227 0)
(-0.0222341 -0.00174534 0)
(-0.0214745 -0.00183171 0)
(-0.0206798 -0.0019109 0)
(-0.0198531 -0.00198246 0)
(-0.0189977 -0.00204592 0)
(-0.0181172 -0.00210084 0)
(-0.0172152 -0.00214681 0)
(-0.0162956 -0.00218341 0)
(-0.0153623 -0.00221026 0)
(-0.0144196 -0.00222701 0)
(-0.0134716 -0.00223333 0)
(-0.0125229 -0.00222892 0)
(-0.0115778 -0.00221351 0)
(-0.0106411 -0.00218689 0)
(-0.00971724 -0.00214889 0)
(-0.00881109 -0.00209938 0)
(-0.00792732 -0.00203829 0)
(-0.00707062 -0.00196565 0)
(-0.00624568 -0.00188152 0)
(-0.00545706 -0.0017861 0)
(-0.00470921 -0.00167967 0)
(-0.00400639 -0.00156265 0)
(-0.00335263 -0.00143562 0)
(-0.00275163 -0.00129938 0)
(-0.00220669 -0.00115494 0)
(-0.00172058 -0.00100365 0)
(-0.00129544 -0.000847259 0)
(-0.000932638 -0.000688039 0)
(-0.000632533 -0.000528933 0)
(-0.000394309 -0.000373773 0)
(-0.000215697 -0.000227543 0)
(-9.2695e-05 -9.67228e-05 0)
(-1.92911e-05 1.02935e-05 0)
(1.28964e-05 8.2796e-05 0)
(1.58272e-05 0.000107288 0)
(5.87924e-06 6.58312e-05 0)
(2.35508e-06 -6.71863e-05 0)
(-4.81697e-06 -8.72595e-05 0)
(-4.26253e-05 -2.44309e-05 0)
(-0.000123671 9.83083e-05 0)
(-0.000258085 0.000263822 0)
(-0.000453426 0.000458476 0)
(-0.000714938 0.000671496 0)
(-0.0010459 0.000894473 0)
(-0.00144789 0.00112088 0)
(-0.00192109 0.00134567 0)
(-0.00246447 0.00156495 0)
(-0.00307599 0.00177572 0)
(-0.00375286 0.00197572 0)
(-0.00449158 0.00216323 0)
(-0.00528817 0.00233696 0)
(-0.00613826 0.00249599 0)
(-0.00703714 0.00263967 0)
(-0.00797991 0.00276757 0)
(-0.00896147 0.00287944 0)
(-0.00997665 0.00297518 0)
(-0.0110202 0.00305481 0)
(-0.0120869 0.00311844 0)
(-0.0131715 0.00316627 0)
(-0.0142689 0.00319855 0)
(-0.0153738 0.00321561 0)
(-0.0164814 0.00321781 0)
(-0.0175866 0.00320554 0)
(-0.0186846 0.00317923 0)
(-0.0197709 0.00313935 0)
(-0.0208409 0.00308637 0)
(-0.0218903 0.00302078 0)
(-0.0229148 0.0029431 0)
(-0.0239105 0.00285386 0)
(-0.0248735 0.00275359 0)
(-0.0258001 0.00264283 0)
(-0.0266868 0.00252214 0)
(-0.0275303 0.00239208 0)
(-0.0283276 0.00225322 0)
(-0.0290756 0.00210613 0)
(-0.0297718 0.0019514 0)
(-0.0304136 0.00178961 0)
(-0.0309986 0.00162135 0)
(-0.0315247 0.00144724 0)
(-0.0319902 0.00126787 0)
(-0.0323931 0.00108386 0)
(-0.0327322 0.000895833 0)
(-0.0330061 0.000704419 0)
(-0.0332138 0.000510255 0)
(-0.0333545 0.000313986 0)
(-0.0334275 0.000116268 0)
(-0.0334325 -8.22383e-05 0)
(-0.0333694 -0.00028086 0)
(-0.0332383 -0.000478918 0)
(-0.0330394 -0.000675725 0)
(-0.0327734 -0.000870586 0)
(-0.0324411 -0.0010628 0)
(-0.0320434 -0.00125166 0)
(-0.0315817 -0.00143645 0)
(-0.0310575 -0.00161645 0)
(-0.0304726 -0.00179095 0)
(-0.029829 -0.00195922 0)
(-0.0291289 -0.00212053 0)
(-0.0283749 -0.00227418 0)
(-0.0275697 -0.00241944 0)
(-0.0267164 -0.0025556 0)
(-0.025818 -0.00268197 0)
(-0.0248781 -0.00279786 0)
(-0.0239004 -0.00290259 0)
(-0.0228887 -0.00299551 0)
(-0.0218471 -0.00307598 0)
(-0.0207801 -0.00314339 0)
(-0.019692 -0.00319717 0)
(-0.0185875 -0.00323676 0)
(-0.0174716 -0.00326166 0)
(-0.0163492 -0.00327141 0)
(-0.0152254 -0.00326558 0)
(-0.0141055 -0.00324382 0)
(-0.0129949 -0.00320582 0)
(-0.0118989 -0.00315136 0)
(-0.010823 -0.00308029 0)
(-0.00977272 -0.00299255 0)
(-0.00875341 -0.00288819 0)
(-0.00777045 -0.00276736 0)
(-0.00682911 -0.00263037 0)
(-0.00593448 -0.00247769 0)
(-0.0050914 -0.00230997 0)
(-0.00430444 -0.00212812 0)
(-0.00357779 -0.00193332 0)
(-0.00291515 -0.00172709 0)
(-0.00231964 -0.0015114 0)
(-0.00179366 -0.00128876 0)
(-0.00133874 -0.00106237 0)
(-0.000955391 -0.000836309 0)
(-0.000642854 -0.000615744 0)
(-0.00039893 -0.000407261 0)
(-0.000219725 -0.000219221 0)
(-9.9395e-05 -6.22101e-05 0)
(-2.98319e-05 5.05134e-05 0)
(-2.10047e-07 0.000102445 0)
(3.07786e-06 7.16477e-05 0)
(-8.70053e-07 -6.14308e-05 0)
(-2.37126e-05 -5.26079e-05 0)
(-9.3192e-05 5.30353e-05 0)
(-0.000218039 0.000229498 0)
(-0.00040652 0.000457091 0)
(-0.000665438 0.000719905 0)
(-0.000999461 0.00100515 0)
(-0.00141142 0.00130265 0)
(-0.00190256 0.00160435 0)
(-0.00247279 0.00190389 0)
(-0.00312078 0.00219628 0)
(-0.00384425 0.0024776 0)
(-0.00464006 0.00274484 0)
(-0.00550437 0.00299567 0)
(-0.00643279 0.00322831 0)
(-0.00742049 0.00344148 0)
(-0.00846229 0.00363421 0)
(-0.00955274 0.00380588 0)
(-0.0106862 0.00395609 0)
(-0.0118569 0.00408464 0)
(-0.013059 0.00419151 0)
(-0.0142866 0.00427681 0)
(-0.0155339 0.00434076 0)
(-0.016795 0.00438368 0)
(-0.0180642 0.00440597 0)
(-0.0193357 0.00440809 0)
(-0.0206041 0.00439056 0)
(-0.021864 0.00435394 0)
(-0.0231099 0.00429884 0)
(-0.0243369 0.0042259 0)
(-0.02554 0.00413577 0)
(-0.0267144 0.00402915 0)
(-0.0278556 0.00390674 0)
(-0.0289591 0.00376927 0)
(-0.0300207 0.00361747 0)
(-0.0310366 0.00345211 0)
(-0.0320029 0.00327393 0)
(-0.0329161 0.00308373 0)
(-0.0337729 0.00288227 0)
(-0.0345702 0.00267037 0)
(-0.0353051 0.00244881 0)
(-0.0359749 0.00221842 0)
(-0.0365773 0.00198002 0)
(-0.03711 0.00173444 0)
(-0.0375713 0.00148251 0)
(-0.0379593 0.00122511 0)
(-0.0382727 0.000963081 0)
(-0.0385102 0.000697307 0)
(-0.038671 0.00042867 0)
(-0.0387543 0.000158068 0)
(-0.0387598 -0.000113591 0)
(-0.0386873 -0.000385388 0)
(-0.0385368 -0.000656394 0)
(-0.0383089 -0.000925667 0)
(-0.038004 -0.00119226 0)
(-0.0376233 -0.00145521 0)
(-0.0371677 -0.00171355 0)
(-0.0366389 -0.00196631 0)
(-0.0360386 -0.00221251 0)
(-0.0353687 -0.00245116 0)
(-0.0346317 -0.00268129 0)
(-0.0338301 -0.0029019 0)
(-0.0329667 -0.00311203 0)
(-0.0320447 -0.0033107 0)
(-0.0310674 -0.00349695 0)
(-0.0300387 -0.00366982 0)
(-0.0289623 -0.00382839 0)
(-0.0278424 -0.00397174 0)
(-0.0266836 -0.00409899 0)
(-0.0254904 -0.00420929 0)
(-0.0242677 -0.00430181 0)
(-0.0230207 -0.00437578 0)
(-0.0217547 -0.00443047 0)
(-0.0204751 -0.00446521 0)
(-0.0191876 -0.00447937 0)
(-0.0178981 -0.00447241 0)
(-0.0166124 -0.00444387 0)
(-0.0153365 -0.00439336 0)
(-0.0140766 -0.0043206 0)
(-0.0128387 -0.00422542 0)
(-0.011629 -0.00410779 0)
(-0.0104536 -0.00396779 0)
(-0.00931849 -0.00380569 0)
(-0.00822945 -0.00362197 0)
(-0.00719218 -0.00341728 0)
(-0.00621206 -0.00319259 0)
(-0.00529414 -0.00294915 0)
(-0.00444305 -0.0026886 0)
(-0.00366286 -0.00241303 0)
(-0.00295705 -0.00212509 0)
(-0.00232829 -0.00182812 0)
(-0.00177837 -0.00152628 0)
(-0.00130802 -0.00122481 0)
(-0.00091672 -0.000930222 0)
(-0.000602543 -0.000650665 0)
(-0.00036197 -0.000396268 0)
(-0.000189648 -0.000179631 0)
(-7.81134e-05 -1.62718e-05 0)
(-1.82338e-05 7.47568e-05 0)
(1.89226e-09 6.84744e-05 0)
(-4.15698e-06 -4.56051e-05 0)
(-4.34842e-05 8.07547e-06 0)
(-0.000146645 0.000169777 0)
(-0.000318116 0.00041139 0)
(-0.000563953 0.000711213 0)
(-0.000889928 0.00105143 0)
(-0.00129988 0.00141748 0)
(-0.00179597 0.00179758 0)
(-0.00237894 0.00218227 0)
(-0.00304824 0.00256391 0)
(-0.00380222 0.00293644 0)
(-0.0046382 0.00329502 0)
(-0.00555269 0.00363586 0)
(-0.0065415 0.00395599 0)
(-0.00759983 0.00425312 0)
(-0.00872243 0.00452552 0)
(-0.00990366 0.00477195 0)
(-0.0111376 0.00499151 0)
(-0.0124181 0.00518363 0)
(-0.0137388 0.00534801 0)
(-0.0150934 0.00548455 0)
(-0.0164754 0.00559336 0)
(-0.0178784 0.00567466 0)
(-0.019296 0.00572883 0)
(-0.0207218 0.00575636 0)
(-0.0221496 0.00575779 0)
(-0.0235733 0.00573379 0)
(-0.0249868 0.00568505 0)
(-0.0263843 0.00561234 0)
(-0.0277601 0.00551647 0)
(-0.0291088 0.00539829 0)
(-0.0304251 0.00525866 0)
(-0.0317039 0.00509851 0)
(-0.0329403 0.00491877 0)
(-0.0341296 0.00472039 0)
(-0.0352675 0.00450434 0)
(-0.0363497 0.00427162 0)
(-0.0373723 0.00402322 0)
(-0.0383317 0.00376018 0)
(-0.0392243 0.00348353 0)
(-0.040047 0.0031943 0)
(-0.0407967 0.00289357 0)
(-0.041471 0.00258241 0)
(-0.0420672 0.0022619 0)
(-0.0425834 0.00193314 0)
(-0.0430175 0.00159724 0)
(-0.0433681 0.00125534 0)
(-0.0436337 0.000908569 0)
(-0.0438135 0.00055809 0)
(-0.0439065 0.00020507 0)
(-0.0439124 -0.000149307 0)
(-0.043831 -0.00050384 0)
(-0.0436625 -0.000857319 0)
(-0.0434071 -0.00120852 0)
(-0.0430658 -0.0015562 0)
(-0.0426395 -0.00189911 0)
(-0.0421295 -0.002236 0)
(-0.0415375 -0.00256559 0)
(-0.0408655 -0.00288662 0)
(-0.0401157 -0.00319781 0)
(-0.0392907 -0.00349789 0)
(-0.0383934 -0.00378557 0)
(-0.0374269 -0.00405959 0)
(-0.0363947 -0.00431869 0)
(-0.0353007 -0.00456163 0)
(-0.0341488 -0.00478717 0)
(-0.0329436 -0.00499412 0)
(-0.0316895 -0.0051813 0)
(-0.0303915 -0.00534757 0)
(-0.0290549 -0.00549184 0)
(-0.0276849 -0.00561305 0)
(-0.0262874 -0.00571021 0)
(-0.0248681 -0.00578238 0)
(-0.0234331 -0.00582872 0)
(-0.0219887 -0.00584845 0)
(-0.0205413 -0.00584088 0)
(-0.0190974 -0.00580542 0)
(-0.0176636 -0.00574163 0)
(-0.0162467 -0.00564917 0)
(-0.0148534 -0.00552785 0)
(-0.0134903 -0.00537765 0)
(-0.0121642 -0.00519876 0)
(-0.0108816 -0.00499156 0)
(-0.00964896 -0.0047567 0)
(-0.00847237 -0.0044951 0)
(-0.00735774 -0.00420804 0)
(-0.00631056 -0.00389717 0)
(-0.00533588 -0.00356463 0)
(-0.00443817 -0.00321311 0)
(-0.00362125 -0.00284599 0)
(-0.00288813 -0.00246745 0)
(-0.00224093 -0.00208265 0)
(-0.0016807 -0.00169797 0)
(-0.00120731 -0.00132122 0)
(-0.000819289 -0.000962013 0)
(-0.000513709 -0.000632106 0)
(-0.000285957 -0.000345879 0)
(-0.000129492 -0.000120775 0)
(-3.72254e-05 2.21182e-05 0)
(-3.15501e-06 5.56533e-05 0)
(-7.40701e-06 -1.95042e-05 0)
(-6.35167e-05 9.58016e-05 0)
(-0.000201369 0.000327573 0)
(-0.000421072 0.000646337 0)
(-0.000726298 0.00102888 0)
(-0.0011216 0.00145585 0)
(-0.0016098 0.00191119 0)
(-0.00219222 0.00238171 0)
(-0.00286892 0.00285664 0)
(-0.00363883 0.00332719 0)
(-0.00449979 0.00378626 0)
(-0.00544871 0.00422811 0)
(-0.0064817 0.00464818 0)
(-0.00759414 0.00504284 0)
(-0.00878085 0.00540928 0)
(-0.0100361 0.00574534 0)
(-0.011354 0.0060494 0)
(-0.0127279 0.00632032 0)
(-0.0141514 0.00655734 0)
(-0.0156176 0.00676001 0)
(-0.0171196 0.00692817 0)
(-0.0186506 0.00706188 0)
(-0.0202035 0.00716139 0)
(-0.0217713 0.00722712 0)
(-0.0233473 0.00725962 0)
(-0.0249246 0.00725956 0)
(-0.0264966 0.00722773 0)
(-0.0280568 0.00716498 0)
(-0.0295988 0.00707224 0)
(-0.0311164 0.00695049 0)
(-0.0326037 0.00680079 0)
(-0.0340548 0.00662421 0)
(-0.0354643 0.00642189 0)
(-0.0368268 0.00619499 0)
(-0.0381373 0.0059447 0)
(-0.0393908 0.00567223 0)
(-0.0405829 0.00537882 0)
(-0.0417092 0.00506573 0)
(-0.0427657 0.00473425 0)
(-0.0437486 0.00438566 0)
(-0.0446544 0.00402128 0)
(-0.0454798 0.00364245 0)
(-0.046222 0.00325051 0)
(-0.0468784 0.00284684 0)
(-0.0474464 0.00243281 0)
(-0.0479242 0.00200983 0)
(-0.04831 0.00157932 0)
(-0.0486023 0.00114271 0)
(-0.0488 0.000701452 0)
(-0.0489023 0.000257026 0)
(-0.0489087 -0.000189082 0)
(-0.048819 -0.000635362 0)
(-0.0486334 -0.00108029 0)
(-0.0483523 -0.00152233 0)
(-0.0479766 -0.00195993 0)
(-0.0475073 -0.00239151 0)
(-0.046946 -0.00281549 0)
(-0.0462944 -0.0032303 0)
(-0.0455548 -0.00363433 0)
(-0.0447295 -0.00402598 0)
(-0.0438213 -0.00440365 0)
(-0.0428335 -0.00476576 0)
(-0.0417695 -0.0051107 0)
(-0.0406332 -0.00543692 0)
(-0.0394285 -0.00574285 0)
(-0.0381601 -0.00602697 0)
(-0.0368327 -0.00628777 0)
(-0.0354513 -0.0065238 0)
(-0.0340213 -0.00673363 0)
(-0.0325483 -0.0069159 0)
(-0.0310383 -0.00706933 0)
(-0.0294975 -0.00719267 0)
(-0.0279321 -0.00728478 0)
(-0.0263488 -0.00734462 0)
(-0.0247544 -0.00737122 0)
(-0.0231559 -0.00736377 0)
(-0.0215603 -0.00732157 0)
(-0.0199748 -0.00724407 0)
(-0.0184067 -0.0071309 0)
(-0.0168633 -0.00698185 0)
(-0.0153518 -0.00679697 0)
(-0.0138795 -0.0065765 0)
(-0.0124533 -0.00632098 0)
(-0.0110803 -0.00603126 0)
(-0.00976705 -0.00570854 0)
(-0.00851988 -0.00535443 0)
(-0.00734475 -0.00497104 0)
(-0.00624712 -0.00456102 0)
(-0.00523185 -0.00412769 0)
(-0.00430316 -0.00367516 0)
(-0.00346446 -0.00320845 0)
(-0.00271825 -0.00273372 0)
(-0.00206603 -0.00225842 0)
(-0.00150817 -0.00179163 0)
(-0.00104382 -0.00134428 0)
(-0.000670811 -0.000929579 0)
(-0.000385453 -0.000563448 0)
(-0.00018232 -0.000264899 0)
(-5.65499e-05 -5.65779e-05 0)
(-6.28889e-06 3.29347e-05 0)
(-1.05702e-05 1.68433e-05 0)
(-8.34371e-05 0.000210927 0)
(-0.00025631 0.000527279 0)
(-0.00052498 0.000935634 0)
(-0.000890677 0.00141171 0)
(-0.00135662 0.00193495 0)
(-0.0019245 0.00248808 0)
(-0.00259466 0.0030567 0)
(-0.00336638 0.00362889 0)
(-0.00423791 0.00419479 0)
(-0.00520653 0.00474633 0)
(-0.00626865 0.00527695 0)
(-0.00741991 0.00578131 0)
(-0.00865527 0.00625516 0)
(-0.00996911 0.00669515 0)
(-0.0113553 0.00709866 0)
(-0.0128074 0.00746374 0)
(-0.0143185 0.00778895 0)
(-0.0158817 0.00807333 0)
(-0.0174895 0.00831629 0)
(-0.0191348 0.00851757 0)
(-0.0208101 0.00867719 0)
(-0.0225078 0.00879541 0)
(-0.0242207 0.0088727 0)
(-0.0259413 0.00890968 0)
(-0.0276624 0.00890714 0)
(-0.0293769 0.00886598 0)
(-0.0310777 0.00878721 0)
(-0.032758 0.00867195 0)
(-0.0344112 0.00852137 0)
(-0.0360309 0.00833672 0)
(-0.0376109 0.00811932 0)
(-0.0391451 0.00787053 0)
(-0.0406278 0.00759175 0)
(-0.0420537 0.00728441 0)
(-0.0434174 0.00695001 0)
(-0.0447141 0.00659004 0)
(-0.045939 0.00620603 0)
(-0.0470879 0.00579956 0)
(-0.0481566 0.00537219 0)
(-0.0491413 0.00492555 0)
(-0.0500387 0.00446124 0)
(-0.0508455 0.00398094 0)
(-0.0515589 0.0034863 0)
(-0.0521763 0.00297902 0)
(-0.0526956 0.00246081 0)
(-0.0531149 0.00193342 0)
(-0.0534326 0.00139859 0)
(-0.0536474 0.000858108 0)
(-0.0537586 0.000313773 0)
(-0.0537656 -0.000232592 0)
(-0.0536682 -0.000779145 0)
(-0.0534666 -0.00132402 0)
(-0.0531612 -0.00186534 0)
(-0.052753 -0.00240121 0)
(-0.0522432 -0.0029297 0)
(-0.0516333 -0.00344889 0)
(-0.0509253 -0.00395685 0)
(-0.0501216 -0.00445162 0)
(-0.0492247 -0.00493126 0)
(-0.0482378 -0.00539383 0)
(-0.0471642 -0.00583737 0)
(-0.0460077 -0.00625996 0)
(-0.0447723 -0.00665969 0)
(-0.0434626 -0.00703466 0)
(-0.0420834 -0.00738303 0)
(-0.0406397 -0.00770297 0)
(-0.039137 -0.00799271 0)
(-0.0375811 -0.00825054 0)
(-0.0359781 -0.00847481 0)
(-0.0343343 -0.00866396 0)
(-0.0326563 -0.0088165 0)
(-0.030951 -0.00893108 0)
(-0.0292255 -0.00900642 0)
(-0.027487 -0.00904139 0)
(-0.0257431 -0.00903503 0)
(-0.0240013 -0.00898651 0)
(-0.0222693 -0.0088952 0)
(-0.0205549 -0.00876068 0)
(-0.0188659 -0.00858276 0)
(-0.0172101 -0.0083615 0)
(-0.0155951 -0.00809727 0)
(-0.0140285 -0.00779075 0)
(-0.0125178 -0.00744302 0)
(-0.0110699 -0.00705556 0)
(-0.00969176 -0.00663035 0)
(-0.00838968 -0.00616995 0)
(-0.00716957 -0.00567754 0)
(-0.00603672 -0.00515708 0)
(-0.00499577 -0.0046134 0)
(-0.00405058 -0.00405237 0)
(-0.00320413 -0.00348108 0)
(-0.00245845 -0.00290803 0)
(-0.00181454 -0.00234342 0)
(-0.00127226 -0.00179939 0)
(-0.000830347 -0.00129044 0)
(-0.000486168 -0.000833759 0)
(-0.000235514 -0.00044961 0)
(-7.58194e-05 -0.000161768 0)
(-9.34637e-06 3.13811e-07 0)
(-1.3625e-05 6.32758e-05 0)
(-0.000103029 0.000353384 0)
(-0.000310801 0.000769106 0)
(-0.000628555 0.0012798 0)
(-0.0010551 0.00186049 0)
(-0.00159229 0.00248971 0)
(-0.00224059 0.00314921 0)
(-0.00299927 0.00382358 0)
(-0.00386673 0.00449989 0)
(-0.00484047 0.00516735 0)
(-0.00591712 0.00581701 0)
(-0.00709253 0.00644151 0)
(-0.00836182 0.00703481 0)
(-0.00971945 0.00759205 0)
(-0.0111594 0.00810934 0)
(-0.012675 0.00858365 0)
(-0.0142594 0.00901264 0)
(-0.0159054 0.00939461 0)
(-0.0176054 0.00972837 0)
(-0.0193518 0.0100132 0)
(-0.0211368 0.0102487 0)
(-0.0229525 0.0104349 0)
(-0.0247909 0.010572 0)
(-0.0266444 0.0106606 0)
(-0.0285049 0.0107014 0)
(-0.0303649 0.0106951 0)
(-0.0322168 0.010643 0)
(-0.0340531 0.0105461 0)
(-0.0358665 0.0104058 0)
(-0.03765 0.0102234 0)
(-0.0393968 0.0100004 0)
(-0.0411002 0.00973838 0)
(-0.0427539 0.00943889 0)
(-0.0443518 0.00910362 0)
(-0.0458881 0.00873427 0)
(-0.0473571 0.00833261 0)
(-0.0487537 0.00790042 0)
(-0.0500729 0.00743954 0)
(-0.0513099 0.00695181 0)
(-0.0524605 0.00643913 0)
(-0.0535207 0.00590342 0)
(-0.0544867 0.00534662 0)
(-0.0553551 0.00477071 0)
(-0.056123 0.00417768 0)
(-0.0567876 0.00356956 0)
(-0.0573465 0.00294839 0)
(-0.0577978 0.00231626 0)
(-0.0581398 0.00167527 0)
(-0.0583712 0.00102754 0)
(-0.058491 0.000375224 0)
(-0.0584988 -0.000279492 0)
(-0.0583942 -0.000934409 0)
(-0.0581775 -0.0015873 0)
(-0.0578492 -0.00223592 0)
(-0.0574103 -0.00287799 0)
(-0.056862 -0.00351123 0)
(-0.0562061 -0.00413335 0)
(-0.0554446 -0.00474202 0)
(-0.05458 -0.00533493 0)
(-0.0536152 -0.00590976 0)
(-0.0525533 -0.00646418 0)
(-0.0513981 -0.00699588 0)
(-0.0501534 -0.00750256 0)