/*--------------------------------*- C++ -*----------------------------------*\
| =========                 |                                                 |
| \\      /  F ield         | OpenFOAM: The Open Source CFD Toolbox           |
|  \\    /   O peration     | Version:  2212                                  |
|   \\  /    A nd           | Website:  www.openfoam.com                      |
|    \\/     M anipulation  |                                                 |
\*---------------------------------------------------------------------------*/
FoamFile
{
    version     2.0;
    format      ascii;
    arch        "LSB;label=32;scalar=64";
    class       surfaceScalarField;
    location    "0.061";
    object      phi_0;
}
// * * * * * * * * * * * * * * * * * * * * * * * * * * * * * * * * * * * * * //

dimensions      [0 3 -1 0 0 0 0];

oriented        oriented;

internalField   nonuniform List<scalar> 
19800
(
6.7431e-11
-6.74266e-11
2.31487e-10
-1.64053e-10
4.12095e-10
-1.80596e-10
5.52544e-10
-1.40452e-10
6.21031e-10
-6.84904e-11
6.00549e-10
2.04854e-11
4.82839e-10
1.17713e-10
2.65017e-10
2.17817e-10
-5.23515e-11
3.17367e-10
-4.66535e-10
4.14182e-10
-9.73355e-10
5.06836e-10
-1.56774e-09
5.94391e-10
-2.24394e-09
6.76214e-10
-2.99583e-09
7.51901e-10
-3.81703e-09
8.21199e-10
-4.701e-09
8.83971e-10
-5.64117e-09
9.40161e-10
-6.63093e-09
9.89765e-10
-7.66377e-09
1.03283e-09
-8.73322e-09
1.06946e-09
-9.83297e-09
1.09974e-09
-1.09568e-08
1.12383e-09
-1.20987e-08
1.14187e-09
-1.32527e-08
1.15402e-09
-1.44132e-08
1.16047e-09
-1.55746e-08
1.16139e-09
-1.67315e-08
1.15697e-09
-1.78789e-08
1.14739e-09
-1.90118e-08
1.13287e-09
-2.01254e-08
1.11359e-09
-2.12152e-08
1.08977e-09
-2.22767e-08
1.06159e-09
-2.3306e-08
1.02927e-09
-2.4299e-08
9.93005e-10
-2.5252e-08
9.53002e-10
-2.61615e-08
9.09464e-10
-2.70241e-08
8.62601e-10
-2.78367e-08
8.12619e-10
-2.85964e-08
7.59719e-10
-2.93005e-08
7.04104e-10
-2.99465e-08
6.45989e-10
-3.05321e-08
5.85583e-10
-3.10552e-08
5.23094e-10
-3.15139e-08
4.58734e-10
-3.19066e-08
3.92712e-10
-3.22319e-08
3.25243e-10
-3.24884e-08
2.56554e-10
-3.26753e-08
1.86865e-10
-3.27917e-08
1.16399e-10
-3.28371e-08
4.53843e-11
-3.28111e-08
-2.5955e-11
-3.27137e-08
-9.73827e-11
-3.25451e-08
-1.68661e-10
-3.23055e-08
-2.39553e-10
-3.19957e-08
-3.09807e-10
-3.16165e-08
-3.79172e-10
-3.11691e-08
-4.47404e-10
-3.06549e-08
-5.14244e-10
-3.00755e-08
-5.7943e-10
-2.94327e-08
-6.42708e-10
-2.87289e-08
-7.03818e-10
-2.79664e-08
-7.62491e-10
-2.7148e-08
-8.18463e-10
-2.62765e-08
-8.71475e-10
-2.53553e-08
-9.21258e-10
-2.43877e-08
-9.67545e-10
-2.33776e-08
-1.01008e-09
-2.2329e-08
-1.0486e-09
-2.12462e-08
-1.08284e-09
-2.01336e-08
-1.11257e-09
-1.89961e-08
-1.13754e-09
-1.78386e-08
-1.15752e-09
-1.66663e-08
-1.17228e-09
-1.54847e-08
-1.1816e-09
-1.42994e-08
-1.18528e-09
-1.31163e-08
-1.18312e-09
-1.19413e-08
-1.17495e-09
-1.07807e-08
-1.16062e-09
-9.64074e-09
-1.13997e-09
-8.52784e-09
-1.11289e-09
-7.44857e-09
-1.07927e-09
-6.40951e-09
-1.03905e-09
-5.41734e-09
-9.92175e-10
-4.4787e-09
-9.38657e-10
-3.60016e-09
-8.78533e-10
-2.78825e-09
-8.11907e-10
-2.0493e-09
-7.3895e-10
-1.38938e-09
-6.59919e-10
-8.14194e-10
-5.75186e-10
-3.28905e-10
-4.85287e-10
6.2092e-11
-3.90995e-10
3.55495e-10
-2.93408e-10
5.49596e-10
-1.94104e-10
6.4503e-10
-9.54307e-11
6.4601e-10
-9.73694e-13
5.62242e-10
8.37685e-11
4.12102e-10
1.50133e-10
2.27856e-10
1.84243e-10
6.46275e-11
1.63235e-10
6.46282e-11
1.60985e-10
-2.28413e-10
4.43155e-10
-4.46241e-10
7.1332e-10
-4.5075e-10
8.73199e-10
-3.00321e-10
8.55085e-10
-5.03769e-11
6.16154e-10
2.59405e-10
1.31812e-10
6.02053e-10
-6.09615e-10
9.59244e-10
-1.61075e-09
1.31849e-09
-2.86778e-09
1.6712e-09
-4.37239e-09
2.01143e-09
-6.11306e-09
2.33504e-09
-8.076e-09
2.63915e-09
-1.02459e-08
2.92178e-09
-1.26063e-08
3.1816e-09
-1.51401e-08
3.41776e-09
-1.78297e-08
3.6298e-09
-2.06575e-08
3.8175e-09
-2.36055e-08
3.98088e-09
-2.66561e-08
4.1201e-09
-2.97918e-08
4.23547e-09
-3.29954e-08
4.32741e-09
-3.62499e-08
4.39639e-09
-3.95388e-08
4.44297e-09
-4.28462e-08
4.46777e-09
-4.61562e-08
4.47144e-09
-4.94539e-08
4.45463e-09
-5.27245e-08
4.41805e-09
-5.59541e-08
4.36244e-09
-5.9129e-08
4.28852e-09
-6.22363e-08
4.19706e-09
-6.52636e-08
4.08883e-09
-6.81989e-08
3.96458e-09
-7.1031e-08
3.82511e-09
-7.37491e-08
3.67117e-09
-7.63432e-08
3.50356e-09
-7.88037e-08
3.32308e-09
-8.11216e-08
3.13051e-09
-8.32885e-08
2.92664e-09
-8.52967e-08
2.71229e-09
-8.7139e-08
2.48826e-09
-8.88087e-08
2.25535e-09
-9.03e-08
2.01439e-09
-9.16075e-08
1.7662e-09
-9.27264e-08
1.51161e-09
-9.36526e-08
1.25146e-09
-9.43826e-08
9.86595e-10
-9.49136e-08
7.17885e-10
-9.52434e-08
4.4619e-10
-9.53705e-08
1.72401e-10
-9.52938e-08
-1.02583e-10
-9.50134e-08
-3.77858e-10
-9.45295e-08
-6.52498e-10
-9.38435e-08
-9.25569e-10
-9.29571e-08
-1.19613e-09
-9.18731e-08
-1.46323e-09
-9.05946e-08
-1.72588e-09
-8.91258e-08
-1.9831e-09
-8.74713e-08
-2.23389e-09
-8.56368e-08
-2.47724e-09
-8.36284e-08
-2.71217e-09
-8.14533e-08
-2.93766e-09
-7.9119e-08
-3.15269e-09
-7.66343e-08
-3.35625e-09
-7.40082e-08
-3.54733e-09
-7.12508e-08
-3.72492e-09
-6.83729e-08
-3.88801e-09
-6.53858e-08
-4.03564e-09
-6.23018e-08
-4.16685e-09
-5.91337e-08
-4.2807e-09
-5.5895e-08
-4.37627e-09
-5.25998e-08
-4.45268e-09
-4.9263e-08
-4.50908e-09
-4.58999e-08
-4.54468e-09
-4.25265e-08
-4.55871e-09
-3.91591e-08
-4.5505e-09
-3.58146e-08
-4.5194e-09
-3.25104e-08
-4.46486e-09
-2.9264e-08
-4.38637e-09
-2.60934e-08
-4.28355e-09
-2.30165e-08
-4.15611e-09
-2.00517e-08
-4.00386e-09
-1.72171e-08
-3.82677e-09
-1.45308e-08
-3.62499e-09
-1.20105e-08
-3.39885e-09
-9.67345e-09
-3.14891e-09
-7.53634e-09
-2.87606e-09
-5.6147e-09
-2.58155e-09
-3.92273e-09
-2.26715e-09
-2.47271e-09
-1.9353e-09
-1.27438e-09
-1.58933e-09
-3.33923e-10
-1.23386e-09
3.47274e-10
-8.75295e-10
7.74483e-10
-5.22632e-10
9.62179e-10
-1.88671e-10
9.377e-10
1.08246e-10
7.46021e-10
3.41819e-10
4.55589e-10
4.74686e-10
1.63156e-10
4.55671e-10
2.27782e-10
1.75423e-10
-4.03823e-10
4.42384e-10
-7.132e-10
6.38351e-10
-6.46728e-10
6.46276e-10
-3.08237e-10
3.81398e-10
2.14485e-10
-2.13727e-10
8.5452e-10
-1.17474e-09
1.56307e-09
-2.52053e-09
2.30503e-09
-4.2573e-09
3.05527e-09
-6.38173e-09
3.79566e-09
-8.88347e-09
4.51317e-09
-1.17469e-08
5.19845e-09
-1.49525e-08
5.84475e-09
-1.8478e-08
6.44726e-09
-2.2299e-08
7.00267e-09
-2.63899e-08
7.5087e-09
-3.07241e-08
7.96396e-09
-3.52743e-08
8.3677e-09
-4.00131e-08
8.71965e-09
-4.4913e-08
9.01997e-09
-4.99467e-08
9.26914e-09
-5.50871e-08
9.46784e-09
-6.03077e-08
9.617e-09
-6.55825e-08
9.71771e-09
-7.08858e-08
9.77117e-09
-7.61931e-08
9.7787e-09
-8.14802e-08
9.74172e-09
-8.67238e-08
9.66168e-09
-9.19015e-08
9.54013e-09
-9.69916e-08
9.37862e-09
-1.01973e-07
9.17878e-09
-1.06827e-07
8.94224e-09
-1.11533e-07
8.67066e-09
-1.16073e-07
8.36573e-09
-1.20431e-07
8.02914e-09
-1.2459e-07
7.66259e-09
-1.28535e-07
7.26782e-09
-1.32251e-07
6.84655e-09
-1.35725e-07
6.40052e-09
-1.38944e-07
5.9315e-09
-1.41897e-07
5.44125e-09
-1.44574e-07
4.93156e-09
-1.46963e-07
4.40421e-09
-1.49058e-07
3.86102e-09
-1.5085e-07
3.30383e-09
-1.52333e-07
2.73449e-09
-1.53502e-07
2.15486e-09
-1.54351e-07
1.56684e-09
-1.54877e-07
9.72345e-10
-1.55078e-07
3.73312e-10
-1.54952e-07
-2.28282e-10
-1.54499e-07
-8.30439e-10
-1.53721e-07
-1.43114e-09
-1.52618e-07
-2.02831e-09
-1.51194e-07
-2.6199e-09
-1.49454e-07
-3.2038e-09
-1.47402e-07
-3.77788e-09
-1.45045e-07
-4.33998e-09
-1.42391e-07
-4.88793e-09
-1.39448e-07
-5.41955e-09
-1.36228e-07
-5.93264e-09
-1.32741e-07
-6.425e-09
-1.28999e-07
-6.89442e-09
-1.25016e-07
-7.3387e-09
-1.20808e-07
-7.75563e-09
-1.1639e-07
-8.14305e-09
-1.11779e-07
-8.4988e-09
-1.06994e-07
-8.82076e-09
-1.02054e-07
-9.10686e-09
-9.69798e-08
-9.35507e-09
-9.17926e-08
-9.56346e-09
-8.65151e-08
-9.73012e-09
-8.1171e-08
-9.85325e-09
-7.57845e-08
-9.93116e-09
-7.03809e-08
-9.96227e-09
-6.49863e-08
-9.94513e-09
-5.96273e-08
-9.87841e-09
-5.43311e-08
-9.761e-09
-4.91256e-08
-9.59193e-09
-4.40387e-08
-9.37045e-09
-3.90987e-08
-9.09605e-09
-3.43341e-08
-8.76852e-09
-2.97729e-08
-8.38797e-09
-2.5443e-08
-7.95491e-09
-2.13715e-08
-7.47029e-09
-1.75848e-08
-6.93565e-09
-1.41076e-08
-6.35322e-09
-1.09631e-08
-5.72609e-09
-8.17174e-09
-5.0585e-09
-5.75091e-09
-4.35613e-09
-3.71361e-09
-3.62663e-09
-2.0672e-09
-2.88026e-09
-8.11645e-10
-2.13085e-09
6.28623e-11
-1.39714e-09
5.78839e-10
-7.04649e-10
7.75335e-10
-8.8246e-11
7.1253e-10
4.04634e-10
4.76636e-10
7.10582e-10
1.84733e-10
7.4757e-10
4.12519e-10
1.37678e-10
-5.41501e-10
2.9652e-10
-8.72022e-10
3.05535e-10
-6.55744e-10
4.10239e-11
-4.37042e-11
-5.88104e-10
8.43593e-10
-1.64564e-09
1.91206e-09
-3.17289e-09
3.09029e-09
-5.19283e-09
4.32498e-09
-7.71405e-09
5.57647e-09
-1.07337e-08
6.81527e-09
-1.424e-08
8.01949e-09
-1.82144e-08
9.1729e-09
-2.26332e-08
1.02636e-08
-2.74688e-08
1.12828e-08
-3.26904e-08
1.22243e-08
-3.82653e-08
1.30836e-08
-4.41594e-08
1.3858e-08
-5.03374e-08
1.45457e-08
-5.67636e-08
1.51459e-08
-6.34021e-08
1.56585e-08
-7.02169e-08
1.60839e-08
-7.71723e-08
1.64233e-08
-8.42332e-08
1.66779e-08
-9.13649e-08
1.68494e-08
-9.85336e-08
1.69398e-08
-1.05706e-07
1.69512e-08
-1.1285e-07
1.68859e-08
-1.19935e-07
1.67463e-08
-1.2693e-07
1.65351e-08
-1.33806e-07
1.62548e-08
-1.40536e-07
1.59082e-08
-1.47091e-07
1.54981e-08
-1.53448e-07
1.50273e-08
-1.59581e-07
1.44987e-08
-1.65467e-07
1.39152e-08
-1.71084e-07
1.32798e-08
-1.76412e-07
1.25954e-08
-1.8143e-07
1.1865e-08
-1.86121e-07
1.10917e-08
-1.90468e-07
1.02784e-08
-1.94456e-07
9.42838e-09
-1.98069e-07
8.54459e-09
-2.01295e-07
7.63019e-09
-2.04122e-07
6.68833e-09
-2.0654e-07
5.72219e-09
-2.08541e-07
4.73501e-09
-2.10116e-07
3.73004e-09
-2.1126e-07
2.71057e-09
-2.11967e-07
1.67996e-09
-2.12236e-07
6.41564e-10
-2.12063e-07
-4.01183e-10
-2.11448e-07
-1.4448e-09
-2.10394e-07
-2.48577e-09
-2.08901e-07
-3.52054e-09
-2.06976e-07
-4.54549e-09
-2.04623e-07
-5.55698e-09
-2.01849e-07
-6.55131e-09
-1.98664e-07
-7.52477e-09
-1.95079e-07
-8.47359e-09
-1.91104e-07
-9.39399e-09
-1.86755e-07
-1.02822e-08
-1.82045e-07
-1.11344e-08
-1.76993e-07
-1.19467e-08
-1.71616e-07
-1.27155e-08
-1.65935e-07
-1.34368e-08
-1.59971e-07
-1.41071e-08
-1.53747e-07
-1.47225e-08
-1.47289e-07
-1.52794e-08
-1.40621e-07
-1.57744e-08
-1.33772e-07
-1.62039e-08
-1.26771e-07
-1.65647e-08
-1.19648e-07
-1.68535e-08
-1.12434e-07
-1.70673e-08
-1.05162e-07
-1.72032e-08
-9.78654e-08
-1.72586e-08
-9.05794e-08
-1.72311e-08
-8.33393e-08
-1.71186e-08
-7.61812e-08
-1.69191e-08
-6.91418e-08
-1.66313e-08
-6.22584e-08
-1.62539e-08
-5.55681e-08
-1.57864e-08
-4.91081e-08
-1.52285e-08
-4.29153e-08
-1.45808e-08
-3.70259e-08
-1.38443e-08
-3.14751e-08
-1.30211e-08
-2.62965e-08
-1.21142e-08
-2.15219e-08
-1.11278e-08
-1.71802e-08
-1.00678e-08
-1.32971e-08
-8.94164e-09
-9.89351e-09
-7.75969e-09
-6.98487e-09
-6.53526e-09
-4.57923e-09
-5.2859e-09
-2.67542e-09
-4.03466e-09
-1.26064e-09
-2.81191e-09
-3.07564e-10
-1.65772e-09
2.29133e-10
-6.24937e-10
4.16818e-10
2.16952e-10
3.49267e-10
7.78129e-10
1.52305e-10
9.44535e-10
5.64831e-10
6.99893e-11
-6.11496e-10
5.63057e-11
-8.58336e-10
-2.03084e-10
-3.96368e-10
-8.28582e-10
5.81783e-10
-1.91018e-09
1.92521e-09
-3.51222e-09
3.5141e-09
-5.67718e-09
5.25526e-09
-8.42929e-09
7.07709e-09
-1.17777e-08
8.92485e-09
-1.57191e-08
1.07567e-08
-2.02405e-08
1.25409e-08
-2.53208e-08
1.42532e-08
-3.09328e-08
1.58756e-08
-3.70443e-08
1.73943e-08
-4.36196e-08
1.87995e-08
-5.06201e-08
2.00841e-08
-5.80051e-08
2.12431e-08
-6.57327e-08
2.22733e-08
-7.376e-08
2.31732e-08
-8.20436e-08
2.3942e-08
-9.054e-08
2.45804e-08
-9.9206e-08
2.50893e-08
-1.07999e-07
2.54706e-08
-1.16876e-07
2.57265e-08
-1.25796e-07
2.58598e-08
-1.34718e-07
2.58735e-08
-1.43603e-07
2.5771e-08
-1.52413e-07
2.55559e-08
-1.6111e-07
2.52318e-08
-1.69658e-07
2.48029e-08
-1.78022e-07
2.4273e-08
-1.86171e-07
2.36465e-08
-1.94071e-07
2.29275e-08
-2.01693e-07
2.21204e-08
-2.09007e-07
2.12296e-08
-2.15987e-07
2.02596e-08
-2.22606e-07
1.92149e-08
-2.28841e-07
1.81001e-08
-2.34669e-07
1.69197e-08
-2.40069e-07
1.56785e-08
-2.45022e-07
1.4381e-08
-2.4951e-07
1.30321e-08
-2.53516e-07
1.16364e-08
-2.57026e-07
1.01989e-08
-2.60029e-07
8.72443e-09
-2.62512e-07
7.21788e-09
-2.64466e-07
5.68424e-09
-2.65884e-07
4.12858e-09
-2.6676e-07
2.55599e-09
-2.6709e-07
9.7166e-10
-2.66872e-07
-6.19176e-10
-2.66105e-07
-2.21122e-09
-2.64792e-07
-3.79907e-09
-2.62935e-07
-5.37731e-09
-2.6054e-07
-6.94042e-09
-2.57615e-07
-8.48284e-09
-2.54167e-07
-9.99893e-09
-2.50209e-07
-1.1483e-08
-2.45753e-07
-1.29294e-08
-2.40815e-07
-1.43323e-08
-2.35411e-07
-1.5686e-08
-2.2956e-07
-1.69847e-08
-2.23284e-07
-1.82227e-08
-2.16606e-07
-1.9394e-08
-2.09549e-07
-2.04932e-08
-2.02142e-07
-2.15144e-08
-1.94412e-07
-2.24522e-08
-1.86391e-07
-2.33011e-08
-1.78109e-07
-2.40556e-08
-1.69603e-07
-2.47107e-08
-1.60906e-07
-2.52614e-08
-1.52056e-07
-2.57029e-08
-1.43093e-07
-2.60306e-08
-1.34056e-07
-2.62403e-08
-1.24986e-07
-2.63282e-08
-1.15927e-07
-2.62907e-08
-1.06921e-07
-2.61247e-08
-9.80121e-08
-2.58276e-08
-8.9246e-08
-2.53974e-08
-8.06674e-08
-2.48325e-08
-7.23216e-08
-2.41322e-08
-6.42534e-08
-2.32967e-08
-5.65073e-08
-2.23268e-08
-4.91268e-08
-2.12248e-08
-4.21537e-08
-1.99941e-08
-3.56283e-08
-1.86397e-08
-2.95877e-08
-1.71684e-08
-2.40661e-08
-1.55894e-08
-1.90931e-08
-1.39147e-08
-1.46929e-08
-1.216e-08
-1.08828e-08
-1.03454e-08
-7.6718e-09
-8.49685e-09
-5.05866e-09
-6.64781e-09
-3.02937e-09
-4.84119e-09
-1.55482e-09
-3.13226e-09
-5.87726e-10
-1.59203e-09
-5.92529e-11
-3.1152e-10
1.24747e-10
5.94129e-10
8.88029e-11
9.80486e-10
6.53635e-10
-1.45532e-11
-5.96939e-10
-2.42594e-10
-6.30302e-10
-8.26795e-10
1.87822e-10
-1.87682e-09
1.63181e-09
-3.47602e-09
3.5244e-09
-5.68475e-09
5.72283e-09
-8.54321e-09
8.11371e-09
-1.20741e-08
1.0608e-08
-1.62854e-08
1.31361e-08
-2.11724e-08
1.56437e-08
-2.67201e-08
1.80886e-08
-3.29049e-08
2.0438e-08
-3.96964e-08
2.2667e-08
-4.70586e-08
2.47565e-08
-5.49511e-08
2.66921e-08
-6.33304e-08
2.84634e-08
-7.21504e-08
3.0063e-08
-8.13631e-08
3.1486e-08
-9.09194e-08
3.27295e-08
-1.0077e-07
3.37922e-08
-1.10863e-07
3.46742e-08
-1.21151e-07
3.53768e-08
-1.31582e-07
3.59019e-08
-1.42108e-07
3.62527e-08
-1.52681e-07
3.64324e-08
-1.63253e-07
3.64453e-08
-1.73777e-07
3.62957e-08
-1.8421e-07
3.59885e-08
-1.94507e-07
3.55289e-08
-2.04626e-07
3.49221e-08
-2.14527e-07
3.41739e-08
-2.24171e-07
3.329e-08
-2.3352e-07
3.22762e-08
-2.42538e-07
3.11387e-08
-2.51192e-07
2.98836e-08
-2.59449e-07
2.85171e-08
-2.6728e-07
2.70455e-08
-2.74655e-07
2.54753e-08
-2.81548e-07
2.38129e-08
-2.87935e-07
2.20649e-08
-2.93792e-07
2.02378e-08
-2.99098e-07
1.83382e-08
-3.03834e-07
1.6373e-08
-3.07984e-07
1.4349e-08
-3.11533e-07
1.2273e-08
-3.14467e-07
1.01519e-08
-3.16775e-07
7.99278e-09
-3.1845e-07
5.8028e-09
-3.19483e-07
3.58915e-09
-3.1987e-07
1.3591e-09
-3.1961e-07
-8.79945e-10
-3.187e-07
-3.1205e-09
-3.17144e-07
-5.355e-09
-3.14946e-07
-7.57579e-09
-3.12111e-07
-9.77511e-09
-3.08649e-07
-1.19451e-08
-3.0457e-07
-1.4078e-08
-2.99887e-07
-1.61656e-08
-2.94617e-07
-1.82001e-08
-2.88776e-07
-2.01733e-08
-2.82385e-07
-2.20771e-08
-2.75466e-07
-2.39036e-08
-2.68044e-07
-2.56445e-08
-2.60146e-07
-2.72919e-08
-2.51802e-07
-2.88377e-08
-2.43042e-07
-3.02741e-08
-2.33901e-07
-3.15934e-08
-2.24414e-07
-3.27878e-08
-2.14619e-07
-3.38501e-08
-2.04557e-07
-3.4773e-08
-1.94269e-07
-3.55497e-08
-1.83798e-07
-3.61735e-08
-1.73191e-07
-3.66382e-08
-1.62493e-07
-3.6938e-08
-1.51753e-07
-3.70677e-08
-1.41022e-07
-3.70225e-08
-1.30348e-07
-3.67982e-08
-1.19784e-07
-3.63914e-08
-1.09382e-07
-3.57995e-08
-9.91941e-08
-3.50207e-08
-8.9272e-08
-3.40544e-08
-7.96678e-08
-3.29009e-08
-7.04325e-08
-3.15621e-08
-6.1616e-08
-3.00414e-08
-5.32661e-08
-2.8344e-08
-4.54285e-08
-2.64774e-08
-3.81453e-08
-2.44515e-08
-3.1455e-08
-2.22797e-08
-2.53908e-08
-1.99789e-08
-1.99799e-08
-1.75709e-08
-1.52418e-08
-1.50834e-08
-1.11871e-08
-1.25516e-08
-7.81538e-09
-1.00195e-08
-5.11351e-09
-7.54306e-09
-3.05318e-09
-5.19258e-09
-1.58864e-09
-3.05657e-09
-6.53978e-10
-1.24618e-09
-1.60297e-10
1.00453e-10
7.92973e-12
8.12263e-10
6.61562e-10
-1.07869e-10
-4.89065e-10
-5.75634e-10
-1.62535e-10
-1.52164e-09
1.13384e-09
-3.03996e-09
3.1501e-09
-5.2032e-09
5.68765e-09
-8.06437e-09
8.58399e-09
-1.16585e-08
1.17078e-08
-1.60046e-08
1.49541e-08
-2.11076e-08
1.82391e-08
-2.69601e-08
2.14963e-08
-3.35445e-08
2.4673e-08
-4.08344e-08
2.77279e-08
-4.8796e-08
3.06286e-08
-5.73896e-08
3.33501e-08
-6.6571e-08
3.58734e-08
-7.62919e-08
3.81843e-08
-8.65014e-08
4.02725e-08
-9.71463e-08
4.21309e-08
-1.08172e-07
4.37552e-08
-1.19523e-07
4.51432e-08
-1.31143e-07
4.62944e-08
-1.42977e-07
4.72101e-08
-1.54967e-07
4.78926e-08
-1.6706e-07
4.83453e-08
-1.792e-07
4.85726e-08
-1.91334e-07
4.85796e-08
-2.0341e-07
4.83718e-08
-2.15378e-07
4.79556e-08
-2.27186e-07
4.73374e-08
-2.38788e-07
4.65244e-08
-2.50138e-07
4.55237e-08
-2.61191e-07
4.43429e-08
-2.71905e-07
4.29898e-08
-2.82238e-07
4.14723e-08
-2.92153e-07
3.97986e-08
-3.01613e-07
3.79768e-08
-3.10583e-07
3.60154e-08
-3.1903e-07
3.39228e-08
-3.26925e-07
3.17076e-08
-3.34239e-07
2.93785e-08
-3.40945e-07
2.69442e-08
-3.47021e-07
2.44137e-08
-3.52443e-07
2.17958e-08
-3.57194e-07
1.90997e-08
-3.61255e-07
1.63345e-08
-3.64613e-07
1.35094e-08
-3.67254e-07
1.06339e-08
-3.69169e-07
7.7175e-09
-3.70349e-07
4.7697e-09
-3.70791e-07
1.80028e-09
-3.7049e-07
-1.18094e-09
-3.69446e-07
-4.16399e-09
-3.67662e-07
-7.13877e-09
-3.65143e-07
-1.00951e-08
-3.61896e-07
-1.30227e-08
-3.5793e-07
-1.59111e-08
-3.53258e-07
-1.87498e-08
-3.47895e-07
-2.15283e-08
-3.41859e-07
-2.42359e-08
-3.35171e-07
-2.68618e-08
-3.27852e-07
-2.93955e-08
-3.1993e-07
-3.18261e-08
-3.11431e-07
-3.4143e-08
-3.02388e-07
-3.63355e-08
-2.92832e-07
-3.83932e-08
-2.82801e-07
-4.03056e-08
-2.72332e-07
-4.20624e-08
-2.61466e-07
-4.36537e-08
-2.50246e-07
-4.50697e-08
-2.38718e-07
-4.63011e-08
-2.26929e-07
-4.73387e-08
-2.14929e-07
-4.8174e-08
-2.02768e-07
-4.87989e-08
-1.905e-07
-4.92058e-08
-1.7818e-07
-4.93881e-08
-1.65863e-07
-4.93395e-08
-1.53606e-07
-4.90548e-08
-1.41468e-07
-4.85298e-08
-1.29506e-07
-4.77612e-08
-1.1778e-07
-4.67471e-08
-1.06347e-07
-4.5487e-08
-9.52661e-08
-4.39818e-08
-8.45939e-08
-4.22343e-08
-7.43857e-08
-4.02496e-08
-6.46948e-08
-3.80349e-08
-5.55716e-08
-3.56006e-08
-4.70629e-08
-3.29602e-08
-3.9211e-08
-3.01315e-08
-3.20528e-08
-2.71371e-08
-2.56184e-08
-2.40053e-08
-1.993e-08
-2.07718e-08
-1.50005e-08
-1.74811e-08
-1.08318e-08
-1.41882e-08
-7.41308e-09
-1.09617e-08
-4.71932e-09
-7.88634e-09
-2.70905e-09
-5.06683e-09
-1.32275e-09
-2.63248e-09
-4.80881e-10
-7.41405e-10
-8.20553e-11
4.13432e-10
5.79506e-10
-2.04965e-10
-2.84108e-10
-9.26455e-10
5.58975e-10
-2.25688e-09
2.46425e-09
-4.27193e-09
5.16516e-09
-7.03086e-09
8.44659e-09
-1.05768e-08
1.21299e-08
-1.49372e-08
1.60683e-08
-2.01257e-08
2.01425e-08
-2.61424e-08
2.42559e-08
-3.29764e-08
2.83303e-08
-4.06064e-08
3.2303e-08
-4.90025e-08
3.6124e-08
-5.81275e-08
3.97536e-08
-6.79381e-08
4.31607e-08
-7.8386e-08
4.63213e-08
-8.94189e-08
4.92171e-08
-1.00981e-07
5.18348e-08
-1.13015e-07
5.41647e-08
-1.25461e-07
5.6201e-08
-1.38258e-07
5.79402e-08
-1.51345e-07
5.93814e-08
-1.6466e-07
6.05254e-08
-1.78142e-07
6.1375e-08
-1.91731e-07
6.19339e-08
-2.05366e-07
6.22074e-08
-2.18988e-07
6.22016e-08
-2.32539e-07
6.19232e-08
-2.45964e-07
6.13801e-08
-2.59207e-07
6.05803e-08
-2.72215e-07
5.95326e-08
-2.84937e-07
5.82461e-08
-2.97324e-07
5.67302e-08
-3.09329e-07
5.49947e-08
-3.20907e-07
5.30497e-08
-3.32014e-07
5.09055e-08
-3.42609e-07
4.85724e-08
-3.52655e-07
4.60612e-08
-3.62115e-07
4.33826e-08
-3.70955e-07
4.05474e-08
-3.79143e-07
3.75669e-08
-3.86651e-07
3.44522e-08
-3.93452e-07
3.12146e-08
-3.99522e-07
2.78656e-08
-4.04839e-07
2.44167e-08
-4.09384e-07
2.08797e-08
-4.13141e-07
1.72664e-08
-4.16096e-07
1.35888e-08
-4.18238e-07
9.85908e-09
-4.19557e-07
6.08948e-09
-4.20049e-07
2.29245e-09
-4.19711e-07
-1.51944e-09
-4.18542e-07
-5.33345e-09
-4.16544e-07
-9.13671e-09
-4.13722e-07
-1.29162e-08
-4.10086e-07
-1.66587e-08
-4.05647e-07
-2.0351e-08
-4.00417e-07
-2.39797e-08
-3.94414e-07
-2.75313e-08
-3.87657e-07
-3.09922e-08
-3.8017e-07
-3.43489e-08
-3.71978e-07
-3.75876e-08
-3.63109e-07
-4.06947e-08
-3.53596e-07
-4.36568e-08
-3.43471e-07
-4.64601e-08
-3.32773e-07
-4.90915e-08
-3.21541e-07
-5.15378e-08
-3.09817e-07
-5.37859e-08
-2.97648e-07
-5.58232e-08
-2.8508e-07
-5.76374e-08
-2.72164e-07
-5.92167e-08
-2.58953e-07
-6.05496e-08
-2.45502e-07
-6.16255e-08
-2.31867e-07
-6.24341e-08
-2.18106e-07
-6.29662e-08
-2.04281e-07
-6.32132e-08
-1.90453e-07
-6.31677e-08
-1.76685e-07
-6.28232e-08
-1.6304e-07
-6.21747e-08
-1.49582e-07
-6.12185e-08
-1.36377e-07
-5.99523e-08
-1.23488e-07
-5.83758e-08
-1.10979e-07
-5.64908e-08
-9.89124e-08
-5.43013e-08
-8.73479e-08
-5.1814e-08
-7.63441e-08
-4.90387e-08
-6.59558e-08
-4.59888e-08
-5.62342e-08
-4.26819e-08
-4.72253e-08
-3.91404e-08
-3.89697e-08
-3.53927e-08
-3.15009e-08
-3.14742e-08
-2.48441e-08
-2.74285e-08
-1.90156e-08
-2.33096e-08
-1.40207e-08
-1.91831e-08
-9.85273e-09
-1.51297e-08
-6.49149e-09
-1.12476e-08
-3.90222e-09
-7.65611e-09
-2.03427e-09
-4.50042e-09
-8.2036e-10
-1.95531e-09
-1.76096e-10
-2.30837e-10
4.03416e-10
-3.02879e-10
1.87634e-11
-1.28442e-09
1.54051e-09
-3.01142e-09
4.19126e-09
-5.54015e-09
7.69388e-09
-8.91483e-09
1.18213e-08
-1.31669e-08
1.63819e-08
-1.83148e-08
2.12163e-08
-2.43649e-08
2.61926e-08
-3.13116e-08
3.12026e-08
-3.91389e-08
3.61575e-08
-4.78211e-08
4.09853e-08
-5.73245e-08
4.56274e-08
-6.76079e-08
5.0037e-08
-7.86242e-08
5.4177e-08
-9.0321e-08
5.80181e-08
-1.02642e-07
6.1538e-08
-1.15527e-07
6.472e-08
-1.28914e-07
6.7552e-08
-1.4274e-07
7.00262e-08
-1.56937e-07
7.21378e-08
-1.71441e-07
7.38853e-08
-1.86185e-07
7.52691e-08
-2.01102e-07
7.6292e-08
-2.16126e-07
7.69585e-08
-2.31193e-07
7.72745e-08
-2.46239e-07
7.7247e-08
-2.612e-07
7.68844e-08
-2.76016e-07
7.61956e-08
-2.90626e-07
7.51907e-08
-3.04973e-07
7.388e-08
-3.19002e-07
7.22747e-08
-3.32658e-07
7.03863e-08
-3.4589e-07
6.82268e-08
-3.58649e-07
6.58084e-08
-3.70887e-07
6.31437e-08
-3.8256e-07
6.02456e-08
-3.93626e-07
5.71273e-08
-4.04046e-07
5.38019e-08
-4.13781e-07
5.0283e-08
-4.22798e-07
4.65842e-08
-4.31066e-07
4.27194e-08
-4.38554e-07
3.87027e-08
-4.45236e-07
3.45481e-08
-4.5109e-07
3.027e-08
-4.56093e-07
2.5883e-08
-4.60228e-07
2.14017e-08
-4.63481e-07
1.6841e-08
-4.65837e-07
1.22159e-08
-4.6729e-07
7.5417e-09
-4.67831e-07
2.83369e-09
-4.67458e-07
-1.8925e-09
-4.6617e-07
-6.6211e-09
-4.63971e-07
-1.13362e-08
-4.60865e-07
-1.60216e-08
-4.56863e-07
-2.06611e-08
-4.51976e-07
-2.52382e-08
-4.46219e-07
-2.97364e-08
-4.39611e-07
-3.41391e-08
-4.32174e-07
-3.84294e-08
-4.23932e-07
-4.25906e-08
-4.14914e-07
-4.66059e-08
-4.05151e-07
-5.04584e-08
-3.94676e-07
-5.41314e-08
-3.83528e-07
-5.76083e-08
-3.71747e-07
-6.08727e-08
-3.59376e-07
-6.39084e-08
-3.46462e-07
-6.66995e-08
-3.33055e-07
-6.92303e-08
-3.19206e-07
-7.1486e-08
-3.04971e-07
-7.3452e-08
-2.90406e-07
-7.51143e-08
-2.75572e-07
-7.64599e-08
-2.6053e-07
-7.74765e-08
-2.45343e-07
-7.81527e-08
-2.30078e-07
-7.84784e-08
-2.14801e-07
-7.84445e-08
-1.99581e-07
-7.80436e-08
-1.84486e-07
-7.72695e-08
-1.69586e-07
-7.61181e-08
-1.54952e-07
-7.4587e-08
-1.40651e-07
-7.26764e-08
-1.26753e-07
-7.03886e-08
-1.13325e-07
-6.77292e-08
-1.00433e-07
-6.47067e-08
-8.81378e-08
-6.13336e-08
-7.65001e-08
-5.76265e-08
-6.55747e-08
-5.36072e-08
-5.54119e-08
-4.93032e-08
-4.60557e-08
-4.47489e-08
-3.75435e-08
-3.99864e-08
-2.99046e-08
-3.50675e-08
-2.3159e-08
-3.00551e-08
-1.73168e-08
-2.50253e-08
-1.23766e-08
-2.007e-08
-8.3248e-09
-1.52994e-08
-5.13495e-09
-1.08459e-08
-2.7671e-09
-6.86826e-09
-1.16788e-09
-3.55454e-09
-2.71163e-10
-1.12755e-09
1.32257e-10
-3.99868e-10
4.18636e-10
-1.64277e-09
2.7834e-09
-3.77123e-09
6.31974e-09
-6.82203e-09
1.07447e-08
-1.08236e-08
1.58228e-08
-1.57947e-08
2.1353e-08
-2.17436e-08
2.71652e-08
-2.86679e-08
3.3117e-08
-3.65555e-08
3.90901e-08
-4.53841e-08
4.49862e-08
-5.51233e-08
5.07244e-08
-6.57344e-08
5.62385e-08
-7.7172e-08
6.14746e-08
-8.93847e-08
6.63897e-08
-1.02316e-07
7.09497e-08
-1.15906e-07
7.51278e-08
-1.3009e-07
7.89041e-08
-1.44802e-07
8.22639e-08
-1.59973e-07
8.51974e-08
-1.75534e-07
8.76985e-08
-1.91413e-07
8.97646e-08
-2.0754e-07
9.13961e-08
-2.23844e-07
9.25958e-08
-2.40254e-07
9.33685e-08
-2.56701e-07
9.3721e-08
-2.73115e-07
9.36614e-08
-2.8943e-07
9.31992e-08
-3.05579e-07
9.23453e-08
-3.215e-07
9.1111e-08
-3.37129e-07
8.95089e-08
-3.52406e-07
8.75522e-08
-3.67274e-07
8.52545e-08
-3.81678e-07
8.26301e-08
-3.95563e-07
7.96937e-08
-4.0888e-07
7.64604e-08
-4.2158e-07
7.29456e-08
-4.33617e-07
6.9165e-08
-4.4495e-07
6.51347e-08
-4.55538e-07
6.08709e-08
-4.65344e-07
5.63901e-08
-4.74334e-07
5.17089e-08
-4.82475e-07
4.68444e-08
-4.89741e-07
4.18135e-08
-4.96104e-07
3.66336e-08
-5.01544e-07
3.13223e-08
-5.06039e-07
2.58973e-08
-5.09575e-07
2.03766e-08
-5.12137e-07
1.47783e-08
-5.13716e-07
9.12085e-09
-5.14305e-07
3.42281e-09
-5.13901e-07
-2.29698e-09
-5.12503e-07
-8.01947e-09
-5.10113e-07
-1.37254e-08
-5.0674e-07
-1.93953e-08
-5.02391e-07
-2.50096e-08
-4.97081e-07
-3.05484e-08
-4.90825e-07
-3.59918e-08
-4.83645e-07
-4.13197e-08
-4.75562e-07
-4.65118e-08
-4.66605e-07
-5.15481e-08
-4.56803e-07
-5.64081e-08
-4.46189e-07
-6.10718e-08
-4.34802e-07
-6.5519e-08
-4.2268e-07
-6.97297e-08
-4.09869e-07
-7.36842e-08
-3.96414e-07
-7.7363e-08
-3.82367e-07
-8.07472e-08
-3.67779e-07
-8.3818e-08
-3.52707e-07
-8.65576e-08
-3.37211e-07
-8.89485e-08
-3.21351e-07
-9.09742e-08
-3.05192e-07
-9.26191e-08
-2.888e-07
-9.38686e-08
-2.72243e-07
-9.47093e-08
-2.55592e-07
-9.51291e-08
-2.38919e-07
-9.51175e-08
-2.22297e-07
-9.46657e-08
-2.058e-07
-9.37669e-08
-1.89502e-07
-9.24162e-08
-1.73477e-07
-9.06113e-08
-1.57801e-07
-8.83527e-08
-1.42546e-07
-8.56436e-08
-1.27784e-07
-8.2491e-08
-1.13585e-07
-7.89056e-08
-1.00017e-07
-7.49024e-08
-8.71413e-08
-7.05018e-08
-7.5019e-08
-6.57295e-08
-6.3704e-08
-6.06183e-08
-5.32446e-08
-5.52082e-08
-4.36824e-08
-4.95486e-08
-3.5051e-08
-4.36988e-08
-2.73756e-08
-3.77305e-08
-2.06715e-08
-3.17294e-08
-1.4944e-08
-2.57975e-08
-1.01872e-08
-2.00561e-08
-6.38418e-09
-1.46489e-08
-3.50683e-09
-9.74561e-09
-1.51649e-09
-5.54488e-09
-3.65482e-10
-2.27855e-09
-2.33226e-10
-4.94974e-10
9.13629e-10
-1.99731e-09
4.28571e-09
-4.52713e-09
8.84957e-09
-8.1023e-09
1.43199e-08
-1.27354e-08
2.04559e-08
-1.84318e-08
2.70494e-08
-2.51888e-08
3.39221e-08
-3.29948e-08
4.0923e-08
-4.18296e-08
4.79249e-08
-5.16646e-08
5.48212e-08
-6.24631e-08
6.1523e-08
-7.41815e-08
6.79569e-08
-8.67696e-08
7.40627e-08
-1.00171e-07
7.97916e-08
-1.14326e-07
8.51046e-08
-1.2917e-07
8.99711e-08
-1.44633e-07
9.43677e-08
-1.60646e-07
9.8277e-08
-1.77136e-07
1.01687e-07
-1.94029e-07
1.04591e-07
-2.11249e-07
1.06985e-07
-2.28723e-07
1.08869e-07
-2.46373e-07
1.10246e-07
-2.64126e-07
1.11121e-07
-2.81907e-07
1.11502e-07
-2.99644e-07
1.11398e-07
-3.17265e-07
1.1082e-07
-3.347e-07
1.0978e-07
-3.51881e-07
1.08292e-07
-3.68742e-07
1.0637e-07
-3.85219e-07
1.04029e-07
-4.0125e-07
1.01286e-07
-4.16777e-07
9.81565e-08
-4.31742e-07
9.46586e-08
-4.46091e-07
9.08098e-08
-4.59774e-07
8.66282e-08
-4.72741e-07
8.21323e-08
-4.84947e-07
7.73411e-08
-4.9635e-07
7.22738e-08
-5.0691e-07
6.69497e-08
-5.16589e-07
6.13886e-08
-5.25356e-07
5.56106e-08
-5.33178e-07
4.96359e-08
-5.40029e-07
4.34849e-08
-5.45886e-07
3.71786e-08
-5.50726e-07
3.07378e-08
-5.54533e-07
2.41838e-08
-5.57293e-07
1.75382e-08
-5.58995e-07
1.08227e-08
-5.59631e-07
4.05935e-09
-5.59199e-07
-2.72952e-09
-5.57697e-07
-9.52139e-09
-5.55129e-07
-1.62935e-08
-5.51501e-07
-2.30228e-08
-5.46825e-07
-2.9686e-08
-5.41113e-07
-3.62599e-08
-5.34385e-07
-4.27206e-08
-5.2666e-07
-4.90446e-08
-5.17964e-07
-5.52079e-08
-5.08325e-07
-6.11867e-08
-4.97776e-07
-6.69571e-08
-4.86353e-07
-7.24952e-08
-4.74094e-07
-7.77774e-08
-4.61044e-07
-8.278e-08
-4.47248e-07
-8.74799e-08
-4.32757e-07
-9.18542e-08
-4.17624e-07
-9.58804e-08
-4.01905e-07
-9.95368e-08
-3.8566e-07
-1.02802e-07
-3.68953e-07
-1.05656e-07
-3.51848e-07
-1.08079e-07
-3.34413e-07
-1.10054e-07
-3.1672e-07
-1.11562e-07
-2.98841e-07
-1.12588e-07
-2.8085e-07
-1.1312e-07
-2.62825e-07
-1.13143e-07
-2.44842e-07
-1.12648e-07
-2.26981e-07
-1.11628e-07
-2.0932e-07
-1.10077e-07
-1.91939e-07
-1.07993e-07
-1.74915e-07
-1.05376e-07
-1.58328e-07
-1.02231e-07
-1.42254e-07
-9.85657e-08
-1.26766e-07
-9.43936e-08
-1.11936e-07
-8.97324e-08
-9.78316e-08
-8.46058e-08
-8.45173e-08
-7.90438e-08
-7.20514e-08
-7.30842e-08
-6.04868e-08
-6.67729e-08
-4.98696e-08
-6.01657e-08
-4.02388e-08
-5.33297e-08
-3.16249e-08
-4.63444e-08
-2.40498e-08
-3.93045e-08
-1.7526e-08
-3.23213e-08
-1.20564e-08
-2.55257e-08
-7.63432e-09
-1.9071e-08
-4.24407e-09
-1.31359e-08
-1.8619e-09
-7.92704e-09
-4.58049e-10
-3.6824e-09
-6.91277e-10
-5.87688e-10
1.50134e-09
-2.34558e-09
6.04357e-09
-5.27339e-09
1.17774e-08
-9.37102e-09
1.84175e-08
-1.46354e-08
2.57203e-08
-2.10586e-08
3.34726e-08
-2.86262e-08
4.14897e-08
-3.73169e-08
4.96137e-08
-4.71019e-08
5.771e-08
-5.79453e-08
6.56646e-08
-6.9804e-08
7.33817e-08
-8.26286e-08
8.07814e-08
-9.63635e-08
8.77976e-08
-1.10948e-07
9.43761e-08
-1.26317e-07
1.00474e-07
-1.42401e-07
1.06055e-07
-1.59128e-07
1.11095e-07
-1.76424e-07
1.15572e-07
-1.9421e-07
1.19474e-07
-2.1241e-07
1.22791e-07
-2.30943e-07
1.25519e-07
-2.49732e-07
1.27658e-07
-2.68695e-07
1.2921e-07
-2.87756e-07
1.30182e-07
-3.06835e-07
1.30581e-07
-3.25855e-07
1.30419e-07
-3.44742e-07
1.29707e-07
-3.63421e-07
1.2846e-07
-3.81821e-07
1.26692e-07
-3.99872e-07
1.24421e-07
-4.17506e-07
1.21663e-07
-4.34659e-07
1.18438e-07
-4.51267e-07
1.14765e-07
-4.67271e-07
1.10663e-07
-4.82613e-07
1.06152e-07
-4.97241e-07
1.01255e-07
-5.11101e-07
9.59928e-08
-5.24147e-07
9.03866e-08
-5.36332e-07
8.44591e-08
-5.47615e-07
7.82328e-08
-5.57957e-07
7.17309e-08
-5.67323e-07
6.49764e-08
-5.7568e-07
5.79931e-08
-5.83e-07
5.08047e-08
-5.89257e-07
4.34355e-08
-5.94429e-07
3.591e-08
-5.98498e-07
2.82527e-08
-6.01449e-07
2.0489e-08
-6.0327e-07
1.2644e-08
-6.03955e-07
4.74354e-09
-6.03498e-07
-3.18654e-09
-6.01899e-07
-1.112e-08
-5.99162e-07
-1.90302e-08
-5.95295e-07
-2.68905e-08
-5.90307e-07
-3.46738e-08
-5.84214e-07
-4.23528e-08
-5.77034e-07
-4.99002e-08
-5.68791e-07
-5.72883e-08
-5.59509e-07
-6.44894e-08
-5.4922e-07
-7.14758e-08