/*--------------------------------*- C++ -*----------------------------------*\
| =========                 |                                                 |
| \\      /  F ield         | OpenFOAM: The Open Source CFD Toolbox           |
|  \\    /   O peration     | Version:  2212                                  |
|   \\  /    A nd           | Website:  www.openfoam.com                      |
|    \\/     M anipulation  |                                                 |
\*---------------------------------------------------------------------------*/
FoamFile
{
    version     2.0;
    format      ascii;
    arch        "LSB;label=32;scalar=64";
    class       volVectorField;
    location    "0.061";
    object      U;
}
// * * * * * * * * * * * * * * * * * * * * * * * * * * * * * * * * * * * * * //

dimensions      [0 1 -1 0 0 0 0];

internalField   nonuniform List<vector> 
10000
(
(2.90433e-06 -2.89401e-06 0)
(1.42581e-05 -7.34034e-06 0)
(3.22142e-05 -8.41547e-06 0)
(4.89755e-05 -7.21258e-06 0)
(5.98054e-05 -4.80311e-06 0)
(6.2414e-05 -1.81227e-06 0)
(5.5619e-05 1.41912e-06 0)
(3.88857e-05 4.69463e-06 0)
(1.21107e-05 7.90337e-06 0)
(-2.45308e-05 1.09834e-05 0)
(-7.06892e-05 1.38981e-05 0)
(-0.000125894 1.6624e-05 0)
(-0.000189598 1.91504e-05 0)
(-0.000261205 2.14689e-05 0)
(-0.000340084 2.3577e-05 0)
(-0.000425586 2.54772e-05 0)
(-0.000517056 2.71695e-05 0)
(-0.000613829 2.86566e-05 0)
(-0.000715249 2.99435e-05 0)
(-0.000820665 3.10335e-05 0)
(-0.000929435 3.19324e-05 0)
(-0.00104093 3.26453e-05 0)
(-0.00115454 3.31777e-05 0)
(-0.00126965 3.3535e-05 0)
(-0.0013857 3.37225e-05 0)
(-0.00150212 3.37463e-05 0)
(-0.00161836 3.3613e-05 0)
(-0.00173389 3.33301e-05 0)
(-0.00184822 3.29043e-05 0)
(-0.00196085 3.23416e-05 0)
(-0.00207131 3.16471e-05 0)
(-0.00217917 3.0826e-05 0)
(-0.002284 2.98839e-05 0)
(-0.00238538 2.88275e-05 0)
(-0.00248294 2.76636e-05 0)
(-0.00257632 2.63986e-05 0)
(-0.00266516 2.50382e-05 0)
(-0.00274914 2.35876e-05 0)
(-0.00282797 2.20529e-05 0)
(-0.00290135 2.044e-05 0)
(-0.00296904 1.87551e-05 0)
(-0.00303078 1.70047e-05 0)
(-0.00308637 1.51939e-05 0)
(-0.00313559 1.33288e-05 0)
(-0.00317827 1.14159e-05 0)
(-0.00321427 9.46081e-06 0)
(-0.00324343 7.47009e-06 0)
(-0.00326566 5.45059e-06 0)
(-0.00328087 3.40796e-06 0)
(-0.00328898 1.34845e-06 0)
(-0.00328995 -7.20572e-07 0)
(-0.00328376 -2.79249e-06 0)
(-0.00327042 -4.86092e-06 0)
(-0.00324996 -6.91853e-06 0)
(-0.00322241 -8.95847e-06 0)
(-0.00318787 -1.09744e-05 0)
(-0.00314642 -1.29586e-05 0)
(-0.00309821 -1.49027e-05 0)
(-0.00304337 -1.67997e-05 0)
(-0.00298209 -1.86428e-05 0)
(-0.00291457 -2.0424e-05 0)
(-0.00284105 -2.21352e-05 0)
(-0.00276177 -2.3769e-05 0)
(-0.00267703 -2.53169e-05 0)
(-0.00258713 -2.6771e-05 0)
(-0.00249242 -2.81241e-05 0)
(-0.00239325 -2.93691e-05 0)
(-0.00229002 -3.04976e-05 0)
(-0.00218314 -3.15017e-05 0)
(-0.00207304 -3.23746e-05 0)
(-0.00196021 -3.31087e-05 0)
(-0.00184511 -3.36962e-05 0)
(-0.00172828 -3.41301e-05 0)
(-0.00161023 -3.44046e-05 0)
(-0.00149153 -3.45135e-05 0)
(-0.00137275 -3.445e-05 0)
(-0.00125449 -3.42078e-05 0)
(-0.00113735 -3.3782e-05 0)
(-0.00102197 -3.31678e-05 0)
(-0.00090898 -3.23602e-05 0)
(-0.000799034 -3.13552e-05 0)
(-0.000692789 -3.01502e-05 0)
(-0.000590911 -2.87431e-05 0)
(-0.000494065 -2.71314e-05 0)
(-0.000402915 -2.53134e-05 0)
(-0.000318119 -2.32894e-05 0)
(-0.000240322 -2.1062e-05 0)
(-0.000170147 -1.8635e-05 0)
(-0.000108187 -1.60145e-05 0)
(-5.49909e-05 -1.32106e-05 0)
(-1.10426e-05 -1.02399e-05 0)
(2.32616e-05 -7.12899e-06 0)
(4.76566e-05 -3.9195e-06 0)
(6.20675e-05 -6.79401e-07 0)
(6.67068e-05 2.47587e-06 0)
(6.22248e-05 5.34514e-06 0)
(4.99253e-05 7.58284e-06 0)
(3.22114e-05 8.57173e-06 0)
(1.38956e-05 7.26281e-06 0)
(2.70303e-06 2.70368e-06 0)
(7.37065e-06 -1.42656e-05 0)
(2.96974e-05 -2.96511e-05 0)
(5.94149e-05 -3.14489e-05 0)
(8.28813e-05 -2.37479e-05 0)
(9.11049e-05 -1.0205e-05 0)
(7.88847e-05 6.70733e-06 0)
(4.30381e-05 2.53727e-05 0)
(-1.81781e-05 4.47342e-05 0)
(-0.000105424 6.41026e-05 0)
(-0.000218603 8.30199e-05 0)
(-0.000357081 0.000101186 0)
(-0.000519843 0.000118395 0)
(-0.000705609 0.000134509 0)
(-0.000912909 0.00014944 0)
(-0.00114014 0.00016313 0)
(-0.00138562 0.000175543 0)
(-0.00164761 0.000186668 0)
(-0.00192432 0.000196498 0)
(-0.00221399 0.000205041 0)
(-0.00251483 0.000212312 0)
(-0.00282507 0.00021833 0)
(-0.00314297 0.000223122 0)
(-0.00346681 0.000226716 0)
(-0.00379493 0.000229142 0)
(-0.00412569 0.000230436 0)
(-0.00445751 0.00023063 0)
(-0.00478883 0.000229764 0)
(-0.00511817 0.000227874 0)
(-0.00544409 0.000225001 0)
(-0.0057652 0.000221184 0)
(-0.00608018 0.000216463 0)
(-0.00638776 0.000210876 0)
(-0.0066867 0.000204463 0)
(-0.00697586 0.000197265 0)
(-0.00725413 0.000189323 0)
(-0.00752047 0.000180678 0)
(-0.00777388 0.000171371 0)
(-0.00801345 0.000161443 0)
(-0.00823829 0.000150933 0)
(-0.00844761 0.000139884 0)
(-0.00864066 0.000128337 0)
(-0.00881673 0.000116333 0)
(-0.00897521 0.000103915 0)
(-0.00911553 9.11236e-05 0)
(-0.00923717 7.80021e-05 0)
(-0.0093397 6.4594e-05 0)
(-0.00942274 5.09428e-05 0)
(-0.00948596 3.70923e-05 0)
(-0.00952911 2.30875e-05 0)
(-0.00955201 8.97366e-06 0)
(-0.00955454 -5.20408e-06 0)
(-0.00953663 -1.93985e-05 0)
(-0.00949831 -3.35616e-05 0)
(-0.00943965 -4.76459e-05 0)
(-0.00936081 -6.16033e-05 0)
(-0.00926202 -7.53841e-05 0)
(-0.00914356 -8.89379e-05 0)
(-0.00900581 -0.000102214 0)
(-0.00884921 -0.000115162 0)
(-0.00867427 -0.000127729 0)
(-0.00848158 -0.000139864 0)
(-0.00827181 -0.000151514 0)
(-0.00804571 -0.000162626 0)
(-0.00780407 -0.000173146 0)
(-0.0075478 -0.000183023 0)
(-0.00727786 -0.000192205 0)
(-0.00699529 -0.000200641 0)
(-0.0067012 -0.000208278 0)
(-0.00639678 -0.000215068 0)
(-0.00608327 -0.00022096 0)
(-0.00576199 -0.000225907 0)
(-0.00543435 -0.000229861 0)
(-0.00510178 -0.000232777 0)
(-0.0047658 -0.000234615 0)
(-0.00442798 -0.000235334 0)
(-0.00408994 -0.000234896 0)
(-0.00375335 -0.000233266 0)
(-0.00341991 -0.000230413 0)
(-0.00309139 -0.000226309 0)
(-0.00276957 -0.000220932 0)
(-0.00245624 -0.000214264 0)
(-0.00215323 -0.000206293 0)
(-0.00186236 -0.000197013 0)
(-0.00158545 -0.000186425 0)
(-0.0013243 -0.000174542 0)
(-0.00108067 -0.000161384 0)
(-0.000856255 -0.000146991 0)
(-0.000652678 -0.000131418 0)
(-0.00047144 -0.000114745 0)
(-0.00031388 -9.70855e-05 0)
(-0.000181118 -7.86012e-05 0)
(-7.39769e-05 -5.95201e-05 0)
(7.12721e-06 -4.01687e-05 0)
(6.23389e-05 -2.10224e-05 0)
(9.25833e-05 -2.78739e-06 0)
(9.98702e-05 1.34722e-05 0)
(8.76355e-05 2.61524e-05 0)
(6.12865e-05 3.28244e-05 0)
(2.99553e-05 2.9955e-05 0)
(7.25332e-06 1.38843e-05 0)
(8.48268e-06 -3.22702e-05 0)
(3.16275e-05 -5.94105e-05 0)
(5.7785e-05 -5.74915e-05 0)
(7.06951e-05 -3.50782e-05 0)
(5.9501e-05 9.95443e-07 0)
(1.7464e-05 4.56345e-05 0)
(-5.98609e-05 9.51634e-05 0)
(-0.000175103 0.000146992 0)
(-0.000329442 0.000199296 0)
(-0.000522962 0.000250797 0)
(-0.000754932 0.000300595 0)
(-0.00102402 0.000348053 0)
(-0.00132844 0.000392724 0)
(-0.00166608 0.000434297 0)
(-0.00203459 0.000472559 0)
(-0.00243145 0.000507373 0)
(-0.00285404 0.000538659 0)
(-0.00329964 0.000566376 0)
(-0.00376553 0.000590518 0)
(-0.00424893 0.000611106 0)
(-0.0047471 0.000628178 0)
(-0.00525732 0.000641791 0)
(-0.0057769 0.000652014 0)
(-0.0063032 0.000658924 0)
(-0.00683363 0.00066261 0)
(-0.00736569 0.000663165 0)
(-0.00789692 0.000660686 0)
(-0.00842494 0.000655278 0)
(-0.00894747 0.000647046 0)
(-0.0094623 0.0006361 0)
(-0.00996729 0.000622552 0)
(-0.0104604 0.000606512 0)
(-0.0109397 0.000588095 0)
(-0.0114033 0.000567415 0)
(-0.0118495 0.000544588 0)
(-0.0122765 0.000519731 0)
(-0.0126828 0.000492961 0)
(-0.0130668 0.000464395 0)
(-0.0134273 0.000434152 0)
(-0.0137629 0.00040235 0)
(-0.0140723 0.00036911 0)
(-0.0143546 0.000334551 0)
(-0.0146085 0.000298795 0)
(-0.0148334 0.000261966 0)
(-0.0150283 0.000224186 0)
(-0.0151925 0.000185579 0)
(-0.0153254 0.000146275 0)
(-0.0154265 0.0001064 0)
(-0.0154955 6.60836e-05 0)
(-0.0155319 2.5458e-05 0)
(-0.0155357 -1.53433e-05 0)
(-0.0155067 -5.61869e-05 0)
(-0.0154449 -9.6935e-05 0)
(-0.0153506 -0.000137447 0)
(-0.0152239 -0.000177584 0)
(-0.0150653 -0.000217204 0)
(-0.0148751 -0.00025616 0)
(-0.0146541 -0.000294308 0)
(-0.0144028 -0.0003315 0)
(-0.0141222 -0.000367588 0)
(-0.0138132 -0.000402422 0)
(-0.0134769 -0.000435852 0)
(-0.0131144 -0.000467727 0)
(-0.0127271 -0.000497897 0)
(-0.0123164 -0.000526211 0)
(-0.0118839 -0.000552523 0)
(-0.0114311 -0.000576685 0)
(-0.01096 -0.000598552 0)
(-0.0104724 -0.000617984 0)
(-0.00997021 -0.00063484 0)
(-0.00945566 -0.000648987 0)
(-0.00893093 -0.000660293 0)
(-0.00839831 -0.000668635 0)
(-0.00786022 -0.000673895 0)
(-0.00731914 -0.000675965 0)
(-0.00677765 -0.000674741 0)
(-0.00623839 -0.000670132 0)
(-0.00570405 -0.000662055 0)
(-0.00517741 -0.000650441 0)
(-0.00466125 -0.000635237 0)
(-0.0041584 -0.000616401 0)
(-0.0036717 -0.000593914 0)
(-0.00320398 -0.000567776 0)
(-0.00275807 -0.000538011 0)
(-0.00233671 -0.000504675 0)
(-0.0019426 -0.000467861 0)
(-0.0015783 -0.000427708 0)
(-0.00124622 -0.000384414 0)
(-0.000948565 -0.00033825 0)
(-0.000687256 -0.000289591 0)
(-0.000463835 -0.000238946 0)
(-0.000279359 -0.00018701 0)
(-0.000134243 -0.000134739 0)
(-2.80547e-05 -8.3454e-05 0)
(4.07515e-05 -3.50027e-05 0)
(7.51726e-05 8.02426e-06 0)
(7.99882e-05 4.20046e-05 0)
(6.22156e-05 6.19605e-05 0)
(3.29377e-05 6.13096e-05 0)
(8.57859e-06 3.2198e-05 0)
(7.33628e-06 -4.91872e-05 0)
(2.41925e-05 -8.31332e-05 0)
(3.5963e-05 -7.05186e-05 0)
(2.61298e-05 -2.50259e-05 0)
(-1.66669e-05 4.3159e-05 0)
(-9.98639e-05 0.000126158 0)
(-0.00022853 0.000218032 0)
(-0.000405786 0.000314384 0)
(-0.000633132 0.000411994 0)
(-0.000910783 0.000508506 0)
(-0.00123796 0.000602198 0)
(-0.0016131 0.000691813 0)
(-0.00203405 0.000776442 0)
(-0.00249822 0.000855429 0)
(-0.00300266 0.000928311 0)
(-0.00354418 0.000994774 0)
(-0.00411942 0.00105461 0)
(-0.00472489 0.00110772 0)
(-0.00535703 0.00115404 0)
(-0.00601224 0.00119358 0)
(-0.00668692 0.00122641 0)
(-0.00737747 0.00125259 0)
(-0.00808034 0.00127225 0)
(-0.00879204 0.00128553 0)
(-0.00950912 0.00129258 0)
(-0.0102282 0.00129356 0)
(-0.0109461 0.00128866 0)
(-0.0116596 0.00127808 0)
(-0.0123655 0.00126201 0)
(-0.013061 0.00124066 0)
(-0.0137432 0.00121424 0)
(-0.0144093 0.00118296 0)
(-0.0150567 0.00114705 0)
(-0.0156829 0.00110672 0)
(-0.0162855 0.0010622 0)
(-0.0168622 0.00101371 0)
(-0.017411 0.000961482 0)
(-0.0179297 0.000905748 0)
(-0.0184165 0.000846735 0)
(-0.0188696 0.000784677 0)
(-0.0192875 0.000719807 0)
(-0.0196685 0.000652362 0)
(-0.0200114 0.000582579 0)
(-0.0203149 0.000510699 0)
(-0.0205778 0.000436965 0)
(-0.0207994 0.000361623 0)
(-0.0209787 0.000284919 0)
(-0.021115 0.000207106 0)
(-0.0212078 0.000128438 0)
(-0.0212567 4.9173e-05 0)
(-0.0212615 -3.04279e-05 0)
(-0.021222 -0.000110099 0)
(-0.0211383 -0.000189574 0)
(-0.0210106 -0.000268581 0)
(-0.0208392 -0.000346842 0)
(-0.0206247 -0.000424081 0)
(-0.0203677 -0.000500015 0)
(-0.0200689 -0.00057436 0)
(-0.0197294 -0.000646828 0)
(-0.0193504 -0.000717131 0)
(-0.018933 -0.000784978 0)
(-0.0184788 -0.000850077 0)
(-0.0179893 -0.000912136 0)
(-0.0174664 -0.000970865 0)
(-0.016912 -0.00102597 0)
(-0.0163281 -0.00107717 0)
(-0.015717 -0.00112418 0)
(-0.015081 -0.00116673 0)
(-0.0144229 -0.00120453 0)
(-0.0137451 -0.00123732 0)
(-0.0130506 -0.00126485 0)
(-0.0123424 -0.00128686 0)
(-0.0116235 -0.00130312 0)
(-0.0108971 -0.00131342 0)
(-0.0101665 -0.00131754 0)
(-0.0094353 -0.00131529 0)
(-0.00870688 -0.00130651 0)
(-0.00798485 -0.00129105 0)
(-0.00727289 -0.00126878 0)
(-0.00657469 -0.00123962 0)
(-0.00589398 -0.00120351 0)
(-0.00523451 -0.00116041 0)
(-0.00459997 -0.00111037 0)
(-0.00399405 -0.00105345 0)
(-0.00342033 -0.000989793 0)
(-0.00288226 -0.000919612 0)
(-0.00238313 -0.000843215 0)
(-0.001926 -0.000761028 0)
(-0.00151363 -0.000673625 0)
(-0.00114837 -0.000581774 0)
(-0.000832086 -0.000486496 0)
(-0.000565982 -0.00038915 0)
(-0.000350456 -0.000291547 0)
(-0.000184871 -0.000196113 0)
(-6.72879e-05 -0.000106103 0)
(5.85364e-06 -2.58939e-05 0)
(4.00317e-05 3.86639e-05 0)
(4.30333e-05 7.9889e-05 0)
(2.65886e-05 8.79347e-05 0)
(7.65127e-06 5.00155e-05 0)
(5.01964e-06 -6.03552e-05 0)
(1.10618e-05 -9.19826e-05 0)
(7.83828e-07 -5.98846e-05 0)
(-4.0662e-05 1.75438e-05 0)
(-0.000124135 0.000126868 0)
(-0.000257162 0.000257533 0)
(-0.000444951 0.000401349 0)
(-0.000690755 0.000552077 0)
(-0.000996165 0.000704989 0)
(-0.00136142 0.000856526 0)
(-0.00178563 0.00100401 0)
(-0.00226706 0.00114543 0)
(-0.00280325 0.00127929 0)
(-0.0033912 0.00140451 0)
(-0.00402748 0.00152027 0)
(-0.00470835 0.00162601 0)
(-0.00542982 0.00172136 0)
(-0.00618775 0.00180608 0)
(-0.00697787 0.00188005 0)
(-0.00779585 0.00194325 0)
(-0.00863734 0.00199573 0)
(-0.00949799 0.00203759 0)
(-0.0103735 0.00206899 0)
(-0.0112595 0.00209013 0)
(-0.0121519 0.00210124 0)
(-0.0130466 0.00210259 0)
(-0.0139395 0.00209444 0)
(-0.0148267 0.0020771 0)
(-0.0157045 0.00205088 0)
(-0.0165691 0.00201611 0)
(-0.0174171 0.00197312 0)
(-0.0182451 0.00192225 0)
(-0.0190497 0.00186386 0)
(-0.0198279 0.0017983 0)
(-0.0205768 0.00172592 0)
(-0.0212935 0.00164711 0)
(-0.0219753 0.00156221 0)
(-0.0226198 0.00147161 0)
(-0.0232246 0.00137568 0)
(-0.0237875 0.00127479 0)
(-0.0243065 0.00116934 0)
(-0.0247798 0.00105969 0)
(-0.0252056 0.000946252 0)
(-0.0255825 0.000829402 0)
(-0.025909 0.00070954 0)
(-0.026184 0.000587069 0)
(-0.0264065 0.000462392 0)
(-0.0265755 0.000335918 0)
(-0.0266905 0.000208063 0)
(-0.026751 7.92483e-05 0)
(-0.0267566 -5.01017e-05 0)
(-0.0267072 -0.000179555 0)
(-0.026603 -0.000308674 0)
(-0.026444 -0.000437016 0)
(-0.0262308 -0.000564136 0)
(-0.025964 -0.000689578 0)
(-0.0256445 -0.000812884 0)
(-0.0252731 -0.000933594 0)
(-0.0248513 -0.00105124 0)
(-0.0243802 -0.00116536 0)
(-0.0238617 -0.00127547 0)
(-0.0232974 -0.00138111 0)
(-0.0226894 -0.00148181 0)
(-0.0220398 -0.0015771 0)
(-0.0213512 -0.0016665 0)
(-0.0206259 -0.00174956 0)
(-0.0198669 -0.00182582 0)
(-0.0190771 -0.00189484 0)
(-0.0182597 -0.00195617 0)
(-0.0174179 -0.0020094 0)
(-0.0165553 -0.00205411 0)
(-0.0156755 -0.00208991 0)
(-0.0147823 -0.00211642 0)
(-0.0138797 -0.0021333 0)
(-0.0129717 -0.00214022 0)
(-0.0120626 -0.00213689 0)
(-0.0111567 -0.00212305 0)
(-0.0102584 -0.00209848 0)
(-0.00937206 -0.00206301 0)
(-0.00850229 -0.00201649 0)
(-0.00765358 -0.00195886 0)
(-0.00683046 -0.00189012 0)
(-0.00603741 -0.00181033 0)
(-0.00527885 -0.00171965 0)
(-0.00455906 -0.00161834 0)
(-0.00388217 -0.00150679 0)
(-0.00325207 -0.00138554 0)
(-0.00267236 -0.00125533 0)
(-0.00214624 -0.00111712 0)
(-0.00167643 -0.000972187 0)
(-0.00126507 -0.000822189 0)
(-0.000913495 -0.000669283 0)
(-0.000622151 -0.000516277 0)
(-0.000390325 -0.00036683 0)
(-0.000215924 -0.000225712 0)
(-9.5189e-05 -9.91377e-05 0)
(-2.24302e-05 4.82889e-06 0)
(1.03229e-05 7.58725e-05 0)
(1.44503e-05 0.000100955 0)
(5.52426e-06 6.26484e-05 0)
(2.14286e-06 -6.35589e-05 0)
(-5.34549e-06 -8.08807e-05 0)
(-4.28069e-05 -1.89493e-05 0)
(-0.000122124 0.000100008 0)
(-0.000252877 0.000259651 0)
(-0.000442233 0.000446963 0)
(-0.000695141 0.000651633 0)
(-0.00101468 0.000865622 0)
(-0.00140232 0.00108269 0)
(-0.00185817 0.00129802 0)
(-0.00238118 0.0015079 0)
(-0.00296939 0.00170949 0)
(-0.00362005 0.00190064 0)
(-0.0043298 0.00207971 0)
(-0.00509481 0.00224552 0)
(-0.00591083 0.00239717 0)
(-0.00677337 0.00253407 0)
(-0.0076777 0.00265582 0)
(-0.00861894 0.0027622 0)
(-0.00959213 0.00285311 0)
(-0.0105923 0.0029286 0)
(-0.0116143 0.00298877 0)
(-0.0126532 0.00303383 0)
(-0.0137041 0.00306404 0)
(-0.0147621 0.0030797 0)
(-0.0158223 0.00308117 0)
(-0.0168801 0.00306884 0)
(-0.0179309 0.00304313 0)
(-0.0189703 0.00300447 0)
(-0.019994 0.00295334 0)
(-0.0209978 0.00289022 0)
(-0.0219777 0.00281558 0)
(-0.0229299 0.00272995 0)
(-0.0238508 0.00263383 0)
(-0.0247368 0.00252775 0)
(-0.0255847 0.00241223 0)
(-0.0263913 0.00228782 0)
(-0.0271537 0.00215506 0)
(-0.027869 0.00201449 0)
(-0.0285348 0.00186666 0)
(-0.0291486 0.00171215 0)
(-0.0297083 0.0015515 0)
(-0.0302118 0.00138529 0)
(-0.0306573 0.00121409 0)
(-0.0310433 0.00103849 0)
(-0.0313683 0.000859076 0)
(-0.0316311 0.000676438 0)
(-0.0318308 0.00049118 0)
(-0.0319665 0.000303911 0)
(-0.0320377 0.000115248 0)
(-0.032044 -7.41829e-05 0)
(-0.0319854 -0.000263749 0)
(-0.0318617 -0.000452811 0)
(-0.0316735 -0.000640718 0)
(-0.0314211 -0.000826815 0)
(-0.0311054 -0.00101044 0)
(-0.0307273 -0.00119092 0)
(-0.030288 -0.00136758 0)
(-0.0297889 -0.00153975 0)
(-0.0292318 -0.00170673 0)
(-0.0286185 -0.00186785 0)
(-0.0279511 -0.00202241 0)
(-0.0272321 -0.00216972 0)
(-0.0264639 -0.00230912 0)
(-0.0256495 -0.00243991 0)
(-0.0247919 -0.00256143 0)
(-0.0238943 -0.00267301 0)
(-0.0229603 -0.00277402 0)
(-0.0219935 -0.00286381 0)
(-0.0209979 -0.00294178 0)
(-0.0199774 -0.00300733 0)
(-0.0189366 -0.00305991 0)
(-0.0178796 -0.00309897 0)
(-0.0168113 -0.00312403 0)
(-0.0157364 -0.00313462 0)
(-0.0146597 -0.00313034 0)
(-0.0135864 -0.00311082 0)
(-0.0125215 -0.00307576 0)
(-0.0114701 -0.00302493 0)
(-0.0104376 -0.00295816 0)
(-0.00942918 -0.00287539 0)
(-0.00845001 -0.00277664 0)
(-0.0075053 -0.00266203 0)
(-0.00660009 -0.00253186 0)
(-0.0057393 -0.00238653 0)
(-0.00492762 -0.00222666 0)
(-0.00416946 -0.00205308 0)
(-0.00346889 -0.00186692 0)
(-0.00282952 -0.0016696 0)
(-0.0022544 -0.00146299 0)
(-0.00174591 -0.00124947 0)
(-0.00130559 -0.00103209 0)
(-0.000933998 -0.000814732 0)
(-0.000630497 -0.00060234 0)
(-0.000393066 -0.000401217 0)
(-0.000218057 -0.00021938 0)
(-9.99508e-05 -6.70002e-05 0)
(-3.105e-05 4.31631e-05 0)
(-1.08621e-06 9.5185e-05 0)
(2.8089e-06 6.7809e-05 0)
(-9.61172e-07 -5.76489e-05 0)
(-2.35064e-05 -4.66598e-05 0)
(-9.13909e-05 5.67825e-05 0)
(-0.000212775 0.000227587 0)
(-0.000395448 0.000446984 0)
(-0.000645842 0.000699795 0)
(-0.000968354 0.000973791 0)
(-0.00136562 0.00125924 0)
(-0.0018388 0.00154845 0)
(-0.00238771 0.00183535 0)
(-0.00301106 0.00211519 0)
(-0.0037066 0.00238424 0)
(-0.00447129 0.00263964 0)
(-0.00530141 0.00287919 0)
(-0.00619275 0.00310121 0)
(-0.00714063 0.00330448 0)
(-0.00814008 0.00348812 0)
(-0.00918587 0.00365153 0)
(-0.0102726 0.00379436 0)
(-0.0113947 0.00391644 0)
(-0.0125466 0.00401776 0)
(-0.0137226 0.00409843 0)
(-0.0149173 0.00415868 0)
(-0.0161249 0.00419883 0)
(-0.01734 0.00421927 0)
(-0.0185571 0.00422046 0)
(-0.019771 0.0042029 0)
(-0.0209766 0.00416715 0)
(-0.0221687 0.00411377 0)
(-0.0233425 0.0040434 0)
(-0.0244932 0.00395668 0)
(-0.0256165 0.00385426 0)
(-0.0267078 0.00373682 0)
(-0.027763 0.00360507 0)
(-0.0287782 0.00345971 0)
(-0.0297496 0.00330146 0)
(-0.0306736 0.00313105 0)
(-0.0315468 0.00294922 0)
(-0.0323662 0.00275672 0)
(-0.0331286 0.0025543 0)
(-0.0338315 0.00234272 0)
(-0.0344723 0.00212277 0)
(-0.0350488 0.00189521 0)
(-0.0355588 0.00166084 0)
(-0.0360006 0.00142045 0)
(-0.0363726 0.00117485 0)
(-0.0366733 0.00092485 0)
(-0.0369017 0.000671283 0)
(-0.0370569 0.00041498 0)
(-0.0371381 0.000156787 0)
(-0.0371452 -0.000102439 0)
(-0.0370777 -0.000361832 0)
(-0.036936 -0.000620515 0)
(-0.0367202 -0.0008776 0)
(-0.036431 -0.00113219 0)
(-0.0360693 -0.00138338 0)
(-0.0356362 -0.00163025 0)
(-0.0351331 -0.00187188 0)
(-0.0345616 -0.00210735 0)
(-0.0339236 -0.00233571 0)
(-0.0332213 -0.00255605 0)
(-0.0324571 -0.00276741 0)
(-0.0316338 -0.00296887 0)
(-0.0307542 -0.0031595 0)
(-0.0298216 -0.00333839 0)
(-0.0288395 -0.00350461 0)
(-0.0278116 -0.00365728 0)
(-0.0267419 -0.00379552 0)
(-0.0256345 -0.00391848 0)
(-0.0244939 -0.00402532 0)
(-0.0233248 -0.00411527 0)
(-0.0221319 -0.00418756 0)
(-0.0209204 -0.00424149 0)
(-0.0196955 -0.00427638 0)
(-0.0184626 -0.00429165 0)
(-0.0172272 -0.00428673 0)
(-0.015995 -0.00426118 0)
(-0.0147717 -0.0042146 0)
(-0.0135633 -0.00414671 0)
(-0.0123755 -0.00405731 0)
(-0.0112142 -0.00394634 0)
(-0.0100853 -0.00381387 0)
(-0.00899448 -0.00366013 0)
(-0.00794747 -0.00348554 0)
(-0.00694969 -0.00329072 0)
(-0.00600636 -0.00307654 0)
(-0.00512234 -0.00284419 0)
(-0.00430214 -0.0025952 0)
(-0.00354973 -0.00233155 0)
(-0.00286851 -0.00205575 0)
(-0.00226111 -0.00177096 0)
(-0.00172934 -0.00148117 0)
(-0.00127397 -0.00119135 0)
(-0.000894599 -0.000907748 0)
(-0.00058947 -0.000638145 0)
(-0.000355301 -0.000392262 0)
(-0.000187052 -0.000182197 0)
(-7.76555e-05 -2.28777e-05 0)
(-1.84865e-05 6.73343e-05 0)
(-1.60484e-07 6.4278e-05 0)
(-4.11769e-06 -4.20708e-05 0)
(-4.24706e-05 1.25438e-05 0)
(-0.000142655 0.000170205 0)
(-0.000308755 0.000403821 0)
(-0.000546439 0.00069271 0)
(-0.000861146 0.00101988 0)
(-0.00125648 0.00137142 0)
(-0.00173443 0.00173607 0)
(-0.00229564 0.00210479 0)
(-0.00293955 0.0024703 0)
(-0.00366449 0.00282681 0)
(-0.00446788 0.00316974 0)
(-0.00534633 0.00349548 0)
(-0.00629576 0.0038012 0)
(-0.00731158 0.00408476 0)
(-0.00838871 0.00434453 0)
(-0.00952173 0.00457933 0)
(-0.0107049 0.00478834 0)
(-0.0119325 0.00497103 0)
(-0.0131983 0.00512714 0)
(-0.0144962 0.00525659 0)
(-0.0158201 0.00535949 0)
(-0.0171638 0.00543608 0)
(-0.0185212 0.00548675 0)
(-0.0198862 0.00551196 0)
(-0.0212529 0.00551227 0)
(-0.0226153 0.00548831 0)
(-0.0239679 0.00544077 0)
(-0.025305 0.00537038 0)
(-0.0266211 0.00527792 0)
(-0.0279112 0.00516423 0)
(-0.0291702 0.00503014 0)
(-0.0303931 0.00487653 0)
(-0.0315754 0.00470429 0)
(-0.0327128 0.00451434 0)
(-0.0338008 0.00430761 0)
(-0.0348357 0.00408505 0)
(-0.0358136 0.00384762 0)
(-0.0367311 0.00359629 0)
(-0.0375848 0.00333204 0)
(-0.0383717 0.00305587 0)
(-0.0390891 0.00276878 0)
(-0.0397344 0.00247179 0)
(-0.0403052 0.00216593 0)
(-0.0407997 0.00185223 0)
(-0.0412159 0.00153176 0)
(-0.0415524 0.00120557 0)
(-0.0418078 0.000874742 0)
(-0.0419814 0.000540366 0)
(-0.0420722 0.000203545 0)
(-0.0420799 -0.000134603 0)
(-0.0420042 -0.000472948 0)
(-0.0418454 -0.000810346 0)
(-0.0416038 -0.00114564 0)
(-0.04128 -0.00147766 0)
(-0.0408751 -0.00180523 0)
(-0.0403902 -0.00212715 0)
(-0.039827 -0.00244223 0)
(-0.0391872 -0.00274926 0)
(-0.0384731 -0.00304703 0)
(-0.0376869 -0.00333433 0)
(-0.0368315 -0.00360994 0)
(-0.0359098 -0.00387265 0)
(-0.0349252 -0.00412126 0)
(-0.0338811 -0.00435458 0)
(-0.0327815 -0.00457144 0)
(-0.0316305 -0.00477068 0)
(-0.0304325 -0.00495117 0)
(-0.0291922 -0.00511181 0)
(-0.0279144 -0.00525154 0)
(-0.0266044 -0.00536935 0)
(-0.0252675 -0.00546427 0)
(-0.0239094 -0.00553539 0)
(-0.0225357 -0.00558187 0)
(-0.0211525 -0.00560294 0)
(-0.0197659 -0.00559794 0)
(-0.0183822 -0.00556629 0)
(-0.0170076 -0.0055075 0)
(-0.0156486 -0.00542123 0)
(-0.0143117 -0.00530729 0)
(-0.0130033 -0.00516562 0)
(-0.0117298 -0.00499636 0)
(-0.0104975 -0.00479985 0)
(-0.00931258 -0.00457666 0)
(-0.00818101 -0.00432767 0)
(-0.00710845 -0.00405403 0)
(-0.00610024 -0.00375733 0)
(-0.00516126 -0.00343955 0)
(-0.00429587 -0.00310325 0)
(-0.0035078 -0.00275163 0)
(-0.00280004 -0.00238865 0)
(-0.00217468 -0.00201924 0)
(-0.00163282 -0.00164948 0)
(-0.00117444 -0.00128684 0)
(-0.000798225 -0.000940518 0)
(-0.000501463 -0.000621788 0)
(-0.000279828 -0.000344454 0)
(-0.000127151 -0.00012528 0)
(-3.67803e-05 1.54255e-05 0)
(-3.20022e-06 5.14455e-05 0)
(-7.23269e-06 -1.66455e-05 0)
(-6.1659e-05 9.76669e-05 0)
(-0.000195078 0.000322978 0)
(-0.000407391 0.000630913 0)
(-0.000701988 0.000999356 0)
(-0.00108314 0.00140985 0)
(-0.00155347 0.00184707 0)
(-0.00211417 0.00229841 0)
(-0.00276523 0.00275359 0)
(-0.00350557 0.00320423 0)
(-0.00433306 0.00364355 0)
(-0.0052447 0.0040661 0)
(-0.00623671 0.00446755 0)
(-0.00730464 0.00484447 0)
(-0.00844348 0.00519419 0)
(-0.00964778 0.00551466 0)
(-0.0109117 0.0058044 0)
(-0.0122291 0.00606231 0)
(-0.0135936 0.00628771 0)
(-0.0149987 0.00648019 0)
(-0.0164379 0.00663961 0)
(-0.0179044 0.00676606 0)
(-0.0193916 0.00685981 0)
(-0.0208929 0.00692127 0)
(-0.0224017 0.00695099 0)
(-0.0239116 0.00694963 0)
(-0.0254161 0.00691796 0)
(-0.026909 0.0068568 0)
(-0.0283844 0.00676706 0)
(-0.0298363 0.0066497 0)
(-0.031259 0.00650572 0)
(-0.032647 0.00633617 0)
(-0.0339951 0.00614214 0)
(-0.0352982 0.00592474 0)
(-0.0365514 0.00568512 0)
(-0.0377502 0.00542443 0)
(-0.0388902 0.00514386 0)
(-0.0399674 0.00484461 0)
(-0.0409779 0.0045279 0)
(-0.041918 0.00419496 0)
(-0.0427846 0.00384705 0)
(-0.0435745 0.00348541 0)
(-0.0442849 0.00311135 0)
(-0.0449133 0.00272614 0)
(-0.0454576 0.0023311 0)
(-0.0459158 0.00192755 0)
(-0.0462861 0.00151683 0)
(-0.0465673 0.00110029 0)
(-0.0467582 0.000679317 0)
(-0.0468582 0.000255287 0)
(-0.0468666 -0.00017039 0)
(-0.0467833 -0.000596292 0)
(-0.0466084 -0.00102098 0)
(-0.0463424 -0.00144301 0)
(-0.045986 -0.00186089 0)
(-0.0455403 -0.00227316 0)
(-0.0450066 -0.00267832 0)
(-0.0443867 -0.00307486 0)
(-0.0436825 -0.00346127 0)
(-0.0428963 -0.00383603 0)
(-0.0420309 -0.00419762 0)
(-0.0410892 -0.00454453 0)
(-0.0400745 -0.00487524 0)
(-0.0389903 -0.00518825 0)
(-0.0378407 -0.00548206 0)
(-0.0366297 -0.00575523 0)
(-0.035362 -0.0060063 0)
(-0.0340423 -0.00623387 0)
(-0.0326757 -0.00643658 0)
(-0.0312675 -0.00661311 0)
(-0.0298235 -0.00676219 0)
(-0.0283494 -0.00688265 0)
(-0.0268513 -0.00697334 0)
(-0.0253356 -0.00703326 0)
(-0.0238088 -0.00706146 0)
(-0.0222774 -0.00705713 0)
(-0.0207482 -0.00701955 0)
(-0.0192281 -0.00694819 0)
(-0.0177242 -0.00684264 0)
(-0.0162433 -0.00670268 0)
(-0.0147924 -0.0065283 0)
(-0.0133785 -0.0063197 0)
(-0.0120084 -0.00607737 0)
(-0.0106887 -0.00580205 0)
(-0.00942588 -0.00549488 0)
(-0.00822599 -0.00515734 0)
(-0.00709482 -0.00479141 0)
(-0.00603766 -0.0043996 0)
(-0.00505927 -0.00398503 0)
(-0.00416375 -0.00355161 0)
(-0.00335445 -0.00310411 0)
(-0.00263387 -0.00264839 0)
(-0.00200354 -0.00219158 0)
(-0.00146391 -0.00174234 0)
(-0.00101425 -0.00131114 0)
(-0.000652616 -0.000910638 0)
(-0.000375555 -0.000556111 0)
(-0.000177972 -0.000265825 0)
(-5.53665e-05 -6.15677e-05 0)
(-6.21287e-06 2.90886e-05 0)
(-1.02601e-05 1.85897e-05 0)
(-8.07225e-05 0.000209023 0)
(-0.000247669 0.000515886 0)
(-0.000506873 0.000910067 0)
(-0.000859392 0.00136843 0)
(-0.00130823 0.00187139 0)
(-0.00185491 0.00240243 0)
(-0.00249969 0.00294783 0)
(-0.00324182 0.00349619 0)
(-0.00407956 0.00403813 0)
(-0.00501026 0.00456596 0)
(-0.00603041 0.00507341 0)
(-0.00713581 0.00555543 0)
(-0.00832157 0.006008 0)
(-0.00958229 0.00642792 0)
(-0.0109121 0.00681275 0)
(-0.0123047 0.00716064 0)
(-0.0137536 0.00747026 0)
(-0.015252 0.00774071 0)
(-0.0167929 0.00797146 0)
(-0.0183693 0.0081623 0)
(-0.0199741 0.00831326 0)
(-0.0216002 0.00842463 0)
(-0.0232405 0.00849688 0)
(-0.0248879 0.00853062 0)
(-0.0265355 0.00852663 0)
(-0.0281765 0.0084858 0)
(-0.0298042 0.00840911 0)
(-0.0314121 0.00829763 0)
(-0.0329939 0.00815251 0)
(-0.0345434 0.00797497 0)
(-0.0360548 0.00776625 0)
(-0.0375223 0.00752768 0)
(-0.0389406 0.0072606 0)
(-0.0403044 0.0069664 0)
(-0.0416087 0.00664647 0)
(-0.0428489 0.00630227 0)
(-0.0440206 0.00593526 0)
(-0.0451196 0.00554692 0)
(-0.046142 0.00513876 0)
(-0.0470843 0.0047123 0)
(-0.0479431 0.00426909 0)
(-0.0487155 0.00381068 0)
(-0.0493988 0.00333868 0)
(-0.0499905 0.00285466 0)
(-0.0504886 0.00236026 0)
(-0.0508912 0.00185711 0)
(-0.0511968 0.00134687 0)
(-0.0514044 0.000831221 0)
(-0.0515131 0.00031186 0)
(-0.0515223 -0.000209494 0)
(-0.0514319 -0.000731102 0)
(-0.051242 -0.00125121 0)
(-0.050953 -0.00176803 0)
(-0.0505658 -0.00227977 0)
(-0.0500815 -0.00278463 0)
(-0.0495016 -0.00328078 0)
(-0.048828 -0.00376638 0)
(-0.0480627 -0.0042396 0)
(-0.0472083 -0.00469857 0)
(-0.0462678 -0.00514145 0)
(-0.0452441 -0.00556638 0)
(-0.044141 -0.00597154 0)
(-0.0429623 -0.00635509 0)
(-0.0417122 -0.00671522 0)
(-0.0403953 -0.00705015 0)
(-0.0390163 -0.00735815 0)
(-0.0375806 -0.0076375 0)
(-0.0360935 -0.00788656 0)
(-0.0345608 -0.00810373 0)
(-0.0329886 -0.00828749 0)
(-0.0313832 -0.00843641 0)
(-0.0297511 -0.00854915 0)
(-0.028099 -0.00862447 0)
(-0.026434 -0.00866126 0)
(-0.0247632 -0.00865855 0)
(-0.0230938 -0.00861552 0)
(-0.0214331 -0.00853152 0)
(-0.0197888 -0.00840611 0)
(-0.0181681 -0.00823906 0)
(-0.0165787 -0.00803039 0)
(-0.0150278 -0.00778039 0)
(-0.0135228 -0.00748968 0)
(-0.0120707 -0.00715924 0)
(-0.0106786 -0.00679043 0)
(-0.00935278 -0.00638511 0)
(-0.00809959 -0.00594567 0)
(-0.00692469 -0.00547512 0)
(-0.00583324 -0.00497718 0)
(-0.00482978 -0.00445647 0)
(-0.00391807 -0.00391854 0)
(-0.0031011 -0.00337015 0)
(-0.00238089 -0.00281943 0)
(-0.00175849 -0.00227611 0)
(-0.0012339 -0.00175183 0)
(-0.000805998 -0.00126046 0)
(-0.000472372 -0.000818497 0)
(-0.000229098 -0.000445403 0)
(-7.3881e-05 -0.000164036 0)
(-9.14893e-06 -2.78503e-06 0)
(-1.31807e-05 6.34708e-05 0)
(-9.94617e-05 0.000346537 0)
(-0.000299805 0.000749117 0)
(-0.000606003 0.00124177 0)
(-0.0010168 0.00180067 0)
(-0.00153388 0.0024054 0)
(-0.00215762 0.00303852 0)
(-0.00288724 0.00368531 0)
(-0.00372115 0.00433346 0)
(-0.00465688 0.00497267 0)
(-0.00569117 0.00559441 0)
(-0.00681997 0.00619167 0)
(-0.00803855 0.00675873 0)
(-0.00934159 0.00729096 0)
(-0.0107232 0.00778471 0)
(-0.0121772 0.00823709 0)
(-0.0136967 0.00864592 0)
(-0.015275 0.0090096 0)
(-0.0169047 0.00932704 0)
(-0.0185785 0.00959757 0)
(-0.0202889 0.00982088 0)
(-0.0220284 0.00999699 0)
(-0.0237895 0.0101262 0)
(-0.0255646 0.0102089 0)
(-0.0273462 0.010246 0)
(-0.029127 0.0102382 0)
(-0.0308997 0.0101867 0)
(-0.0326573 0.0100924 0)
(-0.0343928 0.00995676 0)
(-0.0360996 0.00978103 0)
(-0.037771 0.00956665 0)
(-0.0394008 0.00931512 0)
(-0.040983 0.00902797 0)
(-0.0425116 0.0087068 0)
(-0.0439813 0.00835325 0)
(-0.0453866 0.007969 0)
(-0.0467227 0.00755576 0)
(-0.0479847 0.00711527 0)
(-0.0491684 0.00664931 0)
(-0.0502694 0.00615967 0)
(-0.0512841 0.00564818 0)
(-0.0522088 0.00511667 0)
(-0.0530404 0.00456701 0)
(-0.053776 0.00400111 0)
(-0.0544131 0.00342086 0)
(-0.0549493 0.00282822 0)
(-0.0553828 0.00222513 0)
(-0.055712 0.00161358 0)
(-0.0559357 0.000995591 0)
(-0.0560529 0.00037318 0)
(-0.056063 -0.000251592 0)
(-0.055966 -0.000876646 0)
(-0.0557619 -0.00149988 0)
(-0.0554513 -0.00211917 0)
(-0.0550349 -0.00273238 0)
(-0.0545141 -0.00333734 0)
(-0.0538903 -0.00393188 0)
(-0.0531656 -0.0045138 0)
(-0.0523423 -0.0050809 0)
(-0.051423 -0.00563098 0)
(-0.0504109 -0.00616183 0)
(-0.0493092 -0.00667125 0)
(-0.0481219 -0.00715705 0)