/*--------------------------------*- C++ -*----------------------------------*\
| =========                 |                                                 |
| \\      /  F ield         | OpenFOAM: The Open Source CFD Toolbox           |
|  \\    /   O peration     | Version:  2212                                  |
|   \\  /    A nd           | Website:  www.openfoam.com                      |
|    \\/     M anipulation  |                                                 |
\*---------------------------------------------------------------------------*/
FoamFile
{
    version     2.0;
    format      ascii;
    arch        "LSB;label=32;scalar=64";
    class       volVectorField;
    location    "0.061";
    object      U_0;
}
// * * * * * * * * * * * * * * * * * * * * * * * * * * * * * * * * * * * * * //

dimensions      [0 1 -1 0 0 0 0];

internalField   nonuniform List<vector> 
10000
(
(2.86762e-06 -2.91365e-06 0)
(1.42747e-05 -7.49222e-06 0)
(3.24497e-05 -8.64208e-06 0)
(4.94709e-05 -7.38816e-06 0)
(6.04831e-05 -4.91124e-06 0)
(6.3181e-05 -1.86677e-06 0)
(5.64184e-05 1.39564e-06 0)
(3.96873e-05 4.69109e-06 0)
(1.29077e-05 7.91204e-06 0)
(-2.37358e-05 1.09934e-05 0)
(-6.9882e-05 1.39053e-05 0)
(-0.00012506 1.66284e-05 0)
(-0.000188723 1.91485e-05 0)
(-0.000260269 2.14623e-05 0)
(-0.000339072 2.35669e-05 0)
(-0.000424483 2.54608e-05 0)
(-0.000515845 2.71472e-05 0)
(-0.000612495 2.86295e-05 0)
(-0.000713779 2.99108e-05 0)
(-0.000819046 3.09959e-05 0)
(-0.000927656 3.18893e-05 0)
(-0.00103898 3.25969e-05 0)
(-0.00115241 3.31249e-05 0)
(-0.00126734 3.34793e-05 0)
(-0.00138321 3.36664e-05 0)
(-0.00149943 3.36921e-05 0)
(-0.00161547 3.35607e-05 0)
(-0.00173081 3.32781e-05 0)
(-0.00184494 3.28513e-05 0)
(-0.00195738 3.22872e-05 0)
(-0.00206766 3.15922e-05 0)
(-0.00217533 3.07715e-05 0)
(-0.00227997 2.98313e-05 0)
(-0.00238118 2.87777e-05 0)
(-0.00247856 2.76163e-05 0)
(-0.00257177 2.63531e-05 0)
(-0.00266045 2.49941e-05 0)
(-0.00274429 2.35457e-05 0)
(-0.00282297 2.20141e-05 0)
(-0.00289623 2.04043e-05 0)
(-0.00296379 1.87225e-05 0)
(-0.00302542 1.69747e-05 0)
(-0.00308091 1.51669e-05 0)
(-0.00313004 1.33054e-05 0)
(-0.00317265 1.13959e-05 0)
(-0.00320858 9.44449e-06 0)
(-0.0032377 7.45774e-06 0)
(-0.00325989 5.44202e-06 0)
(-0.00327507 3.40355e-06 0)
(-0.00328317 1.34843e-06 0)
(-0.00328414 -7.16883e-07 0)
(-0.00327798 -2.78521e-06 0)
(-0.00326467 -4.84961e-06 0)
(-0.00324424 -6.90342e-06 0)
(-0.00321675 -8.9396e-06 0)
(-0.00318228 -1.09512e-05 0)
(-0.00314092 -1.29314e-05 0)
(-0.0030928 -1.48721e-05 0)
(-0.00303807 -1.67655e-05 0)
(-0.00297692 -1.86044e-05 0)
(-0.00290953 -2.03815e-05 0)
(-0.00283616 -2.20888e-05 0)
(-0.00275704 -2.37188e-05 0)
(-0.00267247 -2.52638e-05 0)
(-0.00258275 -2.67159e-05 0)
(-0.00248822 -2.80671e-05 0)
(-0.00238925 -2.93097e-05 0)
(-0.00228621 -3.0436e-05 0)
(-0.00217954 -3.14383e-05 0)
(-0.00206965 -3.23091e-05 0)
(-0.00195703 -3.30416e-05 0)
(-0.00184215 -3.36285e-05 0)
(-0.00172553 -3.40627e-05 0)
(-0.00160771 -3.43375e-05 0)
(-0.00148922 -3.44465e-05 0)
(-0.00137066 -3.43833e-05 0)
(-0.00125261 -3.41424e-05 0)
(-0.00113568 -3.37188e-05 0)
(-0.0010205 -3.31074e-05 0)
(-0.000907701 -3.23035e-05 0)
(-0.000797936 -3.13026e-05 0)
(-0.000691863 -3.01014e-05 0)
(-0.000590145 -2.86975e-05 0)
(-0.000493448 -2.70888e-05 0)
(-0.000402435 -2.52744e-05 0)
(-0.000317764 -2.32546e-05 0)
(-0.000240078 -2.10313e-05 0)
(-0.000170001 -1.86082e-05 0)
(-0.000108125 -1.59914e-05 0)
(-5.49981e-05 -1.31914e-05 0)
(-1.11049e-05 -1.02251e-05 0)
(2.31596e-05 -7.11902e-06 0)
(4.75302e-05 -3.91437e-06 0)
(6.19319e-05 -6.79278e-07 0)
(6.65766e-05 2.47068e-06 0)
(6.21134e-05 5.33539e-06 0)
(4.98429e-05 7.57011e-06 0)
(3.21633e-05 8.55872e-06 0)
(1.38777e-05 7.25313e-06 0)
(2.70085e-06 2.70097e-06 0)
(7.18431e-06 -1.41786e-05 0)
(2.94053e-05 -2.98023e-05 0)
(5.9189e-05 -3.18415e-05 0)
(8.28607e-05 -2.41004e-05 0)
(9.12941e-05 -1.04247e-05 0)
(7.92281e-05 6.59398e-06 0)
(4.34972e-05 2.53208e-05 0)
(-1.7612e-05 4.47114e-05 0)
(-0.00010475 6.40806e-05 0)
(-0.000217798 8.29852e-05 0)
(-0.000356112 0.000101127 0)
(-0.000518679 0.000118306 0)
(-0.000704209 0.000134389 0)
(-0.000911232 0.000149289 0)
(-0.00113815 0.000162947 0)
(-0.00138328 0.000175332 0)
(-0.00164489 0.000186428 0)
(-0.00192119 0.000196232 0)
(-0.00221041 0.00020475 0)
(-0.00251078 0.000212 0)
(-0.00282052 0.000217999 0)
(-0.0031379 0.000222774 0)
(-0.00346122 0.000226352 0)
(-0.00378879 0.000228767 0)
(-0.00411899 0.000230052 0)
(-0.00445024 0.000230244 0)
(-0.00478099 0.000229376 0)
(-0.00510976 0.000227486 0)
(-0.00543511 0.000224615 0)
(-0.00575566 0.000220801 0)
(-0.00607009 0.000216084 0)
(-0.00637712 0.000210504 0)
(-0.00667553 0.000204101 0)
(-0.00696418 0.000196915 0)
(-0.00724195 0.000188987 0)
(-0.0075078 0.000180356 0)
(-0.00776076 0.000171065 0)
(-0.00799989 0.000161153 0)
(-0.00822433 0.000150662 0)
(-0.00843327 0.000139632 0)
(-0.00862597 0.000128105 0)
(-0.00880172 0.000116124 0)
(-0.00895992 0.000103728 0)
(-0.00909998 9.09607e-05 0)
(-0.00922141 7.78642e-05 0)
(-0.00932376 6.44814e-05 0)
(-0.00940665 5.08562e-05 0)
(-0.00946976 3.70323e-05 0)
(-0.00951285 2.30542e-05 0)
(-0.00953572 8.96727e-06 0)
(-0.00953825 -5.18306e-06 0)
(-0.00952039 -1.93503e-05 0)
(-0.00948215 -3.34866e-05 0)
(-0.00942362 -4.75443e-05 0)
(-0.00934495 -6.14752e-05 0)
(-0.00924635 -7.52299e-05 0)
(-0.00912814 -8.87583e-05 0)
(-0.00899066 -0.00010201 0)
(-0.00883437 -0.000114932 0)
(-0.00865977 -0.000127475 0)
(-0.00846747 -0.000139586 0)
(-0.00825811 -0.000151213 0)
(-0.00803244 -0.000162304 0)
(-0.00779127 -0.000172806 0)
(-0.00753549 -0.000182667 0)
(-0.00726606 -0.000191835 0)
(-0.00698402 -0.000200256 0)
(-0.00669048 -0.000207881 0)
(-0.00638662 -0.00021466 0)
(-0.00607369 -0.000220543 0)
(-0.005753 -0.000225483 0)
(-0.00542595 -0.000229433 0)
(-0.00509398 -0.000232348 0)
(-0.0047586 -0.000234187 0)
(-0.00442138 -0.000234908 0)
(-0.00408393 -0.000234475 0)
(-0.00374791 -0.000232853 0)
(-0.00341505 -0.000230012 0)
(-0.00308708 -0.000225924 0)
(-0.00276579 -0.000220564 0)
(-0.00245297 -0.000213916 0)
(-0.00215044 -0.000205965 0)
(-0.00186003 -0.000196706 0)
(-0.00158354 -0.000186141 0)
(-0.00132278 -0.000174282 0)
(-0.00107951 -0.00016115 0)
(-0.000855412 -0.000146784 0)
(-0.000652115 -0.000131238 0)
(-0.000471117 -0.000114593 0)
(-0.000313755 -9.69629e-05 0)
(-0.000181151 -7.85082e-05 0)
(-7.41263e-05 -5.94571e-05 0)
(6.90271e-06 -4.01352e-05 0)
(6.20792e-05 -2.10178e-05 0)
(9.23251e-05 -2.80972e-06 0)
(9.96443e-05 1.34276e-05 0)
(8.74651e-05 2.60937e-05 0)
(6.1183e-05 3.27638e-05 0)
(2.99126e-05 2.99082e-05 0)
(7.24617e-06 1.38675e-05 0)
(8.21789e-06 -3.18802e-05 0)
(3.1083e-05 -5.93474e-05 0)
(5.7052e-05 -5.79201e-05 0)
(6.99699e-05 -3.55623e-05 0)
(5.88886e-05 6.24157e-07 0)
(1.69912e-05 4.53697e-05 0)
(-6.01568e-05 9.4961e-05 0)
(-0.000175197 0.000146798 0)
(-0.000329293 0.000199077 0)
(-0.000522519 0.000250527 0)
(-0.000754148 0.000300257 0)
(-0.00102284 0.00034764 0)
(-0.0013268 0.000392233 0)
(-0.00166392 0.000433726 0)
(-0.00203187 0.000471912 0)
(-0.00242811 0.000506654 0)
(-0.00285003 0.000537871 0)
(-0.00329492 0.000565524 0)
(-0.00376005 0.000589609 0)
(-0.00424266 0.000610146 0)
(-0.00474001 0.000627174 0)
(-0.00524938 0.000640749 0)
(-0.00576809 0.000650939 0)
(-0.00629349 0.000657824 0)
(-0.00682302 0.000661491 0)
(-0.00735416 0.000662033 0)
(-0.00788446 0.00065955 0)
(-0.00841157 0.000654143 0)
(-0.00893318 0.000645918 0)
(-0.00944709 0.000634985 0)
(-0.00995119 0.000621453 0)
(-0.0104434 0.000605435 0)
(-0.0109219 0.000587047 0)
(-0.0113846 0.0005664 0)
(-0.01183 0.000543611 0)
(-0.0122562 0.000518796 0)
(-0.0126618 0.000492072 0)
(-0.0130452 0.000463556 0)
(-0.013405 0.000433366 0)
(-0.0137399 0.000401621 0)
(-0.0140488 0.000368441 0)
(-0.0143305 0.000333946 0)
(-0.0145841 0.000298257 0)
(-0.0148085 0.000261496 0)
(-0.015003 0.000223787 0)
(-0.0151669 0.000185254 0)
(-0.0152996 0.000146025 0)
(-0.0154006 0.000106227 0)
(-0.0154694 6.59876e-05 0)
(-0.0155058 2.5439e-05 0)
(-0.0155096 -1.52853e-05 0)
(-0.0154807 -5.60509e-05 0)
(-0.0154191 -9.67209e-05 0)
(-0.015325 -0.000137156 0)
(-0.0151985 -0.000177217 0)
(-0.0150402 -0.000216762 0)
(-0.0148504 -0.000255646 0)
(-0.0146298 -0.000293723 0)
(-0.014379 -0.000330846 0)
(-0.014099 -0.000366866 0)
(-0.0137906 -0.000401635 0)
(-0.0134549 -0.000435004 0)
(-0.0130931 -0.000466822 0)
(-0.0127066 -0.00049694 0)
(-0.0122966 -0.000525208 0)
(-0.0118649 -0.000551478 0)
(-0.011413 -0.000575602 0)
(-0.0109428 -0.000597436 0)
(-0.010456 -0.000616838 0)
(-0.00995477 -0.000633671 0)
(-0.00944114 -0.0006478 0)
(-0.00891734 -0.000659096 0)
(-0.00838566 -0.000667434 0)
(-0.00784852 -0.000672696 0)
(-0.00730838 -0.000674774 0)
(-0.00676782 -0.000673565 0)
(-0.00622947 -0.000668977 0)
(-0.00569603 -0.000660931 0)
(-0.00517025 -0.000649356 0)
(-0.00465493 -0.000634195 0)
(-0.00415289 -0.00061541 0)
(-0.00366696 -0.000592977 0)
(-0.00319998 -0.000566897 0)
(-0.00275474 -0.000537196 0)
(-0.00233402 -0.000503928 0)
(-0.00194048 -0.000467187 0)
(-0.00157669 -0.00042711 0)
(-0.00124507 -0.000383894 0)
(-0.000947813 -0.000337811 0)
(-0.000686833 -0.000289234 0)
(-0.000463677 -0.000238673 0)
(-0.000279401 -0.00018682 0)
(-0.000134422 -0.000134629 0)
(-2.83103e-05 -8.3421e-05 0)
(4.04727e-05 -3.50386e-05 0)
(7.49163e-05 7.93278e-06 0)
(7.97889e-05 4.18777e-05 0)
(6.20917e-05 6.18264e-05 0)
(3.28855e-05 6.12047e-05 0)
(8.56923e-06 3.21555e-05 0)
(7.12507e-06 -4.84533e-05 0)
(2.37038e-05 -8.27252e-05 0)
(3.5221e-05 -7.08083e-05 0)
(2.53006e-05 -2.55176e-05 0)
(-1.74513e-05 4.26825e-05 0)
(-0.000100516 0.00012573 0)
(-0.000228977 0.000217606 0)
(-0.000405953 0.000313912 0)
(-0.000632947 0.000411439 0)
(-0.000910176 0.000507836 0)
(-0.00123685 0.000601396 0)
(-0.00161141 0.000690872 0)
(-0.00203171 0.000775356 0)
(-0.00249515 0.000854199 0)
(-0.00299879 0.000926944 0)
(-0.00353945 0.000993276 0)
(-0.00411376 0.00105299 0)
(-0.00471824 0.00110599 0)
(-0.00534934 0.0011522 0)
(-0.00600347 0.00119166 0)
(-0.00667702 0.0012244 0)
(-0.00736641 0.00125052 0)
(-0.0080681 0.00127013 0)
(-0.00877858 0.00128336 0)
(-0.00949443 0.00129037 0)
(-0.0102123 0.00129134 0)
(-0.0109289 0.00128643 0)
(-0.0116411 0.00127585 0)
(-0.0123458 0.0012598 0)
(-0.0130401 0.00123847 0)
(-0.0137211 0.00121209 0)
(-0.014386 0.00118085 0)
(-0.0150322 0.001145 0)
(-0.0156573 0.00110473 0)
(-0.0162588 0.00106028 0)
(-0.0168345 0.00101188 0)
(-0.0173823 0.000959743 0)
(-0.0179 0.000904107 0)
(-0.0183859 0.000845199 0)
(-0.0188383 0.000783252 0)
(-0.0192553 0.000718501 0)
(-0.0196357 0.00065118 0)
(-0.0199779 0.000581528 0)
(-0.0202809 0.000509782 0)
(-0.0205434 0.000436187 0)
(-0.0207645 0.000360987 0)
(-0.0209435 0.000284429 0)
(-0.0210796 0.000206765 0)
(-0.0211722 0.000128248 0)
(-0.0212211 4.91346e-05 0)
(-0.0212259 -3.03148e-05 0)
(-0.0211865 -0.000109835 0)
(-0.021103 -0.000189159 0)
(-0.0209756 -0.000268016 0)
(-0.0208046 -0.00034613 0)
(-0.0205905 -0.000423224 0)
(-0.0203339 -0.000499017 0)
(-0.0200358 -0.000573224 0)
(-0.019697 -0.000645559 0)
(-0.0193187 -0.000715733 0)
(-0.0189021 -0.000783457 0)
(-0.0184487 -0.000848439 0)
(-0.0179602 -0.00091039 0)
(-0.0174383 -0.000969019 0)
(-0.0168849 -0.00102404 0)
(-0.0163021 -0.00107515 0)
(-0.0156921 -0.00112209 0)
(-0.0150573 -0.00116457 0)
(-0.0144004 -0.00120232 0)
(-0.0137238 -0.00123506 0)
(-0.0130306 -0.00126256 0)
(-0.0123236 -0.00128455 0)
(-0.0116059 -0.00130081 0)
(-0.0108808 -0.00131111 0)
(-0.0101515 -0.00131525 0)
(-0.00942155 -0.00131303 0)
(-0.00869435 -0.00130429 0)
(-0.00797354 -0.00128888 0)
(-0.00726275 -0.00126668 0)
(-0.00656569 -0.0012376 0)
(-0.00588607 -0.00120158 0)
(-0.00522764 -0.00115859 0)
(-0.0045941 -0.00110865 0)
(-0.00398911 -0.00105186 0)
(-0.00341624 -0.000988328 0)
(-0.00287896 -0.000918284 0)
(-0.00238055 -0.000842033 0)
(-0.00192406 -0.000759996 0)
(-0.00151224 -0.000672749 0)
(-0.00114745 -0.000581056 0)
(-0.000831547 -0.000485937 0)
(-0.000565744 -0.000388748 0)
(-0.000350438 -0.000291297 0)
(-0.000184997 -0.000196005 0)
(-6.7487e-05 -0.000106122 0)
(5.64173e-06 -2.6015e-05 0)
(3.98532e-05 3.84756e-05 0)
(4.2917e-05 7.96808e-05 0)
(2.65384e-05 8.77681e-05 0)
(7.64259e-06 4.99452e-05 0)
(4.88361e-06 -5.93703e-05 0)
(1.07419e-05 -9.12611e-05 0)
(2.47865e-07 -5.99876e-05 0)
(-4.12997e-05 1.70948e-05 0)
(-0.000124729 0.000126321 0)
(-0.00025761 0.000256927 0)
(-0.000445147 0.000400656 0)
(-0.000690595 0.000551251 0)
(-0.000995555 0.00070399 0)
(-0.00136025 0.000855325 0)
(-0.00178382 0.00100259 0)
(-0.00226451 0.00114378 0)
(-0.00279987 0.00127742 0)
(-0.00338689 0.00140241 0)
(-0.00402215 0.00151795 0)
(-0.00470193 0.0016235 0)
(-0.00542223 0.00171866 0)
(-0.00617892 0.0018032 0)
(-0.00696773 0.00187702 0)
(-0.00778435 0.00194008 0)
(-0.00862443 0.00199243 0)
(-0.00948363 0.00203418 0)
(-0.0103576 0.0020655 0)
(-0.0112421 0.00208658 0)
(-0.012133 0.00209764 0)
(-0.0130261 0.00209896 0)
(-0.0139175 0.0020908 0)
(-0.0148032 0.00207347 0)
(-0.0156794 0.00204728 0)
(-0.0165425 0.00201255 0)
(-0.017389 0.00196962 0)
(-0.0182154 0.00191882 0)
(-0.0190186 0.00186052 0)
(-0.0197955 0.00179507 0)
(-0.020543 0.00172281 0)
(-0.0212583 0.00164413 0)
(-0.0219389 0.00155938 0)
(-0.0225823 0.00146894 0)
(-0.023186 0.00137318 0)
(-0.0237479 0.00127248 0)
(-0.0242659 0.00116722 0)
(-0.0247384 0.00105777 0)
(-0.0251634 0.000944544 0)
(-0.0255396 0.000827913 0)
(-0.0258656 0.000708278 0)
(-0.0261401 0.000586038 0)
(-0.0263621 0.000461597 0)
(-0.0265309 0.000335365 0)
(-0.0266457 0.000207754 0)
(-0.0267061 7.91851e-05 0)
(-0.0267117 -4.99183e-05 0)
(-0.0266625 -0.000179125 0)
(-0.0265585 -0.000307999 0)
(-0.0263999 -0.0004361 0)
(-0.0261871 -0.00056298 0)
(-0.0259209 -0.000688187 0)
(-0.0256019 -0.000811264 0)
(-0.0252313 -0.000931751 0)
(-0.0248103 -0.00104918 0)
(-0.0243402 -0.00116309 0)
(-0.0238226 -0.00127301 0)
(-0.0232594 -0.00137847 0)
(-0.0226526 -0.00147899 0)
(-0.0220042 -0.00157411 0)
(-0.0213168 -0.00166337 0)
(-0.020593 -0.00174629 0)
(-0.0198354 -0.00182244 0)
(-0.019047 -0.00189135 0)
(-0.0182311 -0.0019526 0)
(-0.0173908 -0.00200576 0)
(-0.0165297 -0.00205042 0)
(-0.0156514 -0.00208618 0)
(-0.0147598 -0.00211268 0)
(-0.0138588 -0.00212957 0)
(-0.0129524 -0.00213651 0)
(-0.0120449 -0.00213323 0)
(-0.0111405 -0.00211946 0)
(-0.0102437 -0.00209498 0)
(-0.00935881 -0.0020596 0)
(-0.00849045 -0.00201321 0)
(-0.00764311 -0.00195573 0)
(-0.0068213 -0.00188714 0)
(-0.00602949 -0.00180753 0)
(-0.0052721 -0.00171704 0)
(-0.0045534 -0.00161594 0)
(-0.00387752 -0.0015046 0)
(-0.00324833 -0.00138359 0)
(-0.00266943 -0.00125361 0)
(-0.00214403 -0.00111565 0)
(-0.00167484 -0.000970972 0)
(-0.00126399 -0.000821226 0)
(-0.00091284 -0.000668569 0)
(-0.000621817 -0.000515802 0)
(-0.00039022 -0.000366579 0)
(-0.000215963 -0.00022566 0)
(-9.52966e-05 -9.92473e-05 0)
(-2.25477e-05 4.60745e-06 0)
(1.02372e-05 7.56085e-05 0)
(1.44118e-05 0.000100737 0)
(5.5182e-06 6.25549e-05 0)
(2.07161e-06 -6.24406e-05 0)
(-5.50894e-06 -7.99579e-05 0)
(-4.31096e-05 -1.89229e-05 0)
(-0.000122478 9.95781e-05 0)
(-0.000253157 0.000258997 0)
(-0.000442314 0.000446132 0)
(-0.000694903 0.000650603 0)
(-0.001014 0.000864346 0)
(-0.00140108 0.00108113 0)
(-0.00185625 0.00129615 0)
(-0.00237847 0.0015057 0)
(-0.00296577 0.00170697 0)
(-0.00361541 0.00189779 0)
(-0.00432405 0.00207654 0)
(-0.00508783 0.00224204 0)
(-0.00590254 0.00239341 0)
(-0.00676367 0.00253004 0)
(-0.00766651 0.00265154 0)
(-0.0086062 0.0027577 0)
(-0.00957776 0.00284842 0)
(-0.0105762 0.00292373 0)
(-0.0115965 0.00298376 0)
(-0.0126337 0.0030287 0)
(-0.0136828 0.00305881 0)
(-0.0147389 0.00307441 0)
(-0.0157973 0.00307584 0)
(-0.0168533 0.0030635 0)
(-0.0179022 0.0030378 0)
(-0.0189398 0.00299918 0)
(-0.0199616 0.00294812 0)
(-0.0209636 0.00288508 0)
(-0.0219418 0.00281056 0)
(-0.0228923 0.00272506 0)
(-0.0238115 0.00262909 0)
(-0.024696 0.00252319 0)
(-0.0255423 0.00240787 0)
(-0.0263475 0.00228368 0)
(-0.0271084 0.00215115 0)
(-0.0278225 0.00201083 0)
(-0.0284871 0.00186328 0)
(-0.0290998 0.00170904 0)
(-0.0296584 0.00154869 0)
(-0.030161 0.00138279 0)
(-0.0306058 0.00121192 0)
(-0.030991 0.00103665 0)
(-0.0313155 0.000857571 0)
(-0.0315778 0.000675279 0)
(-0.0317772 0.000490373 0)
(-0.0319127 0.000303461 0)
(-0.0319838 0.000115157 0)
(-0.0319902 -7.39128e-05 0)
(-0.0319316 -0.000263119 0)
(-0.0318083 -0.000451822 0)
(-0.0316205 -0.000639375 0)
(-0.0313686 -0.000825123 0)
(-0.0310535 -0.0010084 0)
(-0.0306761 -0.00118855 0)
(-0.0302377 -0.00136489 0)
(-0.0297396 -0.00153674 0)
(-0.0291836 -0.00170342 0)
(-0.0285714 -0.00186425 0)
(-0.0279054 -0.00201853 0)
(-0.0271877 -0.0021656 0)
(-0.026421 -0.00230476 0)
(-0.0256081 -0.00243533 0)
(-0.0247521 -0.00255666 0)
(-0.0238562 -0.00266807 0)
(-0.0229239 -0.00276893 0)
(-0.0219588 -0.00285859 0)
(-0.020965 -0.00293646 0)
(-0.0199464 -0.00300194 0)
(-0.0189073 -0.00305447 0)
(-0.0178523 -0.00309351 0)
(-0.0167858 -0.00311858 0)
(-0.0157128 -0.00312921 0)
(-0.0146379 -0.00312499 0)
(-0.0135664 -0.00310556 0)
(-0.0125033 -0.00307062 0)
(-0.0114537 -0.00301994 0)
(-0.0104229 -0.00295336 0)
(-0.00941604 -0.00287079 0)
(-0.00843844 -0.00277226 0)
(-0.00749522 -0.00265791 0)
(-0.00659141 -0.002528 0)
(-0.00573193 -0.00238297 0)
(-0.00492146 -0.00222341 0)
(-0.00416441 -0.00205017 0)
(-0.00346484 -0.00186435 0)
(-0.00282636 -0.00166738 0)
(-0.00225202 -0.00146113 0)
(-0.00174419 -0.00124798 0)
(-0.00130442 -0.00103095 0)
(-0.000933256 -0.000813932 0)
(-0.000630084 -0.000601859 0)
(-0.000392883 -0.000401022 0)
(-0.000218015 -0.000219422 0)
(-9.99764e-05 -6.72106e-05 0)
(-3.10877e-05 4.28748e-05 0)
(-1.10681e-06 9.49352e-05 0)
(2.80599e-06 6.77004e-05 0)
(-9.90026e-07 -5.64827e-05 0)
(-2.35491e-05 -4.56436e-05 0)
(-9.14794e-05 5.68709e-05 0)
(-0.000212848 0.000227113 0)
(-0.000395378 0.000446164 0)
(-0.000645497 0.000698668 0)
(-0.000967599 0.000972332 0)
(-0.00136432 0.00125741 0)
(-0.00183681 0.00154621 0)
(-0.00238491 0.00183268 0)
(-0.00300731 0.00211207 0)
(-0.00370178 0.00238067 0)
(-0.00446527 0.00263563 0)
(-0.00529408 0.00287474 0)
(-0.00618399 0.00309636 0)
(-0.00713034 0.00329924 0)
(-0.00812816 0.00348252 0)
(-0.00917222 0.00364561 0)
(-0.0102571 0.00378815 0)
(-0.0113774 0.00390996 0)
(-0.0125273 0.00401105 0)
(-0.0137014 0.00409153 0)
(-0.014894 0.00415162 0)
(-0.0160995 0.00419165 0)
(-0.0173125 0.00421201 0)
(-0.0185275 0.00421315 0)
(-0.0197393 0.00419558 0)
(-0.0209428 0.00415984 0)
(-0.0221327 0.00410652 0)
(-0.0233045 0.00403624 0)
(-0.0244532 0.00394964 0)
(-0.0255744 0.00384737 0)
(-0.0266638 0.00373012 0)
(-0.0277171 0.00359859 0)
(-0.0287305 0.00345347 0)
(-0.0297001 0.00329549 0)
(-0.0306224 0.00312538 0)
(-0.0314941 0.00294387 0)
(-0.0323119 0.00275171 0)
(-0.033073 0.00254966 0)
(-0.0337746 0.00233848 0)
(-0.0344143 0.00211893 0)
(-0.0349897 0.00189179 0)
(-0.0354988 0.00165786 0)
(-0.0359399 0.00141793 0)
(-0.0363111 0.00117279 0)
(-0.0366114 0.000923269 0)
(-0.0368394 0.000670184 0)
(-0.0369943 0.000414369 0)
(-0.0370755 0.000156668 0)
(-0.0370825 -0.000102066 0)
(-0.0370153 -0.000360967 0)
(-0.0368738 -0.00061916 0)
(-0.0366585 -0.00087576 0)
(-0.03637 -0.00112987 0)
(-0.036009 -0.00138059 0)
(-0.0355768 -0.001627 0)
(-0.0350747 -0.00186819 0)
(-0.0345043 -0.00210323 0)
(-0.0338675 -0.00233119 0)
(-0.0331665 -0.00255113 0)
(-0.0324038 -0.00276212 0)
(-0.031582 -0.00296324 0)
(-0.0307041 -0.00315355 0)
(-0.0297733 -0.00333214 0)
(-0.028793 -0.00349809 0)
(-0.027767 -0.00365053 0)
(-0.0266992 -0.00378856 0)
(-0.0255939 -0.00391135 0)
(-0.0244553 -0.00401806 0)
(-0.0232883 -0.00410791 0)
(-0.0220975 -0.00418013 0)
(-0.0208882 -0.00423403 0)
(-0.0196654 -0.00426893 0)
(-0.0184346 -0.00428424 0)
(-0.0172013 -0.00427942 0)
(-0.0159712 -0.00425399 0)
(-0.01475 -0.00420757 0)
(-0.0135436 -0.00413987 0)
(-0.0123577 -0.00405071 0)
(-0.0111983 -0.00394001 0)
(-0.0100712 -0.00380785 0)
(-0.00898213 -0.00365445 0)
(-0.00793676 -0.00348022 0)
(-0.00694051 -0.00328579 0)
(-0.00599859 -0.00307203 0)
(-0.00511589 -0.00284012 0)
(-0.00429687 -0.0025916 0)
(-0.00354553 -0.00232842 0)
(-0.00286524 -0.0020531 0)
(-0.00225865 -0.0017688 0)
(-0.00172757 -0.00147948 0)
(-0.00127275 -0.00119012 0)
(-0.000893822 -0.000906939 0)
(-0.000589019 -0.000637721 0)
(-0.000355076 -0.000392163 0)
(-0.000186964 -0.00018234 0)
(-7.76341e-05 -2.31485e-05 0)
(-1.84861e-05 6.70786e-05 0)
(-1.60558e-07 6.41645e-05 0)
(-4.11575e-06 -4.09189e-05 0)
(-4.24229e-05 1.35671e-05 0)
(-0.000142571 0.000170264 0)
(-0.000308568 0.000403226 0)
(-0.00054602 0.000691641 0)
(-0.00086036 0.00101836 0)
(-0.00125517 0.00136943 0)
(-0.00173246 0.00173357 0)
(-0.00229286 0.00210173 0)
(-0.00293581 0.00246667 0)
(-0.00365965 0.0028226 0)
(-0.0044618 0.00316495 0)
(-0.00533886 0.00349011 0)
(-0.00628679 0.00379529 0)
(-0.00730097 0.00407833 0)
(-0.00837635 0.00433761 0)
(-0.00950752 0.00457195 0)
(-0.0106888 0.00478054 0)
(-0.0119143 0.00496285 0)
(-0.0131779 0.00511862 0)
(-0.0144737 0.00524778 0)
(-0.0157953 0.00535044 0)
(-0.0171367 0.00542684 0)
(-0.0184918 0.00547735 0)
(-0.0198544 0.00550246 0)
(-0.0212187 0.00550271 0)
(-0.0225788 0.00547873 0)
(-0.023929 0.00543122 0)
(-0.0252637 0.0053609 0)
(-0.0265776 0.00526857 0)
(-0.0278654 0.00515504 0)
(-0.029122 0.00502115 0)
(-0.0303428 0.00486778 0)
(-0.031523 0.00469583 0)
(-0.0326583 0.0045062 0)
(-0.0337444 0.00429983 0)
(-0.0347774 0.00407766 0)
(-0.0357536 0.00384065 0)
(-0.0366693 0.00358977 0)
(-0.0375215 0.003326 0)
(-0.038307 0.00305034 0)
(-0.0390231 0.00276378 0)
(-0.0396672 0.00246734 0)
(-0.0402371 0.00216205 0)
(-0.0407306 0.00184895 0)
(-0.0411461 0.00152908 0)
(-0.041482 0.00120351 0)
(-0.0417371 0.000873315 0)
(-0.0419103 0.000539574 0)
(-0.042001 0.000203394 0)
(-0.0420088 -0.000134111 0)
(-0.0419333 -0.000471815 0)
(-0.0417749 -0.000808575 0)
(-0.0415337 -0.00114324 0)
(-0.0412107 -0.00147464 0)
(-0.0408065 -0.00180159 0)
(-0.0403227 -0.00212292 0)
(-0.0397606 -0.00243742 0)
(-0.0391221 -0.0027439 0)
(-0.0384093 -0.00304113 0)
(-0.0376247 -0.00332792 0)
(-0.0367709 -0.00360304 0)
(-0.0358509 -0.0038653 0)
(-0.0348681 -0.0041135 0)
(-0.033826 -0.00434644 0)
(-0.0327285 -0.00456295 0)
(-0.0315796 -0.00476188 0)
(-0.0303838 -0.0049421 0)
(-0.0291457 -0.00510252 0)
(-0.0278703 -0.00524208 0)
(-0.0265626 -0.00535975 0)
(-0.0252281 -0.00545458 0)
(-0.0238723 -0.00552566 0)
(-0.022501 -0.00557215 0)
(-0.0211202 -0.00559329 0)
(-0.019736 -0.00558839 0)
(-0.0183546 -0.00555689 0)
(-0.0169823 -0.0054983 0)
(-0.0156256 -0.00541229 0)
(-0.0142909 -0.00529865 0)
(-0.0129846 -0.00515732 0)
(-0.0117132 -0.00498845 0)
(-0.0104828 -0.00479237 0)
(-0.00929976 -0.00456965 0)
(-0.00816994 -0.00432116 0)
(-0.00709901 -0.00404807 0)
(-0.0060923 -0.00375192 0)
(-0.00515469 -0.00343473 0)
(-0.00429054 -0.00309904 0)
(-0.00350358 -0.00274803 0)
(-0.00279678 -0.00238566 0)
(-0.00217224 -0.00201686 0)
(-0.00163108 -0.00164768 0)
(-0.00117326 -0.00128559 0)
(-0.000797475 -0.00093977 0)
(-0.00050103 -0.000621466 0)
(-0.000279611 -0.000344461 0)
(-0.000127064 -0.000125483 0)
(-3.67576e-05 1.51959e-05 0)
(-3.19791e-06 5.13384e-05 0)
(-7.20967e-06 -1.5547e-05 0)
(-6.15469e-05 9.86142e-05 0)
(-0.000194847 0.000322924 0)
(-0.000406967 0.000630105 0)
(-0.000701238 0.000997938 0)
(-0.00108191 0.00140784 0)
(-0.00155161 0.00184443 0)
(-0.00211151 0.0022951 0)
(-0.00276163 0.00274958 0)
(-0.00350085 0.00319949 0)
(-0.00432708 0.00363808 0)
(-0.0052373 0.00405991 0)
(-0.00622774 0.00446065 0)
(-0.00729397 0.00483689 0)
(-0.00843098 0.00518596 0)
(-0.00963332 0.00550583 0)
(-0.0108951 0.005795 0)
(-0.0122104 0.0060524 0)
(-0.0135726 0.00627733 0)
(-0.0149754 0.00646939 0)
(-0.0164121 0.00662846 0)
(-0.0178761 0.00675462 0)
(-0.0193608 0.00684812 0)
(-0.0208595 0.00690939 0)
(-0.0223657 0.00693899 0)
(-0.023873 0.00693756 0)
(-0.0253748 0.00690588 0)
(-0.0268652 0.00684476 0)
(-0.0283379 0.00675512 0)
(-0.0297872 0.00663791 0)
(-0.0312074 0.00649413 0)
(-0.032593 0.00632485 0)
(-0.0339386 0.00613113 0)
(-0.0352394 0.00591409 0)
(-0.0364903 0.00567487 0)
(-0.037687 0.00541463 0)
(-0.038825 0.00513455 0)
(-0.0399002 0.00483584 0)
(-0.0409088 0.0045197 0)
(-0.0418473 0.00418736 0)
(-0.0427123 0.00384009 0)
(-0.0435008 0.00347913 0)
(-0.0442099 0.00310576 0)
(-0.0448373 0.00272127 0)
(-0.0453806 0.00232698 0)
(-0.0458379 0.00192419 0)
(-0.0462076 0.00151425 0)
(-0.0464884 0.0010985 0)
(-0.046679 0.000678328 0)
(-0.0467788 0.000255104 0)
(-0.0467873 -0.000169765 0)
(-0.0467042 -0.000594861 0)
(-0.0465297 -0.00101875 0)
(-0.0462643 -0.00143998 0)
(-0.0459087 -0.00185708 0)
(-0.0454638 -0.00226859 0)
(-0.0449312 -0.00267299 0)
(-0.0443125 -0.00306881 0)
(-0.0436097 -0.00345451 0)
(-0.0428251 -0.0038286 0)
(-0.0419613 -0.00418956 0)
(-0.0410214 -0.00453586 0)
(-0.0400086 -0.004866 0)
(-0.0389265 -0.00517848 0)
(-0.037779 -0.00547182 0)
(-0.0365703 -0.00574455 0)
(-0.0353049 -0.00599523 0)
(-0.0339875 -0.00622247 0)
(-0.0326234 -0.0064249 0)
(-0.0312178 -0.0066012 0)
(-0.0297764 -0.00675011 0)
(-0.0283049 -0.00687045 0)
(-0.0268095 -0.0069611 0)
(-0.0252964 -0.00702102 0)
(-0.0237722 -0.00704929 0)
(-0.0222434 -0.00704508 0)
(-0.0207168 -0.0070077 0)
(-0.0191993 -0.00693659 0)
(-0.0176979 -0.00683135 0)
(-0.0162194 -0.00669176 0)
(-0.0147709 -0.0065178 0)
(-0.0133593 -0.00630968 0)
(-0.0119914 -0.00606787 0)
(-0.0106738 -0.00579314 0)
(-0.00941287 -0.00548658 0)
(-0.00821481 -0.00514971 0)
(-0.00708534 -0.00478447 0)
(-0.00602975 -0.00439338 0)
(-0.00505277 -0.00397956 0)
(-0.00415852 -0.00354689 0)
(-0.00335034 -0.00310015 0)
(-0.00263074 -0.00264518 0)
(-0.00200124 -0.0021891 0)
(-0.00146229 -0.00174054 0)
(-0.00101318 -0.00130996 0)
(-0.000651962 -0.000910004 0)
(-0.0003752 -0.000555909 0)
(-0.000177815 -0.000265905 0)
(-5.53207e-05 -6.17355e-05 0)
(-6.20802e-06 2.89995e-05 0)
(-1.02264e-05 1.96056e-05 0)
(-8.05618e-05 0.000209832 0)
(-0.000247316 0.000515639 0)
(-0.000506236 0.000908947 0)
(-0.000858324 0.00136656 0)
(-0.00130657 0.00186876 0)
(-0.00185249 0.00239902 0)
(-0.00249635 0.00294358 0)
(-0.00323738 0.00349108 0)
(-0.00407385 0.00403213 0)
(-0.00500311 0.00455906 0)
(-0.00602167 0.00506564 0)
(-0.00712532 0.0055468 0)
(-0.00830919 0.00599855 0)
(-0.00956787 0.00641769 0)
(-0.0108955 0.00680179 0)
(-0.0122858 0.00714901 0)
(-0.0137323 0.00745801 0)
(-0.0152282 0.0077279 0)
(-0.0167665 0.00795816 0)
(-0.0183403 0.00814857 0)
(-0.0199424 0.00829918 0)
(-0.0215657 0.00841026 0)
(-0.0232031 0.00848229 0)
(-0.0248477 0.00851588 0)
(-0.0264924 0.00851181 0)
(-0.0281306 0.00847097 0)
(-0.0297554 0.00839434 0)
(-0.0313605 0.00828298 0)
(-0.0329395 0.00813806 0)
(-0.0344863 0.00796077 0)
(-0.035995 0.00775238 0)
(-0.0374599 0.00751419 0)
(-0.0388756 0.00724755 0)
(-0.0402369 0.00695384 0)
(-0.0415389 0.00663447 0)
(-0.0427769 0.00629088 0)
(-0.0439465 0.00592452 0)
(-0.0450435 0.00553688 0)
(-0.0460641 0.00512946 0)
(-0.0470047 0.00470379 0)
(-0.047862 0.0042614 0)
(-0.048633 0.00380385 0)
(-0.0493151 0.00333273 0)
(-0.0499057 0.00284962 0)
(-0.0504029 0.00235616 0)
(-0.0508048 0.00185396 0)
(-0.05111 0.00134469 0)
(-0.0513173 0.000830018 0)
(-0.0514259 0.000311643 0)
(-0.0514351 -0.000208723 0)
(-0.051345 -0.000729344 0)
(-0.0511555 -0.00124847 0)
(-0.0508671 -0.00176432 0)
(-0.0504807 -0.00227511 0)
(-0.0499974 -0.00277903 0)
(-0.0494187 -0.00327426 0)
(-0.0487463 -0.00375898 0)
(-0.0479826 -0.00423133 0)
(-0.0471299 -0.00468948 0)
(-0.0461911 -0.00513157 0)
(-0.0451694 -0.00555577 0)
(-0.0440684 -0.00596023 0)
(-0.0428919 -0.00634314 0)
(-0.0416441 -0.00670268 0)
(-0.0403296 -0.00703708 0)
(-0.0389532 -0.0073446 0)
(-0.0375201 -0.00762354 0)
(-0.0360357 -0.00787225 0)
(-0.0345058 -0.00808914 0)
(-0.0329364 -0.0082727 0)
(-0.0313338 -0.00842148 0)
(-0.0297045 -0.00853414 0)
(-0.0280554 -0.00860947 0)
(-0.0263932 -0.00864634 0)
(-0.0247252 -0.00864377 0)
(-0.0230587 -0.00860097 0)
(-0.0214008 -0.00851727 0)
(-0.0197592 -0.00839223 0)
(-0.0181412 -0.00822561 0)
(-0.0165543 -0.00801745 0)
(-0.015006 -0.00776803 0)
(-0.0135033 -0.00747795 0)
(-0.0120536 -0.0071482 0)
(-0.0106636 -0.00678014 0)
(-0.00933984 -0.00637561 0)
(-0.00808854 -0.005937 0)
(-0.00691539 -0.00546732 0)
(-0.00582554 -0.00497028 0)
(-0.00482352 -0.00445047 0)
(-0.0039131 -0.00391345 0)
(-0.00309725 -0.00336597 0)
(-0.00237801 -0.00281612 0)
(-0.00175643 -0.00227363 0)
(-0.00123249 -0.00175012 0)
(-0.000805114 -0.00125942 0)
(-0.000471875 -0.000818009 0)
(-0.000228869 -0.0004453 0)
(-7.38111e-05 -0.000164105 0)
(-9.14104e-06 -2.84453e-06 0)
(-1.31399e-05 6.43855e-05 0)
(-9.9263e-05 0.000347154 0)
(-0.000299349 0.00074859 0)
(-0.000605169 0.00124024 0)
(-0.00101543 0.00179824 0)
(-0.0015318 0.00240204 0)
(-0.00215465 0.00303419 0)
(-0.0028832 0.00367998 0)
(-0.00371586 0.00432708 0)
(-0.00465017 0.00496523 0)
(-0.00568285 0.00558591 0)
(-0.00680988 0.00618213 0)
(-0.00802653 0.00674818 0)
(-0.00932748 0.00727945 0)
(-0.0107069 0.00777228 0)
(-0.0121585 0.0082238 0)
(-0.0136755 0.00863183 0)
(-0.0152512 0.00899479 0)
(-0.0168781 0.00931158 0)
(-0.0185491 0.00958153 0)
(-0.0202567 0.00980434 0)
(-0.0219932 0.00998003 0)
(-0.0237513 0.0101089 0)
(-0.0255233 0.0101914 0)
(-0.0273019 0.0102283 0)
(-0.0290796 0.0102204 0)
(-0.0308492 0.0101689 0)
(-0.0326038 0.0100747 0)
(-0.0343362 0.00993919 0)
(-0.03604 0.0097637 0)
(-0.0377084 0.00954964 0)
(-0.0393353 0.00929849 0)
(-0.0409147 0.0090118 0)
(-0.0424406 0.00869116 0)
(-0.0439076 0.00833821 0)
(-0.0453105 0.00795462 0)
(-0.0466442 0.00754211 0)
(-0.0479039 0.00710241 0)
(-0.0490854 0.00663729 0)
(-0.0501845 0.00614855 0)
(-0.0511974 0.00563799 0)
(-0.0521204 0.00510747 0)
(-0.0529506 0.00455884 0)
(-0.0536849 0.00399399 0)
(-0.0543209 0.00341484 0)
(-0.0548562 0.00282331 0)
(-0.0552889 0.00222137 0)
(-0.0556176 0.00161098 0)
(-0.0558409 0.00099416 0)
(-0.055958 0.000372929 0)
(-0.0559682 -0.00025066 0)
(-0.0558715 -0.000874534 0)
(-0.0556678 -0.0014966 0)
(-0.0553578 -0.00211473 0)
(-0.0549423 -0.00272679 0)
(-0.0544225 -0.00333063 0)
(-0.0538 -0.00392407 0)
(-0.0530768 -0.00450492 0)
(-0.0522551 -0.005071 0)
(-0.0513376 -0.0056201 0)
(-0.0503273 -0.00615001 0)
(-0.0492278 -0.00665855 0)
(-0.0480427 -0.00714352 0)