/*--------------------------------*- C++ -*----------------------------------*\
| =========                 |                                                 |
| \\      /  F ield         | OpenFOAM: The Open Source CFD Toolbox           |
|  \\    /   O peration     | Version:  2212                                  |
|   \\  /    A nd           | Website:  www.openfoam.com                      |
|    \\/     M anipulation  |                                                 |
\*---------------------------------------------------------------------------*/
FoamFile
{
    version     2.0;
    format      ascii;
    arch        "LSB;label=32;scalar=64";
    class       surfaceScalarField;
    location    "0.0445";
    object      phi_0;
}
// * * * * * * * * * * * * * * * * * * * * * * * * * * * * * * * * * * * * * //

dimensions      [0 3 -1 0 0 0 0];

oriented        oriented;

internalField   nonuniform List<scalar> 
19800
(
6.36991e-11
-6.37535e-11
2.10528e-10
-1.46825e-10
3.65679e-10
-1.55132e-10
4.81655e-10
-1.15984e-10
5.30998e-10
-4.93382e-11
4.98247e-10
3.27513e-11
3.75716e-10
1.22526e-10
1.60781e-10
2.14943e-10
-1.46006e-10
3.06792e-10
-5.42002e-10
3.96004e-10
-1.02324e-09
4.81242e-10
-1.58487e-09
5.61627e-10
-2.22144e-09
6.36571e-10
-2.92717e-09
7.05726e-10
-3.69605e-09
7.68884e-10
-4.52197e-09
8.25928e-10
-5.39879e-09
8.76823e-10
-6.32035e-09
9.21565e-10
-7.28058e-09
9.60228e-10
-8.27349e-09
9.92907e-10
-9.29323e-09
1.01973e-09
-1.03341e-08
1.04084e-09
-1.13905e-08
1.05639e-09
-1.2457e-08
1.06654e-09
-1.35285e-08
1.07145e-09
-1.45998e-08
1.07131e-09
-1.56661e-08
1.06631e-09
-1.67227e-08
1.05664e-09
-1.77652e-08
1.04247e-09
-1.87892e-08
1.024e-09
-1.97906e-08
1.00141e-09
-2.07655e-08
9.74897e-10
-2.17101e-08
9.44642e-10
-2.2621e-08
9.10845e-10
-2.34947e-08
8.73703e-10
-2.43281e-08
8.33397e-10
-2.51182e-08
7.90115e-10
-2.58623e-08
7.44046e-10
-2.65577e-08
6.95379e-10
-2.7202e-08
6.44299e-10
-2.77929e-08
5.9099e-10
-2.83286e-08
5.35647e-10
-2.88071e-08
4.78457e-10
-2.92267e-08
4.19609e-10
-2.95859e-08
3.59289e-10
-2.98836e-08
2.97684e-10
-3.01186e-08
2.34997e-10
-3.02901e-08
1.71426e-10
-3.03972e-08
1.07157e-10
-3.04396e-08
4.24009e-11
-3.0417e-08
-2.26379e-11
-3.03292e-08
-8.77662e-11
-3.01764e-08
-1.5277e-10
-2.9959e-08
-2.17431e-10
-2.96775e-08
-2.81546e-10
-2.93326e-08
-3.44895e-10
-2.89253e-08
-4.07244e-10
-2.84569e-08
-4.68373e-10
-2.79289e-08
-5.28062e-10
-2.73428e-08
-5.86073e-10
-2.67007e-08
-6.42165e-10
-2.60046e-08
-6.96105e-10
-2.52569e-08
-7.47663e-10
-2.44603e-08
-7.96599e-10
-2.36176e-08
-8.42667e-10
-2.2732e-08
-8.85627e-10
-2.18068e-08
-9.25244e-10
-2.08455e-08
-9.61271e-10
-1.9852e-08
-9.93468e-10
-1.88304e-08
-1.02162e-09
-1.77849e-08
-1.04551e-09
-1.672e-08
-1.0649e-09
-1.56405e-08
-1.07957e-09
-1.45511e-08
-1.08931e-09
-1.34572e-08
-1.09394e-09
-1.23639e-08
-1.09327e-09
-1.12768e-08
-1.08709e-09
-1.02016e-08
-1.07526e-09
-9.14391e-09
-1.05766e-09
-8.10978e-09
-1.03413e-09
-7.10521e-09
-1.00457e-09
-6.13631e-09
-9.68884e-10
-5.20929e-09
-9.27024e-10
-4.33034e-09
-8.78958e-10
-3.50565e-09
-8.24694e-10
-2.74134e-09
-7.64299e-10
-2.04343e-09
-6.97913e-10
-1.41769e-09
-6.25744e-10
-8.69593e-10
-5.48097e-10
-4.04163e-10
-4.65424e-10
-2.57684e-11
-3.78389e-10
2.62185e-10
-2.87958e-10
4.577e-10
-1.95522e-10
5.60884e-10
-1.03183e-10
5.75062e-10
-1.41685e-11
5.08586e-10
6.64772e-11
3.7777e-10
1.30807e-10
2.11841e-10
1.65924e-10
6.15281e-11
1.50319e-10
6.15267e-11
1.5178e-10
-2.15534e-10
4.0581e-10
-4.00855e-10
6.35818e-10
-3.85128e-10
7.55913e-10
-2.36075e-10
7.07086e-10
-5.15075e-13
4.51641e-10
2.88203e-10
-3.20272e-11
6.06182e-10
-7.53919e-10
9.36817e-10
-1.71578e-09
1.26865e-09
-2.91353e-09
1.59375e-09
-4.33896e-09
1.90668e-09
-5.98096e-09
2.20363e-09
-7.82641e-09
2.48202e-09
-9.86078e-09
2.74009e-09
-1.20686e-08
2.97669e-09
-1.44338e-08
3.19113e-09
-1.694e-08
3.38302e-09
-1.95707e-08
3.55223e-09
-2.23093e-08
3.69883e-09
-2.51394e-08
3.82305e-09
-2.80449e-08
3.92523e-09
-3.10098e-08
4.00581e-09
-3.40187e-08
4.06528e-09
-3.70564e-08
4.10421e-09
-4.01081e-08
4.12318e-09
-4.31596e-08
4.12284e-09
-4.61972e-08
4.10386e-09
-4.92074e-08
4.0669e-09
-5.21776e-08
4.01267e-09
-5.50955e-08
3.94188e-09
-5.79494e-08
3.85523e-09
-6.07279e-08
3.75344e-09
-6.34205e-08
3.63723e-09
-6.6017e-08
3.50733e-09
-6.85077e-08
3.36447e-09
-7.08837e-08
3.20937e-09
-7.31363e-08
3.04275e-09
-7.52576e-08
2.86535e-09
-7.72402e-08
2.6779e-09
-7.9077e-08
2.48111e-09
-8.07617e-08
2.27571e-09
-8.22885e-08
2.06242e-09
-8.3652e-08
1.842e-09
-8.48476e-08
1.61517e-09
-8.5871e-08
1.38267e-09
-8.67185e-08
1.14524e-09
-8.73872e-08
9.03638e-10
-8.78744e-08
6.58621e-10
-8.81781e-08
4.10955e-10
-8.82972e-08
1.61416e-10
-8.82306e-08
-8.91904e-11
-8.79783e-08
-3.40069e-10
-8.75406e-08
-5.90428e-10
-8.69186e-08
-8.39441e-10
-8.61139e-08
-1.08627e-09
-8.51287e-08
-1.33007e-09
-8.3966e-08
-1.56997e-09
-8.26293e-08
-1.80512e-09
-8.11227e-08
-2.03463e-09
-7.94512e-08
-2.25761e-09
-7.76202e-08
-2.47316e-09
-7.56359e-08
-2.68037e-09
-7.35053e-08
-2.87834e-09
-7.12357e-08
-3.06614e-09
-6.88355e-08
-3.24288e-09
-6.63135e-08
-3.40762e-09
-6.36793e-08
-3.55944e-09
-6.09432e-08
-3.69745e-09
-5.81159e-08
-3.82076e-09
-5.5209e-08
-3.9285e-09
-5.22347e-08
-4.01982e-09
-4.92057e-08
-4.09388e-09
-4.61354e-08
-4.14987e-09
-4.30377e-08
-4.18703e-09
-3.99271e-08
-4.20461e-09
-3.68184e-08
-4.20193e-09
-3.37271e-08
-4.17836e-09
-3.0669e-08
-4.13334e-09
-2.76604e-08
-4.06635e-09
-2.47175e-08
-3.97697e-09
-2.18572e-08
-3.86486e-09
-1.90963e-08
-3.72977e-09
-1.64518e-08
-3.57159e-09
-1.39404e-08
-3.39034e-09
-1.15788e-08
-3.18623e-09
-9.38344e-09
-2.95971e-09
-7.36988e-09
-2.71147e-09
-5.55306e-09
-2.44256e-09
-3.94669e-09
-2.15448e-09
-2.5628e-09
-1.84932e-09
-1.41118e-09
-1.53001e-09
-4.98504e-10
-1.20064e-09
1.72905e-10
-8.66927e-10
6.06729e-10
-5.37002e-10
8.15065e-10
-2.22507e-10
8.2181e-10
5.97223e-11
6.67255e-10
2.85354e-10
4.13675e-10
4.19507e-10
1.50255e-10
4.13732e-10
2.11774e-10
1.65347e-10
-3.80862e-10
4.04332e-10
-6.39829e-10
5.62284e-10
-5.4307e-10
5.34346e-10
-2.08136e-10
2.45884e-10
2.87969e-10
-3.53373e-10
8.87454e-10
-1.29419e-09
1.54699e-09
-2.59233e-09
2.23498e-09
-4.2522e-09
2.92851e-09
-6.2696e-09
3.61116e-09
-8.63401e-09
4.27109e-09
-1.13302e-08
4.89981e-09
-1.43394e-08
5.49129e-09
-1.76406e-08
6.04128e-09
-2.12108e-08
6.54686e-09
-2.50258e-08
7.00615e-09
-2.90608e-08
7.418e-09
-3.32904e-08
7.78184e-09
-3.76892e-08
8.09758e-09
-4.22316e-08
8.3655e-09
-4.68926e-08
8.58615e-09
-5.16471e-08
8.7603e-09
-5.64707e-08
8.88891e-09
-6.13396e-08
8.97308e-09
-6.62304e-08
9.01399e-09
-7.11205e-08
9.01297e-09
-7.59881e-08
8.97139e-09
-8.08118e-08
8.89066e-09
-8.55714e-08
8.77226e-09
-9.02472e-08
8.61768e-09
-9.48204e-08
8.42846e-09
-9.92731e-08
8.20614e-09
-1.03588e-07
7.95228e-09
-1.07749e-07
7.66845e-09
-1.11741e-07
7.35622e-09
-1.15549e-07
7.01717e-09
-1.19159e-07
6.65289e-09
-1.22559e-07
6.26497e-09
-1.25736e-07
5.855e-09
-1.28679e-07
5.42457e-09
-1.31379e-07
4.97527e-09
-1.33825e-07
4.5087e-09
-1.3601e-07
4.02648e-09
-1.37925e-07
3.53022e-09
-1.39563e-07
3.02155e-09
-1.4092e-07
2.50211e-09
-1.4199e-07
1.97357e-09
-1.42769e-07
1.43758e-09
-1.43254e-07
8.95834e-10
-1.43443e-07
3.50044e-10
-1.43334e-07
-1.98051e-10
-1.42927e-07
-7.46693e-10
-1.42224e-07
-1.29411e-09
-1.41225e-07
-1.8385e-09
-1.39933e-07
-2.37804e-09
-1.38352e-07
-2.91086e-09
-1.36487e-07
-3.43508e-09
-1.34343e-07
-3.94881e-09
-1.31928e-07
-4.45012e-09
-1.29248e-07
-4.93706e-09
-1.26314e-07
-5.40767e-09
-1.23134e-07
-5.85997e-09
-1.1972e-07
-6.29199e-09
-1.16085e-07
-6.70175e-09
-1.12241e-07
-7.08723e-09
-1.08202e-07
-7.44645e-09
-1.03984e-07
-7.77746e-09
-9.96029e-08
-8.07829e-09
-9.50766e-08
-8.34702e-09
-9.04233e-08
-8.58178e-09
-8.56624e-08
-8.78074e-09
-8.08142e-08
-8.9421e-09
-7.58999e-08
-9.06415e-09
-7.09417e-08
-9.14525e-09
-6.59624e-08
-9.18386e-09
-6.09858e-08
-9.17856e-09
-5.60362e-08
-9.12801e-09
-5.11384e-08
-9.03107e-09
-4.63181e-08
-8.88672e-09
-4.16009e-08
-8.69415e-09
-3.7013e-08
-8.45271e-09
-3.25808e-08
-8.16206e-09
-2.83302e-08
-7.8221e-09
-2.42875e-08
-7.43311e-09
-2.0478e-08
-6.99576e-09
-1.69264e-08
-6.51125e-09
-1.36565e-08
-5.98142e-09
-1.06902e-08
-5.40887e-09
-8.04741e-09
-4.79723e-09
-5.74527e-09
-4.15146e-09
-3.79696e-09
-3.47831e-09
-2.21066e-09
-2.78693e-09
-9.87853e-10
-2.08973e-09
-1.21139e-10
-1.40371e-09
4.08535e-10
-7.5218e-10
6.35477e-10
-1.67219e-10
6.13656e-10
3.0718e-10
4.21446e-10
6.11716e-10
1.66431e-10
6.68735e-10
3.78206e-10
1.26493e-10
-5.07365e-10
2.60685e-10
-7.74011e-10
2.40913e-10
-5.23307e-10
-4.51861e-11
7.79315e-11
-6.78609e-10
9.21399e-10
-1.71538e-09
1.92422e-09
-3.19101e-09
3.02263e-09
-5.12459e-09
4.16855e-09
-7.52217e-09
5.32609e-09
-1.03796e-08
6.46856e-09
-1.36846e-08
7.57616e-09
-1.74191e-08
8.63432e-09
-2.15602e-08
9.63236e-09
-2.60815e-08
1.05626e-08
-3.09541e-08
1.14194e-08
-3.61472e-08
1.21993e-08
-4.16289e-08
1.28997e-08
-4.73664e-08
1.35193e-08
-5.33265e-08
1.40577e-08
-5.9476e-08
1.45149e-08
-6.57815e-08
1.48917e-08
-7.22103e-08
1.51891e-08
-7.87301e-08
1.54087e-08
-8.5309e-08
1.5552e-08
-9.19161e-08
1.56211e-08
-9.85211e-08
1.5618e-08
-1.05095e-07
1.55451e-08
-1.11609e-07
1.54047e-08
-1.18036e-07
1.51992e-08
-1.24349e-07
1.49312e-08
-1.30524e-07
1.46033e-08
-1.36536e-07
1.42181e-08
-1.42362e-07
1.37783e-08
-1.4798e-07
1.32865e-08
-1.53369e-07
1.27455e-08
-1.5851e-07
1.2158e-08
-1.63384e-07
1.15268e-08
-1.67974e-07
1.08545e-08
-1.72263e-07
1.01439e-08
-1.76236e-07
9.39788e-09
-1.7988e-07
8.6191e-09
-1.83181e-07
7.81038e-09
-1.86129e-07
6.97449e-09
-1.88713e-07
6.11427e-09
-1.90924e-07
5.23254e-09
-1.92754e-07
4.33216e-09
-1.94197e-07
3.41602e-09
-1.95246e-07
2.48703e-09
-1.95899e-07
1.54811e-09
-1.96151e-07
6.02266e-10
-1.96001e-07
-3.47508e-10
-1.9545e-07
-1.29815e-09
-1.94498e-07
-2.24657e-09
-1.93146e-07
-3.18964e-09
-1.914e-07
-4.12418e-09
-1.89264e-07
-5.04696e-09
-1.86744e-07
-5.95474e-09
-1.83849e-07
-6.84421e-09
-1.80587e-07
-7.71205e-09
-1.76969e-07
-8.55488e-09
-1.73008e-07
-9.36932e-09
-1.68716e-07
-1.0152e-08
-1.64108e-07
-1.08994e-08
-1.59202e-07
-1.16082e-08
-1.54014e-07
-1.22749e-08
-1.48565e-07
-1.28961e-08
-1.42874e-07
-1.34685e-08
-1.36963e-07
-1.39886e-08
-1.30857e-07
-1.44533e-08
-1.24579e-07
-1.48593e-08
-1.18157e-07
-1.52034e-08
-1.11616e-07
-1.54827e-08
-1.04986e-07
-1.56943e-08
-9.82958e-08
-1.58354e-08
-9.15764e-08
-1.59033e-08
-8.48591e-08
-1.58958e-08
-7.81764e-08
-1.58107e-08
-7.15614e-08
-1.56461e-08
-6.50479e-08
-1.54003e-08
-5.86699e-08
-1.50722e-08
-5.24618e-08
-1.46607e-08
-4.64582e-08
-1.41657e-08
-4.06933e-08
-1.3587e-08
-3.52009e-08
-1.29255e-08
-3.0014e-08
-1.21827e-08
-2.51644e-08
-1.13609e-08
-2.06821e-08
-1.04637e-08
-1.6595e-08
-9.49599e-09
-1.29278e-08
-8.46444e-09
-9.70127e-09
-7.37797e-09
-6.93117e-09
-6.24842e-09
-4.6266e-09
-5.0915e-09
-2.78833e-09
-3.928e-09
-1.40653e-09
-2.78551e-09
-4.58006e-10
-1.70071e-09
9.70503e-11
-7.22279e-10
3.18925e-10
8.53044e-11
2.92561e-10
6.38072e-10
1.32922e-10
8.28375e-10
5.11137e-10
5.9338e-11
-5.66701e-10
2.78629e-11
-7.42535e-10
-2.45645e-10
-2.49776e-10
-8.71151e-10
7.03441e-10
-1.9292e-09
1.97942e-09
-3.47636e-09
3.47138e-09
-5.54921e-09
5.09546e-09
-8.16769e-09
6.78703e-09
-1.13381e-08
8.49652e-09
-1.50557e-08
1.01862e-08
-1.93068e-08
1.18272e-08
-2.40706e-08
1.33981e-08
-2.93208e-08
1.48826e-08
-3.50268e-08
1.62686e-08
-4.11547e-08
1.75474e-08
-4.76684e-08
1.8713e-08
-5.45298e-08
1.97611e-08
-6.16998e-08
2.06893e-08
-6.91385e-08
2.14964e-08
-7.68059e-08
2.21823e-08
-8.46617e-08
2.27475e-08
-9.26662e-08
2.31936e-08
-1.0078e-07
2.35223e-08
-1.08964e-07
2.37361e-08
-1.1718e-07
2.38377e-08
-1.25392e-07
2.38301e-08
-1.33564e-07
2.37166e-08
-1.4166e-07
2.35006e-08
-1.49647e-07
2.31859e-08
-1.57492e-07
2.27762e-08
-1.65164e-07
2.22754e-08
-1.72633e-07
2.16873e-08
-1.79871e-07
2.1016e-08
-1.8685e-07
2.02656e-08
-1.93544e-07
1.94401e-08
-1.9993e-07
1.85437e-08
-2.05984e-07
1.75806e-08
-2.11684e-07
1.65548e-08
-2.17011e-07
1.54707e-08
-2.21945e-07
1.43324e-08
-2.2647e-07
1.31441e-08
-2.3057e-07
1.19101e-08
-2.3423e-07
1.06347e-08
-2.37438e-07
9.32216e-09
-2.40183e-07
7.97685e-09
-2.42454e-07
6.60314e-09
-2.44243e-07
5.20542e-09
-2.45544e-07
3.78815e-09
-2.46352e-07
2.35583e-09
-2.46663e-07
9.13032e-10
-2.46474e-07
-5.35645e-10
-2.45787e-07
-1.98554e-09
-2.44602e-07
-3.43193e-09
-2.42921e-07
-4.87001e-09
-2.40751e-07
-6.29494e-09
-2.38096e-07
-7.70181e-09
-2.34965e-07
-9.08565e-09
-2.31368e-07
-1.04414e-08
-2.27315e-07
-1.17641e-08
-2.22822e-07
-1.30485e-08
-2.17902e-07
-1.42895e-08
-2.12572e-07
-1.5482e-08
-2.0685e-07
-1.66206e-08
-2.00758e-07
-1.77003e-08
-1.94317e-07
-1.87159e-08
-1.87551e-07
-1.96621e-08
-1.80486e-07
-2.0534e-08
-1.73148e-07
-2.13264e-08
-1.65567e-07
-2.20344e-08
-1.57773e-07
-2.26532e-08
-1.49798e-07
-2.31781e-08
-1.41676e-07
-2.36046e-08
-1.33443e-07
-2.39283e-08
-1.25133e-07
-2.41452e-08
-1.16785e-07
-2.42514e-08
-1.08437e-07
-2.42436e-08
-1.00129e-07
-2.41184e-08
-9.19018e-08
-2.38734e-08
-8.3796e-08
-2.35061e-08
-7.58533e-08
-2.30149e-08
-6.81154e-08
-2.23987e-08
-6.06239e-08
-2.16572e-08
-5.34201e-08
-2.07908e-08
-4.65446e-08
-1.9801e-08
-4.00368e-08
-1.86905e-08
-3.39345e-08
-1.74633e-08
-2.8273e-08
-1.61251e-08
-2.30851e-08
-1.46839e-08
-1.83994e-08
-1.31502e-08
-1.42397e-08
-1.15376e-08
-1.0624e-08
-9.86412e-09
-7.56249e-09
-8.15306e-09
-5.05589e-09
-6.43459e-09
-3.0936e-09
-4.7478e-09
-1.651e-09
-3.14331e-09
-6.8673e-10
-1.68655e-09
-1.39483e-10
-4.61946e-10
7.55365e-11
4.23044e-10
7.13121e-11
8.32612e-10
5.82451e-10
-2.23816e-11
-5.44323e-10
-2.5748e-10
-5.07435e-10
-8.36492e-10
3.29232e-10
-1.85932e-09
1.72625e-09
-3.40059e-09
3.5207e-09
-5.51341e-09
5.58419e-09
-8.23223e-09
7.81429e-09
-1.15756e-08
1.01304e-08
-1.55485e-08
1.24695e-08
-2.01447e-08
1.47824e-08
-2.53486e-08
1.70311e-08
-3.11369e-08
1.91864e-08
-3.74802e-08
2.12258e-08
-4.43441e-08
2.31325e-08
-5.16907e-08
2.48939e-08
-5.94788e-08
2.65011e-08
-6.76653e-08
2.79476e-08
-7.62057e-08
2.92297e-08
-8.50542e-08
3.0345e-08
-9.41648e-08
3.12929e-08
-1.03491e-07
3.20739e-08
-1.12987e-07
3.26896e-08
-1.22607e-07
3.31423e-08
-1.32306e-07
3.3435e-08
-1.4204e-07
3.35714e-08
-1.51765e-07
3.35553e-08
-1.6144e-07
3.33912e-08
-1.71023e-07
3.30839e-08
-1.80475e-07
3.26383e-08
-1.89759e-07
3.20595e-08
-1.98836e-07
3.13528e-08
-2.07673e-07
3.05238e-08
-2.16234e-07
2.95779e-08
-2.2449e-07
2.85208e-08
-2.32408e-07
2.73583e-08
-2.3996e-07
2.6096e-08
-2.47119e-07
2.47399e-08
-2.5386e-07
2.32957e-08
-2.60159e-07
2.17693e-08
-2.65993e-07
2.01668e-08
-2.71343e-07
1.84939e-08
-2.7619e-07
1.67568e-08
-2.80516e-07
1.49614e-08
-2.84308e-07
1.31137e-08
-2.87551e-07
1.12201e-08
-2.90235e-07
9.28647e-09
-2.92348e-07
7.31916e-09
-2.93885e-07
5.32443e-09
-2.94837e-07
3.30864e-09
-2.95203e-07
1.27822e-09
-2.94978e-07
-7.60356e-10
-2.94163e-07
-2.8005e-09
-2.92759e-07
-4.83555e-09
-2.90771e-07
-6.85876e-09
-2.88202e-07
-8.86332e-09
-2.85062e-07
-1.08423e-08
-2.81359e-07
-1.27887e-08
-2.77105e-07
-1.46955e-08
-2.72313e-07
-1.65556e-08
-2.67e-07
-1.83618e-08
-2.61182e-07
-2.01068e-08
-2.54881e-07
-2.17835e-08
-2.48117e-07
-2.33844e-08
-2.40915e-07
-2.49025e-08
-2.33301e-07
-2.63304e-08
-2.25302e-07
-2.76609e-08
-2.16949e-07
-2.88869e-08
-2.08274e-07
-3.00015e-08
-1.9931e-07
-3.09977e-08
-1.90095e-07
-3.18689e-08
-1.80664e-07
-3.26086e-08
-1.71058e-07
-3.32104e-08
-1.61318e-07
-3.36686e-08
-1.51486e-07
-3.39774e-08
-1.41605e-07
-3.41318e-08
-1.31722e-07
-3.4127e-08
-1.21882e-07
-3.39588e-08
-1.12131e-07
-3.36236e-08
-1.02519e-07
-3.31185e-08
-9.30925e-08
-3.24414e-08
-8.39001e-08
-3.15911e-08
-7.49898e-08
-3.05675e-08
-6.6409e-08
-2.93715e-08
-5.82043e-08
-2.80057e-08
-5.04206e-08
-2.64742e-08
-4.31008e-08
-2.47831e-08
-3.6285e-08
-2.29409e-08
-3.001e-08
-2.09589e-08
-2.43081e-08
-1.88521e-08
-1.92059e-08
-1.66398e-08
-1.47235e-08
-1.43465e-08
-1.08727e-08
-1.20039e-08
-7.6554e-09
-9.6519e-09
-5.06179e-09
-7.34142e-09
-3.06824e-09
-5.13686e-09
-1.63503e-09
-3.11975e-09
-7.03925e-10
-1.39306e-09
-1.95439e-10
-8.54434e-11
-5.67631e-12
6.42856e-10
5.7677e-10
-1.11007e-10
-4.33318e-10
-5.71861e-10
-4.6591e-11
-1.48942e-09
1.24679e-09
-2.94876e-09
3.1856e-09
-5.0147e-09
5.58663e-09
-7.73356e-09
8.30306e-09
-1.11351e-08
1.12158e-08
-1.52344e-08
1.42297e-08
-2.00337e-08
1.72688e-08
-2.55242e-08
2.02729e-08
-3.16877e-08
2.31946e-08
-3.84981e-08
2.59969e-08
-4.59231e-08
2.86507e-08
-5.39246e-08
3.11341e-08
-6.2461e-08
3.34302e-08
-7.14867e-08
3.55269e-08
-8.09543e-08
3.74152e-08
-9.08141e-08
3.90895e-08
-1.01015e-07
4.05463e-08
-1.11507e-07
4.17843e-08
-1.22237e-07
4.28037e-08
-1.33153e-07
4.36061e-08
-1.44205e-07
4.41942e-08
-1.55342e-07
4.45716e-08
-1.66513e-07
4.47428e-08
-1.77671e-07
4.47129e-08
-1.88767e-07
4.44873e-08
-1.99755e-07
4.40723e-08
-2.10591e-07
4.3474e-08
-2.21231e-07
4.26993e-08
-2.31633e-07
4.17551e-08
-2.41758e-07
4.06485e-08
-2.51567e-07
3.93867e-08
-2.61023e-07
3.79773e-08
-2.70093e-07
3.64278e-08
-2.78742e-07
3.47457e-08
-2.86941e-07
3.29388e-08
-2.9466e-07
3.10148e-08
-3.01873e-07
2.89816e-08
-3.08553e-07
2.68469e-08
-3.14678e-07
2.46188e-08
-3.20226e-07
2.23052e-08
-3.25179e-07
1.99141e-08
-3.29519e-07
1.74536e-08
-3.3323e-07
1.49318e-08
-3.36301e-07
1.2357e-08
-3.38719e-07
9.73745e-09
-3.40476e-07
7.08152e-09
-3.41565e-07
4.39769e-09
-3.41982e-07
1.69452e-09
-3.41723e-07
-1.01933e-09
-3.40788e-07
-3.73512e-09
-3.3918e-07
-6.44396e-09
-3.36902e-07
-9.13688e-09
-3.3396e-07
-1.18048e-08
-3.30364e-07
-1.44385e-08
-3.26124e-07
-1.70288e-08
-3.21253e-07
-1.95662e-08
-3.15767e-07
-2.20413e-08
-3.09685e-07
-2.44446e-08
-3.03025e-07
-2.67665e-08
-2.95811e-07
-2.89973e-08
-2.88068e-07
-3.11275e-08
-2.79823e-07
-3.31475e-08
-2.71106e-07
-3.50476e-08
-2.61948e-07
-3.68185e-08
-2.52385e-07
-3.84506e-08
-2.42451e-07
-3.99349e-08
-2.32187e-07
-4.12622e-08
-2.21632e-07
-4.24237e-08
-2.1083e-07
-4.34111e-08
-1.99824e-07
-4.4216e-08
-1.88662e-07
-4.48309e-08
-1.77391e-07
-4.52484e-08
-1.66061e-07
-4.54619e-08
-1.54722e-07
-4.54652e-08
-1.43428e-07
-4.52532e-08
-1.32231e-07
-4.48211e-08
-1.21183e-07
-4.41657e-08
-1.10341e-07
-4.32842e-08
-9.97562e-08
-4.21755e-08
-8.94838e-08
-4.08398e-08
-7.95764e-08
-3.92789e-08
-7.00857e-08
-3.74964e-08
-6.10616e-08
-3.54983e-08
-5.25515e-08
-3.32931e-08
-4.46e-08
-3.08924e-08
-3.72475e-08
-2.83114e-08
-3.05296e-08
-2.55701e-08
-2.44759e-08
-2.26934e-08
-1.9109e-08
-1.97134e-08
-1.44431e-08
-1.66698e-08
-1.04822e-08
-1.36128e-08
-7.2189e-09
-1.06047e-08
-4.63271e-09
-7.72304e-09
-2.68815e-09
-5.06432e-09
-1.33312e-09
-2.74809e-09
-4.97295e-10
-9.21264e-10
-9.0441e-11
2.35997e-10
4.86328e-10
-2.02169e-10
-2.31148e-10
-9.00199e-10
6.51416e-10
-2.17578e-09
2.52237e-09
-4.09659e-09
5.1064e-09
-6.71491e-09
8.20496e-09
-1.0068e-08
1.16561e-08
-1.41787e-08
1.53266e-08
-1.9057e-08
1.9108e-08
-2.47009e-08
2.29127e-08
-3.10981e-08
2.667e-08
-3.8227e-08
3.03236e-08
-4.60585e-08
3.38284e-08
-5.45567e-08
3.7149e-08
-6.36804e-08
4.02578e-08
-7.33839e-08
4.31338e-08
-8.3618e-08
4.5761e-08
-9.43309e-08
4.81281e-08
-1.05469e-07
5.02272e-08
-1.16976e-07
5.20535e-08
-1.28796e-07
5.36048e-08
-1.40873e-07
5.48808e-08
-1.5315e-07
5.58832e-08
-1.65571e-07
5.66149e-08
-1.7808e-07
5.70801e-08
-1.90621e-07
5.72843e-08
-2.03142e-07
5.72334e-08
-2.15589e-07
5.69344e-08
-2.27911e-07
5.63946e-08
-2.40059e-07
5.5622e-08
-2.51985e-07
5.4625e-08
-2.63642e-07
5.34121e-08
-2.74986e-07
5.19925e-08
-2.85974e-07
5.03752e-08
-2.96566e-07
4.85697e-08
-3.06724e-07
4.65854e-08
-3.1641e-07
4.44321e-08
-3.25591e-07
4.21195e-08
-3.34234e-07
3.96575e-08
-3.42308e-07
3.70561e-08
-3.49786e-07
3.43252e-08
-3.56643e-07
3.14749e-08
-3.62853e-07
2.85156e-08
-3.68396e-07
2.54573e-08
-3.73253e-07
2.23104e-08
-3.77407e-07
1.90854e-08
-3.80842e-07
1.57928e-08
-3.83548e-07
1.24431e-08
-3.85514e-07
9.04707e-09
-3.86732e-07
5.61554e-09
-3.87196e-07
2.15947e-09
-3.86906e-07
-1.3101e-09
-3.85859e-07
-4.78195e-09
-3.84058e-07
-8.24476e-09
-3.81508e-07
-1.16871e-08
-3.78215e-07
-1.50972e-08
-3.7419e-07
-1.84636e-08
-3.69445e-07
-2.17743e-08
-3.63994e-07
-2.50173e-08
-3.57854e-07
-2.81807e-08
-3.51047e-07
-3.12522e-08
-3.43594e-07
-3.42197e-08
-3.3552e-07
-3.70711e-08
-3.26853e-07
-3.97939e-08
-3.17625e-07
-4.23761e-08
-3.07867e-07
-4.48055e-08
-2.97615e-07
-4.707e-08
-2.86908e-07
-4.91579e-08
-2.75786e-07
-5.10574e-08
-2.64291e-07
-5.27571e-08
-2.52468e-07
-5.42459e-08
-2.40366e-07
-5.55132e-08
-2.28034e-07
-5.65487e-08
-2.15522e-07
-5.73428e-08
-2.02884e-07
-5.78863e-08
-1.90175e-07
-5.81711e-08
-1.7745e-07
-5.81895e-08
-1.64768e-07
-5.79352e-08
-1.52187e-07
-5.74026e-08
-1.39765e-07
-5.65876e-08
-1.27562e-07
-5.54873e-08
-1.15637e-07
-5.41006e-08
-1.04049e-07
-5.2428e-08
-9.28553e-08
-5.04723e-08
-8.21131e-08
-4.82387e-08
-7.18764e-08
-4.5735e-08
-6.21972e-08
-4.29724e-08
-5.31237e-08
-3.99659e-08
-4.47001e-08
-3.6735e-08
-3.69655e-08
-3.33047e-08
-2.99526e-08
-2.97063e-08
-2.3687e-08
-2.59789e-08
-1.81859e-08
-2.21709e-08
-1.34568e-08
-1.8342e-08
-9.49604e-09
-1.45654e-08
-6.28792e-09
-1.09312e-08
-3.80324e-09
-7.54899e-09
-1.99844e-09
-4.55289e-09
-8.14835e-10
-2.10486e-09
-1.784e-10
-4.00442e-10
3.07936e-10
-2.93324e-10
6.21861e-11
-1.23307e-09
1.59116e-09
-2.87654e-09
4.16584e-09
-5.27304e-09
7.50291e-09
-8.46084e-09
1.13928e-08
-1.24664e-08
1.56616e-08
-1.73042e-08
2.01644e-08
-2.29777e-08
2.47814e-08
-2.94794e-08
2.94144e-08
-3.67924e-08
3.39831e-08
-4.48913e-08
3.84225e-08
-5.3743e-08
4.26801e-08
-6.33081e-08
4.67141e-08
-7.35418e-08
5.04915e-08
-8.43948e-08
5.39867e-08
-9.58139e-08
5.71801e-08
-1.07743e-07
6.00576e-08
-1.20125e-07
6.2609e-08
-1.329e-07
6.48281e-08
-1.46006e-07
6.67115e-08
-1.59384e-07
6.82586e-08
-1.72972e-07
6.94708e-08
-1.86708e-07
7.03513e-08
-2.00533e-07
7.09051e-08
-2.14387e-07
7.11381e-08
-2.28211e-07
7.10578e-08
-2.41949e-07
7.0672e-08
-2.55544e-07
6.99899e-08
-2.68943e-07
6.90209e-08
-2.82094e-07
6.77752e-08
-2.94945e-07
6.62632e-08
-3.07448e-07
6.44959e-08
-3.19558e-07
6.24846e-08
-3.31229e-07
6.02407e-08
-3.42419e-07
5.77759e-08
-3.53089e-07
5.51021e-08
-3.63201e-07
5.22314e-08
-3.72719e-07
4.91759e-08
-3.81611e-07
4.59479e-08
-3.89846e-07
4.25597e-08
-3.97395e-07
3.90239e-08
-4.04232e-07
3.53531e-08
-4.10335e-07
3.15599e-08
-4.15682e-07
2.76572e-08
-4.20254e-07
2.36578e-08
-4.24036e-07
1.95748e-08
-4.27014e-07
1.54213e-08
-4.29178e-07
1.12106e-08
-4.30518e-07
6.95606e-09
-4.3103e-07
2.6713e-09
-4.3071e-07
-1.63e-09
-4.29558e-07
-5.93394e-09
-4.27577e-07
-1.02265e-08
-4.2477e-07
-1.44935e-08
-4.21147e-07
-1.87206e-08
-4.16717e-07
-2.28933e-08
-4.11494e-07
-2.69969e-08
-4.05495e-07
-3.10166e-08
-3.98738e-07
-3.49377e-08
-3.91245e-07
-3.8745e-08
-3.83041e-07
-4.24236e-08
-3.74154e-07
-4.59584e-08
-3.64614e-07
-4.93343e-08
-3.54454e-07
-5.25363e-08
-3.4371e-07
-5.55495e-08
-3.32421e-07
-5.8359e-08
-3.20628e-07
-6.09503e-08
-3.08376e-07
-6.33091e-08
-2.95712e-07
-6.54214e-08
-2.82685e-07
-6.72736e-08
-2.69345e-07
-6.88527e-08
-2.55748e-07
-7.01462e-08
-2.41948e-07
-7.11424e-08
-2.28004e-07
-7.18303e-08
-2.13975e-07
-7.21998e-08
-1.99923e-07
-7.22421e-08
-1.85908e-07
-7.19494e-08
-1.71996e-07
-7.13151e-08
-1.58249e-07
-7.03346e-08
-1.44731e-07
-6.90047e-08
-1.31508e-07
-6.73243e-08
-1.18641e-07
-6.52947e-08
-1.06194e-07
-6.29194e-08
-9.42273e-08
-6.02053e-08
-8.27998e-08
-5.71624e-08
-7.19674e-08
-5.38048e-08
-6.17821e-08
-5.01511e-08
-5.2292e-08
-4.62252e-08
-4.35395e-08
-4.20572e-08
-3.55611e-08
-3.76847e-08
-2.83859e-08
-3.31541e-08
-2.2035e-08
-2.85218e-08
-1.65201e-08
-2.38569e-08
-1.18426e-08
-1.92429e-08
-7.99314e-09
-1.47807e-08
-4.95025e-09
-1.05919e-08
-2.68047e-09
-6.82266e-09
-1.13828e-09
-3.64705e-09
-2.66853e-10
-1.27187e-09
4.10888e-11
-3.83087e-10
4.45275e-10
-1.56465e-09
2.77272e-09
-3.57925e-09
6.18045e-09
-6.45791e-09
1.03816e-08
-1.02242e-08
1.51591e-08
-1.48928e-08
2.03302e-08
-2.04688e-08
2.57404e-08
-2.69478e-08
3.12604e-08
-3.43159e-08
3.67825e-08
-4.2551e-08
4.22181e-08
-5.16227e-08
4.74942e-08
-6.14938e-08
5.25512e-08
-7.21209e-08
5.73411e-08
-8.34551e-08
6.18258e-08
-9.54435e-08
6.5975e-08
-1.08029e-07
6.97657e-08
-1.21152e-07
7.31807e-08
-1.34751e-07
7.62077e-08
-1.48762e-07
7.88387e-08
-1.6312e-07
8.10695e-08
-1.7776e-07
8.28986e-08
-1.92616e-07
8.43274e-08
-2.07624e-07
8.53594e-08
-2.22719e-07
8.59999e-08
-2.37837e-07
8.62559e-08
-2.52915e-07
8.61359e-08
-2.67892e-07
8.56492e-08
-2.82708e-07
8.48062e-08
-2.97306e-07
8.36184e-08
-3.11628e-07
8.20975e-08
-3.25621e-07
8.02561e-08
-3.39233e-07
7.81073e-08
-3.52412e-07
7.56644e-08
-3.65113e-07
7.29411e-08
-3.77288e-07
6.99515e-08
-3.88896e-07
6.67099e-08
-3.99895e-07
6.32306e-08
-4.10248e-07
5.95284e-08
-4.19918e-07
5.56179e-08
-4.28872e-07
5.15143e-08
-4.37081e-07
4.72324e-08
-4.44515e-07
4.27876e-08
-4.51151e-07
3.81951e-08
-4.56964e-07
3.34704e-08
-4.61935e-07
2.8629e-08
-4.66047e-07
2.36868e-08
-4.69285e-07
1.86595e-08
-4.71638e-07
1.35633e-08
-4.73096e-07
8.41431e-09
-4.73654e-07
3.22897e-09
-4.73308e-07
-1.97618e-09
-4.72057e-07
-7.18437e-09
-4.69905e-07
-1.23786e-08
-4.66857e-07
-1.75419e-08
-4.6292e-07
-2.26568e-08
-4.58108e-07
-2.77058e-08
-4.52434e-07
-3.26713e-08
-4.45915e-07
-3.75354e-08
-4.38572e-07
-4.22803e-08
-4.30429e-07
-4.68879e-08
-4.21513e-07
-5.134e-08
-4.11852e-07
-5.56186e-08
-4.01481e-07
-5.97055e-08
-3.90435e-07
-6.35826e-08
-3.78752e-07
-6.72321e-08
-3.66475e-07
-7.06361e-08
-3.53648e-07
-7.37772e-08
-3.40319e-07
-7.66382e-08
-3.26538e-07
-7.92024e-08
-3.12358e-07
-8.14537e-08
-2.97834e-07
-8.33763e-08
-2.83025e-07
-8.49556e-08
-2.6799e-07
-8.61775e-08
-2.52791e-07
-8.7029e-08
-2.37493e-07
-8.74983e-08
-2.2216e-07
-8.75749e-08
-2.0686e-07
-8.72497e-08
-1.91659e-07
-8.65154e-08
-1.76628e-07
-8.53664e-08
-1.61833e-07
-8.37993e-08
-1.47344e-07
-8.18133e-08
-1.33229e-07
-7.94101e-08
-1.19553e-07
-7.65946e-08
-1.06384e-07
-7.33751e-08
-9.3782e-08
-6.97641e-08
-8.18083e-08
-6.57785e-08
-7.05187e-08
-6.14406e-08
-5.99651e-08
-5.67789e-08
-5.01937e-08
-5.18286e-08
-4.1245e-08
-4.66334e-08
-3.31523e-08
-4.12467e-08
-2.59413e-08
-3.57329e-08
-1.96288e-08
-3.01694e-08
-1.42223e-08
-2.46493e-08
-9.71975e-09
-1.92833e-08
-6.10856e-09
-1.42031e-08
-3.36639e-09
-9.56483e-09
-1.46149e-09
-5.55195e-09
-3.54254e-10
-2.37909e-09
-3.13168e-10
-4.70716e-10
9.15995e-10
-1.89147e-09
4.19347e-09
-4.27606e-09
8.56505e-09
-7.63792e-09
1.37434e-08
-1.19859e-08
1.9507e-08
-1.73223e-08
2.56667e-08
-2.3642e-08
3.20602e-08
-3.09322e-08
3.85505e-08
-3.91719e-08
4.50222e-08
-4.83326e-08
5.13788e-08
-5.83786e-08
5.75402e-08
-6.9268e-08
6.34405e-08
-8.09527e-08
6.90259e-08
-9.33801e-08
7.42531e-08
-1.06493e-07
7.90878e-08
-1.2023e-07
8.35032e-08
-1.34529e-07
8.74792e-08
-1.49323e-07
9.10015e-08
-1.64544e-07
9.40603e-08
-1.80125e-07
9.66503e-08
-1.95996e-07
9.87695e-08
-2.12087e-07
1.00419e-07
-2.2833e-07
1.01602e-07
-2.44656e-07
1.02326e-07
-2.60998e-07
1.02597e-07
-2.77288e-07
1.02426e-07
-2.93461e-07
1.01823e-07
-3.09455e-07
1.008e-07
-3.25206e-07
9.937e-08
-3.40656e-07
9.75474e-08
-3.55746e-07
9.53465e-08
-3.70422e-07
9.27825e-08
-3.84628e-07
8.98712e-08
-3.98316e-07
8.66286e-08
-4.11436e-07
8.30711e-08
-4.23941e-07
7.92157e-08
-4.3579e-07
7.50793e-08
-4.46941e-07
7.06791e-08
-4.57356e-07
6.60327e-08
-4.66999e-07
6.11577e-08
-4.75838e-07
5.60718e-08
-4.83844e-07
5.07931e-08
-4.90988e-07
4.53397e-08
-4.97248e-07
3.97299e-08
-5.02601e-07
3.3982e-08
-5.07029e-07
2.81149e-08
-5.10517e-07
2.21472e-08
-5.13051e-07
1.60981e-08
-5.14624e-07
9.98654e-09
-5.15227e-07
3.83211e-09
-5.14857e-07
-2.34562e-09
-5.13515e-07
-8.5268e-09
-5.11202e-07
-1.46914e-08
-5.07925e-07
-2.08191e-08
-5.03692e-07
-2.68894e-08
-4.98516e-07
-3.28817e-08
-4.92413e-07
-3.8775e-08
-4.854e-07
-4.45483e-08
-4.775e-07
-5.01804e-08
-4.68738e-07
-5.565e-08
-4.59142e-07
-6.09357e-08
-4.48745e-07
-6.60161e-08
-4.3758e-07
-7.08698e-08
-4.25688e-07
-7.54755e-08
-4.13107e-07
-7.98122e-08
-3.99885e-07
-8.38589e-08
-3.86067e-07
-8.7595e-08
-3.71705e-07
-9.10004e-08
-3.56852e-07
-9.40554e-08
-3.41564e-07
-9.67411e-08
-3.25902e-07
-9.90392e-08
-3.09925e-07
-1.00932e-07
-2.93698e-07
-1.02404e-07
-2.77287e-07
-1.0344e-07
-2.60761e-07
-1.04025e-07
-2.44187e-07
-1.04148e-07
-2.27638e-07
-1.03799e-07
-2.11185e-07
-1.02968e-07
-1.94902e-07
-1.0165e-07
-1.7886e-07
-9.98414e-08
-1.63132e-07
-9.75409e-08
-1.47791e-07
-9.47512e-08
-1.32907e-07
-9.14782e-08
-1.1855e-07
-8.77321e-08
-1.04787e-07
-8.35276e-08
-9.16806e-08
-7.88847e-08
-7.9292e-08
-7.38292e-08
-6.76767e-08
-6.83941e-08
-5.68855e-08
-6.26198e-08
-4.6963e-08
-5.65559e-08
-3.79475e-08
-5.02623e-08
-2.98696e-08
-4.38107e-08
-2.27522e-08
-3.72868e-08
-1.66098e-08
-3.07917e-08
-1.14482e-08
-2.44449e-08
-7.26453e-09
-1.83867e-08
-4.04801e-09
-1.27814e-08
-1.78075e-09
-7.8192e-09
-4.3976e-10
-3.72008e-09
-7.52932e-10
-5.55865e-10
1.47187e-09
-2.21162e-09
5.84922e-09
-4.96229e-09
1.13157e-08
-8.80469e-09
1.75858e-08
-1.37332e-08
2.44356e-08
-1.97379e-08
3.16713e-08
-2.68031e-08
3.91254e-08
-3.49067e-08
4.66541e-08
-4.40199e-08
5.41355e-08
-5.41077e-08
6.14665e-08
-6.51283e-08
6.85609e-08
-7.70344e-08
7.53466e-08
-8.97734e-08
8.17649e-08
-1.03288e-07
8.77675e-08
-1.17516e-07
9.33162e-08
-1.32394e-07
9.83809e-08
-1.47854e-07
1.02939e-07
-1.63825e-07
1.06973e-07
-1.80238e-07
1.10473e-07
-1.97019e-07
1.13431e-07
-2.14095e-07
1.15846e-07
-2.31394e-07
1.17718e-07
-2.48842e-07
1.19051e-07
-2.66368e-07
1.19851e-07
-2.83899e-07
1.20129e-07
-3.01366e-07
1.19893e-07
-3.187e-07
1.19157e-07
-3.35834e-07
1.17933e-07
-3.52702e-07
1.16238e-07
-3.69242e-07
1.14087e-07
-3.85392e-07
1.11497e-07
-4.01094e-07
1.08484e-07
-4.16291e-07
1.05068e-07
-4.3093e-07
1.01267e-07
-4.44958e-07
9.70998e-08
-4.58329e-07
9.25859e-08
-4.70994e-07
8.77452e-08
-4.82913e-07
8.25976e-08
-4.94044e-07
7.71634e-08
-5.04349e-07
7.14632e-08
-5.13795e-07
6.55176e-08
-5.22349e-07
5.93475e-08
-5.29984e-07
5.29741e-08
-5.36672e-07
4.64187e-08
-5.42393e-07
3.97026e-08
-5.47126e-07
3.28477e-08
-5.50854e-07
2.58759e-08
-5.53566e-07
1.88092e-08
-5.55249e-07
1.167e-08
-5.55898e-07
4.48096e-09
-5.55508e-07
-2.7351e-09
-5.5408e-07
-9.95507e-09
-5.51616e-07
-1.71556e-08
-5.48122e-07
-2.43131e-08
-5.43608e-07
-3.14038e-08
-5.38086e-07
-3.84034e-08
-5.31573e-07
-4.52878e-08
-5.24089e-07