/*--------------------------------*- C++ -*----------------------------------*\
| =========                 |                                                 |
| \\      /  F ield         | OpenFOAM: The Open Source CFD Toolbox           |
|  \\    /   O peration     | Version:  2212                                  |
|   \\  /    A nd           | Website:  www.openfoam.com                      |
|    \\/     M anipulation  |                                                 |
\*---------------------------------------------------------------------------*/
FoamFile
{
    version     2.0;
    format      ascii;
    arch        "LSB;label=32;scalar=64";
    class       volVectorField;
    location    "0.0445";
    object      U_0;
}
// * * * * * * * * * * * * * * * * * * * * * * * * * * * * * * * * * * * * * //

dimensions      [0 1 -1 0 0 0 0];

internalField   nonuniform List<vector> 
10000
(
(2.80801e-06 -2.73996e-06 0)
(1.32389e-05 -6.5661e-06 0)
(2.91528e-05 -7.31113e-06 0)
(4.35555e-05 -6.15474e-06 0)
(5.2303e-05 -3.94356e-06 0)
(5.33995e-05 -1.19977e-06 0)
(4.57703e-05 1.77462e-06 0)
(2.89417e-05 4.79181e-06 0)
(2.83349e-06 7.74731e-06 0)
(-3.23678e-05 1.05825e-05 0)
(-7.63222e-05 1.326e-05 0)
(-0.000128578 1.57577e-05 0)
(-0.000188612 1.80676e-05 0)
(-0.000255861 2.0182e-05 0)
(-0.000329732 2.20998e-05 0)
(-0.000409615 2.3825e-05 0)
(-0.000494896 2.53548e-05 0)
(-0.00058496 2.6691e-05 0)
(-0.00067919 2.78403e-05 0)
(-0.000776987 2.88086e-05 0)
(-0.00087776 2.96019e-05 0)
(-0.000980924 3.02246e-05 0)
(-0.00108592 3.06822e-05 0)
(-0.00119219 3.09788e-05 0)
(-0.00129922 3.11191e-05 0)
(-0.00140648 3.11112e-05 0)
(-0.00151347 3.09623e-05 0)
(-0.00161973 3.06773e-05 0)
(-0.00172479 3.0261e-05 0)
(-0.00182822 2.97198e-05 0)
(-0.00192959 2.90597e-05 0)
(-0.00202849 2.82863e-05 0)
(-0.00212456 2.7405e-05 0)
(-0.00221742 2.64222e-05 0)
(-0.00230672 2.53434e-05 0)
(-0.00239215 2.41732e-05 0)
(-0.0024734 2.29166e-05 0)
(-0.00255017 2.15794e-05 0)
(-0.00262221 2.01682e-05 0)
(-0.00268925 1.86883e-05 0)
(-0.00275106 1.71439e-05 0)
(-0.00280744 1.55411e-05 0)
(-0.00285819 1.3885e-05 0)
(-0.00290313 1.21806e-05 0)
(-0.00294211 1.04342e-05 0)
(-0.00297499 8.65009e-06 0)
(-0.00300165 6.83422e-06 0)
(-0.00302199 4.99342e-06 0)
(-0.00303593 3.1322e-06 0)
(-0.00304342 1.25557e-06 0)
(-0.00304441 -6.29558e-07 0)
(-0.00303889 -2.51728e-06 0)
(-0.00302686 -4.40204e-06 0)
(-0.00300833 -6.27742e-06 0)
(-0.00298337 -8.13771e-06 0)
(-0.00295203 -9.97742e-06 0)
(-0.00291439 -1.17894e-05 0)
(-0.00287058 -1.35662e-05 0)
(-0.00282072 -1.53015e-05 0)
(-0.00276497 -1.69893e-05 0)
(-0.00270351 -1.86225e-05 0)
(-0.00263654 -2.0194e-05 0)
(-0.00256429 -2.16974e-05 0)
(-0.00248701 -2.31255e-05 0)
(-0.00240497 -2.4471e-05 0)
(-0.00231848 -2.57268e-05 0)
(-0.00222785 -2.68858e-05 0)
(-0.00213344 -2.79404e-05 0)
(-0.00203561 -2.88835e-05 0)
(-0.00193475 -2.97091e-05 0)
(-0.00183129 -3.04113e-05 0)
(-0.00172566 -3.09824e-05 0)
(-0.00161832 -3.14148e-05 0)
(-0.00150975 -3.17026e-05 0)
(-0.00140046 -3.18404e-05 0)
(-0.00129097 -3.18217e-05 0)
(-0.00118182 -3.16402e-05 0)
(-0.00107357 -3.12911e-05 0)
(-0.00096678 -3.07697e-05 0)
(-0.000862048 -3.00711e-05 0)
(-0.000759968 -2.91908e-05 0)
(-0.000661149 -2.81252e-05 0)
(-0.000566206 -2.68716e-05 0)
(-0.000475762 -2.54268e-05 0)
(-0.000390436 -2.37886e-05 0)
(-0.000310845 -2.19562e-05 0)
(-0.000237598 -1.99313e-05 0)
(-0.000171288 -1.77171e-05 0)
(-0.000112479 -1.53183e-05 0)
(-6.1701e-05 -1.27428e-05 0)
(-1.94291e-05 -1.00043e-05 0)
(1.39385e-05 -7.1252e-06 0)
(3.81178e-05 -4.14097e-06 0)
(5.29949e-05 -1.11177e-06 0)
(5.87132e-05 1.85912e-06 0)
(5.58122e-05 4.59091e-06 0)
(4.54275e-05 6.76675e-06 0)
(2.97086e-05 7.81722e-06 0)
(1.30494e-05 6.75813e-06 0)
(2.62038e-06 2.62074e-06 0)
(7.05701e-06 -1.33768e-05 0)
(2.74291e-05 -2.67533e-05 0)
(5.35901e-05 -2.73898e-05 0)
(7.30199e-05 -1.97496e-05 0)
(7.77381e-05 -6.98663e-06 0)
(6.32128e-05 8.77632e-06 0)
(2.66396e-05 2.6097e-05 0)
(-3.34935e-05 4.40096e-05 0)
(-0.000117701 6.18865e-05 0)
(-0.000225824 7.93067e-05 0)
(-0.000357212 9.59929e-05 0)
(-0.000510871 0.000111764 0)
(-0.000685575 0.000126492 0)
(-0.000879929 0.000140102 0)
(-0.00109242 0.000152547 0)
(-0.00132147 0.000163798 0)
(-0.00156544 0.000173845 0)
(-0.00182269 0.000182687 0)
(-0.00209155 0.000190334 0)
(-0.00237039 0.000196801 0)
(-0.00265756 0.000202115 0)
(-0.00295147 0.000206301 0)
(-0.00325054 0.000209387 0)
(-0.00355323 0.000211405 0)
(-0.00385806 0.000212387 0)
(-0.00416356 0.000212368 0)
(-0.00446835 0.000211385 0)
(-0.00477106 0.000209475 0)
(-0.0050704 0.000206674 0)
(-0.0053651 0.000203019 0)
(-0.00565397 0.000198548 0)
(-0.00593585 0.000193297 0)
(-0.00620967 0.000187305 0)
(-0.00647437 0.000180609 0)
(-0.00672896 0.000173248 0)
(-0.00697251 0.000165259 0)
(-0.00720415 0.000156678 0)
(-0.00742304 0.000147543 0)
(-0.0076284 0.000137892 0)
(-0.00781954 0.000127763 0)
(-0.00799576 0.000117191 0)
(-0.00815648 0.000106214 0)
(-0.00830112 9.48709e-05 0)
(-0.00842918 8.31984e-05 0)
(-0.00854023 7.12336e-05 0)
(-0.00863386 5.90155e-05 0)
(-0.00870974 4.65824e-05 0)
(-0.00876758 3.39728e-05 0)
(-0.00880717 2.12262e-05 0)
(-0.00882834 8.3825e-06 0)
(-0.00883098 -4.51772e-06 0)
(-0.00881503 -1.74337e-05 0)
(-0.00878051 -3.03239e-05 0)
(-0.0087275 -4.31465e-05 0)
(-0.00865611 -5.58593e-05 0)
(-0.00856655 -6.84185e-05 0)
(-0.00845908 -8.07793e-05 0)
(-0.00833401 -9.28974e-05 0)
(-0.00819173 -0.000104728 0)
(-0.0080327 -0.000116224 0)
(-0.00785743 -0.00012734 0)
(-0.0076665 -0.000138028 0)
(-0.00746058 -0.000148243 0)
(-0.00724037 -0.000157936 0)
(-0.00700668 -0.00016706 0)
(-0.00676034 -0.000175568 0)
(-0.00650229 -0.000183411 0)
(-0.00623351 -0.000190542 0)
(-0.00595506 -0.000196915 0)
(-0.00566806 -0.000202486 0)
(-0.00537369 -0.000207209 0)
(-0.00507321 -0.000211042 0)
(-0.00476791 -0.00021394 0)
(-0.00445916 -0.000215863 0)
(-0.00414838 -0.000216772 0)
(-0.00383704 -0.000216629 0)
(-0.00352666 -0.000215401 0)
(-0.0032188 -0.000213057 0)
(-0.00291506 -0.000209569 0)
(-0.00261707 -0.000204911 0)
(-0.0023265 -0.000199063 0)
(-0.00204503 -0.00019201 0)
(-0.00177435 -0.00018374 0)
(-0.00151614 -0.00017425 0)
(-0.00127209 -0.000163546 0)
(-0.00104386 -0.000151643 0)
(-0.000833038 -0.000138571 0)
(-0.000641174 -0.000124374 0)
(-0.000469706 -0.000109121 0)
(-0.000319933 -9.29067e-05 0)
(-0.000192964 -7.58719e-05 0)
(-8.96462e-05 -5.82166e-05 0)
(-1.04641e-05 -4.023e-05 0)
(4.4602e-05 -2.23384e-05 0)
(7.62797e-05 -5.18104e-06 0)
(8.62865e-05 1.02717e-05 0)
(7.76554e-05 2.25421e-05 0)
(5.52556e-05 2.93718e-05 0)
(2.74286e-05 2.74231e-05 0)
(6.75216e-06 1.30396e-05 0)
(8.06519e-06 -3.01052e-05 0)
(2.90092e-05 -5.33828e-05 0)
(5.14655e-05 -4.93369e-05 0)
(6.04003e-05 -2.71434e-05 0)
(4.61089e-05 7.09524e-06 0)
(2.68569e-06 4.89107e-05 0)
(-7.37598e-05 9.49936e-05 0)
(-0.000185462 0.000143017 0)
(-0.000333362 0.000191321 0)
(-0.000517407 0.000238747 0)
(-0.00073681 0.000284488 0)
(-0.000990256 0.000327962 0)
(-0.00127602 0.000368778 0)
(-0.00159208 0.000406661 0)
(-0.00193623 0.000441429 0)
(-0.00230609 0.000472967 0)
(-0.00269921 0.000501214 0)
(-0.00311307 0.000526141 0)
(-0.00354511 0.00054775 0)
(-0.0039928 0.000566073 0)
(-0.00445359 0.000581151 0)
(-0.00492497 0.000593047 0)
(-0.00540448 0.000601834 0)
(-0.00588969 0.000607588 0)
(-0.00637824 0.000610396 0)
(-0.00686784 0.00061035 0)
(-0.00735626 0.000607547 0)
(-0.00784134 0.000602085 0)
(-0.008321 0.000594067 0)
(-0.00879325 0.000583597 0)
(-0.00925615 0.000570779 0)
(-0.00970789 0.000555718 0)
(-0.0101467 0.000538521 0)
(-0.0105709 0.000519296 0)
(-0.0109789 0.000498149 0)
(-0.0113692 0.000475188 0)
(-0.0117405 0.000450521 0)
(-0.0120913 0.000424256 0)
(-0.0124204 0.000396499 0)
(-0.0127267 0.000367358 0)
(-0.0130091 0.000336941 0)
(-0.0132666 0.000305357 0)
(-0.0134983 0.000272713 0)
(-0.0137035 0.00023912 0)
(-0.0138813 0.000204687 0)
(-0.0140313 0.000169524 0)
(-0.0141527 0.000133744 0)
(-0.0142452 9.74599e-05 0)
(-0.0143085 6.07831e-05 0)
(-0.0143422 2.38304e-05 0)
(-0.0143462 -1.32794e-05 0)
(-0.0143204 -5.04292e-05 0)
(-0.0142649 -8.74996e-05 0)
(-0.0141797 -0.000124368 0)
(-0.0140651 -0.00016091 0)
(-0.0139214 -0.000197002 0)
(-0.0137489 -0.000232516 0)
(-0.0135483 -0.000267322 0)
(-0.0133202 -0.000301291 0)
(-0.0130652 -0.000334291 0)
(-0.0127843 -0.000366189 0)
(-0.0124783 -0.000396849 0)
(-0.0121484 -0.000426138 0)
(-0.0117956 -0.000453922 0)
(-0.0114213 -0.000480064 0)
(-0.0110268 -0.000504429 0)
(-0.0106135 -0.000526882 0)
(-0.0101832 -0.000547289 0)
(-0.00973736 -0.00056552 0)
(-0.00927791 -0.000581448 0)
(-0.00880671 -0.000594945 0)
(-0.00832574 -0.00060589 0)
(-0.00783707 -0.000614163 0)
(-0.00734289 -0.000619652 0)
(-0.00684544 -0.00062225 0)
(-0.00634705 -0.000621856 0)
(-0.00585013 -0.000618378 0)
(-0.00535714 -0.000611734 0)
(-0.0048706 -0.000601853 0)
(-0.00439308 -0.000588672 0)
(-0.00392718 -0.000572144 0)
(-0.00347552 -0.000552238 0)
(-0.00304074 -0.000528941 0)
(-0.00262544 -0.000502262 0)
(-0.00223221 -0.000472238 0)
(-0.00186356 -0.000438939 0)
(-0.00152192 -0.000402479 0)
(-0.00120959 -0.00036302 0)
(-0.000928687 -0.000320795 0)
(-0.000681072 -0.000276128 0)
(-0.000468287 -0.000229464 0)
(-0.000291437 -0.000181421 0)
(-0.000151052 -0.000132852 0)
(-4.68961e-05 -8.49525e-05 0)
(2.22815e-05 -3.94019e-05 0)
(5.9063e-05 1.42311e-06 0)
(6.76817e-05 3.4173e-05 0)
(5.4462e-05 5.42008e-05 0)
(2.94936e-05 5.52753e-05 0)
(7.82955e-06 2.97034e-05 0)
(6.82079e-06 -4.55771e-05 0)
(2.15634e-05 -7.40034e-05 0)
(3.0184e-05 -5.86872e-05 0)
(1.74591e-05 -1.3971e-05 0)
(-2.68223e-05 5.08534e-05 0)
(-0.000109231 0.000128732 0)
(-0.00023419 0.000214332 0)
(-0.000404346 0.000303675 0)
(-0.000620888 0.000393854 0)
(-0.000883838 0.000482746 0)
(-0.00119234 0.000568795 0)
(-0.00154483 0.00065088 0)
(-0.00193922 0.000728195 0)
(-0.00237302 0.000800159 0)
(-0.00284345 0.000866372 0)
(-0.00334752 0.00092657 0)
(-0.00388206 0.000980586 0)
(-0.00444384 0.00102834 0)
(-0.00502954 0.0010698 0)
(-0.00563584 0.00110499 0)
(-0.00625941 0.00113399 0)
(-0.00689694 0.00115688 0)
(-0.00754516 0.00117379 0)
(-0.00820088 0.00118485 0)
(-0.00886094 0.00119021 0)
(-0.00952228 0.00119006 0)
(-0.0101819 0.00118456 0)
(-0.010837 0.00117389 0)
(-0.0114847 0.00115826 0)
(-0.0121224 0.00113786 0)
(-0.0127474 0.00111288 0)
(-0.0133574 0.00108353 0)
(-0.0139498 0.00105002 0)
(-0.0145225 0.00101255 0)
(-0.0150734 0.000971322 0)
(-0.0156004 0.000926556 0)
(-0.0161016 0.000878456 0)
(-0.0165752 0.000827232 0)
(-0.0170195 0.000773094 0)
(-0.0174329 0.000716252 0)
(-0.0178141 0.000656916 0)
(-0.0181617 0.0005953 0)
(-0.0184745 0.000531615 0)
(-0.0187513 0.000466075 0)
(-0.0189913 0.000398897 0)
(-0.0191935 0.000330297 0)
(-0.0193573 0.000260495 0)
(-0.019482 0.000189711 0)
(-0.0195672 0.000118168 0)
(-0.0196125 4.60934e-05 0)
(-0.0196176 -2.62836e-05 0)
(-0.0195826 -9.87298e-05 0)
(-0.0195073 -0.000171011 0)
(-0.0193921 -0.000242891 0)
(-0.0192371 -0.000314125 0)
(-0.0190428 -0.000384468 0)
(-0.0188099 -0.000453672 0)
(-0.0185389 -0.000521487 0)
(-0.0182308 -0.000587657 0)
(-0.0178865 -0.000651927 0)
(-0.0175072 -0.000714038 0)
(-0.0170942 -0.000773728 0)
(-0.0166488 -0.000830737 0)
(-0.0161727 -0.000884802 0)
(-0.0156676 -0.000935662 0)
(-0.0151352 -0.000983055 0)
(-0.0145776 -0.00102672 0)
(-0.013997 -0.0010664 0)
(-0.0133956 -0.00110185 0)
(-0.0127758 -0.00113282 0)
(-0.0121401 -0.00115906 0)
(-0.0114912 -0.00118035 0)
(-0.010832 -0.00119645 0)
(-0.0101652 -0.00120716 0)
(-0.00949396 -0.00121228 0)
(-0.00882133 -0.00121161 0)
(-0.00815052 -0.00120499 0)
(-0.0074848 -0.00119227 0)
(-0.00682753 -0.00117331 0)
(-0.0061821 -0.00114803 0)
(-0.00555195 -0.00111633 0)
(-0.00494051 -0.00107818 0)
(-0.00435124 -0.00103357 0)
(-0.00378755 -0.000982552 0)
(-0.00325278 -0.000925221 0)
(-0.00275019 -0.000861747 0)
(-0.00228288 -0.000792385 0)
(-0.00185375 -0.000717492 0)
(-0.00146547 -0.000637561 0)
(-0.00112034 -0.000553263 0)
(-0.000820196 -0.000465499 0)
(-0.000566336 -0.00037548 0)
(-0.000359299 -0.000284834 0)
(-0.000198696 -0.000195757 0)
(-8.29444e-05 -0.000111222 0)
(-8.9734e-06 -3.52508e-05 0)
(2.80654e-05 2.67384e-05 0)
(3.51758e-05 6.75707e-05 0)
(2.29734e-05 7.79462e-05 0)
(6.83759e-06 4.55306e-05 0)
(4.49549e-06 -5.5379e-05 0)
(8.81578e-06 -8.03531e-05 0)
(-3.50663e-06 -4.56171e-05 0)
(-4.6016e-05 2.98705e-05 0)
(-0.000128503 0.000133699 0)
(-0.000257628 0.000256341 0)
(-0.000437939 0.000390386 0)
(-0.000672191 0.000530192 0)
(-0.000961622 0.000671491 0)
(-0.00130626 0.000811071 0)
(-0.00170512 0.00094652 0)
(-0.00215645 0.00107605 0)
(-0.00265786 0.00119834 0)
(-0.00320647 0.0013124 0)
(-0.00379904 0.00141756 0)
(-0.00443205 0.00151333 0)
(-0.00510176 0.00159939 0)
(-0.00580431 0.00167557 0)
(-0.00653574 0.00174178 0)
(-0.00729204 0.00179803 0)
(-0.0080692 0.00184439 0)
(-0.0088632 0.00188099 0)
(-0.00967007 0.00190799 0)
(-0.0104859 0.0019256 0)
(-0.0113069 0.00193405 0)
(-0.0121292 0.0019336 0)
(-0.0129493 0.00192452 0)
(-0.0137635 0.00190709 0)
(-0.0145685 0.00188163 0)
(-0.0153608 0.00184844 0)
(-0.0161375 0.00180783 0)
(-0.0168952 0.00176014 0)
(-0.0176313 0.00170569 0)
(-0.0183428 0.00164481 0)
(-0.0190271 0.00157783 0)
(-0.0196817 0.0015051 0)
(-0.0203042 0.00142694 0)
(-0.0208925 0.00134371 0)
(-0.0214443 0.00125574 0)
(-0.0219578 0.00116337 0)
(-0.0224312 0.00106694 0)
(-0.0228628 0.000966809 0)
(-0.0232511 0.000863314 0)
(-0.0235948 0.000756805 0)
(-0.0238927 0.000647634 0)
(-0.0241437 0.000536156 0)
(-0.0243469 0.000422728 0)
(-0.0245016 0.000307708 0)
(-0.0246071 0.000191464 0)
(-0.0246631 7.4365e-05 0)
(-0.0246693 -4.32161e-05 0)
(-0.0246255 -0.000160902 0)
(-0.0245318 -0.000278308 0)
(-0.0243884 -0.000395045 0)
(-0.0241957 -0.000510723 0)
(-0.0239543 -0.00062494 0)
(-0.0236648 -0.000737294 0)
(-0.0233281 -0.000847376 0)
(-0.0229453 -0.000954776 0)
(-0.0225177 -0.00105908 0)
(-0.0220466 -0.00115986 0)
(-0.0215337 -0.0012567 0)
(-0.0209806 -0.00134917 0)
(-0.0203894 -0.00143687 0)
(-0.0197622 -0.00151935 0)
(-0.0191012 -0.0015962 0)
(-0.018409 -0.00166701 0)
(-0.0176881 -0.00173136 0)
(-0.0169414 -0.00178885 0)
(-0.0161719 -0.00183908 0)
(-0.0153827 -0.00188167 0)
(-0.014577 -0.00191624 0)
(-0.0137583 -0.00194245 0)
(-0.0129302 -0.00195995 0)
(-0.0120963 -0.00196842 0)
(-0.0112606 -0.00196759 0)
(-0.0104268 -0.00195719 0)
(-0.00959904 -0.00193698 0)
(-0.00878136 -0.00190678 0)
(-0.0079779 -0.00186644 0)
(-0.00719283 -0.00181585 0)
(-0.00643033 -0.00175499 0)
(-0.00569455 -0.00168386 0)
(-0.00498959 -0.00160259 0)
(-0.00431947 -0.00151135 0)
(-0.00368805 -0.00141047 0)
(-0.00309902 -0.0013004 0)
(-0.00255578 -0.00118176 0)
(-0.00206144 -0.00105539 0)
(-0.00161866 -0.000922414 0)
(-0.00122954 -0.000784288 0)
(-0.000895534 -0.000642948 0)
(-0.000617239 -0.000500923 0)
(-0.000394224 -0.000361535 0)
(-0.000224785 -0.000229145 0)
(-0.000105695 -0.000109468 0)
(-3.19361e-05 -9.97385e-06 0)
(3.62963e-06 5.9716e-05 0)
(1.12159e-05 8.73343e-05 0)
(4.76594e-06 5.62424e-05 0)
(1.70286e-06 -5.7486e-05 0)
(-6.82857e-06 -6.77273e-05 0)
(-4.47515e-05 -3.99683e-06 0)
(-0.000122742 0.000111113 0)
(-0.000249372 0.000262441 0)
(-0.000430998 0.000438157 0)
(-0.000671934 0.000628896 0)
(-0.000974757 0.000827377 0)
(-0.0013406 0.00102796 0)
(-0.00176933 0.00122628 0)
(-0.00225983 0.00141904 0)
(-0.00281009 0.00160367 0)
(-0.00341747 0.00177826 0)
(-0.00407873 0.00194139 0)
(-0.00479024 0.002092 0)
(-0.00554802 0.00222934 0)
(-0.00634785 0.0023529 0)
(-0.00718532 0.00246237 0)
(-0.0080559 0.00255758 0)
(-0.00895501 0.0026385 0)
(-0.00987801 0.00270519 0)
(-0.0108203 0.00275781 0)
(-0.0117772 0.00279655 0)
(-0.0127443 0.0028217 0)
(-0.013717 0.00283356 0)
(-0.014691 0.00283249 0)
(-0.015662 0.00281888 0)
(-0.0166259 0.00279312 0)
(-0.0175787 0.00275564 0)
(-0.0185164 0.00270689 0)
(-0.0194353 0.00264732 0)
(-0.0203319 0.0025774 0)
(-0.0212026 0.0024976 0)
(-0.0220442 0.00240839 0)
(-0.0228536 0.00231027 0)
(-0.0236279 0.00220372 0)
(-0.0243641 0.00208924 0)
(-0.0250597 0.00196732 0)
(-0.0257123 0.00183846 0)
(-0.0263194 0.00170316 0)
(-0.0268791 0.00156193 0)
(-0.0273894 0.00141526 0)
(-0.0278485 0.00126367 0)
(-0.0282547 0.00110767 0)
(-0.0286068 0.000947772 0)
(-0.0289034 0.000784501 0)
(-0.0291434 0.000618381 0)
(-0.0293261 0.000449941 0)
(-0.0294507 0.000279717 0)
(-0.0295167 0.00010825 0)
(-0.0295237 -6.39101e-05 0)
(-0.0294717 -0.000236209 0)
(-0.0293607 -0.000408086 0)
(-0.029191 -0.00057897 0)
(-0.028963 -0.000748284 0)
(-0.0286773 -0.000915445 0)
(-0.0283349 -0.00107986 0)
(-0.0279367 -0.00124094 0)
(-0.0274841 -0.00139808 0)
(-0.0269784 -0.00155067 0)
(-0.0264214 -0.00169809 0)
(-0.025815 -0.00183974 0)
(-0.0251611 -0.001975 0)
(-0.0244622 -0.00210326 0)
(-0.0237207 -0.00222389 0)
(-0.0229393 -0.00233629 0)
(-0.022121 -0.00243985 0)
(-0.0212687 -0.00253399 0)
(-0.020386 -0.0026181 0)
(-0.0194761 -0.00269163 0)
(-0.0185428 -0.00275402 0)
(-0.01759 -0.00280474 0)
(-0.0166217 -0.00284328 0)
(-0.015642 -0.00286916 0)
(-0.0146552 -0.00288193 0)
(-0.0136659 -0.00288119 0)
(-0.0126785 -0.00286657 0)
(-0.0116978 -0.00283776 0)
(-0.0107285 -0.00279451 0)
(-0.00977536 -0.00273661 0)
(-0.00884321 -0.00266395 0)
(-0.00793689 -0.00257651 0)
(-0.00706117 -0.00247436 0)
(-0.00622075 -0.00235768 0)
(-0.00542024 -0.00222682 0)
(-0.00466402 -0.00208225 0)
(-0.00395629 -0.0019247 0)
(-0.00330089 -0.00175511 0)
(-0.00270131 -0.00157473 0)
(-0.00216052 -0.00138521 0)
(-0.00168089 -0.00118866 0)
(-0.00126405 -0.000987806 0)
(-0.000910733 -0.000786159 0)
(-0.000620593 -0.000588215 0)
(-0.000392011 -0.000399735 0)
(-0.000221882 -0.000228093 0)
(-0.000105374 -8.27022e-05 0)
(-3.56353e-05 2.45627e-05 0)
(-3.55437e-06 7.87784e-05 0)
(2.17967e-06 5.97965e-05 0)
(-1.24812e-06 -5.09461e-05 0)
(-2.39335e-05 -3.33308e-05 0)
(-9.03303e-05 7.01974e-05 0)
(-0.000207529 0.000234441 0)
(-0.000382437 0.000441957 0)
(-0.000620726 0.000678897 0)
(-0.000926196 0.000934138 0)
(-0.00130103 0.00119884 0)
(-0.00174605 0.00146604 0)
(-0.00226088 0.00173027 0)
(-0.00284414 0.00198724 0)
(-0.00349357 0.00223364 0)
(-0.00420622 0.00246691 0)
(-0.00497854 0.00268511 0)
(-0.00580652 0.00288677 0)
(-0.00668579 0.00307085 0)
(-0.00761167 0.00323659 0)
(-0.00857928 0.00338352 0)
(-0.00958361 0.00351136 0)
(-0.0106195 0.00362002 0)
(-0.0116819 0.00370953 0)
(-0.0127655 0.00378005 0)
(-0.0138652 0.00383185 0)
(-0.0149758 0.00386525 0)
(-0.0160925 0.00388064 0)
(-0.0172101 0.0038785 0)
(-0.018324 0.00385931 0)
(-0.0194293 0.0038236 0)
(-0.0205217 0.00377195 0)
(-0.0215965 0.00370494 0)
(-0.0226496 0.00362318 0)
(-0.0236769 0.0035273 0)
(-0.0246746 0.00341793 0)
(-0.0256387 0.00329572 0)
(-0.0265659 0.00316133 0)
(-0.0274526 0.00301543 0)
(-0.0282958 0.00285869 0)
(-0.0290924 0.00269177 0)
(-0.0298396 0.00251537 0)
(-0.0305348 0.00233016 0)
(-0.0311756 0.00213683 0)
(-0.0317598 0.00193607 0)
(-0.0322853 0.00172858 0)
(-0.0327504 0.00151506 0)
(-0.0331533 0.00129623 0)
(-0.0334927 0.00107278 0)
(-0.0337674 0.000845442 0)
(-0.0339764 0.000614941 0)
(-0.0341188 0.000382012 0)
(-0.0341942 0.000147397 0)
(-0.0342021 -8.81531e-05 0)
(-0.0341424 -0.000323878 0)
(-0.0340152 -0.000559008 0)
(-0.0338207 -0.000792764 0)
(-0.0335595 -0.00102436 0)
(-0.0332324 -0.00125299 0)
(-0.0328403 -0.00147785 0)
(-0.0323844 -0.00169813 0)
(-0.0318662 -0.00191301 0)
(-0.0312873 -0.00212165 0)
(-0.0306496 -0.00232322 0)
(-0.0299553 -0.0025169 0)
(-0.0292068 -0.00270183 0)
(-0.0284067 -0.00287718 0)
(-0.0275578 -0.00304212 0)
(-0.0266633 -0.00319582 0)
(-0.0257263 -0.00333747 0)
(-0.0247505 -0.00346624 0)
(-0.0237397 -0.00358137 0)
(-0.0226977 -0.00368207 0)
(-0.0216287 -0.00376761 0)
(-0.0205372 -0.00383726 0)
(-0.0194276 -0.00389035 0)
(-0.0183047 -0.00392625 0)
(-0.0171734 -0.00394435 0)
(-0.0160387 -0.00394413 0)
(-0.0149058 -0.0039251 0)
(-0.0137799 -0.00388687 0)
(-0.0126663 -0.00382912 0)
(-0.0115704 -0.0037516 0)
(-0.0104977 -0.0036542 0)
(-0.00945357 -0.00353692 0)
(-0.00844328 -0.00339989 0)
(-0.00747211 -0.00324341 0)
(-0.00654515 -0.00306799 0)
(-0.0056673 -0.00287434 0)
(-0.00484316 -0.00266346 0)
(-0.00407701 -0.00243668 0)
(-0.00337267 -0.00219572 0)
(-0.00273343 -0.00194279 0)
(-0.00216194 -0.00168072 0)
(-0.00166007 -0.00141307 0)
(-0.00122876 -0.00114436 0)
(-0.000867886 -0.000880242 0)
(-0.000576103 -0.000627848 0)
(-0.000350659 -0.000396109 0)
(-0.000187187 -0.000196207 0)
(-7.94532e-05 -4.19962e-05 0)
(-1.99266e-05 4.93773e-05 0)
(-6.16207e-07 5.51363e-05 0)
(-4.21092e-06 -3.53364e-05 0)
(-4.16439e-05 2.44079e-05 0)
(-0.000138097 0.000179499 0)
(-0.000296811 0.000402972 0)
(-0.00052269 0.00067562 0)
(-0.000820489 0.000981926 0)
(-0.00119328 0.00130921 0)
(-0.00164264 0.00164724 0)
(-0.00216893 0.00198782 0)
(-0.00277142 0.00232439 0)
(-0.00344836 0.00265175 0)
(-0.0041972 0.00296577 0)
(-0.00501465 0.00326326 0)
(-0.00589683 0.00354172 0)
(-0.00683937 0.00379927 0)
(-0.00783752 0.00403451 0)
(-0.00888619 0.00424642 0)
(-0.00998008 0.00443434 0)
(-0.0111137 0.00459786 0)
(-0.0122815 0.0047368 0)
(-0.0134778 0.00485116 0)
(-0.0146969 0.00494111 0)
(-0.0159332 0.00500693 0)
(-0.017181 0.00504902 0)
(-0.0184349 0.00506787 0)
(-0.0196893 0.00506402 0)
(-0.020939 0.0050381 0)
(-0.0221787 0.00499079 0)
(-0.0234035 0.0049228 0)
(-0.0246083 0.00483487 0)
(-0.0257886 0.00472779 0)
(-0.0269397 0.00460235 0)
(-0.0280574 0.00445937 0)
(-0.0291374 0.0042997 0)
(-0.0301758 0.00412418 0)
(-0.0311689 0.00393367 0)
(-0.0321131 0.00372903 0)
(-0.0330051 0.00351115 0)
(-0.0338416 0.00328091 0)
(-0.0346199 0.0030392 0)
(-0.0353373 0.00278691 0)
(-0.0359912 0.00252495 0)
(-0.0365794 0.00225421 0)
(-0.0370998 0.00197563 0)
(-0.0375507 0.00169012 0)
(-0.0379305 0.00139861 0)
(-0.0382379 0.00110204 0)
(-0.0384717 0.00080136 0)
(-0.038631 0.000497528 0)
(-0.0387152 0.000191513 0)
(-0.038724 -0.000115704 0)
(-0.0386571 -0.000423133 0)
(-0.0385146 -0.000729768 0)
(-0.0382969 -0.00103459 0)
(-0.0380046 -0.00133658 0)
(-0.0376384 -0.00163469 0)
(-0.0371996 -0.00192788 0)
(-0.0366893 -0.00221508 0)
(-0.0361093 -0.00249522 0)
(-0.0354615 -0.00276723 0)
(-0.0347478 -0.00303002 0)
(-0.0339708 -0.00328251 0)
(-0.0331331 -0.00352362 0)
(-0.0322375 -0.00375226 0)
(-0.0312874 -0.00396734 0)
(-0.030286 -0.0041678 0)
(-0.029237 -0.00435259 0)
(-0.0281445 -0.00452066 0)
(-0.0270126 -0.00467099 0)
(-0.0258455 -0.0048026 0)
(-0.0246481 -0.00491453 0)
(-0.0234251 -0.00500587 0)
(-0.0221816 -0.00507575 0)
(-0.0209228 -0.00512336 0)
(-0.019654 -0.00514795 0)
(-0.0183809 -0.00514884 0)
(-0.0171092 -0.00512545 0)
(-0.0158445 -0.00507728 0)
(-0.0145929 -0.00500395 0)
(-0.0133602 -0.00490517 0)
(-0.0121523 -0.00478085 0)
(-0.0109752 -0.004631 0)
(-0.00983467 -0.00445585 0)
(-0.0087365 -0.00425584 0)
(-0.00768623 -0.00403165 0)
(-0.00668918 -0.00378427 0)
(-0.00575039 -0.00351502 0)
(-0.0048745 -0.00322563 0)
(-0.00406569 -0.00291833 0)
(-0.00332757 -0.00259595 0)
(-0.00266311 -0.00226203 0)
(-0.00207447 -0.001921 0)
(-0.0015629 -0.00157834 0)
(-0.00112864 -0.00124087 0)
(-0.000770747 -0.000916966 0)
(-0.000487031 -0.000616998 0)
(-0.000273803 -0.000353696 0)
(-0.000125686 -0.000142585 0)
(-3.70194e-05 -2.5624e-06 0)
(-3.45669e-06 4.17591e-05 0)
(-7.10794e-06 -1.05663e-05 0)
(-5.94456e-05 0.000106232 0)
(-0.000186689 0.000325289 0)
(-0.000388155 0.000618584 0)
(-0.000666611 0.000965612 0)
(-0.00102573 0.0013495 0)
(-0.00146768 0.00175628 0)
(-0.00199331 0.0021745 0)
(-0.00260237 0.00259484 0)
(-0.00329364 0.00300972 0)
(-0.00406497 0.00341305 0)
(-0.00491341 0.00379996 0)
(-0.00583531 0.00416657 0)
(-0.00682643 0.00450986 0)
(-0.00788204 0.00482749 0)
(-0.00899701 0.00511769 0)
(-0.0101659 0.00537919 0)
(-0.0113829 0.00561108 0)
(-0.0126422 0.00581282 0)
(-0.0139378 0.00598413 0)
(-0.0152635 0.00612497 0)
(-0.0166133 0.00623549 0)
(-0.0179811 0.006316 0)
(-0.0193606 0.00636697 0)
(-0.020746 0.00638895 0)
(-0.0221314 0.00638263 0)
(-0.0235109 0.00634873 0)
(-0.0248789 0.00628809 0)
(-0.02623 0.00620156 0)
(-0.0275587 0.00609008 0)
(-0.02886 0.0059546 0)
(-0.0301289 0.00579611 0)
(-0.0313607 0.00561563 0)
(-0.0325508 0.0054142 0)
(-0.0336949 0.00519287 0)
(-0.0347889 0.00495273 0)
(-0.0358289 0.00469484 0)
(-0.0368113 0.00442033 0)
(-0.0377326 0.00413028 0)
(-0.0385896 0.00382581 0)
(-0.0393795 0.00350806 0)
(-0.0400994 0.00317815 0)
(-0.040747 0.00283723 0)
(-0.0413199 0.00248645 0)
(-0.0418163 0.00212696 0)
(-0.0422344 0.00175994 0)
(-0.0425727 0.00138658 0)
(-0.04283 0.00100805 0)
(-0.0430054 0.000625585 0)
(-0.0430982 0.000240387 0)
(-0.0431078 -0.000146306 0)
(-0.0430342 -0.000533246 0)
(-0.0428774 -0.000919169 0)
(-0.0426378 -0.0013028 0)
(-0.0423161 -0.00168285 0)
(-0.0419131 -0.002058 0)
(-0.0414302 -0.00242695 0)
(-0.0408686 -0.00278836 0)
(-0.0402303 -0.00314088 0)
(-0.0395172 -0.00348318 0)
(-0.0387318 -0.00381389 0)
(-0.0378765 -0.00413166 0)
(-0.0369543 -0.00443512 0)
(-0.0359684 -0.00472292 0)
(-0.0349222 -0.00499371 0)
(-0.0338196 -0.00524615 0)
(-0.0326645 -0.00547894 0)
(-0.0314611 -0.00569077 0)
(-0.0302141 -0.00588037 0)
(-0.0289283 -0.00604653 0)
(-0.0276086 -0.00618805 0)
(-0.0262604 -0.00630382 0)
(-0.0248891 -0.00639275 0)
(-0.0235005 -0.00645385 0)
(-0.0221003 -0.00648621 0)
(-0.0206947 -0.00648901 0)
(-0.0192898 -0.00646153 0)
(-0.0178919 -0.00640319 0)
(-0.0165073 -0.00631352 0)
(-0.0151425 -0.00619224 0)
(-0.0138038 -0.00603923 0)
(-0.0124977 -0.00585457 0)
(-0.0112305 -0.0056386 0)
(-0.0100083 -0.00539188 0)
(-0.00883721 -0.00511534 0)
(-0.00772287 -0.00481021 0)
(-0.00667073 -0.00447818 0)
(-0.00568583 -0.00412141 0)
(-0.0047727 -0.00374267 0)
(-0.00393534 -0.00334538 0)
(-0.00317703 -0.00293384 0)
(-0.00250031 -0.00251329 0)
(-0.00190685 -0.00209019 0)
(-0.00139732 -0.00167239 0)
(-0.000971355 -0.00126947 0)
(-0.00062745 -0.000893033 0)
(-0.000362761 -0.000557148 0)
(-0.000172924 -0.00027869 0)
(-5.4295e-05 -7.78707e-05 0)
(-6.2562e-06 1.95096e-05 0)
(-9.90492e-06 2.32807e-05 0)
(-7.70459e-05 0.000212316 0)
(-0.000235236 0.000508163 0)
(-0.000479943 0.000882252 0)
(-0.000811775 0.00131317 0)
(-0.00123323 0.00178302 0)
(-0.00174545 0.00227677 0)
(-0.00234843 0.00278193 0)
(-0.00304124 0.00328816 0)
(-0.00382207 0.003787 0)
(-0.00468825 0.00427153 0)
(-0.00563641 0.00473612 0)
(-0.00666247 0.0051763 0)
(-0.00776181 0.00558848 0)
(-0.00892931 0.00596987 0)
(-0.0101595 0.00631834 0)
(-0.0114464 0.00663233 0)
(-0.0127841 0.00691072 0)
(-0.0141662 0.00715278 0)
(-0.0155862 0.00735816 0)
(-0.0170377 0.00752673 0)
(-0.0185142 0.00765864 0)
(-0.0200091 0.00775424 0)
(-0.0215158 0.00781402 0)
(-0.023028 0.00783865 0)
(-0.0245394 0.0078289 0)
(-0.0260436 0.00778565 0)
(-0.0275348 0.00770987 0)
(-0.0290069 0.00760259 0)
(-0.0304543 0.00746492 0)
(-0.0318714 0.00729801 0)
(-0.0332529 0.00710305 0)
(-0.0345936 0.00688126 0)
(-0.0358888 0.00663392 0)
(-0.0371337 0.00636229 0)
(-0.0383239 0.00606768 0)
(-0.0394552 0.00575142 0)
(-0.0405237 0.00541483 0)
(-0.0415257 0.00505928 0)
(-0.0424578 0.00468611 0)
(-0.0433166 0.00429671 0)
(-0.0440995 0.00389246 0)
(-0.0448035 0.00347475 0)
(-0.0454265 0.00304499 0)
(-0.0459662 0.0026046 0)
(-0.0464207 0.00215502 0)
(-0.0467886 0.00169768 0)
(-0.0470684 0.00123406 0)
(-0.0472591 0.000765632 0)
(-0.04736 0.00029388 0)
(-0.0473706 -0.000179683 0)
(-0.0472908 -0.00065353 0)
(-0.0471206 -0.00112612 0)
(-0.0468604 -0.00159588 0)
(-0.0465109 -0.00206125 0)
(-0.0460731 -0.00252063 0)
(-0.0455484 -0.0029724 0)
(-0.0449382 -0.00341494 0)
(-0.0442446 -0.00384662 0)
(-0.0434697 -0.00426579 0)
(-0.042616 -0.0046708 0)
(-0.0416864 -0.00505999 0)
(-0.040684 -0.00543171 0)
(-0.0396122 -0.0057843 0)
(-0.0384747 -0.00611614 0)
(-0.0372757 -0.0064256 0)
(-0.0360193 -0.00671108 0)
(-0.0347103 -0.00697101 0)
(-0.0333535 -0.00720386 0)
(-0.0319541 -0.00740814 0)
(-0.0305175 -0.00758243 0)
(-0.0290494 -0.00772538 0)
(-0.0275556 -0.00783568 0)
(-0.0260424 -0.00791216 0)
(-0.0245159 -0.00795371 0)
(-0.0229827 -0.00795937 0)
(-0.0214493 -0.0079283 0)
(-0.0199226 -0.0078598 0)
(-0.0184093 -0.00775337 0)
(-0.0169163 -0.00760868 0)
(-0.0154504 -0.00742562 0)
(-0.0140185 -0.00720434 0)
(-0.0126273 -0.00694527 0)
(-0.0112835 -0.00664917 0)
(-0.00999336 -0.00631715 0)
(-0.00876314 -0.00595077 0)
(-0.00759863 -0.00555207 0)
(-0.00650524 -0.00512367 0)
(-0.0054879 -0.00466883 0)
(-0.00455097 -0.00419164 0)
(-0.00369816 -0.00369707 0)
(-0.00293244 -0.00319119 0)
(-0.00225595 -0.00268133 0)
(-0.00166993 -0.00217635 0)
(-0.00117466 -0.00168686 0)
(-0.00076945 -0.00122556 0)
(-0.000452404 -0.00080763 0)
(-0.000220262 -0.000450995 0)
(-7.14337e-05 -0.000176808 0)
(-8.97259e-06 -1.15643e-05 0)
(-1.25916e-05 6.60127e-05 0)
(-9.42839e-05 0.000342504 0)
(-0.000283202 0.000728183 0)
(-0.000571141 0.0011943 0)
(-0.000956564 0.00171886 0)
(-0.00144075 0.00228321 0)
(-0.00202379 0.00287148 0)
(-0.00270472 0.00347029 0)
(-0.00348183 0.00406847 0)
(-0.00435265 0.00465673 0)
(-0.00531396 0.0052274 0)
(-0.00636186 0.00577418 0)
(-0.00749183 0.00629199 0)
(-0.00869881 0.00677673 0)
(-0.00997729 0.00722517 0)
(-0.0113213 0.00763482 0)
(-0.0127248 0.00800382 0)
(-0.014181 0.00833083 0)
(-0.0156835 0.00861496 0)
(-0.0172254 0.00885573 0)
(-0.0187997 0.00905298 0)
(-0.0203995 0.00920682 0)
(-0.022018 0.00931762 0)
(-0.0236481 0.00938594 0)
(-0.0252832 0.00941252 0)
(-0.0269164 0.00939826 0)
(-0.0285412 0.00934416 0)
(-0.0301511 0.00925136 0)
(-0.0317398 0.00912106 0)
(-0.0333014 0.00895456 0)
(-0.0348298 0.0087532 0)
(-0.0363194 0.00851839 0)
(-0.0377648 0.00825159 0)
(-0.0391608 0.00795429 0)
(-0.0405023 0.007628 0)
(-0.0417847 0.00727427 0)
(-0.0430035 0.00689468 0)
(-0.0441545 0.00649082 0)
(-0.0452336 0.0060643 0)
(-0.0462374 0.00561673 0)
(-0.0471623 0.00514977 0)
(-0.0480053 0.00466506 0)
(-0.0487634 0.00416427 0)
(-0.0494342 0.00364908 0)
(-0.0500153 0.0031212 0)
(-0.0505048 0.00258234 0)
(-0.0509009 0.00203422 0)
(-0.0512023 0.0014786 0)
(-0.0514079 0.000917238 0)
(-0.0515168 0.000351923 0)
(-0.0515285 -0.000215542 0)
(-0.0514429 -0.00078333 0)
(-0.05126 -0.0013496 0)
(-0.0509803 -0.00191248 0)
(-0.0506046 -0.00247008 0)
(-0.0501338 -0.00302051 0)
(-0.0495694 -0.00356184 0)
(-0.0489131 -0.00409212 0)
(-0.0481668 -0.00460942 0)
(-0.0473331 -0.00511176 0)
(-0.0464144 -0.00559718 0)