/*--------------------------------*- C++ -*----------------------------------*\
| =========                 |                                                 |
| \\      /  F ield         | OpenFOAM: The Open Source CFD Toolbox           |
|  \\    /   O peration     | Version:  2212                                  |
|   \\  /    A nd           | Website:  www.openfoam.com                      |
|    \\/     M anipulation  |                                                 |
\*---------------------------------------------------------------------------*/
FoamFile
{
    version     2.0;
    format      ascii;
    arch        "LSB;label=32;scalar=64";
    class       surfaceScalarField;
    location    "0.0385";
    object      phi;
}
// * * * * * * * * * * * * * * * * * * * * * * * * * * * * * * * * * * * * * //

dimensions      [0 3 -1 0 0 0 0];

oriented        oriented;

internalField   nonuniform List<scalar> 
19800
(
6.24262e-11
-6.24952e-11
2.10734e-10
-1.4829e-10
3.62317e-10
-1.51593e-10
4.73042e-10
-1.10714e-10
5.15799e-10
-4.27542e-11
4.76682e-10
3.91181e-11
3.49324e-10
1.27362e-10
1.3193e-10
2.17396e-10
-1.74374e-10
3.06305e-10
-5.66627e-10
3.92256e-10
-1.04071e-09
4.74095e-10
-1.59176e-09
5.51061e-10
-2.2144e-09
6.22645e-10
-2.90292e-09
6.8852e-10
-3.65144e-09
7.48516e-10
-4.45401e-09
8.0257e-10
-5.30468e-09
8.50671e-10
-6.19754e-09
8.92846e-10
-7.12669e-09
9.29148e-10
-8.08637e-09
9.59683e-10
-9.07096e-09
9.84586e-10
-1.0075e-08
1.00401e-09
-1.10931e-08
1.01811e-09
-1.21201e-08
1.02705e-09
-1.31511e-08
1.031e-09
-1.41813e-08
1.03011e-09
-1.52058e-08
1.02458e-09
-1.62204e-08
1.01462e-09
-1.72208e-08
1.00037e-09
-1.82028e-08
9.82024e-10
-1.91626e-08
9.59785e-10
-2.00965e-08
9.33846e-10
-2.10009e-08
9.04385e-10
-2.18725e-08
8.71595e-10
-2.27081e-08
8.35675e-10
-2.35049e-08
7.96792e-10
-2.426e-08
7.55105e-10
-2.49708e-08
7.108e-10
-2.56349e-08
6.64071e-10
-2.625e-08
6.15096e-10
-2.6814e-08
5.64045e-10
-2.73251e-08
5.11095e-10
-2.77816e-08
4.5644e-10
-2.81818e-08
4.0025e-10
-2.85245e-08
3.4269e-10
-2.88084e-08
2.83934e-10
-2.90326e-08
2.24166e-10
-2.91962e-08
1.63579e-10
-2.92985e-08
1.02356e-10
-2.93392e-08
4.06719e-11
-2.93179e-08
-2.12824e-11
-2.92346e-08
-8.33072e-11
-2.90894e-08
-1.45209e-10
-2.88826e-08
-2.06792e-10
-2.86148e-08
-2.67867e-10
-2.82865e-08
-3.28236e-10
-2.78988e-08
-3.87683e-10
-2.74529e-08
-4.45991e-10
-2.69499e-08
-5.02954e-10
-2.63915e-08
-5.58358e-10
-2.57796e-08
-6.11989e-10
-2.51159e-08
-6.63629e-10
-2.44029e-08
-7.13048e-10
-2.36429e-08
-7.60014e-10
-2.28385e-08
-8.0431e-10
-2.19928e-08
-8.45714e-10
-2.11089e-08
-8.83995e-10
-2.01899e-08
-9.18924e-10
-1.92396e-08
-9.5028e-10
-1.82618e-08
-9.7783e-10
-1.72605e-08
-1.00135e-09
-1.62399e-08
-1.02062e-09
-1.52044e-08
-1.03543e-09
-1.41589e-08
-1.04558e-09
-1.3108e-08
-1.05086e-09
-1.20569e-08
-1.05111e-09
-1.10108e-08
-1.04612e-09
-9.97503e-09
-1.03575e-09
-8.9552e-09
-1.01982e-09
-7.95699e-09
-9.98204e-10
-6.9862e-09
-9.708e-10
-6.0487e-09
-9.37506e-10
-5.15044e-09
-8.98256e-10
-4.29743e-09
-8.53013e-10
-3.49566e-09
-8.01771e-10
-2.7511e-09
-7.44566e-10
-2.0696e-09
-6.81498e-10
-1.45685e-09
-6.12746e-10
-9.18272e-10
-5.38584e-10
-4.58865e-10
-4.59414e-10
-8.3036e-11
-3.75832e-10
2.05683e-10
-2.88719e-10
4.05059e-10
-1.99377e-10
5.14826e-10
-1.09769e-10
5.37777e-10
-2.29515e-11
4.81504e-10
5.62742e-11
3.61222e-10
1.20283e-10
2.0463e-10
1.56593e-10
6.04161e-11
1.44209e-10
6.04128e-11
1.3821e-10
-2.00683e-10
3.78164e-10
-3.88272e-10
5.95669e-10
-3.69093e-10
7.01898e-10
-2.16959e-10
6.40242e-10
1.89032e-11
3.75193e-10
3.04154e-10
-1.12867e-10
6.15424e-10
-8.32413e-10
9.36934e-10
-1.78412e-09
1.25801e-09
-2.96324e-09
1.57137e-09
-4.36119e-09
1.87202e-09
-5.9667e-09
2.15657e-09
-7.76674e-09
2.42267e-09
-9.74695e-09
2.66874e-09
-1.18922e-08
2.89378e-09
-1.41868e-08
3.09719e-09
-1.66149e-08
3.27872e-09
-1.91603e-08
3.43829e-09
-2.18072e-08
3.57602e-09
-2.45396e-08
3.69216e-09
-2.73421e-08
3.7871e-09
-3.01994e-08
3.8613e-09
-3.30966e-08
3.91528e-09
-3.60191e-08
3.94961e-09
-3.8953e-08
3.96488e-09
-4.18847e-08
3.96173e-09
-4.48009e-08
3.9408e-09
-4.76891e-08
3.90278e-09
-5.05371e-08
3.84836e-09
-5.33333e-08
3.77823e-09
-5.60665e-08
3.69308e-09
-5.87263e-08
3.59363e-09
-6.13025e-08
3.4806e-09
-6.37856e-08
3.35469e-09
-6.61665e-08
3.2166e-09
-6.84368e-08
3.06703e-09
-7.05884e-08
2.90668e-09
-7.26138e-08
2.73623e-09
-7.45061e-08
2.55638e-09
-7.62588e-08
2.36781e-09
-7.7866e-08
2.17121e-09
-7.93221e-08
1.96728e-09
-8.06224e-08
1.75671e-09
-8.17624e-08
1.54019e-09
-8.27381e-08
1.31839e-09
-8.35461e-08
1.09201e-09
-8.41837e-08
8.6175e-10
-8.46485e-08
6.28325e-10
-8.49386e-08
3.92449e-10
-8.50527e-08
1.54836e-10
-8.49902e-08
-8.37862e-11
-8.47509e-08
-3.22663e-10
-8.4335e-08
-5.61043e-10
-8.37437e-08
-7.98172e-10
-8.29783e-08
-1.03328e-09
-8.20409e-08
-1.26558e-09
-8.09343e-08
-1.49428e-09
-7.96617e-08
-1.71857e-09
-7.82271e-08
-1.93761e-09
-7.66348e-08
-2.1506e-09
-7.48901e-08
-2.35669e-09
-7.29987e-08
-2.55502e-09
-7.0967e-08
-2.74474e-09
-6.88021e-08
-2.925e-09
-6.65115e-08
-3.09491e-09
-6.41036e-08
-3.25363e-09
-6.15873e-08
-3.40028e-09
-5.89722e-08
-3.534e-09
-5.62686e-08
-3.65393e-09
-5.34872e-08
-3.75922e-09
-5.06395e-08
-3.84904e-09
-4.77375e-08
-3.92257e-09
-4.47939e-08
-3.97902e-09
-4.18219e-08
-4.01763e-09
-3.88351e-08
-4.03767e-09
-3.58477e-08
-4.03846e-09
-3.28745e-08
-4.01935e-09
-2.99305e-08
-3.97975e-09
-2.70312e-08
-3.91914e-09
-2.41923e-08
-3.83707e-09
-2.143e-08
-3.73315e-09
-1.87604e-08
-3.60711e-09
-1.61998e-08
-3.45879e-09
-1.37647e-08
-3.28817e-09
-1.14711e-08
-3.09536e-09
-9.33493e-09
-2.88071e-09
-7.37162e-09
-2.64482e-09
-5.59579e-09
-2.38858e-09
-4.02101e-09
-2.11336e-09
-2.65938e-09
-1.82105e-09
-1.52087e-09
-1.51435e-09
-6.12545e-10
-1.19704e-09
6.25781e-11
-8.74498e-10
5.07201e-10
-5.54384e-10
7.32027e-10
-2.47775e-10
7.59086e-10
2.92139e-11
6.26223e-10
2.53148e-10
3.92664e-10
3.90153e-10
1.44096e-10
3.92772e-10
2.04516e-10
1.51098e-10
-3.5179e-10
3.65949e-10
-6.03099e-10
5.01658e-10
-5.04801e-10
4.53901e-10
-1.69192e-10
1.50294e-10
3.22511e-10
-4.56928e-10
9.11387e-10
-1.39639e-09
1.55489e-09
-2.68216e-09
2.2227e-09
-4.31733e-09
2.89321e-09
-6.29694e-09
3.55098e-09
-8.60996e-09
4.18506e-09
-1.1241e-08
4.78759e-09
-1.41713e-08
5.35305e-09
-1.73802e-08
5.8776e-09
-2.08451e-08
6.35862e-09
-2.45423e-08
6.79447e-09
-2.84478e-08
7.18421e-09
-3.2537e-08
7.52743e-09
-3.67851e-08
7.82415e-09
-4.11677e-08
8.07475e-09
-4.56604e-08
8.27984e-09
-5.02394e-08
8.44028e-09
-5.48812e-08
8.55706e-09
-5.95629e-08
8.63131e-09
-6.42622e-08
8.66426e-09
-6.89577e-08
8.65718e-09
-7.36284e-08
8.61149e-09
-7.82542e-08
8.52858e-09
-8.28157e-08
8.4099e-09
-8.72944e-08
8.25692e-09
-9.16725e-08
8.07118e-09
-9.59331e-08
7.85419e-09
-1.0006e-07
7.60746e-09
-1.04038e-07
7.33251e-09
-1.07852e-07
7.03089e-09
-1.11489e-07
6.7041e-09
-1.14936e-07
6.35366e-09
-1.18181e-07
5.98109e-09
-1.21212e-07
5.5879e-09
-1.2402e-07
5.17561e-09
-1.26595e-07
4.74573e-09
-1.28927e-07
4.29976e-09
-1.3101e-07
3.83922e-09
-1.32835e-07
3.36564e-09
-1.34397e-07
2.88052e-09
-1.35691e-07
2.38538e-09
-1.36711e-07
1.88178e-09
-1.37454e-07
1.37126e-09
-1.37917e-07
8.55407e-10
-1.38098e-07
3.358e-10
-1.37995e-07
-1.85958e-10
-1.3761e-07
-7.08241e-10
-1.36942e-07
-1.22939e-09
-1.35992e-07
-1.74774e-09
-1.34764e-07
-2.2616e-09
-1.3326e-07
-2.76925e-09
-1.31485e-07
-3.26892e-09
-1.29445e-07
-3.75888e-09
-1.27145e-07
-4.2373e-09
-1.24594e-07
-4.70238e-09
-1.21798e-07
-5.15229e-09
-1.18768e-07
-5.58517e-09
-1.15513e-07
-5.99915e-09
-1.12046e-07
-6.39236e-09
-1.08378e-07
-6.76292e-09
-1.04523e-07
-7.10895e-09
-1.00494e-07
-7.42856e-09
-9.63086e-08
-7.7199e-09
-9.19814e-08
-7.98112e-09
-8.75302e-08
-8.21038e-09
-8.29734e-08
-8.40591e-09
-7.833e-08
-8.56597e-09
-7.36201e-08
-8.68887e-09
-6.88648e-08
-8.773e-09
-6.40856e-08
-8.81681e-09
-5.93052e-08
-8.81888e-09
-5.45467e-08
-8.77788e-09
-4.98338e-08
-8.6926e-09
-4.5191e-08
-8.56197e-09
-4.06429e-08
-8.38511e-09
-3.62148e-08
-8.16133e-09
-3.19317e-08
-7.89016e-09
-2.78191e-08
-7.57139e-09
-2.39021e-08
-7.20516e-09
-2.02055e-08
-6.79198e-09
-1.67534e-08
-6.33284e-09
-1.35689e-08
-5.8293e-09
-1.06738e-08
-5.2837e-09
-8.08778e-09
-4.69934e-09
-5.82808e-09
-4.08075e-09
-3.90824e-09
-3.4342e-09
-2.33708e-09
-2.7682e-09
-1.1171e-09
-2.09446e-09
-2.4239e-10
-1.4291e-09
3.04149e-10
-7.94317e-10
5.54266e-10
-2.20894e-10
5.58683e-10
2.48741e-10
3.91897e-10
5.56935e-10
1.57006e-10
6.27668e-10
3.61527e-10
1.12489e-10
-4.64277e-10
2.22551e-10
-7.13177e-10
1.79324e-10
-4.61557e-10
-1.25882e-10
1.35989e-10
-7.70839e-10
9.67483e-10
-1.80866e-09
1.9492e-09
-3.27243e-09
3.01866e-09
-5.17932e-09
4.12958e-09
-7.53395e-09
5.24783e-09
-1.03312e-08
6.34821e-09
-1.35583e-08
7.41219e-09
-1.71969e-08
8.42617e-09
-2.12241e-08
9.38031e-09
-2.5614e-08
1.02675e-08
-3.03383e-08
1.10828e-08
-3.53667e-08
1.1823e-08
-4.06684e-08
1.24858e-08
-4.62113e-08
1.30704e-08
-5.19636e-08
1.35764e-08
-5.78929e-08
1.40041e-08
-6.39675e-08
1.43544e-08
-7.01557e-08
1.46285e-08
-7.64265e-08
1.48278e-08
-8.27495e-08
1.49543e-08
-8.90951e-08
1.50098e-08
-9.54345e-08
1.49966e-08
-1.0174e-07
1.49168e-08
-1.07984e-07
1.47728e-08
-1.14141e-07
1.45671e-08
-1.20186e-07
1.43021e-08
-1.26096e-07
1.39805e-08
-1.31846e-07
1.36047e-08
-1.37416e-07
1.31775e-08
-1.42785e-07
1.27014e-08
-1.47933e-07
1.2179e-08
-1.52842e-07
1.1613e-08
-1.57494e-07
1.10059e-08
-1.61874e-07
1.03605e-08
-1.65965e-07
9.67924e-09
-1.69754e-07
8.96485e-09
-1.73228e-07
8.21992e-09
-1.76376e-07
7.44709e-09
-1.79185e-07
6.64899e-09
-1.81648e-07
5.82825e-09
-1.83755e-07
4.98751e-09
-1.85499e-07
4.12944e-09
-1.86874e-07
3.25671e-09
-1.87875e-07
2.37204e-09
-1.88498e-07
1.47816e-09
-1.8874e-07
5.7783e-10
-1.88599e-07
-3.26153e-10
-1.88077e-07
-1.23097e-09
-1.87172e-07
-2.13375e-09
-1.85889e-07
-3.03158e-09
-1.84229e-07
-3.92153e-09
-1.82197e-07
-4.80061e-09
-1.798e-07
-5.66578e-09
-1.77045e-07
-6.51398e-09
-1.7394e-07
-7.34211e-09
-1.70496e-07
-8.14702e-09
-1.66723e-07
-8.92553e-09
-1.62633e-07
-9.67445e-09
-1.58242e-07
-1.03906e-08
-1.53564e-07
-1.10706e-08
-1.48615e-07
-1.17114e-08
-1.43415e-07
-1.23096e-08
-1.37981e-07
-1.28622e-08
-1.32335e-07
-1.33657e-08
-1.26499e-07
-1.38172e-08
-1.20496e-07
-1.42134e-08
-1.1435e-07
-1.45515e-08
-1.08088e-07
-1.48283e-08
-1.01736e-07
-1.50411e-08
-9.53219e-08
-1.51871e-08
-8.8875e-08
-1.52637e-08
-8.24251e-08
-1.52687e-08
-7.60033e-08
-1.51997e-08
-6.9641e-08
-1.50549e-08
-6.33705e-08
-1.48325e-08
-5.72245e-08
-1.45311e-08
-5.1236e-08
-1.41498e-08
-4.54383e-08
-1.36879e-08
-3.98644e-08
-1.31453e-08
-3.45472e-08
-1.25225e-08
-2.95185e-08
-1.18207e-08
-2.48094e-08
-1.10419e-08
-2.04495e-08
-1.01892e-08
-1.64661e-08
-9.26711e-09
-1.28838e-08
-8.28161e-09
-9.72365e-09
-7.24095e-09
-7.00167e-09
-6.15617e-09
-4.72789e-09
-5.04197e-09
-2.90436e-09
-3.918e-09
-1.52302e-09
-2.81044e-09
-5.63031e-10
-1.7543e-09
1.2411e-11
-7.96322e-10
2.59942e-10
1.20789e-12
2.60006e-10
5.56864e-10
1.22283e-10
7.65397e-10
4.83807e-10
4.81029e-11
-5.12376e-10
-3.90397e-12
-6.61168e-10
-2.96845e-10
-1.68618e-10
-9.35433e-10
7.74585e-10
-1.99629e-09
2.02834e-09
-3.53273e-09
3.48565e-09
-5.57868e-09
5.06461e-09
-8.15201e-09
6.70291e-09
-1.12575e-08
8.35332e-09
-1.48893e-08
9.98004e-09
-1.90332e-08
1.1556e-08
-2.36681e-08
1.30611e-08
-2.87678e-08
1.44801e-08
-3.43022e-08
1.58019e-08
-4.0238e-08
1.70187e-08
-4.65399e-08
1.81248e-08
-5.31709e-08
1.91168e-08
-6.00931e-08
1.99926e-08
-6.72678e-08
2.07512e-08
-7.46565e-08
2.13928e-08
-8.22205e-08
2.19184e-08
-8.99214e-08
2.23294e-08
-9.77215e-08
2.26279e-08
-1.05584e-07
2.28165e-08
-1.13472e-07
2.28978e-08
-1.2135e-07
2.2875e-08
-1.29185e-07
2.27514e-08
-1.36943e-07
2.25305e-08
-1.44591e-07
2.22158e-08
-1.521e-07
2.18111e-08
-1.5944e-07
2.13202e-08
-1.66582e-07
2.07469e-08
-1.735e-07
2.00952e-08
-1.80168e-07
1.9369e-08
-1.86561e-07
1.85722e-08
-1.92657e-07
1.77089e-08
-1.98434e-07
1.67829e-08
-2.03872e-07
1.57984e-08
-2.08952e-07
1.47593e-08
-2.13656e-07
1.36696e-08
-2.1797e-07
1.25332e-08
-2.21877e-07
1.13543e-08
-2.25365e-07
1.01368e-08
-2.28421e-07
8.88475e-09
-2.31036e-07
7.60222e-09
-2.332e-07
6.29329e-09
-2.34905e-07
4.96205e-09
-2.36146e-07
3.61264e-09
-2.36917e-07
2.24925e-09
-2.37215e-07
8.76098e-10
-2.37039e-07
-5.02541e-10
-2.36387e-07
-1.88234e-09
-2.35262e-07
-3.25892e-09
-2.33666e-07
-4.62785e-09
-2.31603e-07
-5.98461e-09
-2.29079e-07
-7.32467e-09
-2.26101e-07
-8.64339e-09
-2.22679e-07
-9.9361e-09
-2.18823e-07
-1.11981e-08
-2.14546e-07
-1.24245e-08
-2.0986e-07
-1.36106e-08
-2.04783e-07
-1.47515e-08
-1.99332e-07
-1.58423e-08
-1.93524e-07
-1.6878e-08
-1.87382e-07
-1.78539e-08
-1.80927e-07
-1.87649e-08
-1.74182e-07
-1.96063e-08
-1.67175e-07
-2.03731e-08
-1.59932e-07
-2.10607e-08
-1.52481e-07
-2.16644e-08
-1.44852e-07
-2.21796e-08
-1.37079e-07
-2.26019e-08
-1.29193e-07
-2.29271e-08
-1.21229e-07
-2.31511e-08
-1.13222e-07
-2.32702e-08
-1.0521e-07
-2.32808e-08
-9.72302e-08
-2.31797e-08
-8.93209e-08
-2.29642e-08
-8.15215e-08
-2.26318e-08
-7.38719e-08
-2.21807e-08
-6.64121e-08
-2.16095e-08
-5.91823e-08
-2.09177e-08
-5.22222e-08
-2.01053e-08
-4.55713e-08
-1.91734e-08
-3.92677e-08
-1.81243e-08
-3.33482e-08
-1.69613e-08
-2.78477e-08
-1.56897e-08
-2.27983e-08
-1.43165e-08
-1.82285e-08
-1.28514e-08
-1.41624e-08
-1.13071e-08
-1.06183e-08
-9.70026e-09
-7.60741e-09
-8.05286e-09
-5.13199e-09
-6.39342e-09
-3.18335e-09
-4.75908e-09
-1.73946e-09
-3.19819e-09
-7.62178e-10
-1.7736e-09
-1.94223e-10
-5.6676e-10
4.44475e-11
3.18192e-10
6.09487e-11
7.48896e-10
5.44753e-10
-3.03761e-11
-4.81999e-10
-2.80063e-10
-4.11484e-10
-8.70872e-10
4.22206e-10
-1.89675e-09
1.80046e-09
-3.42799e-09
3.55957e-09
-5.51422e-09
5.57188e-09
-8.18716e-09
7.73755e-09
-1.14632e-08
9.97895e-09
-1.53458e-08
1.22359e-08
-1.98275e-08
1.44618e-08
-2.48922e-08
1.66208e-08
-3.05164e-08
1.86853e-08
-3.66708e-08
2.06344e-08
-4.33216e-08
2.24527e-08
-5.04313e-08
2.41284e-08
-5.79601e-08
2.56536e-08
-6.58659e-08
2.70226e-08
-7.41054e-08
2.82321e-08
-8.26347e-08
2.92804e-08
-9.1409e-08
3.01672e-08
-1.00384e-07
3.08934e-08
-1.09515e-07
3.14607e-08
-1.18759e-07
3.18718e-08
-1.28072e-07
3.21297e-08
-1.37413e-07
3.22383e-08
-1.46739e-07
3.22015e-08
-1.56012e-07
3.20239e-08
-1.65191e-07
3.17101e-08
-1.74241e-07
3.1265e-08
-1.83123e-07
3.06938e-08
-1.91805e-07
3.00016e-08
-2.00252e-07
2.91939e-08
-2.08432e-07
2.8276e-08
-2.16317e-07
2.72535e-08
-2.23876e-07
2.61318e-08
-2.31084e-07
2.49164e-08
-2.37914e-07
2.36131e-08
-2.44343e-07
2.22274e-08
-2.50349e-07
2.07648e-08
-2.5591e-07
1.9231e-08
-2.61009e-07
1.76316e-08
-2.65627e-07
1.59723e-08
-2.69749e-07
1.42588e-08
-2.7336e-07
1.24967e-08
-2.7645e-07
1.06917e-08
-2.79006e-07
8.84957e-09
-2.8102e-07
6.97614e-09
-2.82485e-07
5.07723e-09
-2.83394e-07
3.15873e-09
-2.83745e-07
1.22661e-09
-2.83534e-07
-7.13114e-10
-2.82762e-07
-2.65435e-09
-2.8143e-07
-4.59093e-09
-2.79542e-07
-6.51659e-09
-2.77101e-07
-8.425e-09
-2.74116e-07
-1.03097e-08
-2.70595e-07
-1.21643e-08
-2.66549e-07
-1.39822e-08
-2.6199e-07
-1.57567e-08
-2.56934e-07
-1.74811e-08
-2.51396e-07
-1.91486e-08
-2.45395e-07
-2.07525e-08
-2.38951e-07
-2.22859e-08
-2.32087e-07
-2.37418e-08
-2.24828e-07
-2.51136e-08
-2.17198e-07
-2.63943e-08
-2.09228e-07
-2.75771e-08
-2.00945e-07
-2.86554e-08
-1.92384e-07
-2.96225e-08
-1.83576e-07
-3.04719e-08
-1.74558e-07
-3.11975e-08
-1.65367e-07
-3.1793e-08
-1.56042e-07
-3.22526e-08
-1.46622e-07
-3.25708e-08
-1.3715e-07
-3.27425e-08
-1.27667e-07
-3.27629e-08
-1.18219e-07
-3.26277e-08
-1.0885e-07
-3.23332e-08
-9.96061e-08
-3.18762e-08
-9.05324e-08
-3.12544e-08
-8.16757e-08
-3.04663e-08
-7.30822e-08
-2.95112e-08
-6.47977e-08
-2.83898e-08
-5.68671e-08
-2.7104e-08
-4.93342e-08
-2.56572e-08
-4.22409e-08
-2.40547e-08
-3.56263e-08
-2.23042e-08
-2.95268e-08
-2.0416e-08
-2.39744e-08
-1.84038e-08
-1.89959e-08
-1.62855e-08
-1.4612e-08
-1.40842e-08
-1.08354e-08
-1.18295e-08
-7.66957e-09
-9.55922e-09
-5.10681e-09
-7.32184e-09
-3.12614e-09
-5.17886e-09
-1.69122e-09
-3.20854e-09
-7.47882e-10
-1.5101e-09
-2.21655e-10
-2.08029e-10
-1.47122e-11
5.41949e-10
5.30044e-10
-1.15689e-10
-3.6631e-10
-5.83725e-10
5.65516e-11
-1.50292e-09
1.3414e-09
-2.95223e-09
3.24977e-09
-4.99199e-09
5.59933e-09
-7.66502e-09
8.24492e-09
-1.09984e-08
1.10709e-08
-1.50049e-08
1.39855e-08
-1.96855e-08
1.69164e-08
-2.50301e-08
1.98064e-08
-3.10199e-08
2.26107e-08
-3.7629e-08
2.52943e-08
-4.48248e-08
2.78303e-08
-5.25702e-08
3.01981e-08
-6.08241e-08
3.23823e-08
-6.95424e-08
3.43718e-08
-7.86786e-08
3.61588e-08
-8.81847e-08
3.77383e-08
-9.80118e-08
3.91075e-08
-1.0811e-07
4.02657e-08
-1.1843e-07
4.12134e-08
-1.28922e-07
4.19527e-08
-1.39537e-07
4.24865e-08
-1.50226e-07
4.28187e-08
-1.60942e-07
4.2954e-08
-1.71637e-07
4.28974e-08
-1.82268e-07
4.26546e-08
-1.9279e-07
4.22317e-08
-2.0316e-07
4.1635e-08
-2.13337e-07
4.08711e-08
-2.23282e-07
3.99469e-08
-2.32958e-07
3.88694e-08
-2.42327e-07
3.76456e-08
-2.51357e-07
3.62828e-08
-2.60013e-07
3.47882e-08
-2.68266e-07
3.31692e-08
-2.76086e-07
3.14332e-08
-2.83446e-07
2.95875e-08
-2.90321e-07
2.76397e-08
-2.96687e-07
2.55972e-08
-3.02523e-07
2.34674e-08
-3.07809e-07
2.12579e-08
-3.12526e-07
1.89762e-08
-3.16659e-07
1.663e-08
-3.20194e-07
1.42267e-08
-3.23119e-07
1.17742e-08
-3.25423e-07
9.28002e-09
-3.27098e-07
6.75205e-09
-3.28137e-07
4.19813e-09
-3.28537e-07
1.6262e-09
-3.28294e-07
-9.55714e-10
-3.27409e-07
-3.53949e-09
-3.25883e-07
-6.11692e-09
-3.2372e-07
-8.67966e-09
-3.20926e-07
-1.12193e-08
-3.17508e-07
-1.37273e-08
-3.13477e-07
-1.6195e-08
-3.08846e-07
-1.86137e-08
-3.03628e-07
-2.09746e-08
-2.9784e-07
-2.32687e-08
-2.91502e-07
-2.54871e-08
-2.84634e-07
-2.76208e-08
-2.77259e-07
-2.96607e-08
-2.69403e-07
-3.15976e-08
-2.61094e-07
-3.34227e-08
-2.52361e-07
-3.51268e-08
-2.43238e-07
-3.67009e-08
-2.33757e-07
-3.81363e-08
-2.23955e-07
-3.94243e-08
-2.13871e-07
-4.05563e-08
-2.03544e-07
-4.15242e-08
-1.93017e-07
-4.23199e-08
-1.82334e-07
-4.29359e-08
-1.7154e-07
-4.3365e-08
-1.60682e-07
-4.36005e-08
-1.49808e-07
-4.36363e-08
-1.38969e-07
-4.3467e-08
-1.28214e-07
-4.30878e-08
-1.17595e-07
-4.2495e-08
-1.07164e-07
-4.16856e-08
-9.69724e-08
-4.06581e-08
-8.70717e-08
-3.9412e-08
-7.75131e-08
-3.79484e-08
-6.83466e-08
-3.62704e-08
-5.96208e-08
-3.4383e-08
-5.1382e-08
-3.22936e-08
-4.36736e-08
-3.00126e-08
-3.65354e-08
-2.75542e-08
-3.00029e-08
-2.49364e-08
-2.41058e-08
-2.21826e-08
-1.88672e-08
-1.93228e-08
-1.43022e-08
-1.63945e-08
-1.04164e-08
-1.3445e-08
-7.20461e-09
-1.05337e-08
-4.64885e-09
-7.73462e-09
-2.71704e-09
-5.14034e-09
-1.36124e-09
-2.86589e-09
-5.16107e-10
-1.05316e-09
-9.7422e-11
1.23263e-10
4.32629e-10
-2.03454e-10
-1.62849e-10
-9.00385e-10
7.53471e-10
-2.16561e-09
2.60664e-09
-4.06095e-09
5.14511e-09
-6.63432e-09
8.1727e-09
-9.91956e-09
1.15302e-08
-1.3937e-08
1.50883e-08
-1.86945e-08
1.8743e-08
-2.41886e-08
2.24105e-08
-3.0406e-08
2.60238e-08
-3.73248e-08
2.95294e-08
-4.49155e-08
3.2885e-08
-5.31428e-08
3.60576e-08
-6.1966e-08
3.90213e-08
-7.13405e-08
4.17568e-08
-8.12182e-08
4.42496e-08
-9.15488e-08
4.64894e-08
-1.0228e-07
4.84695e-08
-1.13358e-07
5.01859e-08
-1.2473e-07
5.16369e-08
-1.36339e-07
5.28231e-08
-1.48133e-07
5.37464e-08
-1.60057e-07
5.44103e-08
-1.72057e-07
5.48192e-08
-1.84082e-07
5.49787e-08
-1.9608e-07
5.4895e-08
-2.08e-07
5.45751e-08
-2.19795e-07
5.40264e-08
-2.31417e-07
5.32569e-08
-2.42821e-07
5.22747e-08
-2.53962e-07
5.10884e-08
-2.64799e-07
4.97068e-08
-2.75293e-07
4.81389e-08
-2.85404e-07
4.63937e-08
-2.95096e-07
4.44805e-08
-3.04336e-07
4.24087e-08
-3.1309e-07
4.01874e-08
-3.21329e-07
3.78263e-08
-3.29024e-07
3.53347e-08
-3.36149e-07
3.27223e-08
-3.4268e-07
2.99984e-08
-3.48595e-07
2.71728e-08
-3.53873e-07
2.4255e-08
-3.58498e-07
2.12548e-08
-3.62453e-07
1.81819e-08
-3.65725e-07
1.50461e-08
-3.68303e-07
1.18572e-08
-3.70176e-07
8.62525e-09
-3.71338e-07
5.36028e-09
-3.71784e-07
2.07244e-09
-3.71512e-07
-1.22801e-09
-3.70521e-07
-4.53068e-09
-3.68813e-07
-7.82507e-09
-3.66392e-07
-1.11005e-08
-3.63265e-07
-1.43463e-08
-3.5944e-07
-1.75515e-08
-3.5493e-07
-2.07052e-08
-3.49748e-07
-2.37961e-08
-3.43909e-07
-2.6813e-08
-3.37433e-07
-2.97446e-08
-3.30341e-07
-3.25795e-08
-3.22656e-07
-3.53061e-08
-3.14403e-07
-3.7913e-08
-3.05612e-07
-4.03886e-08
-2.96314e-07
-4.27214e-08
-2.8654e-07
-4.49001e-08
-2.76328e-07
-4.69131e-08
-2.65715e-07
-4.87495e-08
-2.54741e-07
-5.03981e-08
-2.43449e-07
-5.18483e-08
-2.31884e-07
-5.30897e-08
-2.20091e-07
-5.41124e-08
-2.0812e-07
-5.49068e-08
-1.96021e-07
-5.54639e-08
-1.83846e-07
-5.57755e-08
-1.71649e-07
-5.5834e-08
-1.59483e-07
-5.56328e-08
-1.47405e-07
-5.5166e-08
-1.3547e-07
-5.44293e-08
-1.23737e-07
-5.34192e-08
-1.12261e-07
-5.21341e-08
-1.01099e-07
-5.05739e-08
-9.03069e-08
-4.87404e-08
-7.99395e-08
-4.66378e-08
-7.00495e-08
-4.42729e-08
-6.06874e-08
-4.16557e-08
-5.19004e-08
-3.87996e-08
-4.3732e-08
-3.57226e-08
-3.62208e-08
-3.24475e-08
-2.93997e-08
-2.90037e-08
-2.32948e-08
-2.54277e-08
-1.79241e-08
-2.17651e-08
-1.32966e-08
-1.80725e-08
-9.41073e-09
-1.44195e-08
-6.25336e-09
-1.0892e-08
-3.7986e-09
-7.59509e-09
-2.00689e-09
-4.6576e-09
-8.24385e-10
-2.23567e-09
-1.82829e-10
-5.18288e-10
2.49799e-10
-2.91181e-10
1.28337e-10
-1.22087e-09
1.68315e-09
-2.84064e-09
4.22641e-09
-5.19446e-09
7.49892e-09
-8.31648e-09
1.12947e-08
-1.223e-08
1.54437e-08
-1.69472e-08
1.98055e-08
-2.24694e-08
2.42652e-08
-2.87881e-08
2.87292e-08
-3.58854e-08
3.31212e-08
-4.37356e-08
3.73796e-08
-5.23056e-08
4.14551e-08
-6.15565e-08
4.53085e-08
-7.14443e-08
4.8909e-08
-8.19205e-08
5.2233e-08
-9.29337e-08
5.52627e-08
-1.0443e-07
5.79853e-08
-1.16352e-07
6.03918e-08
-1.28643e-07
6.24771e-08
-1.41245e-07
6.42387e-08
-1.54098e-07
6.56766e-08
-1.67145e-07
6.67929e-08
-1.80326e-07
6.75913e-08
-1.93584e-07
6.8077e-08
-2.06861e-07
6.82565e-08
-2.20103e-07
6.8137e-08
-2.33255e-07
6.77269e-08
-2.46264e-07
6.70352e-08
-2.59078e-07
6.60713e-08
-2.71649e-07
6.48452e-08
-2.83928e-07
6.33674e-08
-2.9587e-07
6.16484e-08
-3.0743e-07
5.96994e-08
-3.18568e-07
5.75314e-08
-3.29243e-07
5.51557e-08
-3.39418e-07
5.25839e-08
-3.49058e-07
4.98273e-08
-3.5813e-07
4.68977e-08
-3.66602e-07
4.38068e-08
-3.74446e-07
4.05663e-08
-3.81635e-07
3.71879e-08
-3.88146e-07
3.36837e-08
-3.93956e-07
3.00654e-08
-3.99047e-07
2.63452e-08
-4.034e-07
2.2535e-08
-4.07001e-07
1.8647e-08
-4.09837e-07
1.46935e-08
-4.11899e-07
1.06868e-08
-4.13178e-07
6.63927e-09
-4.13669e-07
2.56361e-09
-4.13369e-07
-1.5275e-09
-4.12279e-07
-5.62121e-09
-4.10399e-07
-9.7045e-09
-4.07736e-07
-1.37642e-08
-4.04295e-07
-1.7787e-08
-4.00087e-07
-2.17594e-08
-3.95124e-07
-2.56679e-08
-3.89422e-07
-2.94985e-08
-3.82997e-07
-3.32376e-08
-3.75871e-07
-3.68709e-08
-3.68066e-07
-4.03845e-08
-3.59608e-07
-4.37642e-08
-3.50525e-07
-4.69957e-08
-3.40849e-07
-5.00649e-08
-3.30613e-07
-5.29576e-08
-3.19853e-07
-5.56598e-08
-3.08609e-07
-5.81575e-08
-2.96921e-07
-6.04371e-08
-2.84834e-07
-6.2485e-08
-2.72394e-07
-6.42882e-08
-2.5965e-07
-6.5834e-08
-2.46652e-07
-6.71103e-08
-2.33453e-07
-6.81054e-08
-2.20109e-07
-6.88085e-08
-2.06674e-07
-6.92097e-08
-1.93209e-07
-6.92997e-08
-1.79771e-07
-6.90708e-08
-1.66421e-07
-6.85161e-08
-1.5322e-07
-6.76303e-08
-1.40229e-07
-6.64098e-08
-1.2751e-07
-6.48528e-08
-1.15125e-07
-6.29596e-08
-1.03132e-07
-6.0733e-08
-9.15915e-08
-5.81783e-08
-8.05599e-08
-5.53045e-08
-7.00916e-08
-5.2124e-08
-6.02376e-08
-4.86536e-08
-5.1045e-08
-4.49151e-08
-4.2556e-08
-4.09366e-08
-3.48067e-08
-3.6753e-08
-2.78268e-08
-3.24076e-08
-2.16381e-08
-2.79538e-08
-1.62537e-08
-2.34569e-08
-1.1677e-08
-1.89962e-08
-7.90092e-09
-1.46681e-08
-4.90727e-09
-1.05887e-08
-2.66636e-09
-6.89852e-09
-1.13721e-09
-3.76483e-09
-2.68392e-10
-1.38711e-09
-1.85999e-11
-3.7746e-10
5.05803e-10
-1.53954e-09
2.84523e-09
-3.51614e-09
6.20301e-09
-6.33352e-09
1.03163e-08
-1.00116e-08
1.49728e-08
-1.45622e-08
1.99943e-08
-1.99883e-08
2.52316e-08
-2.62838e-08
3.05607e-08
-3.34339e-08
3.58793e-08
-4.14156e-08
4.11029e-08
-5.01985e-08
4.61625e-08
-5.97454e-08
5.10021e-08
-7.00137e-08
5.55767e-08
-8.09554e-08
5.98507e-08
-9.25186e-08
6.37963e-08
-1.04648e-07
6.73922e-08
-1.17286e-07
7.0623e-08
-1.30372e-07
7.34778e-08
-1.43845e-07
7.595e-08
-1.57642e-07
7.80362e-08
-1.71702e-07
7.97359e-08
-1.8596e-07
8.10513e-08
-2.00355e-07
8.19862e-08
-2.14824e-07
8.25467e-08
-2.29308e-07
8.274e-08
-2.43746e-07
8.25747e-08
-2.58079e-07
8.20604e-08
-2.72251e-07
8.12076e-08
-2.86208e-07
8.00276e-08
-2.99895e-07
7.85321e-08
-3.13261e-07
7.67335e-08
-3.26257e-07
7.46446e-08
-3.38836e-07
7.22785e-08
-3.50953e-07
6.96483e-08
-3.62565e-07
6.67678e-08
-3.73632e-07
6.36507e-08
-3.84115e-07
6.03107e-08
-3.9398e-07
5.67619e-08
-4.03191e-07
5.30184e-08
-4.11719e-07
4.90944e-08
-4.19535e-07
4.5004e-08
-4.26613e-07
4.07616e-08
-4.3293e-07
3.63816e-08
-4.38463e-07
3.18786e-08
-4.43195e-07
2.72669e-08
-4.47109e-07
2.25614e-08
-4.50193e-07
1.77769e-08
-4.52434e-07
1.29282e-08
-4.53825e-07
8.03037e-09
-4.5436e-07
3.09868e-09
-4.54036e-07
-1.85152e-09
-4.52853e-07
-6.80471e-09
-4.50812e-07
-1.17452e-08
-4.47919e-07
-1.6657e-08
-4.44182e-07
-2.15241e-08
-4.39611e-07
-2.63303e-08
-4.3422e-07
-3.1059e-08
-4.28025e-07
-3.56937e-08
-4.21045e-07
-4.02177e-08
-4.13302e-07
-4.46141e-08
-4.0482e-07
-4.88659e-08
-3.95628e-07
-5.2956e-08
-3.85757e-07
-5.68674e-08
-3.75239e-07
-6.0583e-08
-3.64111e-07
-6.40857e-08
-3.52411e-07
-6.73588e-08
-3.40183e-07
-7.03856e-08
-3.27471e-07
-7.31495e-08
-3.14322e-07
-7.56345e-08
-3.00785e-07
-7.7825e-08
-2.86913e-07
-7.97058e-08
-2.72761e-07
-8.12624e-08
-2.58385e-07
-8.24811e-08
-2.43845e-07
-8.33491e-08
-2.292e-07
-8.38545e-08
-2.14513e-07
-8.39866e-08
-1.99848e-07
-8.37362e-08
-1.85268e-07
-8.30954e-08
-1.7084e-07
-8.20582e-08
-1.5663e-07
-8.06206e-08
-1.42702e-07
-7.87808e-08
-1.29122e-07
-7.65395e-08
-1.15954e-07
-7.39004e-08
-1.03262e-07
-7.08704e-08
-9.11064e-08
-6.74604e-08
-7.9545e-08
-6.36854e-08
-6.86328e-08
-5.95657e-08
-5.84206e-08
-5.51274e-08
-4.89542e-08
-5.0403e-08
-4.02738e-08
-4.54334e-08
-3.2413e-08
-4.02685e-08
-2.53979e-08
-3.49689e-08
-1.92469e-08
-2.9608e-08
-1.3969e-08
-2.42741e-08
-9.56445e-09
-1.90726e-08
-6.02359e-09
-1.41296e-08
-3.32757e-09
-9.59455e-09
-1.44883e-09
-5.64357e-09
-3.52667e-10
-2.48327e-09
-3.71269e-10
-4.61533e-10
9.67338e-10
-1.85305e-09
4.23674e-09
-4.18461e-09
8.53458e-09
-7.46559e-09
1.35973e-08
-1.17016e-08
1.92089e-08
-1.68927e-08
2.51854e-08
-2.30319e-08
3.13707e-08
-3.01049e-08
3.76337e-08
-3.80899e-08
4.38643e-08
-4.69581e-08
4.99711e-08
-5.66738e-08
5.58782e-08
-6.71953e-08
6.15236e-08
-7.84756e-08
6.6857e-08
-9.04628e-08
7.1838e-08
-1.03101e-07
7.64347e-08
-1.16332e-07
8.06227e-08
-1.30093e-07
8.4384e-08
-1.44321e-07
8.77056e-08
-1.5895e-07
9.05795e-08
-1.73915e-07
9.30013e-08
-1.89149e-07
9.49701e-08
-2.04586e-07
9.6488e-08
-2.20159e-07
9.75593e-08
-2.35803e-07
9.81905e-08
-2.51453e-07
9.83899e-08
-2.67045e-07
9.81673e-08
-2.82519e-07
9.75336e-08
-2.97812e-07
9.65012e-08
-3.12868e-07
9.50828e-08
-3.27628e-07
9.32923e-08
-3.42038e-07
9.11441e-08
-3.56047e-07
8.8653e-08
-3.69603e-07
8.58344e-08
-3.82658e-07
8.27039e-08
-3.95168e-07
7.92774e-08
-4.07088e-07
7.55711e-08
-4.18379e-07
7.16014e-08
-4.29001e-07
6.73846e-08
-4.38921e-07
6.29375e-08
-4.48103e-07
5.82767e-08
-4.56518e-07
5.34192e-08
-4.64138e-07
4.83818e-08
-4.70938e-07
4.31816e-08
-4.76895e-07
3.78357e-08
-4.8199e-07
3.23614e-08
-4.86205e-07
2.67761e-08
-4.89525e-07
2.10973e-08
-4.91939e-07
1.53426e-08
-4.93439e-07
9.52992e-09
-4.94018e-07
3.67724e-09
-4.93672e-07
-2.19724e-09
-4.92401e-07
-8.07512e-09
-4.90209e-07
-1.39378e-08
-4.87099e-07
-1.97665e-08
-4.83081e-07
-2.55421e-08
-4.78166e-07
-3.12454e-08
-4.72368e-07
-3.68571e-08
-4.65704e-07
-4.23574e-08
-4.58195e-07
-4.77266e-08
-4.49865e-07
-5.29447e-08
-4.40739e-07
-5.79918e-08
-4.30847e-07
-6.28476e-08
-4.20223e-07
-6.7492e-08
-4.08901e-07
-7.1905e-08
-3.9692e-07
-7.60664e-08
-3.84322e-07
-7.99564e-08
-3.71153e-07
-8.35554e-08
-3.57458e-07
-8.6844e-08
-3.43289e-07
-8.98034e-08
-3.28699e-07
-9.24152e-08
-3.13743e-07
-9.46617e-08
-2.9848e-07
-9.65258e-08
-2.82969e-07
-9.79917e-08
-2.67274e-07
-9.90443e-08
-2.51459e-07
-9.96698e-08
-2.35589e-07
-9.98561e-08
-2.19733e-07
-9.95922e-08
-2.03959e-07
-9.88695e-08
-1.88336e-07
-9.7681e-08
-1.72935e-07
-9.60223e-08
-1.57824e-07
-9.38916e-08
-1.43073e-07
-9.12902e-08
-1.28751e-07
-8.82226e-08
-1.14924e-07
-8.46974e-08
-1.01657e-07
-8.07273e-08
-8.90121e-08
-7.63303e-08
-7.7048e-08
-7.15298e-08
-6.58195e-08
-6.63559e-08
-5.53762e-08
-6.08463e-08
-4.57627e-08
-5.50469e-08
-3.70172e-08
-4.9014e-08
-2.91708e-08
-4.28152e-08
-2.22475e-08
-3.65313e-08
-1.62632e-08
-3.02584e-08
-1.12257e-08
-2.41101e-08
-7.13482e-09
-1.82205e-08
-3.98289e-09
-1.27465e-08
-1.7558e-09
-7.87066e-09
-4.34882e-10
-3.80419e-09
-8.06143e-10
-5.43052e-10
1.51039e-09
-2.15956e-09
5.85324e-09
-4.84169e-09
1.12167e-08
-8.58291e-09
1.73385e-08
-1.3375e-08
2.40009e-08
-1.92059e-08
3.10163e-08
-2.60586e-08
3.82234e-08
-3.39101e-08
4.54851e-08
-4.2731e-08
5.26852e-08
-5.24859e-08
5.9726e-08
-6.31336e-08
6.65259e-08
-7.46273e-08
7.30173e-08
-8.69152e-08
7.91449e-08
-9.99412e-08
8.4864e-08
-1.13646e-07
9.0139e-08
-1.27965e-07
9.49425e-08
-1.42835e-07
9.92537e-08
-1.58187e-07
1.03058e-07
-1.73953e-07
1.06346e-07
-1.90063e-07
1.09111e-07
-2.06448e-07
1.11354e-07
-2.23036e-07
1.13076e-07
-2.39758e-07
1.14281e-07
-2.56545e-07
1.14978e-07
-2.73329e-07
1.15174e-07
-2.90043e-07
1.14881e-07
-3.06621e-07
1.14112e-07
-3.23e-07
1.1288e-07
-3.39119e-07
1.11201e-07
-3.54916e-07
1.0909e-07
-3.70335e-07
1.06563e-07
-3.8532e-07
1.03638e-07
-3.99817e-07
1.00332e-07
-4.13777e-07
9.66635e-08
-4.2715e-07
9.2651e-08
-4.39892e-07
8.8313e-08
-4.51959e-07
8.36684e-08
-4.63311e-07
7.87365e-08
-4.7391e-07
7.35365e-08
-4.83721e-07
6.80879e-08
-4.92712e-07
6.24102e-08
-5.00854e-07
5.65232e-08
-5.08119e-07
5.04466e-08
-5.14483e-07
4.42005e-08
-5.19927e-07
3.78049e-08
-5.24431e-07
3.12801e-08
-5.2798e-07
2.46465e-08
-5.30562e-07
1.79246e-08
-5.32167e-07
1.11353e-08
-5.3279e-07
4.29947e-09
-5.32425e-07
-2.56163e-09
-5.31074e-07
-9.42661e-09
-5.28738e-07
-1.62738e-08
-5.25423e-07
-2.30813e-08
-5.21138e-07
-2.9827e-08
-5.15895e-07
-3.64884e-08
-5.09709e-07
-4.3043e-08
-5.02598e-07
-4.9468e-08
-4.94585e-07
-5.57404e-08