/*--------------------------------*- C++ -*----------------------------------*\
| =========                 |                                                 |
| \\      /  F ield         | OpenFOAM: The Open Source CFD Toolbox           |
|  \\    /   O peration     | Version:  2212                                  |
|   \\  /    A nd           | Website:  www.openfoam.com                      |
|    \\/     M anipulation  |                                                 |
\*---------------------------------------------------------------------------*/
FoamFile
{
    version     2.0;
    format      ascii;
    arch        "LSB;label=32;scalar=64";
    class       volVectorField;
    location    "0.06";
    object      U_0;
}
// * * * * * * * * * * * * * * * * * * * * * * * * * * * * * * * * * * * * * //

dimensions      [0 1 -1 0 0 0 0];

internalField   nonuniform List<vector> 
10000
(
(2.87459e-06 -2.89815e-06 0)
(1.42158e-05 -7.40439e-06 0)
(3.22151e-05 -8.51032e-06 0)
(4.90301e-05 -7.2764e-06 0)
(5.98755e-05 -4.82961e-06 0)
(6.2468e-05 -1.8171e-06 0)
(5.56523e-05 1.42323e-06 0)
(3.89223e-05 4.69851e-06 0)
(1.21878e-05 7.89973e-06 0)
(-2.43677e-05 1.09681e-05 0)
(-7.0389e-05 1.38686e-05 0)
(-0.000125407 1.65798e-05 0)
(-0.000188875 1.90904e-05 0)
(-0.000260197 2.13933e-05 0)
(-0.000338746 2.34862e-05 0)
(-0.000423877 2.53723e-05 0)
(-0.000514935 2.70527e-05 0)
(-0.000611263 2.85301e-05 0)
(-0.000712207 2.98074e-05 0)
(-0.000817117 3.08889e-05 0)
(-0.000925357 3.17804e-05 0)
(-0.0010363 3.2487e-05 0)
(-0.00114935 3.30139e-05 0)
(-0.00126389 3.33671e-05 0)
(-0.00137935 3.35529e-05 0)
(-0.00149517 3.35769e-05 0)
(-0.00161081 3.3445e-05 0)
(-0.00172575 3.31638e-05 0)
(-0.00183948 3.27391e-05 0)
(-0.00195152 3.21768e-05 0)
(-0.0020614 3.14832e-05 0)
(-0.00216869 3.06647e-05 0)
(-0.00227296 2.97274e-05 0)
(-0.0023738 2.86769e-05 0)
(-0.00247084 2.75186e-05 0)
(-0.00256371 2.62588e-05 0)
(-0.00265207 2.49042e-05 0)
(-0.00273559 2.34609e-05 0)
(-0.00281399 2.19341e-05 0)
(-0.00288697 2.03294e-05 0)
(-0.00295429 1.8653e-05 0)
(-0.00301569 1.69112e-05 0)
(-0.00307096 1.51099e-05 0)
(-0.00311991 1.32551e-05 0)
(-0.00316236 1.13529e-05 0)
(-0.00319816 9.40941e-06 0)
(-0.00322717 7.43049e-06 0)
(-0.00324928 5.42203e-06 0)
(-0.00326441 3.39024e-06 0)
(-0.00327248 1.34211e-06 0)
(-0.00327346 -7.15164e-07 0)
(-0.00326731 -2.7752e-06 0)
(-0.00325406 -4.83172e-06 0)
(-0.00323372 -6.87777e-06 0)
(-0.00320634 -8.90633e-06 0)
(-0.003172 -1.09104e-05 0)
(-0.0031308 -1.28825e-05 0)
(-0.00308287 -1.48151e-05 0)
(-0.00302836 -1.67016e-05 0)
(-0.00296744 -1.85346e-05 0)
(-0.00290031 -2.03056e-05 0)
(-0.00282721 -2.20068e-05 0)
(-0.0027484 -2.36308e-05 0)
(-0.00266414 -2.51703e-05 0)
(-0.00257476 -2.66173e-05 0)
(-0.00248059 -2.7964e-05 0)
(-0.00238198 -2.92032e-05 0)
(-0.00227932 -3.0327e-05 0)
(-0.00217303 -3.13273e-05 0)
(-0.00206354 -3.21967e-05 0)
(-0.00195131 -3.2928e-05 0)
(-0.00183684 -3.35141e-05 0)
(-0.00172063 -3.39479e-05 0)
(-0.0016032 -3.42228e-05 0)
(-0.00148512 -3.43327e-05 0)
(-0.00136696 -3.42714e-05 0)
(-0.0012493 -3.40329e-05 0)
(-0.00113276 -3.36116e-05 0)
(-0.00101795 -3.30027e-05 0)
(-0.000905513 -3.2202e-05 0)
(-0.000796098 -3.12054e-05 0)
(-0.000690357 -3.00095e-05 0)
(-0.000588952 -2.86118e-05 0)
(-0.000492544 -2.70104e-05 0)
(-0.000401797 -2.52045e-05 0)
(-0.000317364 -2.31938e-05 0)
(-0.000239887 -2.09798e-05 0)
(-0.000169989 -1.85662e-05 0)
(-0.00010826 -1.59597e-05 0)
(-5.52467e-05 -1.31709e-05 0)
(-1.14336e-05 -1.02162e-05 0)
(2.2785e-05 -7.12128e-06 0)
(4.71432e-05 -3.92696e-06 0)
(6.15629e-05 -7.00887e-07 0)
(6.6252e-05 2.4418e-06 0)
(6.18548e-05 5.30167e-06 0)
(4.96647e-05 7.53491e-06 0)
(3.20684e-05 8.52724e-06 0)
(1.38494e-05 7.234e-06 0)
(2.70026e-06 2.70069e-06 0)
(7.22659e-06 -1.41598e-05 0)
(2.93847e-05 -2.9607e-05 0)
(5.89687e-05 -3.15071e-05 0)
(8.23718e-05 -2.37765e-05 0)
(9.05646e-05 -1.01861e-05 0)
(7.83387e-05 6.73216e-06 0)
(4.25536e-05 2.53652e-05 0)
(-1.85083e-05 4.46634e-05 0)
(-0.000105486 6.39501e-05 0)
(-0.000218273 8.27766e-05 0)
(-0.00035623 0.000100845 0)
(-0.000518341 0.000117958 0)
(-0.000703327 0.000133979 0)
(-0.000909725 0.00014882 0)
(-0.00113594 0.000162424 0)
(-0.00138029 0.000174759 0)
(-0.00164105 0.000185811 0)
(-0.00191645 0.000195576 0)
(-0.00220472 0.000204063 0)
(-0.00250409 0.000211283 0)
(-0.00281279 0.000217259 0)
(-0.0031291 0.000222014 0)
(-0.00345131 0.000225577 0)
(-0.00377776 0.000227981 0)
(-0.00410682 0.000229258 0)
(-0.00443691 0.000229443 0)
(-0.0047665 0.000228574 0)
(-0.00509411 0.000226689 0)
(-0.00541831 0.000223825 0)
(-0.00573773 0.00022002 0)
(-0.00605103 0.000215317 0)
(-0.00635695 0.000209753 0)
(-0.00665429 0.000203369 0)
(-0.00694188 0.000196205 0)
(-0.00721864 0.000188301 0)
(-0.00748352 0.000179698 0)
(-0.00773555 0.000170438 0)
(-0.0079738 0.00016056 0)
(-0.00819741 0.000150105 0)
(-0.00840558 0.000139115 0)
(-0.00859756 0.00012763 0)
(-0.00877266 0.000115692 0)
(-0.00893027 0.000103342 0)
(-0.00906981 9.06219e-05 0)
(-0.0091908 7.7575e-05 0)
(-0.00929277 6.42439e-05 0)
(-0.00937536 5.0671e-05 0)
(-0.00943825 3.68998e-05 0)
(-0.00948119 2.29748e-05 0)
(-0.00950399 8.94113e-06 0)
(-0.00950653 -5.15502e-06 0)
(-0.00948876 -1.92674e-05 0)
(-0.00945069 -3.33495e-05 0)
(-0.00939241 -4.73539e-05 0)
(-0.00931405 -6.12316e-05 0)
(-0.00921586 -7.49333e-05 0)
(-0.00909811 -8.84095e-05 0)
(-0.00896118 -0.00010161 0)
(-0.0088055 -0.000114485 0)
(-0.00863159 -0.000126983 0)
(-0.00844003 -0.000139051 0)
(-0.00823148 -0.000150637 0)
(-0.00800668 -0.000161689 0)
(-0.00776642 -0.000172155 0)
(-0.00751161 -0.000181983 0)
(-0.0072432 -0.000191122 0)
(-0.00696221 -0.000199519 0)
(-0.00666975 -0.000207123 0)
(-0.006367 -0.000213885 0)
(-0.00605521 -0.000219755 0)
(-0.00573568 -0.000224685 0)
(-0.00540979 -0.000228629 0)
(-0.005079 -0.000231542 0)
(-0.00474479 -0.000233383 0)
(-0.00440873 -0.000234112 0)
(-0.00407243 -0.00023369 0)
(-0.00373756 -0.000232082 0)
(-0.00340581 -0.000229258 0)
(-0.00307892 -0.00022519 0)
(-0.00275868 -0.000219856 0)
(-0.00244686 -0.000213238 0)
(-0.00214529 -0.000205323 0)
(-0.00185578 -0.000196106 0)
(-0.00158013 -0.000185589 0)
(-0.00132015 -0.000173781 0)
(-0.00107757 -0.000160704 0)
(-0.000854097 -0.000146395 0)
(-0.000651343 -0.000130909 0)
(-0.000470803 -0.000114328 0)
(-0.000313814 -9.67628e-05 0)
(-0.000181494 -7.83743e-05 0)
(-7.46656e-05 -5.93882e-05 0)
(6.25196e-06 -4.01283e-05 0)
(6.13971e-05 -2.10671e-05 0)
(9.16831e-05 -2.90647e-06 0)
(9.91009e-05 1.3296e-05 0)
(8.70611e-05 2.59446e-05 0)
(6.09372e-05 3.26219e-05 0)
(2.98097e-05 2.98081e-05 0)
(7.22518e-06 1.3838e-05 0)
(8.28244e-06 -3.18972e-05 0)
(3.11384e-05 -5.9075e-05 0)
(5.70039e-05 -5.73779e-05 0)
(6.9743e-05 -3.50076e-05 0)
(5.84921e-05 1.04186e-06 0)
(1.65138e-05 4.55962e-05 0)
(-6.06077e-05 9.49705e-05 0)
(-0.000175474 0.000146592 0)
(-0.00032925 0.000198658 0)
(-0.000522016 0.000249903 0)
(-0.000753033 0.000299439 0)
(-0.00102097 0.000346638 0)
(-0.00132405 0.000391058 0)
(-0.00166016 0.000432391 0)
(-0.00202697 0.000470428 0)
(-0.00242197 0.000505031 0)
(-0.00284254 0.000536124 0)
(-0.00328599 0.000563667 0)
(-0.00374959 0.000587652 0)
(-0.0042306 0.000608102 0)
(-0.00472628 0.000625056 0)
(-0.00523392 0.000638569 0)
(-0.00575085 0.000648709 0)
(-0.00627444 0.000655556 0)
(-0.00680213 0.000659196 0)
(-0.00733141 0.000659723 0)
(-0.00785985 0.000657234 0)
(-0.00838508 0.000651834 0)
(-0.00890484 0.000643627 0)
(-0.00941691 0.000632721 0)
(-0.00991919 0.000619227 0)
(-0.0104096 0.000603257 0)
(-0.0108863 0.000584924 0)
(-0.0113474 0.000564343 0)
(-0.0117911 0.000541628 0)
(-0.0122158 0.000516896 0)
(-0.0126199 0.000490263 0)
(-0.0130018 0.000461846 0)
(-0.0133603 0.000431763 0)
(-0.013694 0.000400133 0)
(-0.0140018 0.000367075 0)
(-0.0142824 0.000332708 0)
(-0.014535 0.000297152 0)
(-0.0147586 0.00026053 0)
(-0.0149525 0.000222964 0)
(-0.0151158 0.000184579 0)
(-0.015248 0.000145501 0)
(-0.0153486 0.000105854 0)
(-0.0154172 6.57701e-05 0)
(-0.0154535 2.53787e-05 0)
(-0.0154573 -1.51881e-05 0)
(-0.0154285 -5.57966e-05 0)
(-0.0153672 -9.63105e-05 0)
(-0.0152735 -0.000136591 0)
(-0.0151476 -0.0001765 0)
(-0.0149899 -0.000215893 0)
(-0.0148009 -0.000254629 0)
(-0.0145812 -0.000292562 0)
(-0.0143314 -0.000329548 0)
(-0.0140525 -0.000365437 0)
(-0.0137453 -0.000400081 0)
(-0.0134109 -0.000433332 0)
(-0.0130505 -0.000465039 0)
(-0.0126654 -0.000495054 0)
(-0.0122571 -0.000523229 0)
(-0.011827 -0.000549415 0)
(-0.0113768 -0.000573466 0)
(-0.0109082 -0.000595239 0)
(-0.0104233 -0.00061459 0)
(-0.00992389 -0.000631383 0)
(-0.00941213 -0.000645482 0)
(-0.00889021 -0.000656759 0)
(-0.00836043 -0.000665091 0)
(-0.00782518 -0.00067036 0)
(-0.00728693 -0.000672456 0)
(-0.00674824 -0.000671278 0)
(-0.00621173 -0.000666732 0)
(-0.0056801 -0.000658738 0)
(-0.00515608 -0.000647226 0)
(-0.00464245 -0.000632142 0)
(-0.00414204 -0.000613446 0)
(-0.00365766 -0.000591117 0)
(-0.00319214 -0.000565155 0)
(-0.00274827 -0.000535583 0)
(-0.00232881 -0.000502457 0)
(-0.00193643 -0.000465865 0)
(-0.00157368 -0.000425947 0)
(-0.00124297 -0.000382896 0)
(-0.000946497 -0.000336985 0)
(-0.000686171 -0.000288584 0)
(-0.000463537 -0.0002382 0)
(-0.000279651 -0.000186521 0)
(-0.000134934 -0.000134496 0)
(-2.89635e-05 -8.34403e-05 0)
(3.97876e-05 -3.5189e-05 0)
(7.42917e-05 7.68078e-06 0)
(7.92948e-05 4.15657e-05 0)
(6.1771e-05 6.15113e-05 0)
(3.27389e-05 6.09599e-05 0)
(8.53522e-06 3.20562e-05 0)
(7.16596e-06 -4.85158e-05 0)
(2.37563e-05 -8.24346e-05 0)
(3.52421e-05 -7.01599e-05 0)
(2.52557e-05 -2.4842e-05 0)
(-1.75277e-05 4.31756e-05 0)
(-0.000100538 0.00012592 0)
(-0.000228806 0.000217445 0)
(-0.000405431 0.000313381 0)
(-0.000631899 0.000410527 0)
(-0.000908416 0.000506554 0)
(-0.0012342 0.000599755 0)
(-0.00160769 0.000688885 0)
(-0.00202675 0.000773043 0)
(-0.00248878 0.000851582 0)
(-0.00299085 0.000924041 0)
(-0.0035298 0.00099011 0)
(-0.00410226 0.00104959 0)
(-0.00470478 0.00110236 0)
(-0.0053338 0.00114839 0)
(-0.00598574 0.00118767 0)
(-0.00665701 0.00122026 0)
(-0.00734406 0.00124626 0)
(-0.00804333 0.00126576 0)
(-0.00875135 0.00127892 0)
(-0.00946469 0.00128588 0)
(-0.01018 0.00128681 0)
(-0.0108941 0.0012819 0)
(-0.0116038 0.00127133 0)
(-0.012306 0.00125531 0)
(-0.0129977 0.00123403 0)
(-0.0136762 0.00120772 0)
(-0.0143387 0.00117658 0)
(-0.0149826 0.00114084 0)
(-0.0156054 0.0011007 0)
(-0.0162047 0.0010564 0)
(-0.0167783 0.00100816 0)
(-0.017324 0.000956206 0)
(-0.0178398 0.000900766 0)
(-0.0183239 0.00084207 0)
(-0.0187746 0.000780349 0)
(-0.0191901 0.000715838 0)
(-0.019569 0.000648768 0)
(-0.01991 0.000579377 0)
(-0.0202118 0.000507905 0)
(-0.0204734 0.000434591 0)
(-0.0206938 0.00035968 0)
(-0.0208721 0.000283417 0)
(-0.0210077 0.000206052 0)
(-0.0211 0.000127838 0)
(-0.0211488 4.90309e-05 0)
(-0.0211536 -3.01104e-05 0)
(-0.0211144 -0.000109323 0)
(-0.0210313 -0.000188342 0)
(-0.0209044 -0.000266896 0)
(-0.0207341 -0.000344711 0)
(-0.0205209 -0.000421512 0)
(-0.0202654 -0.000497017 0)
(-0.0199685 -0.000570946 0)
(-0.019631 -0.000643013 0)
(-0.0192542 -0.000712931 0)
(-0.0188393 -0.00078041 0)
(-0.0183877 -0.000845162 0)
(-0.0179011 -0.000906897 0)
(-0.0173812 -0.000965326 0)
(-0.0168299 -0.00102016 0)
(-0.0162493 -0.00107112 0)
(-0.0156416 -0.00111791 0)
(-0.0150092 -0.00116027 0)
(-0.0143547 -0.00119791 0)
(-0.0136806 -0.00123058 0)
(-0.0129899 -0.00125801 0)
(-0.0122855 -0.00127997 0)
(-0.0115704 -0.00129621 0)
(-0.0108479 -0.00130652 0)
(-0.0101212 -0.00131069 0)
(-0.00939372 -0.00130853 0)
(-0.00866903 -0.00129988 0)
(-0.00795067 -0.00128457 0)
(-0.00724227 -0.0012625 0)
(-0.00654752 -0.00123357 0)
(-0.00587013 -0.00119772 0)
(-0.00521382 -0.00115493 0)
(-0.00458228 -0.00110522 0)
(-0.00397917 -0.00104867 0)
(-0.00340805 -0.000985408 0)
(-0.00287238 -0.000915648 0)
(-0.00237541 -0.000839695 0)
(-0.00192021 -0.000757971 0)
(-0.00150951 -0.000671046 0)
(-0.00114568 -0.000579682 0)
(-0.000830556 -0.000484893 0)
(-0.000565365 -0.000388028 0)
(-0.000350506 -0.000290888 0)
(-0.000185355 -0.000195882 0)
(-6.79943e-05 -0.000106249 0)
(5.10984e-06 -2.63409e-05 0)
(3.93958e-05 3.80212e-05 0)
(4.26018e-05 7.91919e-05 0)
(2.63864e-05 8.73626e-05 0)
(7.60518e-06 4.97595e-05 0)
(4.90467e-06 -5.94597e-05 0)
(1.07664e-05 -9.09877e-05 0)
(3.01335e-07 -5.93387e-05 0)
(-4.11868e-05 1.77576e-05 0)
(-0.0001245 0.000126718 0)
(-0.000257143 0.000256905 0)
(-0.000444286 0.000400125 0)
(-0.000689161 0.000550165 0)
(-0.000993343 0.000702335 0)
(-0.00135706 0.000853103 0)
(-0.00177943 0.000999808 0)
(-0.0022587 0.00114047 0)
(-0.00279244 0.00127359 0)
(-0.00337765 0.0013981 0)
(-0.00401092 0.00151319 0)
(-0.00468852 0.00161831 0)
(-0.00540648 0.00171309 0)
(-0.00616068 0.00179728 0)
(-0.00694687 0.00187078 0)
(-0.00776074 0.00193357 0)
(-0.00859797 0.00198568 0)
(-0.00945421 0.00202723 0)
(-0.0103252 0.00205839 0)
(-0.0112066 0.00207934 0)
(-0.0120944 0.00209031 0)
(-0.0129843 0.00209157 0)
(-0.0138725 0.0020834 0)
(-0.014755 0.00206609 0)
(-0.0156281 0.00203995 0)
(-0.0164881 0.0020053 0)
(-0.0173315 0.00196249 0)
(-0.0181549 0.00191185 0)
(-0.0189552 0.00185374 0)
(-0.0197291 0.00178849 0)
(-0.0204739 0.00171648 0)
(-0.0211866 0.00163807 0)
(-0.0218646 0.00155362 0)
(-0.0225056 0.0014635 0)
(-0.023107 0.00136809 0)
(-0.0236668 0.00126776 0)
(-0.024183 0.00116289 0)
(-0.0246537 0.00105386 0)
(-0.0250772 0.000941054 0)
(-0.025452 0.000824868 0)
(-0.0257767 0.000705691 0)
(-0.0260502 0.000583923 0)
(-0.0262715 0.000459963 0)
(-0.0264397 0.000334218 0)
(-0.0265541 0.000207102 0)
(-0.0266144 7.90317e-05 0)
(-0.0266201 -4.95709e-05 0)
(-0.0265711 -0.000178278 0)
(-0.0264675 -0.000306655 0)
(-0.0263096 -0.000434263 0)
(-0.0260978 -0.000560656 0)
(-0.0258326 -0.000685386 0)
(-0.025515 -0.000807998 0)
(-0.0251459 -0.000928033 0)
(-0.0247265 -0.00104503 0)
(-0.0242583 -0.00115852 0)
(-0.0237428 -0.00126804 0)
(-0.0231818 -0.00137312 0)
(-0.0225773 -0.0014733 0)
(-0.0219315 -0.00156809 0)
(-0.0212467 -0.00165705 0)
(-0.0205256 -0.00173971 0)
(-0.0197709 -0.00181562 0)
(-0.0189855 -0.00188433 0)
(-0.0181726 -0.00194541 0)
(-0.0173354 -0.00199844 0)
(-0.0164775 -0.002043 0)
(-0.0156024 -0.0020787 0)
(-0.014714 -0.00210518 0)
(-0.0138162 -0.00212208 0)
(-0.012913 -0.00212908 0)
(-0.0120087 -0.00212589 0)
(-0.0111074 -0.00211224 0)
(-0.0102137 -0.00208793 0)
(-0.00933181 -0.00205276 0)
(-0.00846635 -0.00200661 0)
(-0.00762181 -0.00194941 0)
(-0.00680266 -0.00188115 0)
(-0.00601339 -0.00180189 0)
(-0.00525838 -0.00171179 0)
(-0.0045419 -0.00161111 0)
(-0.00386806 -0.00150023 0)
(-0.00324073 -0.00137968 0)
(-0.0026635 -0.0012502 0)
(-0.00213957 -0.00111275 0)
(-0.00167165 -0.000968588 0)
(-0.00126186 -0.00081936 0)
(-0.000911568 -0.000667211 0)
(-0.000621205 -0.000514933 0)
(-0.000390081 -0.000366162 0)
(-0.000216123 -0.000225642 0)
(-9.56028e-05 -9.95536e-05 0)
(-2.2873e-05 4.07799e-06 0)
(9.98622e-06 7.49879e-05 0)
(1.42806e-05 0.000100191 0)
(5.48321e-06 6.22878e-05 0)
(2.07779e-06 -6.25368e-05 0)
(-5.4924e-06 -7.973e-05 0)
(-4.29983e-05 -1.83564e-05 0)
(-0.000122194 0.00010008 0)
(-0.000252585 0.00025913 0)
(-0.000441305 0.000445695 0)
(-0.000693277 0.000649472 0)
(-0.00101155 0.000862458 0)
(-0.00139757 0.00107846 0)
(-0.00185145 0.00129268 0)
(-0.00237215 0.00150145 0)
(-0.00295768 0.00170196 0)
(-0.00360533 0.00189205 0)
(-0.00431174 0.00207012 0)
(-0.00507308 0.00223497 0)
(-0.00588515 0.00238573 0)
(-0.00674346 0.00252181 0)
(-0.00764331 0.00264281 0)
(-0.00857984 0.00274851 0)
(-0.00954812 0.00283882 0)
(-0.0105431 0.00291379 0)
(-0.0115599 0.00297353 0)
(-0.0125935 0.00301823 0)
(-0.0136389 0.00304816 0)
(-0.0146913 0.00306362 0)
(-0.0157459 0.00306498 0)
(-0.0167981 0.00305262 0)
(-0.0178433 0.00302694 0)
(-0.0188771 0.00298841 0)
(-0.0198952 0.00293747 0)
(-0.0208936 0.00287461 0)
(-0.0218682 0.00280031 0)
(-0.0228152 0.00271509 0)
(-0.023731 0.00261944 0)
(-0.0246122 0.0025139 0)
(-0.0254554 0.00239898 0)
(-0.0262575 0.00227522 0)
(-0.0270157 0.00214317 0)
(-0.0277271 0.00200337 0)
(-0.0283892 0.00185636 0)
(-0.0289996 0.0017027 0)
(-0.0295562 0.00154295 0)
(-0.0300569 0.00137768 0)
(-0.0305 0.00120746 0)
(-0.0308839 0.00103287 0)
(-0.0312071 0.00085448 0)
(-0.0314685 0.000672894 0)
(-0.0316672 0.000488706 0)
(-0.0318023 0.00030252 0)
(-0.0318732 0.000114949 0)
(-0.0318796 -7.33876e-05 0)
(-0.0318214 -0.000261861 0)
(-0.0316987 -0.000449835 0)
(-0.0315116 -0.000636665 0)
(-0.0312609 -0.000821701 0)
(-0.0309471 -0.00100428 0)
(-0.0305713 -0.00118375 0)
(-0.0301346 -0.00135942 0)
(-0.0296385 -0.00153064 0)
(-0.0290847 -0.00169671 0)
(-0.028475 -0.00185695 0)
(-0.0278115 -0.00201069 0)
(-0.0270966 -0.00215724 0)
(-0.0263329 -0.00229592 0)
(-0.0255232 -0.00242606 0)
(-0.0246704 -0.00254699 0)
(-0.0237779 -0.00265806 0)
(-0.0228491 -0.00275862 0)
(-0.0218877 -0.00284803 0)
(-0.0208975 -0.0029257 0)
(-0.0198827 -0.00299104 0)
(-0.0188474 -0.00304347 0)
(-0.0177962 -0.00308248 0)
(-0.0167336 -0.00310756 0)
(-0.0156643 -0.00311826 0)
(-0.0145933 -0.00311418 0)
(-0.0135255 -0.00309494 0)
(-0.012466 -0.00306024 0)
(-0.01142 -0.00300986 0)
(-0.0103926 -0.00294363 0)
(-0.00938917 -0.00286147 0)
(-0.00841477 -0.0027634 0)
(-0.00747458 -0.00264956 0)
(-0.00657365 -0.00252022 0)
(-0.00571685 -0.00237578 0)
(-0.00490886 -0.00221687 0)
(-0.00415409 -0.00204431 0)
(-0.00345657 -0.00185919 0)
(-0.00281992 -0.00166295 0)
(-0.00224717 -0.00145743 0)
(-0.00174069 -0.00124501 0)
(-0.00130204 -0.00102871 0)
(-0.000931782 -0.00081239 0)
(-0.000629291 -0.000600966 0)
(-0.000392568 -0.000400705 0)
(-0.000217998 -0.000219582 0)
(-0.000100102 -6.77174e-05 0)
(-3.12345e-05 4.21924e-05 0)
(-1.20001e-06 9.42914e-05 0)
(2.77716e-06 6.73686e-05 0)
(-9.87747e-07 -5.65841e-05 0)
(-2.35144e-05 -4.54929e-05 0)
(-9.1284e-05 5.72498e-05 0)
(-0.000212346 0.000227313 0)
(-0.000394415 0.000445843 0)
(-0.000643889 0.000697594 0)
(-0.000965131 0.000970356 0)
(-0.00136076 0.00125445 0)
(-0.0018319 0.00154222 0)
(-0.00237839 0.00182764 0)
(-0.00299892 0.00210599 0)
(-0.00369126 0.00237359 0)
(-0.00445236 0.00262758 0)
(-0.00527853 0.00286578 0)
(-0.00616556 0.00308652 0)
(-0.00710882 0.0032886 0)
(-0.00810334 0.00347113 0)
(-0.00914391 0.00363354 0)
(-0.0102251 0.00377547 0)
(-0.0113415 0.00389674 0)
(-0.0124875 0.00399736 0)
(-0.0136575 0.00407745 0)
(-0.014846 0.00413722 0)
(-0.0160473 0.004177 0)
(-0.0172559 0.00419719 0)
(-0.0184666 0.00419823 0)
(-0.0196741 0.00418062 0)
(-0.0208732 0.00414493 0)
(-0.0220588 0.00409173 0)
(-0.0232263 0.00402163 0)
(-0.0243708 0.00393527 0)
(-0.0254879 0.00383332 0)
(-0.0265733 0.00371645 0)
(-0.0276227 0.00358535 0)
(-0.0286323 0.00344073 0)
(-0.0295983 0.0032833 0)
(-0.0305172 0.00311379 0)
(-0.0313856 0.00293294 0)
(-0.0322004 0.00274149 0)
(-0.0329587 0.00254018 0)
(-0.0336577 0.00232979 0)
(-0.034295 0.00211107 0)
(-0.0348682 0.0018848 0)
(-0.0353755 0.00165177 0)
(-0.0358149 0.00141276 0)
(-0.0361848 0.00116857 0)
(-0.036484 0.000920015 0)
(-0.0367112 0.000667914 0)
(-0.0368657 0.000413095 0)
(-0.0369466 0.000156397 0)
(-0.0369538 -0.000101331 0)
(-0.0368869 -0.000359227 0)
(-0.0367461 -0.000616421 0)
(-0.0365317 -0.000872032 0)
(-0.0362444 -0.00112517 0)
(-0.035885 -0.00137493 0)
(-0.0354545 -0.00162041 0)
(-0.0349544 -0.00186069 0)
(-0.0343863 -0.00209486 0)
(-0.0337521 -0.00232198 0)
(-0.0330539 -0.00254112 0)
(-0.0322942 -0.00275136 0)
(-0.0314756 -0.00295177 0)
(-0.0306011 -0.00314143 0)
(-0.0296739 -0.00331942 0)
(-0.0286974 -0.00348484 0)
(-0.0276753 -0.0036368 0)
(-0.0266115 -0.00377442 0)
(-0.0255103 -0.00389686 0)
(-0.024376 -0.0040033 0)
(-0.0232132 -0.00409294 0)
(-0.0220268 -0.00416504 0)
(-0.0208219 -0.00421888 0)
(-0.0196035 -0.0042538 0)
(-0.0183771 -0.00426921 0)
(-0.0171482 -0.00426455 0)
(-0.0159224 -0.00423937 0)
(-0.0147054 -0.00419328 0)
(-0.0135031 -0.00412599 0)
(-0.0123212 -0.0040373 0)
(-0.0111657 -0.00392715 0)
(-0.0100423 -0.00379561 0)
(-0.00895678 -0.00364289 0)
(-0.00791475 -0.00346942 0)
(-0.00692165 -0.0032758 0)
(-0.00598265 -0.0030629 0)
(-0.00510262 -0.0028319 0)
(-0.00428605 -0.00258431 0)
(-0.00353689 -0.0023221 0)
(-0.00285853 -0.00204777 0)
(-0.00225361 -0.00176445 0)
(-0.00172394 -0.0014761 0)
(-0.00127028 -0.00118767 0)
(-0.000892257 -0.000905362 0)
(-0.000588136 -0.000636927 0)
(-0.000354665 -0.000392028 0)
(-0.000186842 -0.000182702 0)
(-7.76497e-05 -2.38011e-05 0)
(-1.85303e-05 6.63973e-05 0)
(-1.80976e-07 6.37914e-05 0)
(-4.11338e-06 -4.10327e-05 0)
(-4.23563e-05 1.35816e-05 0)
(-0.000142253 0.000170359 0)
(-0.000307807 0.000402967 0)
(-0.000544621 0.000690666 0)
(-0.000858093 0.00101642 0)
(-0.00125179 0.00136634 0)
(-0.0017277 0.00172924 0)
(-0.00228645 0.0020961 0)
(-0.00292746 0.00245972 0)
(-0.00364907 0.00281435 0)
(-0.00444871 0.00315542 0)
(-0.00532299 0.00347935 0)
(-0.00626786 0.00378335 0)
(-0.00727874 0.00406528 0)
(-0.00835057 0.00432353 0)
(-0.00947796 0.00455692 0)
(-0.0106553 0.00476464 0)
(-0.0118766 0.00494617 0)
(-0.0131359 0.00510125 0)
(-0.0144271 0.00522981 0)
(-0.0157442 0.00533196 0)
(-0.0170809 0.00540795 0)
(-0.0184312 0.00545815 0)
(-0.019789 0.00548304 0)
(-0.0211484 0.00548316 0)
(-0.0225036 0.00545916 0)
(-0.0238489 0.0054117 0)
(-0.0251787 0.00534154 0)
(-0.0264878 0.00524945 0)
(-0.0277709 0.00513624 0)
(-0.0290229 0.00500277 0)
(-0.0302392 0.0048499 0)
(-0.031415 0.00467852 0)
(-0.0325461 0.00448954 0)
(-0.0336281 0.00428389 0)
(-0.0346573 0.00406252 0)
(-0.0356298 0.00382637 0)
(-0.0365422 0.00357641 0)
(-0.0373912 0.00331363 0)
(-0.0381738 0.003039 0)
(-0.0388872 0.00275353 0)
(-0.0395289 0.00245822 0)
(-0.0400967 0.00215411 0)
(-0.0405884 0.00184221 0)
(-0.0410024 0.00152359 0)
(-0.0413371 0.00119928 0)
(-0.0415913 0.000870368 0)
(-0.041764 0.000537928 0)
(-0.0418545 0.000203058 0)
(-0.0418623 -0.000133135 0)
(-0.0417873 -0.000469526 0)
(-0.0416296 -0.000804982 0)
(-0.0413895 -0.00113835 0)
(-0.0410678 -0.00146848 0)
(-0.0406654 -0.00179419 0)
(-0.0401835 -0.0021143 0)
(-0.0396237 -0.00242762 0)
(-0.0389877 -0.00273295 0)
(-0.0382778 -0.00302909 0)
(-0.0374963 -0.00331484 0)
(-0.0366459 -0.00358898 0)
(-0.0357295 -0.00385032 0)
(-0.0347506 -0.00409766 0)
(-0.0337125 -0.00432982 0)
(-0.0326191 -0.00454563 0)
(-0.0314746 -0.00474393 0)
(-0.0302833 -0.00492362 0)
(-0.0290499 -0.00508358 0)
(-0.0277792 -0.00522277 0)
(-0.0264764 -0.00534018 0)
(-0.0251468 -0.00543483 0)
(-0.0237959 -0.00550583 0)
(-0.0224296 -0.00555234 0)
(-0.0210537 -0.0055736 0)
(-0.0196744 -0.00556892 0)
(-0.0182978 -0.00553774 0)
(-0.0169303 -0.00547957 0)
(-0.0155783 -0.00539407 0)
(-0.0142481 -0.00528104 0)
(-0.0129462 -0.00514041 0)
(-0.0116789 -0.00497233 0)
(-0.0104526 -0.00477713 0)
(-0.00927337 -0.00455537 0)
(-0.00814713 -0.00430791 0)
(-0.00707955 -0.00403592 0)
(-0.00607594 -0.00374093 0)
(-0.00514116 -0.00342494 0)
(-0.00427957 -0.00309049 0)
(-0.00349488 -0.00274073 0)
(-0.00279006 -0.00237962 0)
(-0.00216724 -0.00201206 0)
(-0.0016275 -0.00164407 0)
(-0.00117084 -0.00128311 0)
(-0.000795955 -0.000938299 0)
(-0.000500176 -0.000620866 0)
(-0.000279209 -0.000344541 0)
(-0.00012693 -0.000125999 0)
(-3.67458e-05 1.45478e-05 0)
(-3.20869e-06 5.09508e-05 0)
(-7.2052e-06 -1.56966e-05 0)
(-6.14305e-05 9.84316e-05 0)
(-0.000194385 0.000322616 0)
(-0.000405918 0.000629222 0)
(-0.000699357 0.000996108 0)
(-0.00107894 0.00140478 0)
(-0.00154726 0.00183996 0)
(-0.0021055 0.0022891 0)
(-0.00275364 0.00274199 0)
(-0.00349059 0.00319028 0)
(-0.00431423 0.00362727 0)
(-0.00522156 0.00404754 0)
(-0.00620882 0.00444677 0)
(-0.00727158 0.00482156 0)
(-0.00840484 0.00516926 0)
(-0.00960318 0.00548786 0)
(-0.0108608 0.00577585 0)
(-0.0121715 0.00603218 0)
(-0.0135291 0.00625615 0)
(-0.0149271 0.00644736 0)
(-0.0163588 0.00660569 0)
(-0.0178177 0.00673122 0)
(-0.0192972 0.00682422 0)
(-0.0207906 0.00688511 0)
(-0.0222914 0.00691444 0)
(-0.0237932 0.00691287 0)
(-0.0252897 0.00688115 0)
(-0.0267746 0.00682012 0)
(-0.0282421 0.00673067 0)
(-0.0296861 0.00661377 0)
(-0.031101 0.00647042 0)
(-0.0324815 0.00630166 0)
(-0.0338222 0.00610857 0)
(-0.0351181 0.00589226 0)
(-0.0363644 0.00565387 0)
(-0.0375566 0.00539455 0)
(-0.0386904 0.00511547 0)
(-0.0397616 0.00481784 0)
(-0.0407665 0.00450287 0)
(-0.0417014 0.00417178 0)
(-0.0425632 0.00382581 0)
(-0.0433487 0.00346622 0)
(-0.0440553 0.00309428 0)
(-0.0446803 0.00271128 0)
(-0.0452216 0.0023185 0)
(-0.0456773 0.00191728 0)
(-0.0460458 0.00150893 0)
(-0.0463255 0.00109481 0)
(-0.0465156 0.000676271 0)
(-0.0466151 0.000254698 0)
(-0.0466237 -0.000168517 0)
(-0.0465411 -0.000591961 0)
(-0.0463674 -0.00101421 0)
(-0.0461032 -0.00143381 0)
(-0.045749 -0.00184931 0)
(-0.0453061 -0.00225924 0)
(-0.0447757 -0.00266212 0)
(-0.0441595 -0.00305644 0)
(-0.0434595 -0.00344071 0)
(-0.042678 -0.00381343 0)
(-0.0418177 -0.00417307 0)
(-0.0408815 -0.00451813 0)
(-0.0398726 -0.00484711 0)
(-0.0387947 -0.00515852 0)
(-0.0376516 -0.00545087 0)
(-0.0364476 -0.00572271 0)
(-0.035187 -0.00597261 0)
(-0.0338746 -0.00619916 0)
(-0.0325156 -0.00640101 0)
(-0.0311153 -0.00657685 0)
(-0.0296792 -0.00672542 0)
(-0.0282131 -0.00684553 0)
(-0.0267231 -0.00693607 0)
(-0.0252155 -0.00699601 0)
(-0.0236967 -0.00702442 0)
(-0.0221733 -0.00702048 0)
(-0.0206521 -0.00698348 0)
(-0.0191399 -0.00691288 0)
(-0.0176436 -0.00680827 0)
(-0.0161702 -0.00666944 0)
(-0.0147266 -0.00649634 0)
(-0.0133197 -0.0062892 0)
(-0.0119562 -0.00604848 0)
(-0.0106429 -0.00577493 0)
(-0.00938602 -0.00546965 0)
(-0.00819173 -0.00513413 0)
(-0.00706577 -0.00477032 0)
(-0.00601339 -0.00438071 0)
(-0.00503935 -0.00396841 0)
(-0.00414772 -0.00353729 0)
(-0.00334186 -0.0030921 0)
(-0.00262427 -0.00263867 0)
(-0.00199648 -0.00218406 0)
(-0.00145895 -0.0017369 0)
(-0.00101098 -0.0013076 0)
(-0.000650631 -0.000908754 0)
(-0.000374497 -0.000555552 0)
(-0.00017752 -0.000266166 0)
(-5.52494e-05 -6.22732e-05 0)
(-6.20869e-06 2.86271e-05 0)
(-1.02124e-05 1.93924e-05 0)
(-8.03869e-05 0.000209374 0)
(-0.00024669 0.000514797 0)
(-0.000504869 0.000907274 0)
(-0.00085593 0.00136366 0)
(-0.00130285 0.00186435 0)
(-0.00184713 0.00239289 0)
(-0.00248902 0.00293561 0)
(-0.00322776 0.0034812 0)
(-0.00406161 0.00402032 0)
(-0.00498793 0.00454533 0)
(-0.00600322 0.00505003 0)
(-0.00710328 0.00552939 0)
(-0.00828326 0.0059794 0)
(-0.00953777 0.00639691 0)
(-0.010861 0.00677948 0)
(-0.0122466 0.00712529 0)
(-0.0136882 0.007433 0)
(-0.0151789 0.00770173 0)
(-0.016712 0.00793097 0)
(-0.0182802 0.00812049 0)
(-0.0198767 0.00827036 0)
(-0.0214943 0.00838084 0)
(-0.0231259 0.00845241 0)
(-0.0247646 0.00848569 0)
(-0.0264035 0.00848146 0)
(-0.0280357 0.00844059 0)
(-0.0296547 0.00836407 0)
(-0.0312539 0.00825297 0)
(-0.0328271 0.00810844 0)
(-0.0343682 0.00793167 0)
(-0.0358714 0.00772393 0)
(-0.0373309 0.00748652 0)
(-0.0387414 0.00722078 0)
(-0.0400977 0.00692809 0)
(-0.0413949 0.00660985 0)
(-0.0426282 0.00626749 0)
(-0.0437934 0.00590247 0)
(-0.0448864 0.00551626 0)
(-0.0459032 0.00511037 0)
(-0.0468403 0.0046863 0)
(-0.0476944 0.00424559 0)
(-0.0484626 0.0037898 0)
(-0.0491421 0.00332049 0)
(-0.0497306 0.00283926 0)
(-0.050226 0.00234771 0)
(-0.0506266 0.00184747 0)
(-0.0509307 0.00134018 0)
(-0.0511373 0.000827517 0)
(-0.0512456 0.000311163 0)
(-0.051255 -0.000207175 0)
(-0.0511653 -0.000725772 0)
(-0.0509767 -0.00124288 0)
(-0.0506897 -0.00175674 0)
(-0.0503049 -0.00226557 0)
(-0.0498236 -0.00276756 0)
(-0.0492473 -0.00326092 0)
(-0.0485777 -0.00374381 0)
(-0.047817 -0.00421441 0)
(-0.0469677 -0.00467087 0)
(-0.0460326 -0.00511136 0)
(-0.045015 -0.00553404 0)
(-0.0439183 -0.00593708 0)
(-0.0427463 -0.00631867 0)
(-0.0415034 -0.006677 0)
(-0.0401939 -0.00701031 0)
(-0.0388227 -0.00731686 0)
(-0.037395 -0.00759496 0)
(-0.0359162 -0.00784296 0)
(-0.034392 -0.00805927 0)
(-0.0328284 -0.0082424 0)
(-0.0312317 -0.00839089 0)
(-0.0296083 -0.00850342 0)
(-0.0279651 -0.00857875 0)
(-0.0263089 -0.00861578 0)
(-0.0246468 -0.00861353 0)
(-0.0229861 -0.00857118 0)
(-0.021334 -0.00848809 0)
(-0.0196981 -0.00836381 0)
(-0.0180856 -0.0081981 0)
(-0.0165041 -0.00799097 0)
(-0.0149608 -0.00774272 0)
(-0.0134632 -0.00745395 0)
(-0.0120182 -0.00712562 0)
(-0.0106326 -0.00675909 0)
(-0.00931307 -0.00635619 0)
(-0.00806568 -0.00591929 0)
(-0.00689614 -0.00545138 0)
(-0.00580959 -0.00495618 0)
(-0.00481055 -0.00443823 0)
(-0.00390279 -0.00390308 0)
(-0.00308926 -0.00335744 0)
(-0.00237203 -0.00280938 0)
(-0.00175213 -0.00226859 0)
(-0.00122958 -0.00174664 0)
(-0.000803286 -0.00125732 0)
(-0.000470857 -0.000817053 0)
(-0.000228407 -0.000445181 0)
(-7.36792e-05 -0.000164451 0)
(-9.13162e-06 -3.17027e-06 0)
(-1.3115e-05 6.40753e-05 0)
(-9.90244e-05 0.000346329 0)
(-0.000298546 0.000747089 0)
(-0.000603467 0.0012376 0)
(-0.0010125 0.00179405 0)
(-0.00152731 0.00239602 0)
(-0.00214825 0.00302612 0)
(-0.00287454 0.00366973 0)
(-0.00370459 0.00431458 0)
(-0.00463593 0.00495045 0)
(-0.0056653 0.00556888 0)
(-0.00678868 0.0061629 0)
(-0.00800135 0.00672682 0)
(-0.009298 0.00725606 0)
(-0.0106728 0.00774697 0)
(-0.0121195 0.0081967 0)
(-0.0136315 0.00860308 0)
(-0.0152017 0.00896452 0)
(-0.0168231 0.00927995 0)
(-0.0184883 0.00954871 0)
(-0.0201899 0.00977049 0)
(-0.0219204 0.00994531 0)
(-0.0236722 0.0100735 0)
(-0.025438 0.0101554 0)
(-0.0272102 0.010192 0)
(-0.0289815 0.0101839 0)
(-0.0307448 0.0101323 0)
(-0.032493 0.0100383 0)
(-0.0342192 0.00990314 0)
(-0.0359167 0.00972813 0)
(-0.0375791 0.0095147 0)
(-0.0392 0.00926435 0)
(-0.0407735 0.0089786 0)
(-0.0422938 0.00865905 0)
(-0.0437554 0.00830732 0)
(-0.0451531 0.0079251 0)
(-0.0464818 0.00751407 0)
(-0.0477369 0.00707598 0)
(-0.048914 0.00661259 0)
(-0.050009 0.00612567 0)
(-0.0510181 0.00561704 0)
(-0.0519378 0.00508854 0)
(-0.0527649 0.00454202 0)
(-0.0534965 0.00397935 0)
(-0.0541302 0.00340244 0)
(-0.0546636 0.00281321 0)
(-0.0550948 0.0022136 0)
(-0.0554224 0.0016056 0)
(-0.055645 0.000991183 0)
(-0.0557618 0.000372375 0)
(-0.0557721 -0.000248785 0)
(-0.0556759 -0.000870234 0)
(-0.0554733 -0.00148988 0)
(-0.0551646 -0.00210563 0)
(-0.0547509 -0.00271534 0)
(-0.0542333 -0.00331688 0)
(-0.0536134 -0.00390807 0)
(-0.0528931 -0.00448674 0)
(-0.0520746 -0.00505071 0)
(-0.0511608 -0.00559779 0)
(-0.0501546 -0.00612578 0)
(-0.0490593 -0.0066325 0)
(-0.0478788 -0.00711576 0)