/*--------------------------------*- C++ -*----------------------------------*\
| =========                 |                                                 |
| \\      /  F ield         | OpenFOAM: The Open Source CFD Toolbox           |
|  \\    /   O peration     | Version:  2212                                  |
|   \\  /    A nd           | Website:  www.openfoam.com                      |
|    \\/     M anipulation  |                                                 |
\*---------------------------------------------------------------------------*/
FoamFile
{
    version     2.0;
    format      ascii;
    arch        "LSB;label=32;scalar=64";
    class       surfaceScalarField;
    location    "0.07";
    object      phi;
}
// * * * * * * * * * * * * * * * * * * * * * * * * * * * * * * * * * * * * * //

dimensions      [0 3 -1 0 0 0 0];

oriented        oriented;

internalField   nonuniform List<scalar> 
19800
(
6.89931e-11
-6.88233e-11
2.3446e-10
-1.65461e-10
4.17786e-10
-1.83341e-10
5.61034e-10
-1.43248e-10
6.32035e-10
-7.10066e-11
6.12937e-10
1.90788e-11
4.94862e-10
1.18071e-10
2.74533e-10
2.20322e-10
-4.77155e-11
3.22234e-10
-4.69235e-10
4.21518e-10
-9.8589e-10
5.16651e-10
-1.59252e-09
6.06618e-10
-2.28329e-09
6.9077e-10
-3.05195e-09
7.68653e-10
-3.89195e-09
8.4001e-10
-4.79662e-09
9.04693e-10
-5.75923e-09
9.62617e-10
-6.77301e-09
1.01379e-09
-7.83128e-09
1.05827e-09
-8.92741e-09
1.09613e-09
-1.00549e-08
1.12749e-09
-1.12074e-08
1.15249e-09
-1.23787e-08
1.17126e-09
-1.35627e-08
1.18399e-09
-1.47535e-08
1.19084e-09
-1.59455e-08
1.192e-09
-1.71331e-08
1.18765e-09
-1.83111e-08
1.17798e-09
-1.94743e-08
1.16323e-09
-2.06179e-08
1.14359e-09
-2.17372e-08
1.11925e-09
-2.28276e-08
1.09042e-09
-2.38849e-08
1.05732e-09
-2.49051e-08
1.02014e-09
-2.58842e-08
9.79101e-10
-2.68186e-08
9.34418e-10
-2.77049e-08
8.86303e-10
-2.85399e-08
8.34959e-10
-2.93205e-08
7.80595e-10
-3.00439e-08
7.23432e-10
-3.07076e-08
6.63694e-10
-3.13092e-08
6.01582e-10
-3.18465e-08
5.37308e-10
-3.23175e-08
4.71097e-10
-3.27207e-08
4.03174e-10
-3.30545e-08
3.33766e-10
-3.33176e-08
2.63095e-10
-3.3509e-08
1.91383e-10
-3.36278e-08
1.18874e-10
-3.36736e-08
4.5804e-11
-3.3646e-08
-2.7598e-11
-3.35449e-08
-1.01089e-10
-3.33705e-08
-1.74419e-10
-3.31232e-08
-2.4734e-10
-3.28036e-08
-3.1959e-10
-3.24127e-08
-3.90911e-10
-3.19516e-08
-4.61054e-10
-3.14219e-08
-5.2976e-10
-3.08251e-08
-5.96749e-10
-3.01634e-08
-6.61752e-10
-2.94389e-08
-7.24505e-10
-2.86541e-08
-7.84732e-10
-2.7812e-08
-8.42162e-10
-2.69154e-08
-8.96529e-10
-2.59679e-08
-9.4756e-10
-2.49729e-08
-9.94972e-10
-2.39344e-08
-1.03849e-09
-2.28565e-08
-1.07787e-09
-2.17437e-08
-1.11284e-09
-2.06006e-08
-1.14314e-09
-1.9432e-08
-1.16854e-09
-1.82432e-08
-1.18879e-09
-1.70396e-08
-1.20367e-09
-1.58266e-08
-1.21293e-09
-1.46103e-08
-1.21638e-09
-1.33964e-08
-1.21382e-09
-1.21914e-08
-1.20508e-09
-1.10014e-08
-1.18998e-09
-9.83297e-09
-1.1684e-09
-8.69275e-09
-1.14021e-09
-7.58741e-09
-1.10534e-09
-6.52372e-09
-1.06369e-09
-5.50847e-09
-1.01524e-09
-4.54846e-09
-9.60001e-10
-3.65044e-09
-8.98016e-10
-2.82105e-09
-8.29393e-10
-2.06674e-09
-7.5431e-10
-1.39369e-09
-6.7304e-10
-8.07695e-10
-5.85983e-10
-3.13993e-10
-4.93701e-10
8.29922e-11
-3.96986e-10
3.79962e-10
-2.9697e-10
5.75254e-10
-1.95288e-10
6.69628e-10
-9.43696e-11
6.67515e-10
2.11334e-12
5.79054e-10
8.84629e-11
4.23233e-10
1.55822e-10
2.3329e-10
1.89944e-10
6.58181e-11
1.67475e-10
6.58186e-11
1.68691e-10
-2.37519e-10
4.60005e-10
-4.56766e-10
7.37455e-10
-4.60785e-10
9.02976e-10
-3.08763e-10
8.87571e-10
-5.55864e-11
6.47213e-10
2.59421e-10
1.56336e-10
6.08964e-10
-5.97521e-10
9.74164e-10
-1.61739e-09
1.34211e-09
-2.89971e-09
1.70383e-09
-4.43619e-09
2.0531e-09
-6.21514e-09
2.3856e-09
-8.22264e-09
2.69826e-09
-1.0443e-08
2.98901e-09
-1.28595e-08
3.25646e-09
-1.54545e-08
3.49971e-09
-1.82102e-08
3.71825e-09
-2.11082e-08
3.91186e-09
-2.41305e-08
4.08052e-09
-2.72587e-08
4.2244e-09
-3.0475e-08
4.3438e-09
-3.37616e-08
4.43912e-09
-3.71012e-08
4.51085e-09
-4.04768e-08
4.55955e-09
-4.38718e-08
4.58584e-09
-4.72702e-08
4.59036e-09
-5.06563e-08
4.57381e-09
-5.40152e-08
4.5369e-09
-5.73324e-08
4.48038e-09
-6.05938e-08
4.405e-09
-6.37861e-08
4.31154e-09
-6.68964e-08
4.20077e-09
-6.99126e-08
4.07348e-09
-7.28229e-08
3.93045e-09
-7.56163e-08
3.7725e-09
-7.82823e-08
3.60044e-09
-8.08111e-08
3.41507e-09
-8.31933e-08
3.21721e-09
-8.54204e-08
3.00769e-09
-8.74843e-08
2.78733e-09
-8.93776e-08
2.55696e-09
-9.10934e-08
2.31742e-09
-9.26257e-08
2.06954e-09
-9.39688e-08
1.8142e-09
-9.51178e-08
1.55224e-09
-9.60685e-08
1.28452e-09
-9.68174e-08
1.01194e-09
-9.73614e-08
7.35396e-10
-9.76983e-08
4.55779e-10
-9.78265e-08
1.74018e-10
-9.77451e-08
-1.08966e-10
-9.7454e-08
-3.92243e-10
-9.69536e-08
-6.74845e-10
-9.62451e-08
-9.55792e-10
-9.53306e-08
-1.23411e-09
-9.42127e-08
-1.5088e-09
-9.28949e-08
-1.77886e-09
-9.13814e-08
-2.04328e-09
-8.96771e-08
-2.30104e-09
-8.77877e-08
-2.55108e-09
-8.57199e-08
-2.79237e-09
-8.34807e-08
-3.02387e-09
-8.10784e-08
-3.24454e-09
-7.85216e-08
-3.45332e-09
-7.58199e-08
-3.64918e-09
-7.29838e-08
-3.8311e-09
-7.00243e-08
-3.99803e-09
-6.69532e-08
-4.14898e-09
-6.37831e-08
-4.28295e-09
-6.05272e-08
-4.399e-09
-5.71996e-08
-4.4962e-09
-5.38147e-08
-4.57363e-09
-5.03879e-08
-4.63044e-09
-4.69351e-08
-4.66582e-09
-4.34724e-08
-4.67899e-09
-4.0017e-08
-4.66926e-09
-3.65861e-08
-4.63597e-09
-3.31975e-08
-4.57858e-09
-2.98693e-08
-4.4966e-09
-2.66199e-08
-4.38964e-09
-2.34678e-08
-4.25743e-09
-2.04317e-08
-4.09981e-09
-1.75301e-08
-3.91679e-09
-1.47816e-08
-3.7085e-09
-1.22043e-08
-3.47532e-09
-9.81583e-09
-3.21786e-09
-7.63309e-09
-2.93704e-09
-5.67194e-09
-2.63419e-09
-3.94679e-09
-2.31114e-09
-2.47009e-09
-1.97042e-09
-1.25158e-09
-1.61549e-09
-2.9741e-10
-1.25114e-09
3.91253e-10
-8.83955e-10
8.20098e-10
-5.23219e-10
1.00429e-09
-1.82089e-10
9.72185e-10
1.20571e-10
7.7022e-10
3.57784e-10
4.68853e-10
4.91307e-10
1.67389e-10
4.68941e-10
2.33203e-10
1.84199e-10
-4.21733e-10
4.64625e-10
-7.37183e-10
6.71214e-10
-6.67387e-10
6.85219e-10
-3.22782e-10
4.2036e-10
2.09256e-10
-1.8216e-10
8.61947e-10
-1.1591e-09
1.58588e-09
-2.53014e-09
2.3452e-09
-4.30201e-09
3.11397e-09
-6.47166e-09
3.87346e-09
-9.02869e-09
4.61014e-09
-1.19573e-08
5.31424e-09
-1.52377e-08
5.97869e-09
-1.88472e-08
6.59852e-09
-2.27609e-08
7.17019e-09
-2.69526e-08
7.69135e-09
-3.13948e-08
8.16053e-09
-3.60599e-08
8.57691e-09
-4.09196e-08
8.94018e-09
-4.59457e-08
9.25049e-09
-5.11102e-08
9.50827e-09
-5.63853e-08
9.71421e-09
-6.17437e-08
9.86925e-09
-6.71586e-08
9.97446e-09
-7.26038e-08
1.00311e-08
-7.80538e-08
1.00404e-08
-8.34839e-08
1.00039e-08
-8.88701e-08
9.92309e-09
-9.41892e-08
9.79949e-09
-9.94189e-08
9.63472e-09
-1.04538e-07
9.43043e-09
-1.09525e-07
9.18828e-09
-1.14362e-07
8.90999e-09
-1.19029e-07
8.59727e-09
-1.23508e-07
8.25185e-09
-1.27783e-07
7.87549e-09
-1.31838e-07
7.46998e-09
-1.35658e-07
7.03709e-09
-1.39229e-07
6.57862e-09
-1.42538e-07
6.09638e-09
-1.45573e-07
5.59219e-09
-1.48324e-07
5.0679e-09
-1.50779e-07
4.52535e-09
-1.52932e-07
3.96643e-09
-1.54772e-07
3.39304e-09
-1.56295e-07
2.80708e-09
-1.57493e-07
2.2105e-09
-1.58363e-07
1.60525e-09
-1.58901e-07
9.93345e-10
-1.59104e-07
3.76778e-10
-1.5897e-07
-2.42398e-10
-1.585e-07
-8.62112e-10
-1.57695e-07
-1.48027e-09
-1.56556e-07
-2.09475e-09
-1.55087e-07
-2.70337e-09
-1.53292e-07
-3.30396e-09
-1.51176e-07
-3.89433e-09
-1.48747e-07
-4.47225e-09
-1.46013e-07
-5.03547e-09
-1.42982e-07
-5.58173e-09
-1.39666e-07
-6.10878e-09
-1.36075e-07
-6.61432e-09
-1.32224e-07
-7.09609e-09
-1.28125e-07
-7.55181e-09
-1.23795e-07
-7.97922e-09
-1.1925e-07
-8.3761e-09
-1.14508e-07
-8.74022e-09
-1.09587e-07
-9.06943e-09
-1.04509e-07
-9.36159e-09
-9.92932e-08
-9.61463e-09
-9.39628e-08
-9.82656e-09
-8.8541e-08
-9.99546e-09
-8.30519e-08
-1.01195e-08
-7.75208e-08
-1.0197e-08
-7.19736e-08
-1.02262e-08
-6.64371e-08
-1.02058e-08
-6.09386e-08
-1.01344e-08
-5.55063e-08
-1.00109e-08
-5.01686e-08
-9.8343e-09
-4.49543e-08
-9.60394e-09
-3.98924e-08
-9.31932e-09
-3.5012e-08
-8.98027e-09
-3.03418e-08
-8.58694e-09
-2.59104e-08
-8.1399e-09
-2.17455e-08
-7.64019e-09
-1.7874e-08
-7.08943e-09
-1.43211e-08
-6.48995e-09
-1.11102e-08
-5.84499e-09
-8.26242e-09
-5.15896e-09
-5.79508e-09
-4.43777e-09
-3.72126e-09
-3.68932e-09
-2.04819e-09
-2.92421e-09
-7.75454e-10
-2.15669e-09
1.07401e-10
-1.40607e-09
6.23895e-10
-6.98586e-10
8.14512e-10
-7.00526e-11
7.41387e-10
4.30906e-10
4.93283e-10
7.39414e-10
1.90437e-10
7.71788e-10
4.23635e-10
1.45723e-10
-5.67453e-10
3.16763e-10
-9.08214e-10
3.3478e-10
-6.85402e-10
7.27555e-11
-6.07683e-11
-5.62514e-10
8.44539e-10
-1.63653e-09
1.93594e-09
-3.19175e-09
3.1411e-09
-5.25209e-09
4.40554e-09
-7.82664e-09
5.6885e-09
-1.09128e-08
6.95958e-09
-1.44987e-08
8.19611e-09
-1.85658e-08
9.38127e-09
-2.30898e-08
1.05026e-08
-2.80424e-08
1.15511e-08
-3.33924e-08
1.25202e-08
-3.91063e-08
1.34053e-08
-4.5149e-08
1.42033e-08
-5.14846e-08
1.49125e-08
-5.80763e-08
1.55319e-08
-6.48873e-08
1.60614e-08
-7.18805e-08
1.65015e-08
-7.90195e-08
1.68532e-08
-8.62681e-08
1.71178e-08
-9.35905e-08
1.72969e-08
-1.00952e-07
1.73926e-08
-1.08319e-07
1.7407e-08
-1.15657e-07
1.73424e-08
-1.22936e-07
1.72014e-08
-1.30123e-07
1.69865e-08
-1.37188e-07
1.67005e-08
-1.44104e-07
1.63461e-08
-1.50842e-07
1.59262e-08
-1.57375e-07
1.54436e-08
-1.6368e-07
1.49014e-08
-1.6973e-07
1.43025e-08
-1.75505e-07
1.365e-08
-1.80982e-07
1.29469e-08
-1.86141e-07
1.21963e-08
-1.90964e-07
1.14013e-08
-1.95432e-07
1.05651e-08
-1.99531e-07
9.69074e-09
-2.03245e-07
8.78154e-09
-2.0656e-07
7.84069e-09
-2.09465e-07
6.87144e-09
-2.11949e-07
5.87711e-09
-2.14003e-07
4.86104e-09
-2.15619e-07
3.82658e-09
-2.16791e-07
2.77717e-09
-2.17514e-07
1.71627e-09
-2.17784e-07
6.47387e-10
-2.17601e-07
-4.25934e-10
-2.16963e-07
-1.50008e-09
-2.15872e-07
-2.5714e-09
-2.1433e-07
-3.6362e-09
-2.12343e-07
-4.69075e-09
-2.09916e-07
-5.73125e-09
-2.07056e-07
-6.7539e-09
-2.03773e-07
-7.75483e-09
-2.00079e-07
-8.73016e-09
-1.95985e-07
-9.67599e-09
-1.91505e-07
-1.05884e-08
-1.86656e-07
-1.14635e-08
-1.81455e-07
-1.22972e-08
-1.75921e-07
-1.30859e-08
-1.70074e-07
-1.38254e-08
-1.63938e-07
-1.4512e-08
-1.57537e-07
-1.5142e-08
-1.50895e-07
-1.57115e-08
-1.44039e-07
-1.6217e-08
-1.36999e-07
-1.66549e-08
-1.29804e-07
-1.70219e-08
-1.22485e-07
-1.73146e-08
-1.15074e-07
-1.753e-08
-1.07606e-07
-1.76652e-08
-1.00115e-07
-1.77175e-08
-9.26359e-08
-1.76844e-08
-8.52064e-08
-1.75639e-08
-7.78632e-08
-1.73541e-08
-7.06439e-08
-1.70535e-08
-6.35868e-08
-1.6661e-08
-5.673e-08
-1.61761e-08
-5.01117e-08
-1.55986e-08
-4.37695e-08
-1.49291e-08
-3.77405e-08
-1.41689e-08
-3.20606e-08
-1.33201e-08
-2.67643e-08
-1.23858e-08
-2.18837e-08
-1.13705e-08
-1.74485e-08
-1.02802e-08
-1.34846e-08
-9.12292e-09
-1.00132e-08
-7.9092e-09
-7.04963e-09
-6.65285e-09
-4.60185e-09
-5.37198e-09
-2.66819e-09
-4.09036e-09
-1.23502e-09
-2.83923e-09
-2.73822e-10
-1.65979e-09
2.62409e-10
-6.06295e-10
4.43262e-10
2.50052e-10
3.65344e-10
8.17335e-10
1.58026e-10
9.79106e-10
5.81659e-10
7.56596e-11
-6.43119e-10
7.01615e-11
-9.02708e-10
-1.85437e-10
-4.29822e-10
-8.15493e-10
5.69293e-10
-1.91265e-09
1.94167e-09
-3.54305e-09
3.56635e-09
-5.75056e-09
5.34859e-09
-8.56029e-09
7.21526e-09
-1.19819e-08
9.11014e-09
-1.60125e-08
1.09902e-08
-2.06389e-08
1.28225e-08
-2.58396e-08
1.45821e-08
-3.15871e-08
1.62502e-08
-3.78486e-08
1.78126e-08
-4.45874e-08
1.9259e-08
-5.17641e-08
2.0582e-08
-5.93371e-08
2.17763e-08
-6.72633e-08
2.28387e-08
-7.54988e-08
2.37674e-08
-8.3999e-08
2.45617e-08
-9.27194e-08
2.52219e-08
-1.01615e-07
2.57492e-08
-1.10643e-07
2.61454e-08
-1.19759e-07
2.64126e-08
-1.2892e-07
2.65538e-08
-1.38085e-07
2.65719e-08
-1.47213e-07
2.64703e-08
-1.56264e-07
2.62527e-08
-1.652e-07
2.5923e-08
-1.73985e-07
2.5485e-08
-1.82582e-07
2.49431e-08
-1.90957e-07
2.43015e-08
-1.99078e-07
2.35644e-08
-2.06913e-07
2.27364e-08
-2.14433e-07
2.18221e-08
-2.21609e-07
2.08259e-08
-2.28414e-07
1.97525e-08
-2.34825e-07
1.86067e-08
-2.40816e-07
1.73931e-08
-2.46368e-07
1.61166e-08
-2.51459e-07
1.4782e-08
-2.56072e-07
1.33942e-08
-2.60189e-07
1.19581e-08
-2.63796e-07
1.04787e-08
-2.6688e-07
8.96102e-09
-2.6943e-07
7.41024e-09
-2.71434e-07
5.83151e-09
-2.72887e-07
4.23006e-09
-2.73782e-07
2.61116e-09
-2.74115e-07
9.80198e-10
-2.73884e-07
-6.57385e-10
-2.73088e-07
-2.29609e-09
-2.71729e-07
-3.93034e-09
-2.6981e-07
-5.55448e-09
-2.67338e-07
-7.16281e-09
-2.6432e-07
-8.74956e-09
-2.60765e-07
-1.03089e-08
-2.56685e-07
-1.1835e-08
-2.52093e-07
-1.33219e-08
-2.47005e-07
-1.47636e-08
-2.4144e-07
-1.61543e-08
-2.35415e-07
-1.7488e-08
-2.28954e-07
-1.87586e-08
-2.22079e-07
-1.99603e-08
-2.14817e-07
-2.10872e-08
-2.07196e-07
-2.21336e-08
-1.99244e-07
-2.30935e-08
-1.90994e-07
-2.39616e-08
-1.82479e-07
-2.47323e-08
-1.73734e-07
-2.54002e-08
-1.64795e-07
-2.59604e-08
-1.55702e-07
-2.6408e-08
-1.46493e-07
-2.67383e-08
-1.37211e-07
-2.69471e-08
-1.27898e-07
-2.70304e-08
-1.18598e-07
-2.69847e-08
-1.09355e-07
-2.68068e-08
-1.00215e-07
-2.64942e-08
-9.12238e-08
-2.60449e-08
-8.24275e-08
-2.54574e-08
-7.38725e-08
-2.47311e-08
-6.5605e-08
-2.38661e-08
-5.76704e-08
-2.28637e-08
-5.01131e-08
-2.17261e-08
-4.29762e-08
-2.0457e-08
-3.63003e-08
-1.90616e-08
-3.01236e-08
-1.75471e-08
-2.44807e-08
-1.59231e-08
-1.94017e-08
-1.4202e-08
-1.49109e-08
-1.24e-08
-1.10258e-08
-1.05379e-08
-7.75519e-09
-8.64264e-09
-5.09707e-09
-6.74847e-09
-3.03665e-09
-4.89965e-09
-1.5435e-09
-3.15294e-09
-5.68554e-10
-1.58124e-09
-4.06458e-11
-2.77848e-10
1.37319e-10
6.3937e-10
9.35795e-11
1.02285e-09
6.75241e-10
-1.16565e-11
-6.31468e-10
-2.37226e-10
-6.77145e-10
-8.25298e-10
1.58268e-10
-1.88962e-09
1.6336e-09
-3.51632e-09
3.56838e-09
-5.76772e-09
5.81775e-09
-8.68541e-09
8.26626e-09
-1.22931e-08
1.08229e-08
-1.65991e-08
1.34161e-08
-2.1599e-08
1.59901e-08
-2.72778e-08
1.85012e-08
-3.36114e-08
2.09157e-08
-4.05689e-08
2.32077e-08
-4.81136e-08
2.53572e-08
-5.62042e-08
2.73496e-08
-6.47962e-08
2.91739e-08
-7.38422e-08
3.08223e-08
-8.32933e-08
3.22897e-08
-9.30989e-08
3.3573e-08
-1.03208e-07
3.46708e-08
-1.13569e-07
3.55831e-08
-1.24131e-07
3.6311e-08
-1.34842e-07
3.68566e-08
-1.45652e-07
3.72229e-08
-1.56512e-07
3.74133e-08
-1.67372e-07
3.7432e-08
-1.78185e-07
3.72834e-08
-1.88905e-07
3.69725e-08
-1.99487e-07
3.65046e-08
-2.09887e-07
3.5885e-08
-2.20063e-07
3.51196e-08
-2.29976e-07
3.42141e-08
-2.39586e-07
3.31748e-08
-2.48857e-07
3.20077e-08
-2.57754e-07
3.07192e-08
-2.66244e-07
2.93156e-08
-2.74295e-07
2.78036e-08
-2.81878e-07
2.61896e-08
-2.88965e-07
2.44803e-08
-2.95531e-07
2.26824e-08
-3.01552e-07
2.08029e-08
-3.07006e-07
1.88484e-08
-3.11874e-07
1.68261e-08
-3.16139e-07
1.47429e-08
-3.19784e-07
1.2606e-08
-3.22796e-07
1.04226e-08
-3.25164e-07
8.19987e-09
-3.26879e-07
5.94531e-09
-3.27935e-07
3.66636e-09
-3.28325e-07
1.37059e-09
-3.28048e-07
-9.34349e-10
-3.27104e-07
-3.24068e-09
-3.25493e-07
-5.54055e-09
-3.23222e-07
-7.82602e-09
-3.20295e-07
-1.00891e-08
-3.16724e-07
-1.23216e-08
-3.12517e-07
-1.45153e-08
-3.0769e-07
-1.66621e-08
-3.02258e-07
-1.87536e-08
-2.9624e-07
-2.07815e-08
-2.89657e-07
-2.27375e-08
-2.82532e-07
-2.46131e-08
-2.74891e-07
-2.64001e-08
-2.66761e-07
-2.80902e-08
-2.58173e-07
-2.96752e-08
-2.49159e-07
-3.11469e-08
-2.39755e-07
-3.24975e-08
-2.29998e-07
-3.37191e-08
-2.19926e-07
-3.48042e-08
-2.09581e-07
-3.57453e-08
-1.99006e-07
-3.65355e-08
-1.88246e-07
-3.7168e-08
-1.77348e-07
-3.76366e-08
-1.66359e-07
-3.79353e-08
-1.55331e-07
-3.80588e-08
-1.44313e-07
-3.80024e-08
-1.33358e-07
-3.77618e-08
-1.22519e-07
-3.73337e-08
-1.11848e-07
-3.67155e-08
-1.014e-07
-3.59056e-08
-9.12276e-08
-3.49032e-08
-8.13846e-08
-3.37092e-08
-7.19229e-08
-3.23254e-08
-6.28935e-08
-3.07555e-08
-5.43454e-08
-2.90052e-08
-4.6325e-08
-2.70821e-08
-3.88754e-08
-2.49967e-08
-3.20356e-08
-2.27628e-08
-2.58394e-08
-2.03981e-08
-2.03142e-08
-1.79252e-08
-1.54796e-08
-1.53725e-08
-1.13459e-08
-1.27763e-08
-7.9122e-09
-1.01822e-08
-5.16431e-09
-7.64754e-09
-3.07265e-09
-5.24459e-09
-1.58968e-09
-3.06422e-09
-6.4716e-10
-1.22036e-09
-1.53279e-10
1.45489e-10
1.11505e-11
8.58416e-10
6.86392e-10
-1.07813e-10
-5.2366e-10
-5.7972e-10
-2.05225e-10
-1.53888e-09
1.1174e-09
-3.08308e-09
3.17782e-09
-5.28776e-09
5.77303e-09
-8.20779e-09
8.73776e-09
-1.18795e-08
1.1938e-08
-1.63229e-08
1.52663e-08
-2.15434e-08
1.86366e-08
-2.75337e-08
2.19804e-08
-3.4276e-08
2.52435e-08
-4.17434e-08
2.83832e-08
-4.99017e-08
3.13659e-08
-5.87103e-08
3.41659e-08
-6.81239e-08
3.67632e-08
-7.80932e-08
3.91432e-08
-8.85659e-08
4.12951e-08
-9.94877e-08
4.32115e-08
-1.10802e-07
4.48877e-08
-1.22453e-07
4.63215e-08
-1.34382e-07
4.75122e-08
-1.46532e-07
4.84609e-08
-1.58845e-07
4.91699e-08
-1.71265e-07
4.96428e-08
-1.83736e-07
4.98837e-08
-1.96202e-07
4.98979e-08
-2.08609e-07
4.96911e-08
-2.20906e-07
4.92696e-08
-2.33042e-07
4.864e-08
-2.44966e-07
4.78095e-08
-2.56632e-07
4.67856e-08
-2.67994e-07
4.5576e-08
-2.79008e-07
4.41885e-08
-2.89632e-07
4.26314e-08
-2.99825e-07
4.0913e-08
-3.09551e-07
3.90417e-08
-3.18774e-07
3.70261e-08
-3.27459e-07
3.48749e-08
-3.35576e-07
3.25971e-08
-3.43095e-07
3.02015e-08
-3.49989e-07
2.76972e-08
-3.56234e-07
2.50933e-08
-3.61807e-07
2.23992e-08
-3.66689e-07
1.96242e-08
-3.7086e-07
1.67778e-08
-3.74307e-07
1.38696e-08
-3.77017e-07
1.09093e-08
-3.78978e-07
7.90673e-09
-3.80184e-07
4.87188e-09
-3.80628e-07
1.81484e-09
-3.80308e-07
-1.25419e-09
-3.79224e-07
-4.32488e-09
-3.77378e-07
-7.38677e-09
-3.74774e-07
-1.04293e-08
-3.71422e-07
-1.34418e-08
-3.6733e-07
-1.64134e-08
-3.62512e-07
-1.93333e-08
-3.56984e-07
-2.21905e-08
-3.50763e-07
-2.49741e-08
-3.43872e-07
-2.76729e-08
-3.36333e-07
-3.02759e-08
-3.28174e-07
-3.27721e-08
-3.19424e-07
-3.51504e-08
-3.10114e-07
-3.73999e-08
-3.0028e-07
-3.95097e-08
-2.89958e-07
-4.14692e-08
-2.79187e-07
-4.32678e-08
-2.68011e-07
-4.48954e-08
-2.56473e-07
-4.63418e-08
-2.44621e-07
-4.75976e-08
-2.32503e-07
-4.86535e-08
-2.2017e-07
-4.95007e-08
-2.07676e-07
-5.01311e-08
-1.95074e-07
-5.05369e-08
-1.82422e-07
-5.07114e-08
-1.69776e-07
-5.06484e-08
-1.57195e-07
-5.03426e-08
-1.44739e-07
-4.97899e-08
-1.32467e-07
-4.89871e-08
-1.2044e-07
-4.79323e-08
-1.08718e-07
-4.66252e-08
-9.73606e-08
-4.5067e-08
-8.64251e-08
-4.32608e-08
-7.59688e-08
-4.12119e-08
-6.60458e-08
-3.89281e-08
-5.67078e-08
-3.64201e-08
-4.80024e-08
-3.37021e-08
-3.99727e-08
-3.07926e-08
-3.26559e-08
-2.77149e-08
-2.60826e-08
-2.44985e-08
-2.0275e-08
-2.11801e-08
-1.52459e-08
-1.78055e-08
-1.09965e-08
-1.44316e-08
-7.51524e-09
-1.11288e-08
-4.77569e-09
-7.98415e-09
-2.73469e-09
-5.10521e-09
-1.33049e-09
-2.62456e-09
-4.80794e-10
-7.04207e-10
-8.07695e-11
4.58391e-10
6.0562e-10
-2.07744e-10
-3.15911e-10
-9.40444e-10
5.27466e-10
-2.29421e-09
2.47117e-09
-4.34806e-09
5.23168e-09
-7.16373e-09
8.58868e-09
-1.0786e-08
1.23601e-08
-1.52439e-08
1.63959e-08
-2.05514e-08
2.05738e-08
-2.67093e-08
2.47945e-08
-3.37066e-08
2.89777e-08
-4.15219e-08
3.30588e-08
-5.01246e-08
3.6986e-08
-5.94771e-08
4.07184e-08
-6.95349e-08
4.42237e-08
-8.02486e-08
4.7477e-08
-9.15648e-08
5.04594e-08
-1.03427e-07
5.31568e-08
-1.15774e-07
5.55594e-08
-1.28548e-07
5.76608e-08
-1.41683e-07
5.94573e-08
-1.55119e-07
6.09478e-08
-1.68791e-07
6.21331e-08
-1.82637e-07
6.30158e-08
-1.96594e-07
6.35996e-08
-2.106e-07
6.38899e-08
-2.24595e-07
6.38926e-08
-2.38519e-07
6.36149e-08
-2.52314e-07
6.30645e-08
-2.65923e-07
6.22496e-08
-2.79293e-07
6.11793e-08
-2.9237e-07
5.98626e-08
-3.05104e-07
5.83095e-08
-3.17445e-07
5.65297e-08
-3.29347e-07
5.45338e-08
-3.40766e-07
5.23321e-08
-3.5166e-07
4.99353e-08
-3.61988e-07
4.73546e-08
-3.71714e-07
4.46008e-08
-3.80803e-07
4.16854e-08
-3.89221e-07
3.86196e-08
-3.96939e-07
3.54152e-08
-4.03929e-07
3.20837e-08
-4.10167e-07
2.8637e-08
-4.1563e-07
2.50871e-08
-4.20298e-07
2.14461e-08
-4.24155e-07
1.77263e-08
-4.27186e-07
1.39402e-08
-4.29379e-07
1.01002e-08
-4.30727e-07
6.21927e-09
-4.31222e-07
2.31014e-09
-4.30862e-07
-1.61408e-09
-4.29647e-07
-5.5402e-09
-4.27579e-07
-9.45486e-09
-4.24663e-07
-1.33446e-08
-4.20909e-07
-1.71956e-08
-4.16328e-07
-2.09944e-08
-4.10935e-07
-2.47269e-08
-4.04746e-07
-2.83791e-08
-3.97783e-07
-3.19372e-08
-3.90069e-07
-3.5387e-08
-3.8163e-07
-3.87144e-08
-3.72497e-07
-4.19054e-08
-3.62702e-07
-4.4946e-08
-3.52279e-07
-4.78222e-08
-3.41269e-07
-5.05204e-08
-3.29711e-07
-5.3027e-08
-3.1765e-07
-5.53286e-08
-3.05133e-07
-5.74124e-08
-2.92209e-07
-5.92658e-08
-2.7893e-07
-6.08766e-08
-2.6535e-07
-6.22332e-08
-2.51526e-07
-6.33247e-08
-2.37517e-07
-6.41407e-08
-2.23382e-07
-6.46719e-08
-2.09183e-07
-6.49096e-08
-1.94985e-07
-6.48463e-08
-1.80852e-07
-6.44757e-08
-1.66849e-07
-6.37927e-08
-1.53043e-07
-6.27936e-08
-1.39499e-07
-6.14765e-08
-1.26283e-07
-5.98413e-08
-1.1346e-07
-5.78899e-08
-1.01094e-07
-5.56268e-08
-8.92467e-08
-5.30591e-08
-7.79776e-08
-5.01971e-08
-6.73428e-08
-4.70549e-08
-5.73942e-08
-4.36507e-08
-4.81789e-08
-4.0008e-08
-3.97377e-08
-3.61561e-08
-3.21047e-08
-3.21315e-08
-2.53054e-08
-2.79794e-08
-1.93556e-08
-2.37553e-08
-1.42602e-08
-1.95269e-08
-1.00118e-08
-1.53772e-08
-6.58905e-09
-1.14069e-08
-3.95548e-09
-7.73878e-09
-2.05843e-09
-4.5216e-09
-8.28081e-10
-1.93455e-09
-1.76973e-10
-1.92722e-10
4.28642e-10
-3.08459e-10
-7.4673e-12
-1.30845e-09
1.52746e-09
-3.06957e-09
4.23227e-09
-5.65077e-09
7.81286e-09
-9.09839e-09
1.20363e-08
-1.34454e-08
1.67071e-08
-1.87114e-08
2.16618e-08
-2.49031e-08
2.67655e-08
-3.20154e-08
3.19068e-08
-4.00321e-08
3.69944e-08
-4.89273e-08
4.1954e-08
-5.86666e-08
4.67253e-08
-6.9208e-08
5.12598e-08
-8.05034e-08
5.5519e-08
-9.24992e-08
5.94728e-08
-1.05138e-07
6.30979e-08
-1.18358e-07
6.63768e-08
-1.32095e-07
6.92971e-08
-1.46285e-07
7.18503e-08
-1.60859e-07
7.40315e-08
-1.7575e-07
7.58387e-08
-1.90889e-07
7.72724e-08
-2.06209e-07
7.83352e-08
-2.21641e-07
7.90316e-08
-2.37118e-07
7.93674e-08
-2.52575e-07
7.93498e-08
-2.67947e-07
7.89872e-08
-2.83172e-07
7.82887e-08
-2.98186e-07
7.72644e-08
-3.12932e-07
7.59251e-08
-3.27352e-07
7.4282e-08
-3.41389e-07
7.23469e-08
-3.54991e-07
7.0132e-08
-3.68107e-07
6.765e-08
-3.80689e-07
6.49137e-08
-3.9269e-07
6.19364e-08
-4.04067e-07
5.87315e-08
-4.14779e-07
5.53128e-08
-4.24788e-07
5.1694e-08
-4.34057e-07
4.78893e-08
-4.42555e-07
4.39131e-08
-4.50251e-07
3.97797e-08
-4.57118e-07
3.55039e-08
-4.63132e-07
3.11004e-08
-4.6827e-07
2.65844e-08
-4.72515e-07
2.1971e-08
-4.7585e-07
1.72756e-08
-4.78264e-07
1.25139e-08
-4.79746e-07
7.70149e-09
-4.8029e-07
2.85449e-09
-4.79893e-07
-2.01098e-09
-4.78555e-07
-6.87856e-09
-4.76278e-07
-1.17317e-08
-4.73069e-07
-1.65537e-08
-4.68937e-07
-2.13278e-08
-4.63894e-07
-2.60368e-08
-4.57958e-07
-3.06636e-08
-4.51146e-07
-3.51911e-08
-4.43481e-07
-3.96018e-08
-4.3499e-07
-4.38785e-08
-4.257e-07
-4.80037e-08
-4.15645e-07
-5.19602e-08
-4.04861e-07
-5.57306e-08
-3.93385e-07
-5.92979e-08
-3.8126e-07
-6.26452e-08
-3.68532e-07
-6.57558e-08
-3.55247e-07
-6.86134e-08
-3.41457e-07
-7.12022e-08
-3.27216e-07
-7.35067e-08
-3.12581e-07
-7.5512e-08
-2.9761e-07
-7.72041e-08
-2.82365e-07
-7.85696e-08
-2.6691e-07
-7.95959e-08
-2.5131e-07
-8.02717e-08
-2.35633e-07
-8.05866e-08
-2.19948e-07
-8.05317e-08
-2.04324e-07
-8.00993e-08
-1.88833e-07
-7.92835e-08
-1.73547e-07
-7.80803e-08
-1.58536e-07
-7.64875e-08
-1.43871e-07
-7.45056e-08
-1.29624e-07
-7.21372e-08
-1.15862e-07
-6.93884e-08
-1.02653e-07
-6.62682e-08
-9.00607e-08
-6.27897e-08
-7.81451e-08
-5.89705e-08
-6.69627e-08
-5.48331e-08
-5.65647e-08
-5.0406e-08
-4.69958e-08
-4.57249e-08
-3.82938e-08
-4.08335e-08
-3.04882e-08
-3.57851e-08
-2.35989e-08
-3.06445e-08
-1.76357e-08
-2.54902e-08
-1.25964e-08
-2.04165e-08
-8.46637e-09
-1.55369e-08
-5.21778e-09
-1.09874e-08
-2.80883e-09
-6.93054e-09
-1.18393e-09
-3.55945e-09
-2.7433e-10
-1.10233e-09
1.54311e-10
-4.08167e-10
4.00712e-10
-1.6768e-09
2.79609e-09
-3.85041e-09
6.40584e-09
-6.96778e-09
1.09303e-08
-1.10591e-08
1.61276e-08
-1.61443e-08
2.17922e-08
-2.22323e-08
2.77499e-08
-2.93214e-08
3.38546e-08
-3.73994e-08
3.99847e-08
-4.64439e-08
4.60389e-08
-5.64238e-08
5.1934e-08
-6.73e-08
5.76014e-08
-7.90261e-08
6.29859e-08
-9.15496e-08
6.80425e-08
-1.04813e-07
7.27361e-08
-1.18754e-07
7.70389e-08
-1.33307e-07
8.09301e-08
-1.48405e-07
8.43945e-08
-1.63976e-07
8.74215e-08
-1.79949e-07
9.00049e-08
-1.96252e-07
9.21417e-08
-2.12812e-07
9.3832e-08
-2.29555e-07
9.50786e-08
-2.4641e-07
9.58861e-08
-2.63304e-07
9.62614e-08
-2.80167e-07
9.62127e-08
-2.96929e-07
9.57496e-08
-3.13523e-07
9.4883e-08
-3.29884e-07
9.36246e-08
-3.45946e-07
9.19872e-08
-3.61648e-07
8.9984e-08
-3.7693e-07
8.76292e-08
-3.91736e-07
8.49374e-08
-4.06009e-07
8.19235e-08
-4.19698e-07
7.86031e-08
-4.32754e-07
7.49921e-08
-4.45129e-07
7.11065e-08
-4.56779e-07
6.69629e-08
-4.67663e-07
6.2578e-08
-4.77743e-07
5.79688e-08
-4.86982e-07
5.31525e-08
-4.95349e-07
4.81467e-08
-5.02814e-07
4.29689e-08
-5.09351e-07
3.76373e-08
-5.14936e-07
3.21698e-08
-5.1955e-07
2.65848e-08
-5.23176e-07
2.09011e-08
-5.25799e-07
1.51374e-08
-5.27411e-07
9.31284e-09
-5.28003e-07
3.44665e-09
-5.27572e-07
-2.44161e-09
-5.26118e-07
-8.3322e-09
-5.23645e-07
-1.42051e-08
-5.20158e-07
-2.00403e-08
-5.15669e-07
-2.58173e-08
-5.1019e-07
-3.15155e-08
-5.03739e-07
-3.71145e-08
-4.96337e-07
-4.25933e-08
-4.88008e-07
-4.79311e-08
-4.7878e-07
-5.31069e-08
-4.68683e-07
-5.81e-08
-4.57754e-07
-6.28894e-08
-4.4603e-07
-6.74545e-08
-4.33553e-07
-7.17746e-08
-4.20369e-07
-7.58294e-08
-4.06526e-07
-7.95991e-08
-3.92075e-07
-8.30641e-08
-3.77072e-07
-8.62052e-08
-3.61575e-07
-8.90042e-08
-3.45644e-07
-9.14432e-08
-3.29342e-07
-9.35055e-08
-3.12737e-07
-9.5175e-08
-2.95896e-07
-9.64371e-08
-2.78889e-07
-9.7278e-08
-2.6179e-07
-9.76858e-08
-2.44672e-07
-9.76499e-08
-2.2761e-07
-9.71613e-08
-2.1068e-07
-9.62134e-08
-1.93959e-07
-9.48016e-08
-1.77522e-07
-9.29238e-08
-1.61447e-07
-9.05807e-08
-1.45808e-07
-8.77762e-08
-1.30679e-07
-8.45176e-08
-1.16131e-07
-8.08163e-08
-1.02232e-07
-7.66883e-08
-8.90482e-08
-7.21545e-08
-7.66391e-08
-6.72421e-08
-6.50604e-08
-6.19848e-08
-5.4361e-08
-5.64243e-08
-4.45831e-08
-5.06114e-08
-3.57607e-08
-4.46075e-08
-2.79188e-08
-3.84864e-08
-2.10726e-08
-3.23364e-08
-1.52267e-08
-2.62624e-08
-1.03744e-08
-2.03891e-08
-6.49769e-09
-1.48641e-08
-3.56676e-09
-9.86146e-09
-1.54115e-09
-5.58506e-09
-3.70991e-10
-2.27249e-09
-2.16677e-10
-5.0595e-10
9.06648e-10
-2.04122e-09
4.33136e-09
-4.62723e-09
8.99185e-09
-8.28325e-09
1.45863e-08
-1.30231e-08
2.08674e-08
-1.8853e-08
2.76221e-08
-2.57706e-08
3.46675e-08
-3.37647e-08
4.18487e-08
-4.28148e-08
4.90348e-08
-5.28921e-08
5.61162e-08
-6.39592e-08
6.30011e-08
-7.59717e-08
6.96139e-08
-8.88783e-08
7.58924e-08
-1.02622e-07
8.17862e-08
-1.17141e-07
8.72546e-08
-1.32368e-07
9.22661e-08
-1.48234e-07
9.67963e-08
-1.64667e-07
1.00827e-07
-1.81591e-07
1.04346e-07
-1.98931e-07
1.07345e-07
-2.16611e-07
1.09821e-07
-2.34552e-07
1.11773e-07
-2.52677e-07
1.13204e-07
-2.7091e-07
1.14119e-07
-2.89174e-07
1.14526e-07
-3.07394e-07
1.14433e-07
-3.25498e-07
1.13853e-07
-3.43411e-07
1.12797e-07
-3.61066e-07
1.11279e-07
-3.78393e-07
1.09314e-07
-3.95326e-07
1.06917e-07
-4.11802e-07
1.04106e-07
-4.27761e-07
1.00896e-07
-4.43142e-07
9.73053e-08
-4.57892e-07
9.33527e-08
-4.71956e-07
8.90564e-08
-4.85285e-07
8.44356e-08
-4.97832e-07
7.95096e-08
-5.09552e-07
7.42983e-08
-5.20405e-07
6.88216e-08
-5.30353e-07
6.31001e-08
-5.3936e-07
5.71543e-08
-5.47396e-07
5.10052e-08
-5.54433e-07
4.4674e-08
-5.60446e-07
3.81823e-08
-5.65413e-07
3.15517e-08
-5.69316e-07
2.48044e-08
-5.72141e-07
1.79625e-08
-5.73877e-07
1.10489e-08
-5.74516e-07
4.08613e-09
-5.74056e-07
-2.90251e-09
-5.72494e-07
-9.8937e-09
-5.69835e-07
-1.68638e-08
-5.66087e-07
-2.37889e-08
-5.61259e-07
-3.06451e-08
-5.55366e-07
-3.74079e-08
-5.48428e-07
-4.40531e-08
-5.40465e-07
-5.0556e-08
-5.31504e-07
-5.68919e-08
-5.21575e-07
-6.30363e-08
-5.10711e-07
-6.89644e-08
-4.98948e-07
-7.46517e-08
-4.86329e-07
-8.00737e-08
-4.72897e-07
-8.52062e-08
-4.58701e-07
-9.00253e-08
-4.43793e-07
-9.45075e-08
-4.28227e-07
-9.86299e-08
-4.12062e-07
-1.0237e-07
-3.9536e-07
-1.05706e-07
-3.78186e-07
-1.08618e-07
-3.60606e-07
-1.11085e-07
-3.42691e-07
-1.13089e-07
-3.24515e-07
-1.14614e-07
-3.06151e-07
-1.15642e-07
-2.87678e-07
-1.1616e-07
-2.69172e-07
-1.16155e-07
-2.50715e-07
-1.15619e-07
-2.32386e-07
-1.14542e-07
-2.14267e-07
-1.1292e-07
-1.9644e-07
-1.10751e-07
-1.78984e-07
-1.08037e-07
-1.61979e-07
-1.04781e-07
-1.45505e-07
-1.00992e-07
-1.29635e-07
-9.66856e-08
-1.14445e-07
-9.18791e-08
-1.00001e-07
-8.65976e-08
-8.63711e-08
-8.08725e-08
-7.36132e-08
-7.47427e-08
-6.17815e-08
-6.8256e-08
-5.09228e-08
-6.14701e-08
-4.10764e-08
-5.44539e-08
-3.2273e-08
-4.72898e-08
-2.45344e-08
-4.0075e-08
-1.78727e-08
-3.29241e-08
-1.22901e-08
-2.59717e-08
-7.77897e-09
-1.93752e-08
-4.32243e-09
-1.3318e-08
-1.89524e-09
-8.01224e-09
-4.659e-10
-3.70184e-09
-6.82575e-10
-6.01246e-10
1.50787e-09
-2.39917e-09
6.1293e-09
-5.39412e-09
1.19868e-08
-9.58683e-09
1.8779e-08
-1.4975e-08
2.62556e-08
-2.1551e-08
3.41981e-08
-2.93007e-08
4.24173e-08
-3.82028e-08
5.07507e-08
-4.8228e-08
5.90601e-08
-5.934e-08
6.72281e-08
-7.14948e-08
7.5156e-08
-8.46421e-08
8.27612e-08
-9.87251e-08
8.99755e-08
-1.13682e-07
9.6743e-08
-1.29446e-07
1.03018e-07
-1.45946e-07
1.08766e-07
-1.63108e-07
1.13959e-07
-1.80856e-07
1.18575e-07
-1.9911e-07
1.226e-07
-2.17791e-07
1.26026e-07
-2.36817e-07
1.28847e-07
-2.56107e-07
1.31063e-07
-2.75579e-07
1.32676e-07
-2.95153e-07
1.33693e-07
-3.14748e-07
1.3412e-07
-3.34285e-07
1.3397e-07
-3.53687e-07
1.33254e-07
-3.72877e-07
1.31987e-07
-3.91781e-07
1.30184e-07
-4.10329e-07
1.27861e-07
-4.28449e-07
1.25038e-07
-4.46076e-07
1.21732e-07
-4.63144e-07
1.17964e-07
-4.79591e-07
1.13753e-07
-4.9536e-07
1.09121e-07
-5.10393e-07
1.0409e-07
-5.24638e-07
9.86807e-08
-5.38045e-07
9.29168e-08
-5.50568e-07
8.68209e-08
-5.62163e-07
8.04164e-08
-5.72789e-07
7.37268e-08
-5.82412e-07
6.67764e-08
-5.90996e-07
5.95894e-08
-5.98512e-07
5.21906e-08
-6.04935e-07
4.4605e-08
-6.10241e-07
3.68579e-08
-6.14412e-07
2.89751e-08
-6.17432e-07
2.09824e-08
-6.19289e-07
1.29062e-08
-6.19976e-07
4.77311e-09
-6.19489e-07
-3.38998e-09
-6.17827e-07
-1.15559e-08
-6.14993e-07
-1.9697e-08
-6.10997e-07
-2.77857e-08
-6.05848e-07
-3.57939e-08
-5.99562e-07
-4.36934e-08
-5.9216e-07
-5.14558e-08
-5.83663e-07
-5.90526e-08