/*--------------------------------*- C++ -*----------------------------------*\
| =========                 |                                                 |
| \\      /  F ield         | OpenFOAM: The Open Source CFD Toolbox           |
|  \\    /   O peration     | Version:  2212                                  |
|   \\  /    A nd           | Website:  www.openfoam.com                      |
|    \\/     M anipulation  |                                                 |
\*---------------------------------------------------------------------------*/
FoamFile
{
    version     2.0;
    format      ascii;
    arch        "LSB;label=32;scalar=64";
    class       volScalarField;
    location    "0.013";
    object      p;
}
// * * * * * * * * * * * * * * * * * * * * * * * * * * * * * * * * * * * * * //

dimensions      [0 2 -2 0 0 0 0];

internalField   nonuniform List<scalar> 
10000
(
1.35251e-07
-8.76026e-06
-0.000200607
-0.000495507
-0.000918743
-0.00147623
-0.00213465
-0.00284915
-0.0035808
-0.00429548
-0.00496511
-0.00556852
-0.00608687
-0.00650533
-0.00681188
-0.00699519
-0.00704716
-0.0069635
-0.00674084
-0.00637587
-0.00586734
-0.00521413
-0.00441648
-0.0034766
-0.00239729
-0.00118047
0.000172177
0.0016574
0.00326989
0.00500404
0.00685492
0.00881779
0.0108883
0.0130625
0.0153362
0.0177038
0.0201591
0.0226967
0.0253118
0.0279988
0.0307514
0.0335638
0.0364312
0.0393484
0.0423085
0.045304
0.0483284
0.0513759
0.0544403
0.057515
0.0605935
0.0636696
0.0667375
0.0697905
0.0728215
0.0758244
0.0787937
0.0817242
0.0846097
0.0874439
0.0902206
0.0929344
0.09558
0.0981518
0.100643
0.103049
0.105361
0.107576
0.109688
0.11169
0.113576
0.115342
0.116981
0.118491
0.119866
0.121104
0.122199
0.123147
0.123946
0.124592
0.125083
0.12542
0.125603
0.125636
0.125522
0.125266
0.124875
0.124355
0.123718
0.122976
0.122148
0.121255
0.120321
0.119377
0.118459
0.11761
0.116885
0.116341
0.116046
0.116015
5.58415e-05
0.000210312
0.000132236
-8.24369e-05
-0.000423023
-0.000889002
-0.00144159
-0.00204217
-0.00265633
-0.00325496
-0.00381462
-0.00431444
-0.00473805
-0.00507257
-0.00530588
-0.00542725
-0.00542897
-0.00530457
-0.00504951
-0.00466189
-0.00413984
-0.00348195
-0.00268819
-0.00175977
-0.00069886
0.000492485
0.00181265
0.00325936
0.00482907
0.00651728
0.00831885
0.0102283
0.0122409
0.0143534
0.0165621
0.018862
0.0212479
0.0237144
0.0262564
0.0288679
0.0315431
0.0342768
0.0370646
0.0399008
0.0427785
0.0456907
0.0486315
0.0515952
0.0545752
0.0575646
0.0605575
0.0635483
0.0665312
0.0694992
0.0724454
0.0753641
0.0782499
0.0810976
0.0839011
0.0866545
0.0893521
0.0919886
0.0945587
0.0970565
0.0994758
0.101811
0.104057
0.106209
0.10826
0.110205
0.112038
0.113755
0.115351
0.116822
0.118166
0.119376
0.120451
0.121386
0.122179
0.122829
0.123332
0.123691
0.123907
0.123983
0.123923
0.123734
0.12342
0.122991
0.122456
0.121829
0.121128
0.120373
0.119587
0.118795
0.118029
0.117326
0.116726
0.116271
0.116015
0.115984
0.000461565
0.000652096
0.000607978
0.000420568
0.000112416
-0.000303748
-0.000792705
-0.00132045
-0.00185655
-0.00237683
-0.00285975
-0.00328641
-0.00364267
-0.00391537
-0.00409356
-0.00416853
-0.00413149
-0.00397578
-0.00369659
-0.00329122
-0.00275794
-0.00209614
-0.00130522
-0.000385459
0.000661758
0.00183447
0.0031305
0.00454753
0.00608319
0.00773403
0.00949518
0.0113614
0.013328
0.0153916
0.0175484
0.0197939
0.0221238
0.024533
0.0270157
0.0295659
0.0321783
0.0348486
0.0375722
0.0403428
0.0431533
0.0459978
0.0488709
0.0517667
0.0546782
0.0575988
0.0605228
0.0634449
0.066359
0.0692583
0.0721361
0.0749871
0.0778064
0.080588
0.0833259
0.0860148
0.0886495
0.0912247
0.0937347
0.0961736
0.0985353
0.100815
0.103008
0.105109
0.107113
0.109013
0.110805
0.112484
0.114046
0.115488
0.116806
0.117995
0.119054
0.119978
0.120768
0.121421
0.121935
0.122312
0.122554
0.122665
0.122648
0.122509
0.122255
0.121893
0.121434
0.120893
0.120284
0.119627
0.118941
0.11825
0.11758
0.116962
0.116428
0.116013
0.115757
0.115688
0.00126136
0.00135253
0.00125801
0.00103628
0.000714
0.000307822
-0.000153819
-0.000641353
-0.00113057
-0.00160006
-0.00203041
-0.00240735
-0.00271602
-0.00294391
-0.00308188
-0.00312082
-0.00305309
-0.00287287
-0.00257499
-0.00215571
-0.00161374
-0.000948469
-0.000159637
0.000752674
0.00178836
0.0029462
0.00422364
0.00561791
0.00712653
0.00874624
0.0104727
0.012302
0.0142303
0.0162535
0.0183677
0.0205685
0.0228519
0.0252132
0.0276459
0.0301444
0.0327044
0.0353218
0.0379913
0.0407065
0.0434608
0.0462485
0.0490647
0.0519033
0.0547571
0.0576201
0.060487
0.0633521
0.0662087
0.0690505
0.0718714
0.0746665
0.0774308
0.0801581
0.0828422
0.0854781
0.0880612
0.0905861
0.0930467
0.0954369
0.0977514
0.0999855
0.102135
0.104195
0.10616
0.108024
0.109783
0.111431
0.112966
0.114384
0.11568
0.116852
0.117897
0.118814
0.1196
0.120256
0.120779
0.121172
0.121436
0.121574
0.121591
0.121492
0.121282
0.120972
0.120571
0.120092
0.11955
0.11896
0.11834
0.117711
0.117095
0.116519
0.11601
0.115594
0.115299
0.115142
0.00229218
0.00221576
0.00202026
0.0017358
0.00137797
0.000959643
0.000506195
3.92785e-05
-0.00042053
-0.00085441
-0.00124772
-0.00158638
-0.00185773
-0.00205123
-0.00215709
-0.00216665
-0.00207333
-0.00187174
-0.0015575
-0.00112667
-0.000577479
9.08492e-05
0.000878139
0.00178418
0.00280925
0.00395267
0.00521259
0.00658663
0.0080716
0.00966369
0.0113591
0.0131548
0.0150478
0.0170341
0.0191094
0.0212702
0.0235118
0.025829
0.028216
0.0306675
0.03318
0.0357491
0.0383689
0.0410331
0.043736
0.0464725
0.0492369
0.052023
0.0548241
0.0576347
0.0604497
0.0632629
0.0660675
0.0688571
0.0716268
0.0743717
0.0770864
0.0797643
0.0823999
0.0849887
0.0875259
0.0900052
0.0924207
0.0947672
0.0970396
0.0992333
0.101344
0.103368
0.105298
0.107129
0.108857
0.110479
0.11199
0.113385
0.114661
0.115817
0.116851
0.11776
0.118544
0.119203
0.119734
0.12014
0.120422
0.120585
0.120631
0.120565
0.120394
0.120126
0.119772
0.119344
0.118853
0.118312
0.117739
0.11715
0.116566
0.116007
0.115496
0.115055
0.114692
0.114412
0.00343071
0.00315782
0.00284119
0.00248101
0.0020728
0.00162901
0.00116744
0.000706355
0.000262188
-0.000151166
-0.00051982
-0.000831174
-0.0010752
-0.00124214
-0.00132288
-0.00130982
-0.00119615
-0.000976961
-0.000648614
-0.00020818
0.000346614
0.00101683
0.00180265
0.00270393
0.00372031
0.00485101
0.00609489
0.00745021
0.00891355
0.010481
0.0121494
0.0139159
0.0157774
0.0177303
0.019771
0.021896
0.0241002
0.0263776
0.0287232
0.0311332
0.0336035
0.0361289
0.0387037
0.041322
0.043979
0.0466694
0.0493873
0.0521261
0.05488
0.057644
0.0604125
0.0631788
0.0659366
0.0686805
0.0714051
0.0741052
0.0767754
0.0794095
0.0820021
0.0845491
0.0870453
0.0894842
0.0918597
0.0941671
0.0964023
0.0985606
0.100638
0.102628
0.104527
0.106329
0.108031
0.109629
0.111118
0.112493
0.113753
0.114895
0.115918
0.116822
0.117604
0.118265
0.118803
0.11922
0.119518
0.1197
0.11977
0.119732
0.119592
0.119359
0.119042
0.118651
0.118197
0.117691
0.117147
0.11658
0.116008
0.115446
0.114914
0.114427
0.113978
0.113554
0.0046106
0.00414031
0.00369447
0.00324937
0.00278164
0.00229864
0.00181648
0.00134841
0.000906324
0.000501671
0.000146498
-0.000148802
-0.000374896
-0.000522762
-0.000584951
-0.000554814
-0.000425795
-0.000193112
0.000146441
0.000594827
0.00115392
0.0018249
0.00260871
0.00350548
0.00451448
0.00563491
0.00686556
0.00820431
0.00964808
0.0111937
0.0128388
0.0145801
0.0164142
0.0183381
0.020349
0.0224424
0.0246132
0.0268555
0.0291651
0.0315388
0.033972
0.0364589
0.0389938
0.0415722
0.0441892
0.0468387
0.0495151
0.0522126
0.0549256
0.0576486
0.060376
0.0631013
0.0658185
0.0685224
0.0712079
0.0738694
0.0765007
0.0790964
0.0816516
0.0841621
0.0866225
0.0890258
0.0913665
0.0936406
0.0958441
0.0979719
0.100019
0.101981
0.103853
0.105631
0.107309
0.108886
0.110355
0.111713
0.112959
0.11409
0.115106
0.116005
0.116785
0.117447
0.11799
0.118416
0.118727
0.118925
0.119014
0.118999
0.118884
0.118678
0.118388
0.118022
0.117591
0.117105
0.116576
0.116016
0.115439
0.114858
0.114287
0.113741
0.113194
0.112619
0.00579045
0.00513169
0.0045561
0.00402229
0.00348723
0.0029564
0.00244306
0.00195612
0.00150507
0.00109941
0.000747988
0.000459815
0.000243757
0.000107633
5.79539e-05
0.000100542
0.000240849
0.000483333
0.000830764
0.00128513
0.00184762
0.00251915
0.00330078
0.00419293
0.00519518
0.00630692
0.00752651
0.00885116
0.0102783
0.0118055
0.0134302
0.0151496
0.0169604
0.0188599
0.0208451
0.0229112
0.0250524
0.0272644
0.0295436
0.0318859
0.0342865
0.0367398
0.0392407
0.0417847
0.044367
0.0469813
0.0496218
0.0522834
0.0549611
0.057649
0.060341
0.0630308
0.0657132
0.0683835
0.0710356
0.0736633
0.0762612
0.0788243
0.0813476
0.0838267
0.0862558
0.0886285
0.0909396
0.0931858
0.0953625
0.0974643
0.0994863
0.101424
0.103273
0.105028
0.106687
0.108245
0.109697
0.111041
0.112276
0.113399
0.114409
0.115304
0.116082
0.116745
0.117291
0.117724
0.118045
0.118257
0.118362
0.118363
0.118267
0.118079
0.117806
0.117456
0.117038
0.11656
0.116033
0.115467
0.114872
0.114259
0.11364
0.113026
0.112375
0.111648
0.00694016
0.00610629
0.00540489
0.00477987
0.00417314
0.00358887
0.00303598
0.00252124
0.00205241
0.00163668
0.00128091
0.000992998
0.000780397
0.000649668
0.000607155
0.000657928
0.000806035
0.0010552
0.00140776
0.00186565
0.00243013
0.003102
0.00388173
0.00476984
0.00576636
0.00687046
0.00808021
0.00939292
0.0108064
0.0123184
0.0139261
0.0156267
0.0174182
0.0192975
0.0212608
0.023303
0.0254193
0.0276058
0.0298593
0.0321752
0.0345479
0.0369725
0.0394447
0.0419602
0.044513
0.047097
0.0497073
0.0523392
0.0549871
0.0576449
0.0603068
0.0629672
0.0656212
0.0682632
0.070887
0.0734863
0.0760563
0.0785921
0.0810886
0.0835411
0.0859439
0.0882908
0.0905775
0.0928005
0.094955
0.097035
0.0990355
0.100952
0.102781
0.104518
0.10616
0.107702
0.109141
0.110474
0.1117
0.112818
0.113823
0.114714
0.11549
0.116153
0.116703
0.117141
0.11747
0.117692
0.117808
0.117822
0.117737
0.11756
0.117297
0.116954
0.11654
0.116061
0.115525
0.114943
0.114322
0.113668
0.112993
0.112305
0.111549
0.110673
0.00803746
0.00704257
0.00622042
0.00550468
0.00482458
0.00418129
0.00358334
0.00303501
0.00254129
0.00210803
0.00174145
0.00144784
0.00123307
0.00110297
0.00106312
0.00111783
0.00127047
0.00152361
0.00187925
0.00233885
0.00290384
0.00357515
0.00435304
0.005238
0.00623005
0.00732756
0.00852866
0.00983161
0.0112341
0.0127334
0.0143272
0.0160129
0.0177886
0.0196515
0.0215965
0.0236185
0.0257142
0.0278804
0.0301128
0.0324062
0.0347559
0.0371573
0.0396063
0.0420979
0.0446262
0.0471857
0.0497716
0.0523793
0.0550028
0.0576359
0.0602734
0.0629102
0.0655411
0.0681604
0.0707611
0.0733373
0.0758847
0.0783985
0.0808734
0.0833042
0.0856855
0.0880117
0.090279
0.0924835
0.0946198
0.0966818
0.0986646
0.100565
0.102378
0.1041
0.105728
0.107257
0.108686
0.110011
0.11123
0.112343
0.113344
0.114232
0.115007
0.11567
0.116223
0.116666
0.117001
0.11723
0.117353
0.117374
0.117296
0.117124
0.116864
0.116522
0.116103
0.115614
0.115063
0.114457
0.113801
0.113101
0.112364
0.1116
0.11074
0.109723
0.00906475
0.00792115
0.0069855
0.00618217
0.00542657
0.0047216
0.00407484
0.0034879
0.00296406
0.00250827
0.00212557
0.00182098
0.00159959
0.00146634
0.00142544
0.00148047
0.00163439
0.00188892
0.00224571
0.00270587
0.00327045
0.00394041
0.00471651
0.00559893
0.00658711
0.00767924
0.00887351
0.0101687
0.0115624
0.0130515
0.0146342
0.016309
0.0180729
0.0199219
0.0218517
0.0238582
0.0259382
0.0280882
0.0303035
0.0325791
0.0349105
0.0372938
0.0397246
0.0421973
0.0447064
0.0472467
0.0498138
0.0524027
0.055007
0.0576209
0.0602397
0.0628585
0.0654717
0.068073
0.0706558
0.0732145
0.0757449
0.0782422
0.0807004
0.0831144
0.0854794
0.0877903
0.0900431
0.0922334
0.0943555
0.0964034
0.0983727
0.10026
0.102061
0.103773
0.10539
0.106911
0.108331
0.10965
0.110865
0.111974
0.112973
0.113859
0.114634
0.115299
0.115854
0.116301
0.11664
0.116872
0.116998
0.117022
0.116945
0.116774
0.116512
0.116164
0.115735
0.11523
0.114656
0.11402
0.113325
0.112573
0.111774
0.110933
0.109972
0.108819
0.0100069
0.0087273
0.00768534
0.00679629
0.00596681
0.00519942
0.0045007
0.00387153
0.00331418
0.00283214
0.00242913
0.00210946
0.00187773
0.00173779
0.00169276
0.00174536
0.00189761
0.00215124
0.00250735
0.00296685
0.00353046
0.00419902
0.00497359
0.00585383
0.00683838
0.00792625
0.00911594
0.0104052
0.0117918
0.0132736
0.0148488
0.0165156
0.0182705
0.0201091
0.0220274
0.0240227
0.0260915
0.0282294
0.0304316
0.0326936
0.0350117
0.0373818
0.0397988
0.0422574
0.0447525
0.0472793
0.049833
0.0524081
0.0549983
0.0575983
0.060204
0.0628102
0.0654106
0.067999
0.0705691
0.0731158
0.0756349
0.0781209
0.0805676
0.0829701
0.0853242
0.087625
0.0898681
0.0920486
0.0941608
0.0961989
0.0981592
0.100039
0.101833
0.103537
0.105148
0.106662
0.108078
0.109393
0.110606
0.111712
0.112709
0.113596
0.114372
0.115039
0.115597
0.116046
0.116386
0.116618
0.116744
0.116767
0.116689
0.116515
0.116246
0.115887
0.115441
0.114916
0.114316
0.113645
0.112906
0.112101
0.111236
0.11032
0.109262
0.107983
0.010854
0.00944882
0.00830606
0.00733537
0.00643416
0.00560405
0.00485214
0.00417888
0.00358539
0.00307403
0.00264794
0.00231043
0.00206515
0.00191524
0.00186322
0.00191088
0.00205931
0.00231012
0.00266402
0.00312163
0.00368391
0.0043515
0.00512461
0.00600281
0.0069849
0.00806975
0.0092561
0.0105414
0.0119233
0.0134004
0.0149714
0.0166333
0.0183818
0.0202132
0.0221246
0.024113
0.0261744
0.0283039
0.0304972
0.0327504
0.0350599
0.0374211
0.0398288
0.0422782
0.0447646
0.047283
0.0498282
0.0523944
0.0549757
0.0575674
0.0601653
0.0627637
0.0653561
0.0679367
0.0704995
0.0730399
0.0755529
0.0780327
0.0804731
0.0828697
0.0852184
0.0875142
0.0897522
0.0919273
0.0940339
0.0960671
0.0980233
0.0998993
0.10169
0.103391
0.104999
0.106511
0.107925
0.109239
0.11045
0.111556
0.112554
0.113442
0.11422
0.11489
0.11545
0.115898
0.116237
0.116467
0.116591
0.116611
0.116529
0.116347
0.116067
0.115693
0.115228
0.114678
0.114047
0.113339
0.112555
0.111694
0.110765
0.109774
0.108624
0.107226
0.0115975
0.0100752
0.00883813
0.00778973
0.00681822
0.0059265
0.00512165
0.00440323
0.00377156
0.00322877
0.00277752
0.00242
0.00215872
0.00199627
0.00193457
0.00197486
0.00211786
0.00236421
0.00271475
0.00316993
0.00373057
0.00439726
0.00516922
0.00604576
0.00702655
0.00811015
0.00929433
0.0105772
0.0119573
0.0134332
0.0150025
0.0166618
0.018407
0.0202354
0.0221441
0.0241296
0.0261872
0.0283123
0.0305012
0.0327504
0.0350557
0.0374122
0.0398152
0.0422604
0.0447432
0.0472582
0.0497995
0.0523618
0.0549395
0.0575282
0.0601233
0.0627185
0.0653078
0.0678857
0.0704469
0.0729861
0.075498
0.0779765
0.0804158
0.0828118
0.0851604
0.0874562
0.0896937
0.0918678
0.0939736
0.0960067
0.0979638
0.099841
0.101633
0.103335
0.104943
0.106456
0.107871
0.109186
0.110398
0.111505
0.112505
0.113395
0.114177
0.114849
0.115409
0.115856
0.116192
0.116419
0.116539
0.116555
0.116465
0.116272
0.115978
0.115585
0.115098
0.11452
0.113857
0.113109
0.112277
0.11136
0.110367
0.109305
0.108067
0.106558
0.0122295
0.0105989
0.00927346
0.00815013
0.0071109
0.00615919
0.00530181
0.00453789
0.00386734
0.00329177
0.00281326
0.00243366
0.00215451
0.0019775
0.00190393
0.00193485
0.00207087
0.00231161
0.0026579
0.00311066
0.0036698
0.00433505
0.0051061
0.00598242
0.0069631
0.00804633
0.00923
0.0105129
0.0118942
0.0133715
0.0149415
0.0166009
0.0183466
0.0201762
0.0220863
0.0240725
0.0261301
0.0282553
0.0304447
0.0326943
0.0349995
0.0373559
0.0397592
0.0422054
0.0446896
0.0472057
0.049748
0.0523114
0.0548909
0.0574817
0.0600786
0.0626755
0.0652667
0.0678473
0.0704119
0.0729548
0.0754703
0.0779523
0.0803956
0.0827962
0.0851498
0.0874502
0.0896917
0.0918696
0.0939796
0.0960177
0.0979802
0.0998625
0.101659
0.103365
0.104978
0.106495
0.107914
0.109233
0.110449
0.111559
0.112562
0.113457
0.114241
0.114914
0.115474
0.115919
0.116252
0.116475
0.116591
0.116599
0.116499
0.116292
0.11598
0.115567
0.115055
0.114449
0.11375
0.11296
0.11208
0.111107
0.110052
0.108921
0.107599
0.105986
0.0127455
0.0110139
0.00960437
0.00841007
0.00730578
0.00629516
0.00538582
0.00457665
0.00386712
0.00325789
0.00275069
0.0023472
0.00204826
0.00185493
0.0017681
0.00178821
0.00191549
0.00215005
0.00249206
0.00294195
0.00349938
0.00416357
0.0049344
0.00581149
0.00679312
0.00787723
0.00906263
0.0103486
0.0117336
0.0132144
0.0147876
0.0164505
0.0182008
0.0200356
0.0219506
0.0239412
0.0260033
0.0281335
0.0303279
0.0325823
0.0348921
0.0372533
0.0396622
0.0421144
0.0446047
0.0471265
0.0496747
0.0522446
0.0548312
0.057429
0.0600325
0.062636
0.0652344
0.067823
0.0703961
0.0729473
0.0754708
0.0779611
0.0804134
0.0828238
0.0851871
0.0874967
0.089747
0.0919338
0.0940532
0.096101
0.098073
0.0999643
0.101769
0.103483
0.105104
0.10663
0.108057
0.109382
0.110604
0.11172
0.112728
0.113626
0.114414
0.115088
0.115647
0.116091
0.116421
0.11664
0.116749
0.116747
0.116634
0.116411
0.11608
0.115644
0.115107
0.114469
0.113734
0.112901
0.111971
0.110944
0.109827
0.108629
0.107227
0.105516
0.013142
0.0113145
0.00982573
0.00856375
0.00739666
0.0063288
0.00536823
0.00451387
0.00376506
0.00312175
0.00258489
0.00215595
0.00183578
0.00162478
0.00152334
0.00153165
0.00164947
0.00187728
0.00221489
0.00266167
0.00321713
0.00388099
0.00465279
0.00553133
0.0065148
0.00760183
0.00879182
0.0100836
0.0114743
0.0129607
0.0145402
0.0162106
0.0179694
0.0198127
0.0217361
0.0237353
0.0258066
0.0279464
0.0301505
0.0324141
0.0347332
0.0371046
0.0395243
0.0419874
0.0444883
0.0470208
0.0495802
0.0521622
0.0547609
0.0573706
0.0599857
0.0626012
0.0652125
0.0678145
0.0704006
0.0729645
0.0755007
0.0780044
0.0804709
0.0828958
0.0852734
0.0875969
0.0898611
0.0920622
0.094196
0.0962579
0.0982432
0.100147
0.101964
0.103691
0.105324
0.106862
0.1083
0.109634
0.110864
0.111987
0.113002
0.113905
0.114696
0.115371
0.115931
0.116373
0.1167
0.116914
0.117014
0.117001
0.116873
0.116632
0.116281
0.115822
0.115257
0.114587
0.113813
0.112937
0.111957
0.110875
0.109699
0.108436
0.106958
0.105154
0.013415
0.0114972
0.009933
0.00860568
0.00737794
0.00625451
0.00524378
0.00434439
0.00355565
0.0028777
0.00231061
0.00185522
0.00151265
0.00128298
0.00116596
0.00116164
0.0012701
0.00149094
0.00182349
0.00226701
0.00282111
0.00348545
0.00425889
0.0051397
0.00612673
0.0072194
0.00841666
0.00971612
0.0111146
0.0126094
0.0141988
0.0158806
0.0176512
0.0195062
0.0214417
0.023454
0.0255392
0.027693
0.0299109
0.0321885
0.0345224
0.0369093
0.0393447
0.0418233
0.0443396
0.0468881
0.0494643
0.0520635
0.0546793
0.0573059
0.0599382
0.0625717
0.0652015
0.0678219
0.0704258
0.0730071
0.075561
0.0780832
0.0805688
0.083013
0.0854094
0.0877518
0.0900352
0.0922556
0.0944083
0.0964883
0.0984907
0.100411
0.102244
0.103988
0.105638
0.10719
0.108642
0.109989
0.111229
0.112361
0.113383
0.114292
0.115087
0.115765
0.116326
0.116767
0.117091
0.117298
0.117388
0.117361
0.117218
0.116959
0.116587
0.116104
0.11551
0.114805
0.113992
0.113072
0.112043
0.110907
0.109672
0.108347
0.106796
0.104903
0.0135617
0.0115587
0.00992204
0.00853153
0.00724474
0.00606692
0.00500678
0.00406264
0.00323362
0.00252017
0.00192234
0.00144025
0.00107442
0.000825112
0.000692177
0.000675216
0.000774022
0.000987499
0.00131476
0.00175543
0.002309
0.00297434
0.00374991
0.00463458
0.00562786
0.00672883
0.00793525
0.00924418
0.010653
0.0121598
0.0137629
0.0154591
0.0172444
0.0191147
0.0210666
0.0230963
0.0251996
0.0273715
0.0296077
0.0319045
0.0342585
0.036666
0.0391218
0.0416205
0.0441573
0.0467273
0.0493258
0.0519472
0.0545852
0.0572341
0.0598896
0.0625468
0.0652005
0.0678442
0.0704709
0.0730747
0.0756518
0.0781976
0.0807072
0.0831751
0.0855951
0.0879613
0.0902688
0.0925132
0.0946892
0.096791
0.0988143
0.100755
0.102609
0.104373
0.106043
0.107614
0.109082
0.110444
0.111697
0.11284
0.113871
0.114787
0.115588
0.11627
0.116832
0.117272
0.117592
0.117792
0.117872
0.117832
0.117672
0.117395
0.117001
0.116492
0.115868
0.115128
0.114275
0.113311
0.112233
0.111044
0.109752
0.108365
0.106743
0.104767
0.0135804
0.0114952
0.00978893
0.00833734
0.00699262
0.00576095
0.00465171
0.00366304
0.00279374
0.00204428
0.00141503
0.000905869
0.00051656
0.000247391
9.83727e-05
6.88264e-05
0.000157485
0.000363329
0.000685792
0.00112433
0.0016778
0.00234457
0.00312361
0.00401462
0.00501683
0.00612801
0.0073452
0.008666
0.0100887
0.0116113
0.0132311
0.0149445
0.0167477
0.0186374
0.0206099
0.0226613
0.0247864
0.0269805
0.0292399
0.0315612
0.0339404
0.036373
0.0388537
0.0413777
0.0439407
0.0465377
0.0491635
0.0518121
0.0544774
0.0571545
0.0598389
0.0625256
0.0652083
0.0678802
0.0705348
0.0731669
0.0757726
0.0783473
0.0808854
0.0833815
0.0858299
0.0882248
0.0905612
0.092834
0.0950371
0.097165
0.0992135
0.101179
0.103058
0.104847
0.10654
0.108132
0.109619
0.110998
0.112266
0.113423
0.114466
0.115392
0.116199
0.116886
0.117451
0.117891
0.118207
0.1184
0.11847
0.118417
0.118242
0.117945
0.117529
0.116993
0.116337
0.115562
0.11467
0.113661
0.112535
0.111292
0.109944
0.108497
0.106806
0.104747
0.0134687
0.0113037
0.00953
0.0080186
0.00661699
0.00533182
0.00417354
0.00314043
0.00223094
0.0014454
0.000784335
0.000247586
-0.000165152
-0.000453881
-0.000619059
-0.000661669
-0.00058327
-0.000384627
-6.63115e-05
0.0003705
0.000924173
0.00159358
0.0023785
0.00327845
0.0042914
0.00541427
0.00664451
0.00798061
0.00942083
0.0109624
0.0126018
0.0143356
0.0161607
0.0180739
0.0200711
0.0221476
0.0242984
0.0265194
0.0288073
0.0311581
0.0335671
0.0360293
0.0385399
0.0410947
0.0436893
0.0463185
0.0489764
0.0516573
0.0543556
0.0570666
0.0597857
0.0625069
0.0652235
0.067929
0.0706173
0.0732836
0.0759236
0.0785321
0.0811035
0.0836325
0.0861141
0.0885426
0.0909125
0.0932179
0.0954524
0.0976107
0.0996892
0.101685
0.103593
0.105409
0.107128
0.108744
0.110253
0.111652
0.112939
0.114113
0.11517
0.116108
0.116924
0.117617
0.118185
0.118626
0.11894
0.119128
0.119189
0.119123
0.118931
0.118615
0.118175
0.117612
0.116925
0.116114
0.115181
0.114128
0.112954
0.111659
0.110254
0.108747
0.106988
0.104849
0.0132249
0.0109823
0.0091418
0.0075712
0.00611355
0.00477527
0.00356762
0.00249
0.00154055
0.000719031
2.59506e-05
-0.000538454
-0.000974423
-0.00128273
-0.0014643
-0.00152027
-0.00145165
-0.00125944
-0.000944942
-0.000509638
4.53641e-05
0.000719722
0.00151305
0.00242366
0.00344866
0.00458532
0.00583196
0.00718707
0.00864803
0.0102112
0.0118733
0.0136315
0.0154829
0.0174237
0.0194491
0.0215545
0.0237355
0.0259884
0.0283097
0.0306946
0.0331377
0.0356343
0.0381802
0.0407715
0.0434032
0.0460695
0.0487645
0.051483
0.05422
0.0569707
0.0597296
0.0624902
0.065246
0.0679908
0.070719
0.0734254
0.0761051
0.0787525
0.0813621
0.0839293
0.0864492
0.0889161
0.091324
0.0936663
0.0959367
0.0981304
0.100244
0.102274
0.104215
0.106062
0.10781
0.109452
0.110987
0.112409
0.113719
0.114912
0.115986
0.116937
0.117764
0.118465
0.119038
0.119481
0.119795
0.119978
0.120031
0.119953
0.119745
0.119409
0.118946
0.118355
0.117635
0.116788
0.115815
0.114717
0.113495
0.112147
0.110685
0.109118
0.107292
0.105074
0.0128475
0.0105281
0.00862133
0.00699149
0.00547775
0.00408697
0.00283021
0.00170774
0.000718128
-0.000139292
-0.000864143
-0.001456
-0.00191539
-0.00224366
-0.00244173
-0.00251053
-0.00245104
-0.00226496
-0.00195397
-0.00151904
-0.00096046
-0.000278704
0.000524677
0.00144711
0.00248605
0.00363968
0.00490638
0.00628366
0.00776802
0.00935595
0.0110448
0.0128318
0.0147135
0.0166854
0.0187427
0.0208812
0.0230975
0.0253874
0.0277466
0.0301697
0.0326514
0.0351878
0.0377749
0.0404081
0.0430818
0.0457902
0.0485277
0.0512898
0.0540713
0.0568669
0.0596705
0.0624755
0.0652759
0.0680662
0.0708405
0.073593
0.0763179
0.0790094
0.0816626
0.0842733
0.0868368
0.089347
0.0917972
0.094181
0.0964923
0.0987266
0.10088
0.102949
0.104926
0.106807
0.108586
0.110259
0.111823
0.113273
0.114607
0.115822
0.116914
0.11788
0.11872
0.119431
0.120011
0.120459
0.120773
0.120954
0.120999
0.120909
0.120685
0.12033
0.119843
0.119224
0.118472
0.117588
0.116574
0.115431
0.11416
0.112759
0.11124
0.109613
0.107719
0.105423
0.0123339
0.0099377
0.00796525
0.00627593
0.00470565
0.00326272
0.00195745
0.000789852
-0.000240367
-0.00113357
-0.00188989
-0.00250939
-0.00299283
-0.00334113
-0.00355522
-0.00363612
-0.00358553
-0.00340534
-0.00309665
-0.00265978
-0.00209522
-0.0014045
-0.000590031
0.000345982
0.0014019
0.00257602
0.00386575
0.00526772
0.00677845
0.00839505
0.010115
0.011935
0.0138506
0.0158571
0.0179506
0.0201274
0.0223838
0.0247151
0.0271163
0.0295821
0.0321078
0.0346897
0.0373234
0.0400035
0.0427243
0.0454801
0.0482661
0.0510777
0.0539092
0.0567547
0.0596078
0.0624624
0.0653135
0.0681555
0.0709818
0.0737857
0.0765611
0.0793024
0.0820051
0.0846652
0.0872775
0.0898357
0.092333
0.0947631
0.0971203
0.0994003
0.101599
0.10371
0.105727
0.107645
0.109459
0.111167
0.112763
0.114244
0.115606
0.116845
0.117957
0.118941
0.119795
0.120519
0.121109
0.121564
0.12188
0.122058
0.122096
0.121996
0.121758
0.121384
0.120873
0.120225
0.11944
0.118518
0.117463
0.116275
0.114954
0.113498
0.111921
0.110234
0.108272
0.105898
0.0116817
0.00920825
0.00717014
0.00542171
0.00379447
0.00229874
0.000944972
-0.000267574
-0.00133852
-0.00226778
-0.00305598
-0.00370365
-0.00421124
-0.00457923
-0.00480881
-0.00490159
-0.00485957
-0.00468401
-0.00437535
-0.0039342
-0.00336214
-0.00266148
-0.00183423
-0.000881708
0.000194573
0.00139197
0.00270705
0.00413647
0.00567736
0.00732697
0.00908207
0.0109384
0.0128914
0.014937
0.0170715
0.0192916
0.0215926
0.0239694
0.0264169
0.0289305
0.0315058
0.0341387
0.0368239
0.0395559
0.0423291
0.0451382
0.0479788
0.0508456
0.0537323
0.0566324
0.0595401
0.0624503
0.065358
0.0682574
0.0711411
0.0740017
0.0768332
0.0796303
0.0823887
0.085104
0.0877705
0.0903816
0.092931
0.0954127
0.0978212
0.100152
0.102399
0.104556
0.106617
0.108577
0.110431
0.112178
0.11381
0.115325
0.116717
0.117982
0.119117
0.120122
0.120995
0.121734
0.122336
0.122798
0.123118
0.123295
0.123328
0.123219
0.122968
0.122576
0.122041
0.121364
0.120544
0.119584
0.118487
0.117253
0.11588
0.11437
0.112733
0.110985
0.108955
0.106502
0.0108898
0.00833742
0.006233
0.00442585
0.00274123
0.00119154
-0.000211273
-0.00146855
-0.0025805
-0.00354674
-0.00436763
-0.00504362
-0.00557493
-0.00596239
-0.00620742
-0.00631181
-0.00627701
-0.0061038
-0.00579298
-0.00534616
-0.00476563
-0.00405336
-0.00321049
-0.00223818
-0.00113884
8.39964e-05
0.00142699
0.00288746
0.00446271
0.00614923
0.00794282
0.00983898
0.0118335
0.013923
0.0161037
0.0183715
0.0207213
0.0231478
0.0256466
0.0282134
0.0308437
0.0335325
0.0362741
0.0390631
0.0418944
0.0447631
0.0476642
0.0505915
0.0535382
0.0564982
0.0594663
0.0624379
0.065408
0.0683701
0.0713162
0.0742389
0.0771324
0.0799917
0.0828121
0.0855884
0.0883145
0.090984
0.093591
0.09613
0.0985951
0.100981
0.103281
0.105489
0.107598
0.109605
0.111504
0.113294
0.114967
0.116518
0.117943
0.119237
0.120399
0.121428
0.122323
0.12308
0.123696
0.124166
0.124491
0.124668
0.124699
0.124583
0.12432
0.123909
0.12335
0.122643
0.121789
0.120791
0.119651
0.118369
0.116944
0.115377
0.113681
0.11187
0.109772
0.107238
0.00995799
0.00732368
0.00515093
0.0032844
0.00154219
-6.22849e-05
-0.00151512
-0.00281787
-0.00397165
-0.00497578
-0.00582981
-0.00653395
-0.00708888
-0.00749592
-0.00775621
-0.00787098
-0.00784127
-0.00766841
-0.0073542
-0.00690081
-0.00631017
-0.00558347
-0.00472175
-0.00372705
-0.00260261
-0.00135186
2.25248e-05
0.00151809
0.00313144
0.00485808
0.00669343
0.00863341
0.0106744
0.0128128
0.0150442
0.0173638
0.0197666
0.0222479
0.0248035
0.0274291
0.0301192
0.0328685
0.0356714
0.038523
0.0414187
0.044353
0.0473201
0.050313
0.053325
0.0563508
0.0593854
0.0624243
0.0654622
0.068492
0.0715056
0.0744962
0.077458
0.0803858
0.0832743
0.0861176
0.0889091
0.0916428
0.0943135
0.0969154
0.0994425
0.101888
0.104246
0.10651
0.108673
0.110731
0.112681
0.114517
0.116234
0.117825
0.119286
0.120614
0.121807
0.122864
0.123783
0.12456
0.12519
0.125671
0.126002
0.126183
0.126213
0.126091
0.125815
0.125386
0.124802
0.124066
0.123177
0.12214
0.120956
0.119625
0.118146
0.116521
0.114765
0.112891
0.110723
0.108107
0.00888435
0.00616527
0.00392129
0.00199359
0.00019332
-0.00146668
-0.00297118
-0.00432109
-0.00551758
-0.00655988
-0.00744725
-0.00817985
-0.0087588
-0.00918513
-0.00945956
-0.0095829
-0.00955669
-0.00938325
-0.00906485
-0.00860327
-0.00799976
-0.0072555
-0.0063724
-0.0053533
-0.00420134
-0.00291926
-0.00150951
2.47798e-05
0.00167928
0.00344914
0.00533018
0.00731877
0.00941117
0.011603
0.0138893
0.0162651
0.018726
0.0212676
0.0238856
0.0265749
0.0293295
0.0321442
0.035014
0.0379344
0.0409004
0.043906
0.0469443
0.0500084
0.0530919
0.0561898
0.0592973
0.0624093
0.0655201
0.0686225
0.0717093
0.0747738
0.0778102
0.0808128
0.0837754
0.0866914
0.0895544
0.0923588
0.0950993
0.0977701
0.100364
0.102876
0.105297
0.107621
0.109843
0.111959
0.113963
0.11585
0.117614
0.119249
0.120751
0.122118
0.123346
0.124435
0.12538
0.126178
0.126825
0.127318
0.127658
0.127844
0.127874
0.127746
0.127458
0.12701
0.126403
0.125637
0.124714
0.123636
0.122407
0.121025
0.119492
0.117808
0.11599
0.114052
0.111811
0.109111
0.00766531
0.00485955
0.0025418
0.000550221
-0.00130985
-0.00302677
-0.00458472
-0.00598335
-0.00722325
-0.00830401
-0.00922521
-0.00998695
-0.0105899
-0.0110345
-0.0113215
-0.0114523
-0.011429
-0.0112544
-0.0109304
-0.010458
-0.00983861
-0.00907436
-0.00816792
-0.00712204
-0.00593919
-0.00462187
-0.00317319
-0.00159718
0.000101479
0.00191837
0.00384974
0.00589183
0.00804013
0.0102896
0.012635
0.0150722
0.0175967
0.0202043
0.0228899
0.0256477
0.0284719
0.0313576
0.0343004
0.0372957
0.0403378
0.0434201
0.0465354
0.0496767
0.0528384
0.0560152
0.0592018
0.0623926
0.0655816
0.0687625
0.0719285
0.0750732
0.0781903
0.0812734
0.0843158
0.0873107
0.0902516
0.093133
0.0959497
0.0986951
0.101362
0.103944
0.106434
0.108825
0.111112
0.11329
0.115353
0.117296
0.119112
0.120795
0.122343
0.123753
0.125021
0.126145
0.127119
0.127941
0.128606
0.129115
0.129467
0.129659
0.129689
0.129555
0.129255
0.128788
0.128157
0.127362
0.126404
0.125286
0.124009
0.122576
0.120987
0.119243
0.117361
0.115357
0.113042
0.110253
0.00629706
0.00340297
0.00100939
-0.0010493
-0.00297236
-0.00474813
-0.00636081
-0.00780921
-0.00909354
-0.0102137
-0.0111693
-0.0119603
-0.0125864
-0.0130483
-0.0133472
-0.0134851
-0.0134645