/*--------------------------------*- C++ -*----------------------------------*\
| =========                 |                                                 |
| \\      /  F ield         | OpenFOAM: The Open Source CFD Toolbox           |
|  \\    /   O peration     | Version:  2212                                  |
|   \\  /    A nd           | Website:  www.openfoam.com                      |
|    \\/     M anipulation  |                                                 |
\*---------------------------------------------------------------------------*/
FoamFile
{
    version     2.0;
    format      ascii;
    arch        "LSB;label=32;scalar=64";
    class       volVectorField;
    location    "0.013";
    object      U_0;
}
// * * * * * * * * * * * * * * * * * * * * * * * * * * * * * * * * * * * * * //

dimensions      [0 1 -1 0 0 0 0];

internalField   nonuniform List<vector> 
10000
(
(-2.87082e-06 -9.31196e-06 0)
(1.36212e-05 -1.33549e-05 0)
(2.34082e-05 -6.79573e-06 0)
(3.20953e-05 -3.34427e-06 0)
(2.81683e-05 6.16919e-08 0)
(1.60378e-05 3.22626e-06 0)
(-4.52094e-06 6.14512e-06 0)
(-3.31694e-05 8.79574e-06 0)
(-6.93843e-05 1.11783e-05 0)
(-0.000112551 1.33061e-05 0)
(-0.000162009 1.51731e-05 0)
(-0.000217091 1.67973e-05 0)
(-0.000277129 1.82184e-05 0)
(-0.000341492 1.94586e-05 0)
(-0.00040955 2.05094e-05 0)
(-0.000480693 2.13622e-05 0)
(-0.000554354 2.20315e-05 0)
(-0.000630002 2.2539e-05 0)
(-0.000707138 2.28965e-05 0)
(-0.000785293 2.31154e-05 0)
(-0.00086404 2.32113e-05 0)
(-0.000942989 2.32042e-05 0)
(-0.00102178 2.31091e-05 0)
(-0.00110008 2.29225e-05 0)
(-0.00117756 2.26392e-05 0)
(-0.00125394 2.22624e-05 0)
(-0.00132892 2.17996e-05 0)
(-0.00140227 2.12682e-05 0)
(-0.00147376 2.06842e-05 0)
(-0.00154319 2.00485e-05 0)
(-0.00161036 1.93596e-05 0)
(-0.0016751 1.86221e-05 0)
(-0.00173726 1.78381e-05 0)
(-0.00179668 1.70079e-05 0)
(-0.00185323 1.61365e-05 0)
(-0.0019068 1.52318e-05 0)
(-0.00195727 1.43004e-05 0)
(-0.00200455 1.33494e-05 0)
(-0.00204855 1.23819e-05 0)
(-0.0020892 1.13934e-05 0)
(-0.00212645 1.03802e-05 0)
(-0.00216021 9.34737e-06 0)
(-0.00219045 8.30713e-06 0)
(-0.00221712 7.26587e-06 0)
(-0.00224018 6.21846e-06 0)
(-0.00225959 5.15776e-06 0)
(-0.00227533 4.08298e-06 0)
(-0.00228737 2.999e-06 0)
(-0.00229568 1.91201e-06 0)
(-0.00230026 8.24892e-07 0)
(-0.00230108 -2.63705e-07 0)
(-0.00229814 -1.35693e-06 0)
(-0.00229142 -2.45689e-06 0)
(-0.00228094 -3.56226e-06 0)
(-0.00226668 -4.6676e-06 0)
(-0.00224867 -5.76546e-06 0)
(-0.00222693 -6.85151e-06 0)
(-0.00220148 -7.92774e-06 0)
(-0.00217235 -8.99919e-06 0)
(-0.00213956 -1.00681e-05 0)
(-0.00210318 -1.11313e-05 0)
(-0.00206323 -1.21808e-05 0)
(-0.00201979 -1.32082e-05 0)
(-0.00197292 -1.42094e-05 0)
(-0.00192271 -1.51839e-05 0)
(-0.00186926 -1.61305e-05 0)
(-0.00181268 -1.70451e-05 0)
(-0.0017531 -1.792e-05 0)
(-0.00169065 -1.87462e-05 0)
(-0.00162549 -1.95171e-05 0)
(-0.0015578 -2.02308e-05 0)
(-0.00148776 -2.08889e-05 0)
(-0.00141558 -2.14913e-05 0)
(-0.00134147 -2.20325e-05 0)
(-0.00126566 -2.2502e-05 0)
(-0.00118842 -2.28884e-05 0)
(-0.00111002 -2.31838e-05 0)
(-0.00103078 -2.33838e-05 0)
(-0.000951017 -2.34839e-05 0)
(-0.000871101 -2.34776e-05 0)
(-0.000791412 -2.3356e-05 0)
(-0.000712365 -2.31082e-05 0)
(-0.000634405 -2.27219e-05 0)
(-0.00055801 -2.21858e-05 0)
(-0.000483689 -2.14891e-05 0)
(-0.000411989 -2.06206e-05 0)
(-0.000343488 -1.95667e-05 0)
(-0.000278796 -1.83117e-05 0)
(-0.000218553 -1.68414e-05 0)
(-0.000163423 -1.51458e-05 0)
(-0.000114078 -1.32205e-05 0)
(-7.11937e-05 -1.10642e-05 0)
(-3.54266e-05 -8.67557e-06 0)
(-7.38784e-06 -6.05987e-06 0)
(1.24125e-05 -3.24918e-06 0)
(2.36759e-05 -3.31189e-07 0)
(2.64823e-05 2.48558e-06 0)
(2.16702e-05 4.75591e-06 0)
(1.20233e-05 5.54893e-06 0)
(3.26214e-06 3.2536e-06 0)
(-2.38651e-06 -1.00636e-05 0)
(8.39776e-06 -2.658e-05 0)
(2.12962e-05 -1.40738e-05 0)
(1.90073e-05 1.56191e-07 0)
(-3.56641e-06 1.63292e-05 0)
(-4.69212e-05 3.28815e-05 0)
(-0.000111469 4.90259e-05 0)
(-0.000196787 6.43376e-05 0)
(-0.000301845 7.85519e-05 0)
(-0.000425329 9.15665e-05 0)
(-0.000565695 0.000103296 0)
(-0.000721286 0.000113718 0)
(-0.000890451 0.00012286 0)
(-0.00107152 0.000130774 0)
(-0.00126283 0.000137502 0)
(-0.00146279 0.000143082 0)
(-0.00166987 0.000147566 0)
(-0.00188263 0.000151029 0)
(-0.00209969 0.000153543 0)
(-0.00231977 0.000155173 0)
(-0.00254164 0.000155988 0)
(-0.00276421 0.000156048 0)
(-0.00298643 0.000155413 0)
(-0.00320733 0.000154136 0)
(-0.00342601 0.000152252 0)
(-0.00364162 0.000149796 0)
(-0.00385341 0.000146818 0)
(-0.00406068 0.000143368 0)
(-0.00426276 0.000139491 0)
(-0.00445907 0.000135223 0)
(-0.00464908 0.000130598 0)
(-0.00483228 0.000125646 0)
(-0.0050082 0.000120392 0)
(-0.00517645 0.000114857 0)
(-0.00533665 0.000109067 0)
(-0.00548845 0.00010305 0)
(-0.00563153 9.68297e-05 0)
(-0.00576563 9.04329e-05 0)
(-0.0058905 8.38822e-05 0)
(-0.0060059 7.71913e-05 0)
(-0.00611163 7.03698e-05 0)
(-0.00620752 6.34314e-05 0)
(-0.0062934 5.63937e-05 0)
(-0.00636914 4.92734e-05 0)
(-0.0064346 4.20809e-05 0)
(-0.00648969 3.48233e-05 0)
(-0.0065343 2.75081e-05 0)
(-0.00656837 2.01436e-05 0)
(-0.00659183 1.27381e-05 0)
(-0.00660462 5.30094e-06 0)
(-0.00660672 -2.1576e-06 0)
(-0.0065981 -9.62827e-06 0)
(-0.00657875 -1.71039e-05 0)
(-0.00654868 -2.45756e-05 0)
(-0.00650791 -3.20307e-05 0)
(-0.00645648 -3.94542e-05 0)
(-0.00639447 -4.6831e-05 0)
(-0.00632193 -5.41501e-05 0)
(-0.00623897 -6.14037e-05 0)
(-0.00614569 -6.85825e-05 0)
(-0.00604224 -7.56714e-05 0)
(-0.00592876 -8.26492e-05 0)
(-0.00580546 -8.94913e-05 0)
(-0.00567255 -9.61739e-05 0)
(-0.00553026 -0.000102674 0)
(-0.00537888 -0.000108969 0)
(-0.00521872 -0.000115032 0)
(-0.00505013 -0.000120834 0)
(-0.00487352 -0.000126342 0)
(-0.0046893 -0.000131524 0)
(-0.00449796 -0.000136349 0)
(-0.00430002 -0.000140789 0)
(-0.00409604 -0.000144817 0)
(-0.00388666 -0.000148399 0)
(-0.00367254 -0.000151493 0)
(-0.00345443 -0.000154051 0)
(-0.00323313 -0.000156022 0)
(-0.0030095 -0.000157358 0)
(-0.00278448 -0.000158009 0)
(-0.00255908 -0.000157924 0)
(-0.0023344 -0.000157049 0)
(-0.00211159 -0.000155325 0)
(-0.00189191 -0.000152688 0)
(-0.00167667 -0.000149075 0)
(-0.00146729 -0.000144421 0)
(-0.00126524 -0.000138662 0)
(-0.00107207 -0.000131739 0)
(-0.000889412 -0.000123597 0)
(-0.000718927 -0.00011419 0)
(-0.000562312 -0.000103487 0)
(-0.000421255 -9.14841e-05 0)
(-0.000297396 -7.8211e-05 0)
(-0.000192254 -6.37502e-05 0)
(-0.000107127 -4.82715e-05 0)
(-4.29369e-05 -3.21032e-05 0)
(3.27159e-08 -1.5846e-05 0)
(2.24739e-05 -5.90318e-07 0)
(2.66454e-05 1.17421e-05 0)
(1.7854e-05 1.77953e-05 0)
(5.57236e-06 1.20338e-05 0)
(2.59373e-06 -1.92364e-05 0)
(8.85507e-06 -3.0604e-05 0)
(4.41058e-06 -1.00239e-05 0)
(-2.0094e-05 2.42215e-05 0)
(-7.22465e-05 6.45925e-05 0)
(-0.000154502 0.000107132 0)
(-0.000267701 0.000149505 0)
(-0.000411471 0.000190297 0)
(-0.000584626 0.000228667 0)
(-0.000785427 0.000264109 0)
(-0.00101177 0.00029635 0)
(-0.00126132 0.000325227 0)
(-0.00153166 0.000350715 0)
(-0.00182033 0.000372869 0)
(-0.00212489 0.000391776 0)
(-0.00244293 0.000407549 0)
(-0.00277212 0.00042033 0)
(-0.00311025 0.000430277 0)
(-0.00345522 0.000437568 0)
(-0.00380499 0.000442369 0)
(-0.00415769 0.000444844 0)
(-0.00451155 0.00044516 0)
(-0.0048649 0.000443466 0)
(-0.00521621 0.000439904 0)
(-0.00556407 0.000434613 0)
(-0.00590714 0.00042772 0)
(-0.0062442 0.000419345 0)
(-0.00657413 0.000409618 0)
(-0.0068959 0.000398652 0)
(-0.00720854 0.00038655 0)
(-0.00751121 0.00037341 0)
(-0.00780309 0.000359323 0)
(-0.00808345 0.000344368 0)
(-0.00835164 0.00032862 0)
(-0.00860705 0.00031215 0)
(-0.00884913 0.000295024 0)
(-0.00907737 0.000277308 0)
(-0.00929132 0.000259062 0)
(-0.00949057 0.000240345 0)
(-0.00967476 0.000221208 0)
(-0.00984354 0.000201691 0)
(-0.00999662 0.000181833 0)
(-0.0101337 0.000161674 0)
(-0.0102546 0.00014125 0)
(-0.0103591 0.000120596 0)
(-0.010447 9.97472e-05 0)
(-0.0105182 7.87313e-05 0)
(-0.0105725 5.75748e-05 0)
(-0.0106099 3.63031e-05 0)
(-0.0106301 1.49425e-05 0)
(-0.0106333 -6.479e-06 0)
(-0.0106194 -2.79302e-05 0)
(-0.0105883 -4.93806e-05 0)
(-0.0105401 -7.08004e-05 0)
(-0.0104748 -9.21562e-05 0)
(-0.0103925 -0.000113413 0)
(-0.0102933 -0.000134536 0)
(-0.0101773 -0.000155491 0)
(-0.0100448 -0.000176239 0)
(-0.00989578 -0.00019674 0)
(-0.00973062 -0.00021695 0)
(-0.00954953 -0.000236817 0)
(-0.00935284 -0.000256286 0)
(-0.00914089 -0.000275295 0)
(-0.00891409 -0.000293779 0)
(-0.00867288 -0.000311669 0)
(-0.00841777 -0.000328893 0)
(-0.00814931 -0.000345373 0)
(-0.00786812 -0.000361026 0)
(-0.0075749 -0.000375767 0)
(-0.00727039 -0.000389504 0)
(-0.00695542 -0.000402146 0)
(-0.00663092 -0.000413595 0)
(-0.00629786 -0.000423748 0)
(-0.00595733 -0.000432491 0)
(-0.00561052 -0.000439698 0)
(-0.0052587 -0.000445235 0)
(-0.00490324 -0.000448963 0)
(-0.00454563 -0.000450737 0)
(-0.00418749 -0.000450411 0)
(-0.00383051 -0.000447833 0)
(-0.00347654 -0.000442846 0)
(-0.00312753 -0.000435287 0)
(-0.00278554 -0.000424994 0)
(-0.00245274 -0.000411806 0)
(-0.0021314 -0.000395571 0)
(-0.0018239 -0.00037615 0)
(-0.00153267 -0.000353428 0)
(-0.0012602 -0.000327327 0)
(-0.00100897 -0.000297816 0)
(-0.000781423 -0.000264943 0)
(-0.000579889 -0.000228866 0)
(-0.000406449 -0.000189908 0)
(-0.000262803 -0.000148652 0)
(-0.000150047 -0.000106083 0)
(-6.83656e-05 -6.38183e-05 0)
(-1.66395e-05 -2.4479e-05 0)
(8.11737e-06 7.80455e-06 0)
(1.19235e-05 2.662e-05 0)
(4.7953e-06 2.17343e-05 0)
(1.57843e-06 -1.99451e-05 0)
(-1.27428e-06 -2.40959e-05 0)
(-2.52512e-05 1.56066e-05 0)
(-7.77344e-05 7.78535e-05 0)
(-0.000165344 0.000150924 0)
(-0.000291007 0.000228283 0)
(-0.000455666 0.000305886 0)
(-0.000658924 0.000381129 0)
(-0.000899374 0.000452345 0)
(-0.00117499 0.000518501 0)
(-0.00148326 0.00057898 0)
(-0.00182135 0.000633431 0)
(-0.00218627 0.000681705 0)
(-0.00257492 0.000723813 0)
(-0.00298424 0.000759877 0)
(-0.00341116 0.000790082 0)
(-0.00385271 0.000814657 0)
(-0.00430601 0.000833863 0)
(-0.00476831 0.000847996 0)
(-0.005237 0.000857366 0)
(-0.0057096 0.000862269 0)
(-0.00618375 0.000862993 0)
(-0.00665727 0.000859828 0)
(-0.00712812 0.000853044 0)
(-0.00759439 0.000842903 0)
(-0.00805432 0.000829663 0)
(-0.00850628 0.000813565 0)
(-0.00894876 0.000794834 0)
(-0.00938036 0.000773687 0)
(-0.00979981 0.000750326 0)
(-0.0102059 0.000724937 0)
(-0.0105977 0.000697691 0)
(-0.010974 0.000668751 0)
(-0.011334 0.000638265 0)
(-0.011677 0.000606372 0)
(-0.012002 0.000573199 0)
(-0.0123086 0.000538871 0)
(-0.0125959 0.000503498 0)
(-0.0128636 0.00046718 0)
(-0.013111 0.000430018 0)
(-0.0133378 0.000392103 0)
(-0.0135434 0.000353516 0)
(-0.0137277 0.000314329 0)
(-0.0138901 0.00027461 0)
(-0.0140305 0.000234428 0)
(-0.0141485 0.00019385 0)
(-0.0142441 0.000152939 0)
(-0.014317 0.000111753 0)
(-0.014367 7.03455e-05 0)
(-0.0143941 2.87724e-05 0)
(-0.0143983 -1.29114e-05 0)
(-0.0143793 -5.46479e-05 0)
(-0.0143374 -9.63742e-05 0)
(-0.0142724 -0.000138026 0)
(-0.0141845 -0.000179538 0)
(-0.0140738 -0.000220845 0)
(-0.0139403 -0.00026188 0)
(-0.0137844 -0.000302574 0)
(-0.0136061 -0.000342848 0)
(-0.0134058 -0.000382618 0)
(-0.0131839 -0.000421795 0)
(-0.0129406 -0.000460281 0)
(-0.0126764 -0.000497974 0)
(-0.0123918 -0.000534762 0)
(-0.0120873 -0.000570524 0)
(-0.0117635 -0.000605127 0)
(-0.0114211 -0.000638433 0)
(-0.011061 -0.000670292 0)
(-0.0106838 -0.000700552 0)
(-0.0102905 -0.000729048 0)
(-0.00988218 -0.000755606 0)
(-0.00945991 -0.000780041 0)
(-0.00902494 -0.000802155 0)
(-0.00857858 -0.000821741 0)
(-0.0081223 -0.000838576 0)
(-0.00765768 -0.000852425 0)
(-0.00718641 -0.000863036 0)
(-0.00671035 -0.000870148 0)
(-0.00623146 -0.000873487 0)
(-0.00575189 -0.000872775 0)
(-0.00527389 -0.000867723 0)
(-0.0047999 -0.000858042 0)
(-0.00433245 -0.00084344 0)
(-0.00387426 -0.00082363 0)
(-0.00342814 -0.000798334 0)
(-0.00299703 -0.000767293 0)
(-0.00258397 -0.000730286 0)
(-0.00219207 -0.000687141 0)
(-0.00182445 -0.000637763 0)
(-0.00148421 -0.000582167 0)
(-0.00117436 -0.000520515 0)
(-0.000897712 -0.000453185 0)
(-0.000656756 -0.000380874 0)
(-0.000453463 -0.000304744 0)
(-0.000289067 -0.000226634 0)
(-0.000163768 -0.000149388 0)
(-7.63484e-05 -7.73252e-05 0)
(-2.3687e-05 -1.68459e-05 0)
(-2.03982e-07 2.269e-05 0)
(2.56577e-06 2.66945e-05 0)
(-5.67756e-07 -1.8225e-05 0)
(-1.51901e-05 -1.72935e-06 0)
(-6.26184e-05 6.70102e-05 0)
(-0.000147256 0.000165284 0)
(-0.000274217 0.000278558 0)
(-0.000446249 0.000398052 0)
(-0.000664146 0.000518049 0)
(-0.000927336 0.00063477 0)
(-0.00123421 0.000745639 0)
(-0.00158241 0.00084899 0)
(-0.00196912 0.000943786 0)
(-0.00239111 0.00102942 0)
(-0.00284494 0.00110559 0)
(-0.00332703 0.00117224 0)
(-0.00383378 0.00122948 0)
(-0.00436161 0.00127754 0)
(-0.004907 0.00131676 0)
(-0.00546653 0.00134751 0)
(-0.0060369 0.0013702 0)
(-0.00661497 0.00138528 0)
(-0.00719775 0.00139323 0)
(-0.00778242 0.00139448 0)
(-0.00836631 0.00138948 0)
(-0.00894692 0.00137865 0)
(-0.00952193 0.00136242 0)
(-0.0100892 0.00134118 0)
(-0.0106467 0.00131532 0)
(-0.0111925 0.00128521 0)
(-0.011725 0.00125118 0)
(-0.0122426 0.00121355 0)
(-0.0127438 0.00117263 0)
(-0.0132273 0.0011287 0)
(-0.0136919 0.00108201 0)
(-0.0141363 0.00103279 0)
(-0.0145598 0.000981291 0)
(-0.0149612 0.000927705 0)
(-0.0153397 0.000872233 0)
(-0.0156946 0.000815051 0)
(-0.0160252 0.000756325 0)
(-0.0163308 0.000696207 0)
(-0.0166108 0.000634843 0)
(-0.0168649 0.000572368 0)
(-0.0170924 0.000508909 0)
(-0.017293 0.000444582 0)
(-0.0174664 0.000379495 0)
(-0.0176121 0.000313751 0)
(-0.0177301 0.000247454 0)
(-0.01782 0.000180705 0)
(-0.0178817 0.000113602 0)
(-0.0179151 4.62379e-05 0)
(-0.01792 -2.12946e-05 0)
(-0.0178964 -8.89016e-05 0)
(-0.0178444 -0.000156484 0)
(-0.017764 -0.000223937 0)
(-0.0176552 -0.000291152 0)
(-0.0175182 -0.000358019 0)
(-0.0173531 -0.000424427 0)
(-0.0171603 -0.000490261 0)
(-0.01694 -0.000555394 0)
(-0.0166925 -0.000619691 0)
(-0.0164182 -0.000683004 0)
(-0.0161176 -0.000745176 0)
(-0.0157913 -0.000806041 0)
(-0.0154398 -0.000865421 0)
(-0.0150638 -0.000923125 0)
(-0.0146641 -0.000978946 0)
(-0.0142415 -0.00103266 0)
(-0.013797 -0.00108403 0)
(-0.0133315 -0.00113281 0)
(-0.0128464 -0.00117873 0)
(-0.0123427 -0.00122152 0)
(-0.0118219 -0.00126086 0)
(-0.0112855 -0.00129646 0)
(-0.0107352 -0.00132796 0)
(-0.0101727 -0.001355 0)
(-0.00960005 -0.00137722 0)
(-0.00901924 -0.00139421 0)
(-0.00843256 -0.00140557 0)
(-0.00784243 -0.00141086 0)
(-0.00725144 -0.00140965 0)
(-0.00666234 -0.0014015 0)
(-0.00607807 -0.00138595 0)
(-0.0055017 -0.00136256 0)
(-0.00493646 -0.00133091 0)
(-0.00438573 -0.00129058 0)
(-0.003853 -0.00124123 0)
(-0.00334186 -0.00118254 0)
(-0.00285594 -0.00111431 0)
(-0.0023989 -0.00103644 0)
(-0.00197432 -0.000949042 0)
(-0.00158564 -0.000852451 0)
(-0.00123605 -0.000747348 0)
(-0.000928346 -0.000634889 0)
(-0.00066476 -0.000516899 0)
(-0.000446724 -0.000396145 0)
(-0.000274624 -0.000276718 0)
(-0.000147456 -0.000164564 0)
(-6.24253e-05 -6.81134e-05 0)
(-1.51919e-05 7.77588e-07 0)
(-1.8987e-07 2.41622e-05 0)
(-3.15549e-06 -8.02771e-06 0)
(-3.07072e-05 4.04353e-05 0)
(-0.000103596 0.000147632 0)
(-0.000222755 0.000289764 0)
(-0.000391326 0.000450267 0)
(-0.000611457 0.000618456 0)
(-0.000883509 0.000787105 0)
(-0.00120661 0.000951268 0)
(-0.00157887 0.00110752 0)
(-0.00199762 0.00125353 0)
(-0.00245972 0.00138776 0)
(-0.00296162 0.0015093 0)
(-0.0034995 0.00161767 0)
(-0.0040694 0.00171271 0)
(-0.00466728 0.0017945 0)
(-0.00528911 0.00186334 0)
(-0.00593094 0.0019196 0)
(-0.00658888 0.0019638 0)
(-0.0072592 0.00199649 0)
(-0.00793829 0.00201827 0)
(-0.00862271 0.00202975 0)
(-0.00930923 0.00203157 0)
(-0.00999477 0.00202435 0)
(-0.0106764 0.00200869 0)
(-0.0113515 0.00198519 0)
(-0.0120175 0.00195442 0)
(-0.0126721 0.00191692 0)
(-0.0133131 0.00187322 0)
(-0.0139384 0.0018238 0)
(-0.0145463 0.00176913 0)
(-0.015135 0.00170964 0)
(-0.015703 0.00164574 0)
(-0.0162487 0.00157781 0)
(-0.0167709 0.00150618 0)
(-0.0172684 0.00143119 0)
(-0.0177401 0.00135314 0)
(-0.0181849 0.00127231 0)
(-0.0186019 0.00118897 0)
(-0.0189904 0.00110336 0)
(-0.0193496 0.0010157 0)
(-0.0196787 0.000926198 0)
(-0.0199772 0.000835053 0)
(-0.0202446 0.000742451 0)
(-0.0204804 0.000648565 0)
(-0.020684 0.00055356 0)
(-0.0208553 0.000457591 0)
(-0.0209939 0.00036081 0)
(-0.0210994 0.000263362 0)
(-0.0211718 0.000165392 0)
(-0.0212108 6.70438e-05 0)
(-0.0212165 -3.15416e-05 0)
(-0.0211886 -0.000130221 0)
(-0.0211273 -0.000228849 0)
(-0.0210325 -0.000327275 0)
(-0.0209044 -0.000425343 0)
(-0.0207431 -0.000522892 0)
(-0.020549 -0.000619753 0)
(-0.0203221 -0.000715751 0)
(-0.020063 -0.000810699 0)
(-0.0197719 -0.0009044 0)
(-0.0194494 -0.000996643 0)
(-0.0190961 -0.0010872 0)
(-0.0187125 -0.00117583 0)
(-0.0182994 -0.00126227 0)
(-0.0178575 -0.00134624 0)
(-0.0173879 -0.00142744 0)
(-0.0168914 -0.00150557 0)
(-0.0163693 -0.00158027 0)
(-0.0158227 -0.00165118 0)
(-0.0152529 -0.00171791 0)
(-0.0146615 -0.00178007 0)
(-0.0140502 -0.00183721 0)
(-0.0134205 -0.00188887 0)
(-0.0127746 -0.00193456 0)
(-0.0121145 -0.00197377 0)
(-0.0114424 -0.00200596 0)
(-0.0107609 -0.00203056 0)
(-0.0100724 -0.00204699 0)
(-0.00937991 -0.00205463 0)
(-0.00868632 -0.00205289 0)
(-0.00799483 -0.00204113 0)
(-0.00730881 -0.00201874 0)
(-0.00663177 -0.0019851 0)
(-0.00596742 -0.00193965 0)
(-0.00531959 -0.00188183 0)
(-0.00469224 -0.0018112 0)
(-0.0040894 -0.00172739 0)
(-0.00351516 -0.00163015 0)
(-0.00297357 -0.00151944 0)
(-0.00246863 -0.00139548 0)
(-0.00200414 -0.00125883 0)
(-0.0015836 -0.00111051 0)
(-0.00121011 -0.000952193 0)
(-0.000886173 -0.000786391 0)
(-0.000613515 -0.000616786 0)
(-0.000392896 -0.000448639 0)
(-0.000223788 -0.000289328 0)
(-0.000104076 -0.00014897 0)
(-3.1157e-05 -4.13478e-05 0)
(-3.03587e-06 1.33263e-05 0)
(-5.76952e-06 1.05524e-05 0)
(-4.648e-05 0.000103351 0)
(-0.000145455 0.000258894 0)
(-0.000299993 0.000452888 0)
(-0.000511064 0.000667437 0)
(-0.000779921 0.000890423 0)
(-0.00110629 0.00111331 0)
(-0.00148878 0.00133012 0)
(-0.00192517 0.00153662 0)
(-0.00241247 0.00172985 0)
(-0.00294719 0.00190778 0)
(-0.00352547 0.00206917 0)
(-0.00414318 0.00221332 0)
(-0.004796 0.00233996 0)
(-0.00547954 0.00244913 0)
(-0.0061894 0.00254113 0)
(-0.00692125 0.00261644 0)
(-0.00767081 0.00267566 0)
(-0.00843396 0.0027195 0)
(-0.00920673 0.00274871 0)
(-0.00998529 0.00276408 0)
(-0.010766 0.00276643 0)
(-0.0115455 0.00275657 0)
(-0.0123205 0.00273531 0)
(-0.013088 0.00270342 0)
(-0.0138451 0.00266166 0)
(-0.0145892 0.00261077 0)
(-0.0153179 0.00255143 0)
(-0.0160289 0.00248431 0)
(-0.01672 0.00241003 0)
(-0.0173894 0.00232917 0)
(-0.0180352 0.00224228 0)
(-0.0186557 0.00214987 0)
(-0.0192496 0.00205241 0)
(-0.0198154 0.00195035 0)
(-0.0203518 0.0018441 0)
(-0.0208577 0.00173404 0)
(-0.0213321 0.00162052 0)
(-0.0217739 0.00150388 0)
(-0.0221824 0.00138443 0)
(-0.0225568 0.00126245 0)
(-0.0228963 0.00113822 0)
(-0.0232004 0.00101197 0)
(-0.0234685 0.000883954 0)
(-0.0237001 0.000754398 0)
(-0.0238948 0.000623521 0)
(-0.0240523 0.000491532 0)
(-0.0241723 0.000358632 0)
(-0.0242545 0.000225019 0)
(-0.0242987 9.08906e-05 0)
(-0.0243049 -4.35556e-05 0)
(-0.0242731 -0.000178119 0)
(-0.0242031 -0.000312597 0)
(-0.024095 -0.000446783 0)
(-0.0239491 -0.000580465 0)
(-0.0237655 -0.000713422 0)
(-0.0235444 -0.000845423 0)
(-0.0232861 -0.000976225 0)
(-0.0229911 -0.00110557 0)
(-0.0226599 -0.00123319 0)
(-0.0222929 -0.00135878 0)
(-0.0218908 -0.00148206 0)
(-0.0214544 -0.00160268 0)
(-0.0209845 -0.0017203 0)
(-0.020482 -0.00183452 0)
(-0.0199478 -0.00194496 0)
(-0.0193833 -0.00205118 0)
(-0.0187896 -0.00215272 0)
(-0.0181681 -0.00224909 0)
(-0.0175204 -0.00233976 0)
(-0.0168482 -0.00242418 0)
(-0.0161533 -0.00250177 0)
(-0.0154377 -0.00257189 0)
(-0.0147037 -0.00263389 0)
(-0.0139535 -0.00268708 0)
(-0.0131898 -0.00273074 0)
(-0.0124153 -0.00276411 0)
(-0.0116329 -0.00278642 0)
(-0.0108458 -0.00279686 0)
(-0.0100574 -0.00279463 0)
(-0.00927112 -0.00277892 0)
(-0.00849077 -0.00274892 0)
(-0.00772027 -0.00270386 0)
(-0.00696368 -0.002643 0)
(-0.00622525 -0.00256568 0)
(-0.00550931 -0.00247134 0)
(-0.00482028 -0.00235954 0)
(-0.00416262 -0.00223005 0)
(-0.00354075 -0.0020829 0)
(-0.00295897 -0.00191843 0)
(-0.00242142 -0.00173744 0)
(-0.00193193 -0.00154133 0)
(-0.00149388 -0.00133227 0)
(-0.00111011 -0.00111345 0)
(-0.000782758 -0.000889399 0)
(-0.000513103 -0.000666394 0)
(-0.000301302 -0.000452999 0)
(-0.000146161 -0.00026063 0)
(-4.70584e-05 -0.00010441 0)
(-5.77564e-06 -5.8837e-06 0)
(-8.25951e-06 3.72845e-05 0)
(-6.1781e-05 0.000186968 0)
(-0.000186547 0.000400975 0)
(-0.000376242 0.000654939 0)
(-0.000629621 0.000930262 0)
(-0.000946918 0.00121383 0)
(-0.00132704 0.00149611 0)
(-0.00176797 0.00177023 0)
(-0.002267 0.00203124 0)
(-0.0028208 0.00227559 0)
(-0.00342554 0.00250082 0)
(-0.00407701 0.00270533 0)
(-0.00477078 0.00288822 0)
(-0.00550223 0.0030491 0)
(-0.00626667 0.00318795 0)
(-0.00705936 0.00330508 0)
(-0.00787562 0.00340104 0)
(-0.00871088 0.00347654 0)
(-0.00956067 0.00353242 0)
(-0.0104207 0.0035696 0)
(-0.0112868 0.00358906 0)
(-0.012155 0.0035918 0)
(-0.0130217 0.00357884 0)
(-0.0138831 0.00355118 0)
(-0.0147362 0.00350981 0)
(-0.0155777 0.00345569 0)
(-0.0164047 0.00338974 0)
(-0.0172145 0.00331286 0)
(-0.0180046 0.00322589 0)
(-0.0187726 0.00312961 0)
(-0.0195165 0.00302478 0)
(-0.0202342 0.00291211 0)
(-0.0209239 0.00279224 0)
(-0.021584 0.0026658 0)
(-0.0222128 0.00253337 0)
(-0.022809 0.00239546 0)
(-0.0233713 0.00225258 0)
(-0.0238986 0.00210519 0)
(-0.0243897 0.00195371 0)
(-0.0248438 0.00179855 0)
(-0.0252599 0.00164009 0)
(-0.0256373 0.00147867 0)
(-0.0259753 0.00131463 0)
(-0.0262732 0.00114827 0)
(-0.0265306 0.000979895 0)
(-0.026747 0.000809792 0)
(-0.0269219 0.000638237 0)
(-0.0270552 0.000465497 0)
(-0.0271464 0.000291832 0)
(-0.0271954 0.000117501 0)
(-0.0272021 -5.72359e-05 0)
(-0.0271665 -0.000232116 0)
(-0.0270885 -0.000406873 0)
(-0.0269682 -0.000581236 0)
(-0.0268058 -0.000754924 0)
(-0.0266014 -0.00092765 0)
(-0.0263554 -0.00109911 0)
(-0.0260681 -0.00126899 0)
(-0.02574 -0.00143695 0)
(-0.0253716 -0.00160264 0)
(-0.0249635 -0.00176567 0)
(-0.0245165 -0.00192566 0)
(-0.0240313 -0.00208217 0)
(-0.0235088 -0.00223475 0)
(-0.0229502 -0.00238291 0)
(-0.0223565 -0.00252613 0)
(-0.021729 -0.00266384 0)
(-0.0210692 -0.00279545 0)
(-0.0203786 -0.00292034 0)
(-0.0196589 -0.00303782 0)
(-0.018912 -0.00314719 0)
(-0.0181399 -0.00324767 0)
(-0.0173449 -0.00333848 0)
(-0.0165294 -0.00341877 0)
(-0.0156959 -0.00348765 0)
(-0.0148474 -0.0035442 0)
(-0.0139868 -0.00358746 0)
(-0.0131174 -0.00361646 0)
(-0.0122426 -0.00363018 0)
(-0.0113661 -0.00362762 0)
(-0.0104917 -0.00360776 0)
(-0.00962355 -0.00356961 0)
(-0.00876583 -0.00351221 0)
(-0.00792299 -0.00343468 0)
(-0.00709959 -0.00333623 0)
(-0.00630031 -0.00321619 0)
(-0.0055299 -0.00307409 0)
(-0.00479313 -0.0029097 0)
(-0.00409473 -0.0027231 0)
(-0.00343933 -0.00251481 0)
(-0.00283136 -0.00228589 0)
(-0.00227496 -0.00203806 0)
(-0.00177387 -0.001774 0)
(-0.00133132 -0.00149749 0)
(-0.000949945 -0.00121379 0)
(-0.000631667 -0.000930042 0)
(-0.000377473 -0.000655707 0)
(-0.000187223 -0.000403124 0)
(-6.23516e-05 -0.000188235 0)
(-8.33014e-06 -3.31915e-05 0)
(-1.05814e-05 7.17494e-05 0)
(-7.62893e-05 0.000290678 0)
(-0.000225941 0.000573212 0)
(-0.000449859 0.000895326 0)
(-0.000744619 0.00123811 0)
(-0.00110935 0.00158789 0)
(-0.00154209 0.00193444 0)
(-0.00204007 0.00227017 0)
(-0.00260004 0.00258951 0)
(-0.00321824 0.00288842 0)
(-0.00389046 0.00316404 0)
(-0.00461218 0.00341447 0)
(-0.00537863 0.00363859 0)
(-0.00618491 0.00383587 0)
(-0.00702603 0.00400628 0)
(-0.00789698 0.00415012 0)
(-0.00879278 0.004268 0)
(-0.00970857 0.00436075 0)
(-0.0106396 0.00442933 0)
(-0.0115812 0.00447483 0)
(-0.0125291 0.00449843 0)
(-0.0134789 0.00450132 0)
(-0.0144267 0.00448473 0)
(-0.0153687 0.00444987 0)
(-0.0163013 0.00439795 0)
(-0.0172211 0.00433014 0)
(-0.018125 0.00424757 0)
(-0.0190101 0.00415134 0)
(-0.0198736 0.00404248 0)
(-0.020713 0.00392198 0)
(-0.0215259 0.00379077 0)
(-0.0223103 0.00364971 0)
(-0.023064 0.00349963 0)
(-0.0237853 0.00334129 0)
(-0.0244725 0.0031754 0)
(-0.0251241 0.00300264 0)
(-0.0257386 0.00282362 0)
(-0.0263149 0.00263892 0)
(-0.0268516 0.00244908 0)
(-0.0273478 0.0022546 0)
(-0.0278025 0.00205595 0)
(-0.0282149 0.00185358 0)
(-0.0285843 0.00164789 0)
(-0.0289098 0.00143929 0)
(-0.0291911 0.00122816 0)
(-0.0294274 0.00101484 0)
(-0.0296185 0.000799696 0)
(-0.029764 0.000583059 0)
(-0.0298635 0.000365264 0)
(-0.029917 0.000146641 0)
(-0.0299242 -7.24815e-05 0)
(-0.029885 -0.000291774 0)
(-0.0297996 -0.000510901 0)
(-0.0296679 -0.000729518 0)
(-0.0294902 -0.000947271 0)
(-0.0292667 -0.0011638 0)
(-0.0289976 -0.00137871 0)
(-0.0286835 -0.00159161 0)
(-0.0283247 -0.00180209 0)
(-0.0279219 -0.00200968 0)
(-0.0274758 -0.00221393 0)
(-0.0269871 -0.00241433 0)
(-0.0264567 -0.00261033 0)
(-0.0258857 -0.00280139 0)
(-0.0252751 -0.00298687 0)
(-0.0246262 -0.00316614 0)
(-0.0239405 -0.00333849 0)
(-0.0232195 -0.00350318 0)
(-0.0224648 -0.00365943 0)
(-0.0216784 -0.0038064 0)
(-0.0208622 -0.00394319 0)
(-0.0200186 -0.00406887 0)
(-0.0191499 -0.00418244 0)
(-0.0182588 -0.00428287 0)
(-0.017348 -0.00436905 0)
(-0.0164207 -0.00443987 0)
(-0.0154802 -0.00449413 0)
(-0.0145298 -0.00453065 0)
(-0.0135733 -0.00454821 0)
(-0.0126146 -0.00454556 0)
(-0.0116579 -0.00452151 0)
(-0.0107076 -0.00447484 0)
(-0.00976808 -0.00440444 0)
(-0.00884419 -0.00430927 0)
(-0.00794074 -0.00418839 0)
(-0.00706271 -0.00404106 0)
(-0.00621514 -0.00386675 0)
(-0.00540308 -0.00366525 0)
(-0.00463157 -0.00343672 0)
(-0.00390552 -0.00318181 0)
(-0.00322968 -0.00290182 0)
(-0.00260852 -0.00259883 0)
(-0.00204618 -0.0022759 0)
(-0.00154633 -0.00193735 0)
(-0.00111217 -0.00158907 0)
(-0.000746359 -0.00123881 0)
(-0.000450799 -0.000896722 0)
(-0.000226457 -0.000575705 0)
(-7.67727e-05 -0.000292106 0)
(-1.06746e-05 -6.81437e-05 0)
(-1.27238e-05 0.000113435 0)
(-8.98478e-05 0.000413492 0)
(-0.000263175 0.000774433 0)
(-0.000519924 0.00117281 0)
(-0.000854653 0.00158976 0)
(-0.00126533 0.00201131 0)
(-0.00174911 0.00242684 0)
(-0.00230245 0.00282824 0)
(-0.00292146 0.00320946 0)
(-0.00360188 0.00356603 0)
(-0.00433913 0.00389478 0)
(-0.00512832 0.00419354 0)
(-0.00596436 0.004461 0)
(-0.00684206 0.00469653 0)
(-0.00775614 0.00490003 0)
(-0.00870132 0.00507185 0)
(-0.00967238 0.00521265 0)
(-0.0106642 0.00532335 0)
(-0.0116717 0.00540509 0)
(-0.01269 0.00545911 0)
(-0.0137146 0.00548676 0)
(-0.0147409 0.00548947 0)
(-0.0157647 0.00546865 0)
(-0.0167819 0.00542576 0)
(-0.0177887 0.00536222 0)
(-0.0187816 0.00527942 0)
(-0.0197572 0.00517872 0)
(-0.0207124 0.00506142 0)
(-0.0216442 0.00492877 0)
(-0.0225499 0.00478194 0)
(-0.0234271 0.00462207 0)
(-0.0242733 0.00445019 0)
(-0.0250866 0.00426731 0)
(-0.0258648 0.00407434 0)
(-0.0266062 0.00387216 0)
(-0.0273092 0.00366157 0)
(-0.0279722 0.00344333 0)
(-0.0285938 0.00321814 0)
(-0.0291729 0.00298666 0)
(-0.0297082 0.0027495 0)
(-0.0301988 0.00250723 0)
(-0.0306436 0.0022604 0)
(-0.031042 0.00200951 0)
(-0.0313932 0.00175506 0)
(-0.0316965 0.0014975 0)
(-0.0319515 0.00123727 0)
(-0.0321575 0.000974807 0)
(-0.0323144 0.000710521 0)
(-0.0324216 0.000444823 0)
(-0.0324791 0.000178119 0)
(-0.0324868 -8.91856e-05 0)
(-0.0324444 -0.000356686 0)
(-0.0323521 -0.000623969 0)
(-0.0322099 -0.000890616 0)
(-0.032018 -0.00115619 0)
(-0.0317766 -0.00142025 0)
(-0.0314862 -0.00168232 0)
(-0.0311471 -0.00194191 0)
(-0.0307599 -0.00219851 0)
(-0.0303252 -0.00245157 0)
(-0.0298438 -0.00270052 0)
(-0.0293164 -0.00294475 0)
(-0.0287441 -0.0031836 0)
(-0.028128 -0.00341638 0)
(-0.0274692 -0.00364235 0)
(-0.0267691 -0.00386071 0)
(-0.0260293 -0.00407063 0)
(-0.0252513 -0.00427119 0)
(-0.0244371 -0.00446146 0)
(-0.0235887 -0.00464041 0)
(-0.0227081 -0.00480697 0)
(-0.0217979 -0.00496 0)
(-0.0208607 -0.00509831 0)
(-0.0198991 -0.00522064 0)
(-0.0189163 -0.00532569 0)
(-0.0179155 -0.0054121 0)
(-0.0169002 -0.00547847 0)
(-0.0158741 -0.00552338 0)
(-0.0148412 -0.00554537 0)
(-0.0138055 -0.00554299 0)
(-0.0127716 -0.00551482 0)
(-0.011744 -0.00545946 0)
(-0.0107275 -0.0053756 0)
(-0.0097271 -0.00526204 0)
(-0.00874791 -0.00511773 0)
(-0.00779516 -0.00494181 0)
(-0.00687416 -0.00473374 0)
(-0.00599025 -0.00449328 0)
(-0.00514874 -0.00422067 0)
(-0.00435485 -0.00391671 0)
(-0.00361364 -0.00358289 0)
(-0.00292995 -0.00322157 0)
(-0.00230832 -0.00283619 0)
(-0.00175296 -0.00243148 0)
(-0.00126766 -0.00201379 0)
(-0.000855887 -0.00159136 0)
(-0.000520462 -0.00117475 0)
(-0.000263463 -0.000777156 0)
(-9.02185e-05 -0.000415005 0)
(-1.28106e-05 -0.000110218 0)
(-1.47032e-05 0.000161811 0)
(-0.00010245 0.000554291 0)
(-0.000298065 0.0010032 0)
(-0.000586007 0.0014858 0)
(-0.000958997 0.00198355 0)
(-0.00141385 0.0024824 0)
(-0.00194682 0.00297153 0)
(-0.00255358 0.00344253 0)
(-0.00322959 0.00388899 0)
(-0.00397005 0.00430612 0)
(-0.00476992 0.00469049 0)
(-0.00562396 0.00503972 0)
(-0.00652674 0.00535236 0)
(-0.00747277 0.00562768 0)
(-0.00845649 0.00586556 0)
(-0.00947236 0.00606637 0)
(-0.0105149 0.00623086 0)
(-0.0115787 0.00636005 0)
(-0.0126586 0.00645522 0)
(-0.0137495 0.00651779 0)
(-0.0148463 0.00654931 0)
(-0.0159446 0.0065514 0)
(-0.0170398 0.00652571 0)
(-0.0181276 0.00647392 0)
(-0.0192041 0.00639768 0)
(-0.0202654 0.00629862 0)
(-0.0213081 0.00617832 0)
(-0.0223288 0.0060383 0)
(-0.0233244 0.00588003 0)
(-0.0242921 0.00570489 0)
(-0.0252292 0.0055142 0)
(-0.0261333 0.00530922 0)
(-0.027002 0.00509111 0)
(-0.0278333 0.00486096 0)
(-0.0286253 0.00461982 0)
(-0.0293761 0.00436862 0)
(-0.0300843 0.00410828 0)
(-0.0307482 0.00383963 0)
(-0.0313667 0.00356346 0)
(-0.0319384 0.00328048 0)
(-0.0324623 0.0029914 0)
(-0.0329374 0.00269686 0)
(-0.0333628 0.00239747 0)
(-0.0337378 0.0020938 0)
(-0.0340617 0.00178641 0)
(-0.0343339 0.00147584 0)
(-0.0345539 0.0011626 0)
(-0.0347213 0.000847178 0)
(-0.0348358 0.000530074 0)
(-0.0348971 0.000211775 0)
(-0.0349051 -0.000107235 0)
(-0.0348598 -0.000426468 0)
(-0.034761 -0.000745428 0)
(-0.034609 -0.00106361 0)
(-0.034404 -0.0013805 0)
(-0.0341461 -0.00169556 0)