/*--------------------------------*- C++ -*----------------------------------*\
| =========                 |                                                 |
| \\      /  F ield         | OpenFOAM: The Open Source CFD Toolbox           |
|  \\    /   O peration     | Version:  2212                                  |
|   \\  /    A nd           | Website:  www.openfoam.com                      |
|    \\/     M anipulation  |                                                 |
\*---------------------------------------------------------------------------*/
FoamFile
{
    version     2.0;
    format      ascii;
    arch        "LSB;label=32;scalar=64";
    class       volScalarField;
    location    "0.053";
    object      p;
}
// * * * * * * * * * * * * * * * * * * * * * * * * * * * * * * * * * * * * * //

dimensions      [0 2 -2 0 0 0 0];

internalField   nonuniform List<scalar> 
10000
(
1.70232e-07
6.40729e-05
-0.000171966
-0.000736202
-0.00157816
-0.00264728
-0.00389191
-0.00526262
-0.00671474
-0.00820877
-0.00971016
-0.0111887
-0.0126182
-0.0139758
-0.0152419
-0.0163994
-0.017434
-0.0183334
-0.0190873
-0.0196872
-0.0201262
-0.0203989
-0.0205013
-0.0204305
-0.0201848
-0.0197635
-0.0191669
-0.0183962
-0.0174535
-0.0163412
-0.0150629
-0.0136225
-0.0120248
-0.0102748
-0.00837828
-0.00634134
-0.00417054
-0.00187291
0.000544107
0.00307281
0.00570512
0.00843262
0.0112466
0.0141382
0.0170982
0.0201171
0.0231853
0.0262928
0.0294299
0.0325864
0.0357523
0.0389171
0.0420704
0.0452019
0.0483012
0.0513581
0.054362
0.0573028
0.0601702
0.0629544
0.0656456
0.0682343
0.0707113
0.0730676
0.0752946
0.0773842
0.0793287
0.081121
0.0827546
0.0842236
0.0855228
0.0866474
0.0875937
0.0883589
0.0889409
0.0893388
0.0895529
0.0895843
0.0894354
0.08911
0.0886131
0.0879513
0.0871331
0.0861683
0.0850689
0.0838489
0.0825244
0.0811139
0.0796387
0.078123
0.0765943
0.0750838
0.0736269
0.0722635
0.0710383
0.0699999
0.0691985
0.0686826
0.0684935
0.0685873
-9.65442e-05
-3.24078e-05
-0.000255666
-0.000755688
-0.00148362
-0.00240298
-0.00347573
-0.00466267
-0.00592662
-0.00723348
-0.00855254
-0.00985639
-0.0111207
-0.0123242
-0.0134481
-0.014476
-0.0153939
-0.0161899
-0.0168536
-0.0173765
-0.0177517
-0.0179735
-0.0180376
-0.0179411
-0.0176818
-0.0172587
-0.0166717
-0.0159217
-0.0150101
-0.0139392
-0.0127123
-0.0113327
-0.00980468
-0.00813292
-0.0063227
-0.00437972
-0.00231008
-0.000120383
0.00218237
0.00459096
0.00709778
0.00969484
0.0123739
0.0151265
0.0179439
0.0208172
0.0237371
0.0266943
0.0296794
0.0326828
0.0356948
0.0387057
0.0417054
0.0446842
0.0476322
0.0505397
0.0533969
0.0561938
0.058921
0.0615691
0.0641289
0.0665916
0.0689484
0.0711909
0.073311
0.0753011
0.0771543
0.0788639
0.0804241
0.0818293
0.0830748
0.0841564
0.0850707
0.0858155
0.0863891
0.0867911
0.0870219
0.087083
0.086977
0.0867079
0.0862809
0.0857027
0.0849815
0.0841273
0.0831517
0.0820683
0.0808927
0.0796424
0.0783375
0.0770007
0.0756571
0.0743351
0.073066
0.071884
0.0708261
0.0699309
0.0692349
0.0687722
0.0685867
0.068681
8.91746e-05
0.0001509
-6.60413e-05
-0.000531368
-0.00119336
-0.00202105
-0.00298339
-0.00404756
-0.0051818
-0.0063564
-0.00754398
-0.00871968
-0.00986121
-0.0109487
-0.0119644
-0.0128929
-0.0137208
-0.0144362
-0.0150294
-0.0154919
-0.0158167
-0.0159982
-0.0160319
-0.0159148
-0.0156446
-0.0152201
-0.0146409
-0.0139074
-0.013021
-0.0119837
-0.0107983
-0.00946792
-0.00799643
-0.00638822
-0.00464818
-0.00278165
-0.000794394
0.00130735
0.00351696
0.00582757
0.00823197
0.0107226
0.0132915
0.0159306
0.0186317
0.021386
0.0241849
0.0270193
0.0298803
0.0327587
0.0356453
0.0385305
0.041405
0.0442594
0.0470843
0.0498703
0.0526079
0.0552879
0.0579012
0.0604389
0.0628922
0.0652527
0.0675121
0.0696625
0.0716961
0.073606
0.0753856
0.0770286
0.0785296
0.0798835
0.0810858
0.0821328
0.0830216
0.08375
0.0843168
0.0847219
0.0849658
0.0850502
0.084978
0.084753
0.0843806
0.0838673
0.0832214
0.0824525
0.0815718
0.0805925
0.0795294
0.078399
0.0772203
0.0760141
0.0748037
0.0736147
0.0724747
0.0714138
0.0704631
0.0696553
0.0690198
0.0685852
0.0684004
0.0684928
0.000604184
0.000612572
0.000370018
-9.22512e-05
-0.000727245
-0.00150698
-0.00240413
-0.00339025
-0.00443768
-0.00552028
-0.00661371
-0.00769547
-0.00874519
-0.00974451
-0.010677
-0.0115282
-0.0122852
-0.0129369
-0.0134738
-0.0138878
-0.0141719
-0.0143208
-0.0143299
-0.0141962
-0.0139172
-0.0134917
-0.0129191
-0.0121998
-0.0113347
-0.0103258
-0.00917543
-0.00788666
-0.00646297
-0.00490853
-0.00322796
-0.00142627
0.000491062
0.00251813
0.00464862
0.00687597
0.00919332
0.0115934
0.0140686
0.0166112
0.0192132
0.0218664
0.0245623
0.0272924
0.0300479
0.0328201
0.0356
0.0383786
0.0411469
0.0438958
0.0466162
0.0492991
0.0519356
0.0545167
0.0570337
0.0594781
0.0618415
0.0641158
0.0662932
0.068366
0.070327
0.0721695
0.0738873
0.0754746
0.076926
0.0782369
0.0794031
0.0804212
0.0812885
0.082003
0.082564
0.0829712
0.0832254
0.0833285
0.0832832
0.0830934
0.0827645
0.0823028
0.0817162
0.0810142
0.0802075
0.0793086
0.0783313
0.0772914
0.0762064
0.0750956
0.0739801
0.0728831
0.0718293
0.070845
0.0699576
0.0691951
0.0685834
0.0681487
0.0679369
0.0679789
0.00140699
0.00130855
0.0010054
0.000519275
-0.000115787
-0.000874619
-0.00173311
-0.00266676
-0.00365163
-0.00466479
-0.00568472
-0.00669134
-0.00766619
-0.0085925
-0.00945515
-0.0102406
-0.0109371
-0.0115338
-0.0120219
-0.0123935
-0.0126421
-0.0127623
-0.0127499
-0.0126017
-0.0123153
-0.0118894
-0.0113233
-0.0106172
-0.00977204
-0.00878947
-0.00767171
-0.00642151
-0.00504215
-0.00353757
-0.00191215
-0.000170636
0.00168181
0.00363955
0.00569658
0.00784664
0.0100831
0.0123991
0.0147872
0.0172401
0.0197501
0.0223093
0.0249097
0.0275428
0.0302003
0.0328738
0.0355548
0.0382345
0.0409043
0.0435554
0.046179
0.0487666
0.0513094
0.0537991
0.0562271
0.0585854
0.0608658
0.0630607
0.0651624
0.0671638
0.069058
0.0708386
0.0724996
0.0740356
0.0754415
0.0767129
0.0778459
0.0788373
0.0796847
0.0803864
0.0809415
0.08135
0.0816129
0.081732
0.08171
0.0815507
0.0812594
0.0808422
0.0803067
0.0796618
0.0789179
0.0780866
0.0771809
0.0762155
0.0752064
0.0741714
0.0731296
0.0721017
0.0711098
0.0701768
0.0693267
0.0685834
0.0679701
0.0675103
0.0672392
0.0671798
0.00244709
0.00220447
0.00181224
0.00127787
0.000619044
-0.000142607
-0.000985853
-0.00188981
-0.00283391
-0.00379822
-0.00476379
-0.00571287
-0.00662888
-0.00749664
-0.0083024
-0.00903373
-0.00967953
-0.0102301
-0.0106768
-0.0110124
-0.0112306
-0.0113264
-0.0112957
-0.0111353
-0.010843
-0.0104173
-0.00985762
-0.00916407
-0.00833747
-0.00737928
-0.00629157
-0.00507687
-0.00373832
-0.00227963
-0.00070495
0.000981195
0.00277393
0.00466789
0.00665732
0.00873623
0.0108982
0.0131367
0.0154446
0.0178149
0.0202403
0.022713
0.0252253
0.0277692
0.0303366
0.0329194
0.0355094
0.0380983
0.0406777
0.0432389
0.0457737
0.0482738
0.0507308
0.0531367
0.0554834
0.0577628
0.0599674
0.0620896
0.0641223
0.0660586
0.0678919
0.0696161
0.0712255
0.0727148
0.0740793
0.0753147
0.0764174
0.0773844
0.0782134
0.078903
0.0794522
0.0798613
0.0801311
0.0802634
0.080261
0.0801275
0.0798679
0.0794881
0.0789954
0.0783982
0.0777061
0.07693
0.0760821
0.0751759
0.074226
0.0732485
0.0722608
0.0712812
0.0703292
0.069425
0.068589
0.067842
0.0672043
0.0666965
0.0663389
0.0661414
0.00367538
0.00326476
0.00276216
0.00215947
0.00145618
0.000670739
-0.000178182
-0.001073
-0.00199625
-0.00293074
-0.0038599
-0.00476804
-0.00564055
-0.0064638
-0.00722528
-0.0079137
-0.00851893
-0.00903196
-0.00944488
-0.00975086
-0.00994405
-0.0100197
-0.00997398
-0.00980386
-0.00950718
-0.00908251
-0.00852926
-0.00784756
-0.00703813
-0.0061023
-0.00504201
-0.00385966
-0.00255824
-0.00114129
0.000387231
0.00202305
0.00376154
0.00559756
0.00752555
0.00953974
0.011634
0.013802
0.0160371
0.0183323
0.0206807
0.0230749
0.0255072
0.02797
0.0304555
0.032956
0.0354636
0.0379701
0.0404673
0.0429472
0.0454016
0.0478225
0.0502021
0.0525323
0.0548055
0.0570138
0.05915
0.0612068
0.0631774
0.0650552
0.0668338
0.0685073
0.0700703
0.0715176
0.0728448
0.0740479
0.0751233
0.0760683
0.0768806
0.0775588
0.0781022
0.0785109
0.0787858
0.0789286
0.078942
0.0788295
0.0785957
0.0782463
0.0777881
0.0772289
0.0765778
0.075845
0.0750414
0.0741796
0.0732729
0.0723358
0.0713838
0.0704332
0.0695011
0.068605
0.0677626
0.0669913
0.0663093
0.0657344
0.0652696
0.0649099
0.00504598
0.00445313
0.00382519
0.00313851
0.00237399
0.0015474
0.0006752
-0.000228033
-0.00114761
-0.00206879
-0.0029773
-0.00385939
-0.00470214
-0.00549348
-0.00622221
-0.00687812
-0.007452
-0.00793565
-0.00832178
-0.00860413
-0.00877734
-0.00883699
-0.00877945
-0.00860192
-0.00830236
-0.00787947
-0.00733274
-0.00666228
-0.00586876
-0.00495341
-0.00391809
-0.00276512
-0.00149738
-0.000118276
0.00136848
0.00295881
0.00464825
0.00643186
0.00830427
0.0102599
0.0122929
0.0143972
0.0165664
0.0187939
0.0210727
0.0233958
0.0257558
0.0281453
0.030557
0.0329833
0.0354165
0.0378487
0.040272
0.0426785
0.0450606
0.0474104
0.0497203
0.0519827
0.0541898
0.0563345
0.0584094
0.0604077
0.0623228
0.0641483
0.0658781
0.0675064
0.069028
0.0704379
0.0717319
0.0729061
0.0739571
0.0748821
0.0756792
0.0763468
0.0768843
0.0772918
0.0775701
0.0777208
0.0777465
0.0776504
0.077437
0.0771114
0.07668
0.0761501
0.0755302
0.0748294
0.0740581
0.0732274
0.0723495
0.0714374
0.0705049
0.0695665
0.0686369
0.0677315
0.0668651
0.0660525
0.0653098
0.0646524
0.0640656
0.0635291
0.00651859
0.00573595
0.00497275
0.00419028
0.00335136
0.00246952
0.00155945
0.000633055
-0.0002975
-0.00121971
-0.0021213
-0.00299038
-0.00381563
-0.00458636
-0.00529269
-0.0059255
-0.00647649
-0.0069382
-0.00730407
-0.00756838
-0.00772631
-0.00777377
-0.00770741
-0.00752467
-0.00722369
-0.00680336
-0.00626324
-0.00560345
-0.00482463
-0.00392798
-0.00291533
-0.00178897
-0.000551652
0.000793378
0.00224256
0.003792
0.00543736
0.00717381
0.00899622
0.0108992
0.0128772
0.0149243
0.0170344
0.0192009
0.0214172
0.0236764
0.0259716
0.0282955
0.030641
0.0330007
0.0353672
0.0377329
0.04009
0.0424311
0.0447485
0.0470349
0.0492827
0.0514846
0.0536331
0.0557211
0.0577416
0.0596881
0.061554
0.0633332
0.0650197
0.0666081
0.068093
0.0694699
0.0707345
0.0718831
0.0729123
0.0738196
0.0746028
0.0752606
0.0757922
0.0761978
0.0764779
0.0766342
0.0766689
0.0765851
0.0763869
0.076079
0.0756674
0.0751589
0.0745611
0.0738824
0.0731323
0.0723209
0.0714591
0.0705585
0.0696314
0.0686904
0.0677485
0.0668188
0.0659139
0.0650459
0.0642294
0.0634779
0.0627589
0.0620377
0.00805842
0.007083
0.00617839
0.00529159
0.00436808
0.00341972
0.00245979
0.00149782
0.00054384
-0.000391687
-0.00129833
-0.00216586
-0.00298443
-0.00374471
-0.00443798
-0.00505619
-0.00559192
-0.00603853
-0.00639013
-0.00664162
-0.0067886
-0.00682741
-0.006755
-0.00656909
-0.00626809
-0.00585103
-0.00531757
-0.00466786
-0.00390257
-0.00302293
-0.00203077
-0.000928331
0.000281733
0.00159633
0.00301201
0.00452495
0.00613098
0.00782539
0.00960322
0.0114593
0.0133884
0.0153845
0.0174419
0.0195541
0.0217147
0.0239172
0.0261547
0.0284203
0.0307069
0.0330076
0.0353149
0.0376216
0.0399202
0.0422033
0.0444636
0.046694
0.0488871
0.0510356
0.0531324
0.0551706
0.0571434
0.0590444
0.0608672
0.0626059
0.0642547
0.0658081
0.0672611
0.0686091
0.069848
0.0709742
0.0719844
0.0728759
0.0736468
0.0742955
0.0748213
0.0752243
0.0755049
0.0756646
0.0757054
0.0756301
0.0754423
0.0751467
0.0747485
0.074254
0.0736701
0.0730046
0.0722658
0.071463
0.070606
0.069705
0.0687709
0.0678148
0.0668479
0.0658813
0.0649257
0.063991
0.0630905
0.0622362
0.0613786
0.0604692
0.00963574
0.00846742
0.00741799
0.00642093
0.00540516
0.00438134
0.00336181
0.00235402
0.00136604
0.000406637
-0.000515406
-0.00139138
-0.00221281
-0.00297162
-0.00366018
-0.00427142
-0.0047988
-0.00523649
-0.00557929
-0.00582267
-0.00596269
-0.00599607
-0.00592015
-0.00573297
-0.0054332
-0.00502002
-0.00449319
-0.00385296
-0.00310005
-0.00223578
-0.00126198
-0.000180818
0.0010051
0.00229278
0.00367886
0.00515959
0.00673088
0.0083882
0.0101268
0.0119416
0.0138274
0.0157787
0.0177896
0.019854
0.0219657
0.0241183
0.0263051
0.0285194
0.0307544
0.0330032
0.0352587
0.0375138
0.0397611
0.0419936
0.0442041
0.0463856
0.048531
0.0506332
0.0526852
0.0546803
0.0566118
0.0584735
0.0602592
0.061963
0.0635793
0.0651027
0.0665282
0.0678515
0.0690684
0.0701753
0.071169
0.0720469
0.0728069
0.0734474
0.0739677
0.0743675
0.0746475
0.0748087
0.0748528
0.0747826
0.0746012
0.0743128
0.0739222
0.0734351
0.0728578
0.0721973
0.0714611
0.0706575
0.0697953
0.0688835
0.0679316
0.0669494
0.0659466
0.0649327
0.0639165
0.0629059
0.0619136
0.0609502
0.0599504
0.0588523
0.011225
0.00986553
0.00866974
0.00755843
0.00644473
0.00533855
0.00425154
0.00318948
0.0021587
0.00116644
0.000220123
-0.000672949
-0.00150558
-0.00227081
-0.00296204
-0.0035731
-0.00409834
-0.00453269
-0.00487161
-0.0051111
-0.00524772
-0.00527859
-0.00520148
-0.00501473
-0.00471725
-0.00430841
-0.0037881
-0.0031567
-0.00241505
-0.00156451
-0.000606928
0.000455541
0.00162036
0.00288456
0.00424482
0.00569748
0.00723854
0.00886361
0.010568
0.012347
0.0141953
0.0161076
0.0180782
0.0201011
0.0221703
0.0242796
0.0264225
0.0285925
0.0307828
0.0329868
0.0351976
0.0374081
0.0396113
0.0418003
0.0439681
0.0461078
0.0482125
0.0502752
0.052289
0.0542474
0.0561439
0.0579723
0.0597267
0.0614012
0.0629901
0.0644883
0.0658909
0.0671935
0.0683919
0.0694827
0.0704626
0.0713289
0.0720795
0.0727128
0.0732278
0.0736244
0.0739027
0.0740637
0.0741089
0.0740407
0.0738619
0.0735763
0.0731881
0.0727026
0.0721253
0.0714625
0.0707211
0.0699084
0.0690322
0.0681005
0.0671216
0.0661041
0.0650562
0.0639861
0.062901
0.0618074
0.0607173
0.0596405
0.0584967
0.0572114
0.0128042
0.0112564
0.00991409
0.008686
0.0074703
0.00627642
0.00511567
0.00399239
0.0029115
0.00187887
0.000900674
-1.699e-05
-0.000868046
-0.00164657
-0.00234692
-0.00296382
-0.00349246
-0.00392843
-0.00426784
-0.0045072
-0.00464357
-0.00467456
-0.00459828
-0.00441342
-0.00411911
-0.00371492
-0.00320093
-0.00257764
-0.00184606
-0.00100759
-6.40966e-05
0.000982267
0.00212896
0.00337303
0.0047112
0.00613986
0.00765511
0.00925265
0.0109279
0.0126763
0.0144926
0.0163717
0.0183079
0.0202955
0.0223285
0.024401
0.0265066
0.0286389
0.0307915
0.0329575
0.0351305
0.0373035
0.0394696
0.0416221
0.0437541
0.0458588
0.0479294
0.0499592
0.0519413
0.0538694
0.0557371
0.0575382
0.0592669
0.0609173
0.0624841
0.0639618
0.0653458
0.0666316
0.0678153
0.068893
0.0698617
0.0707186
0.0714615
0.0720886
0.072599
0.0729921
0.0732681
0.0734276
0.073472
0.0734031
0.0732236
0.0729368
0.0725465
0.0720573
0.0714742
0.0708028
0.0700493
0.0692202
0.0683224
0.0673629
0.066349
0.0652881
0.0641874
0.0630538
0.0618933
0.060711
0.0595185
0.0583256
0.0570373
0.0555673
0.0143545
0.0126218
0.0111335
0.00978716
0.00846659
0.00718096
0.0059415
0.00475138
0.00361431
0.00253499
0.00151848
0.000569826
-0.000305874
-0.00110365
-0.00181878
-0.00244681
-0.00298367
-0.00342562
-0.00376933
-0.00401186
-0.00415079
-0.00418416
-0.00411047
-0.0039287
-0.00363822
-0.00323884
-0.00273083
-0.00211489
-0.00139211
-0.000563982
0.000367591
0.0014004
0.00253191
0.00375918
0.00507893
0.0064876
0.00798134
0.009556
0.0112071
0.01293
0.0147197
0.0165712
0.0184788
0.0204371
0.0224402
0.0244823
0.026557
0.0286583
0.0307796
0.0329145
0.0350564
0.0371986
0.0393345
0.0414572
0.0435602
0.0456366
0.0476798
0.0496832
0.0516401
0.053544
0.0553888
0.0571685
0.058877
0.0605088
0.0620583
0.0635204
0.0648901
0.0661632
0.0673355
0.0684035
0.0693637
0.0702134
0.0709503
0.0715725
0.0720789
0.0724687
0.0727419
0.0728989
0.0729407
0.072869
0.0726861
0.0723946
0.0719982
0.0715007
0.0709067
0.0702212
0.0694496
0.0685977
0.0676716
0.0666774
0.0656217
0.0645107
0.0633506
0.0621475
0.0609061
0.0596306
0.0583327
0.0570218
0.0555893
0.0539376
0.0158592
0.0139452
0.0123123
0.0108469
0.00941944
0.00803905
0.00671699
0.0054555
0.00425724
0.00312596
0.00206572
0.00108068
0.000175013
-0.000647176
-0.00138198
-0.00202573
-0.00257499
-0.00302668
-0.003378
-0.00362659
-0.00377049
-0.00380818
-0.00373852
-0.00356076
-0.00327457
-0.00288
-0.00237754
-0.00176801
-0.00105267
-0.000233123
0.0006887
0.00171056
0.00282985
0.00404359
0.00534854
0.00674118
0.00821773
0.00977405
0.0114058
0.0131083
0.0148767
0.016706
0.0185909
0.0205258
0.022505
0.0245228
0.0265731
0.0286497
0.0307463
0.0328566
0.0349742
0.0370924
0.0392046
0.0413043
0.0433848
0.0454395
0.0474619
0.0494452
0.051383
0.053269
0.0550969
0.0568608
0.0585547
0.0601731
0.0617103
0.0631613
0.0645212
0.0657855
0.0669502
0.0680115
0.0689661
0.069811
0.0705438
0.0711625
0.0716657
0.0720526
0.0723228
0.0724766
0.0725147
0.0724384
0.0722495
0.0719505
0.0715444
0.0710347
0.0704254
0.0697209
0.068926
0.0680458
0.0670856
0.066051
0.0649475
0.0637806
0.0625558
0.0612782
0.0599516
0.0585794
0.0571735
0.0557436
0.0541677
0.0523378
0.017304
0.0152122
0.0134361
0.0118515
0.0103158
0.00883841
0.00743075
0.00609425
0.00483072
0.00364309
0.00253462
0.00150862
0.000568455
-0.000282564
-0.00104127
-0.00170464
-0.00226991
-0.00273453
-0.00309631
-0.00335342
-0.00350434
-0.00354794
-0.00348343
-0.00331038
-0.00302873
-0.00263877
-0.00214121
-0.00153709
-0.000827768
-1.49157e-05
0.000899427
0.00191292
0.00302292
0.00422643
0.00552022
0.00690078
0.00836435
0.00990685
0.0115239
0.0132111
0.0149635
0.0167761
0.0186437
0.020561
0.0225224
0.024522
0.026554
0.0286123
0.0306906
0.0327829
0.0348826
0.0369833
0.0390785
0.0411617
0.0432263
0.0452658
0.0472737
0.0492433
0.0511683
0.0530423
0.0548592
0.0566129
0.0582977
0.0599079
0.0614378
0.0628824
0.0642368
0.0654964
0.0666571
0.0677151
0.0686669
0.0695095
0.0702402
0.070857
0.0713582
0.0717428
0.0720102
0.0721603
0.0721938
0.0721114
0.0719147
0.0716057
0.0711871
0.0706618
0.0700334
0.0693057
0.068483
0.0675697
0.0665705
0.0654904
0.0643341
0.0631065
0.0618123
0.060456
0.0590407
0.0575692
0.0560536
0.054504
0.0527858
0.0507807
0.018676
0.0164098
0.0144921
0.0127884
0.0111437
0.00956758
0.00807198
0.00665756
0.00532543
0.00407788
0.00291741
0.0018466
0.000868103
-1.54906e-05
-0.00080165
-0.00148795
-0.00207223
-0.00255253
-0.00292722
-0.00319487
-0.00335445
-0.00340523
-0.00334671
-0.00317878
-0.00290167
-0.00251597
-0.00202257
-0.00142267
-0.000717775
9.03185e-05
0.000999463
0.00200724
0.00311094
0.00430755
0.00559379
0.00696618
0.00842097
0.00995411
0.0115613
0.013238
0.0149795
0.0167808
0.0186368
0.0205422
0.0224915
0.024479
0.0264989
0.0285451
0.0306115
0.032692
0.0347804
0.0368701
0.0389548
0.041028
0.0430831
0.0451138
0.0471134
0.0490756
0.0509939
0.0528619
0.0546736
0.0564229
0.058104
0.0597111
0.0612388
0.0626817
0.064035
0.065294
0.0664545
0.0675126
0.0684647
0.0693076
0.0700384
0.070655
0.0711555
0.0715387
0.0718037
0.0719502
0.0719784
0.0718889
0.0716829
0.071362
0.0709284
0.0703848
0.069734
0.0689796
0.0681252
0.0671747
0.0661323
0.0650023
0.063789
0.0624966
0.0611292
0.0596908
0.0581839
0.0566108
0.0549842
0.0533146
0.0514552
0.0492779
0.0199639
0.0175263
0.0154686
0.0136462
0.0118919
0.0102158
0.00863039
0.00713575
0.00573236
0.00442194
0.00320634
0.00208752
0.00106745
0.000148184
-0.000668356
-0.00138037
-0.00198621
-0.00248447
-0.002874
-0.00315389
-0.00332345
-0.00338229
-0.00333029
-0.00316766
-0.00289494
-0.00251293
-0.00202273
-0.00142573
-0.000723576
8.17884e-05
0.000988116
0.00199289
0.00309332
0.00428634
0.00556868
0.00693683
0.00838704
0.00991526
0.0115172
0.0131883
0.014924
0.0167193
0.0185693
0.0204685
0.0224115
0.0243929
0.0264066
0.0284469
0.0305077
0.0325828
0.0346661
0.0367513
0.0388318
0.0409014
0.0429534
0.0449816
0.0469794
0.0489403
0.0508579
0.0527259
0.0545382
0.0562887
0.0579715
0.0595809
0.0611113
0.0625573
0.063914
0.0651766
0.0663408
0.0674026
0.0683581
0.069204
0.0699375
0.0705559
0.0710573
0.0714402
0.0717035
0.0718466
0.0718694
0.0717722
0.0715558
0.0712215
0.070771
0.0702066
0.0695309
0.0687467
0.0678574
0.0668663
0.0657771
0.0645937
0.0633196
0.0619589
0.0605151
0.0589916
0.0573908
0.0557143
0.0539756
0.0521858
0.0501863
0.0478392
0.0211576
0.0185512
0.0163547
0.014414
0.0125498
0.0107729
0.00909627
0.00751957
0.00604277
0.00466703
0.0033937
0.0022242
0.00115998
0.000202454
-0.00064693
-0.0013869
-0.00201637
-0.00253447
-0.00294046
-0.00323382
-0.00341428
-0.00348179
-0.0034366
-0.00327922
-0.00301046
-0.00263136
-0.00214325
-0.00154768
-0.000846461
-4.16702e-05
0.000864305
0.00186884
0.00296906
0.00416188
0.00544399
0.00681184
0.00826165
0.00978937
0.0113907
0.0130612
0.0147962
0.0165908
0.01844
0.0203386
0.0222812
0.0242623
0.0262759
0.0283164
0.0303777
0.0324537
0.0345384
0.0366253
0.038708
0.0407803
0.0428356
0.0448676
0.0468697
0.0488355
0.0507586
0.0526325
0.0544512
0.0562086
0.0578986
0.0595156
0.0610538
0.0625077
0.0638724
0.0651429
0.0663148
0.0673838
0.0683461
0.0691982
0.0699368
0.0705593
0.0710635
0.0714476
0.0717102
0.0718505
0.0718681
0.0717629
0.0715354
0.0711865
0.0707178
0.0701308
0.0694279
0.0686116
0.0676846
0.06665
0.065511
0.064271
0.0629333
0.0615012
0.0599782
0.0583673
0.0566704
0.0548891
0.0530374
0.0511271
0.0489884
0.0464734
0.0222477
0.0194746
0.0171407
0.0150819
0.0131077
0.0112293
0.00946033
0.00780006
0.00624803
0.00480501
0.00347188
0.00224953
0.00113897
0.000141155
-0.000743035
-0.00151283
-0.00216765
-0.00270702
-0.00313063
-0.00343837
-0.00363033
-0.00370683
-0.00366845
-0.003516
-0.00325056
-0.00287342
-0.0023861
-0.00179032
-0.00108808
-0.000281614
0.000626551
0.00163369
0.00273687
0.00393292
0.0052185
0.00659
0.00804361
0.00957526
0.0111807
0.0128553
0.0145947
0.0163938
0.0182478
0.0201514
0.0220993
0.0240859
0.0261054
0.0281521
0.0302201
0.0323032
0.0343954
0.0364904
0.0385817
0.040663
0.0427279
0.04477
0.0467827
0.0487595
0.0506941
0.05258
0.0544109
0.0561808
0.0578837
0.0595135
0.0610646
0.0625314
0.0639088
0.0651916
0.0663753
0.0674556
0.0684282
0.0692895
0.0700362
0.0706653
0.0711744
0.0715614
0.0718246
0.0719631
0.0719759
0.0718628
0.071624
0.07126
0.0707718
0.070161
0.0694293
0.0685788
0.067612
0.0665315
0.0653402
0.064041
0.062637
0.0611311
0.0595266
0.0578261
0.0560314
0.0541438
0.0521783
0.0501474
0.0478698
0.0451885
0.0232255
0.0202876
0.017817
0.0156406
0.0135562
0.0115758
0.0097135
0.00796847
0.0063398
0.00482787
0.00343322
0.00215633
0.000997748
-4.20358e-05
-0.000962633
-0.00176373
-0.00244516
-0.00300684
-0.0034489
-0.00377158
-0.00397534
-0.00406086
-0.00402903
-0.00388097
-0.003618
-0.00324163
-0.00275359
-0.00215581
-0.00145047
-0.000639983
0.000273029
0.00128573
0.0023951
0.00359788
0.00489068
0.00626982
0.00773145
0.00927148
0.0108856
0.0125694
0.0143181
0.016127
0.0179912
0.0199053
0.0218642
0.0238621
0.0258934
0.0279525
0.0300332
0.0321296
0.0342356
0.0363449
0.0384511
0.0405478
0.0426286
0.044687
0.0467165
0.0487106
0.0506627
0.0525665
0.0544156
0.0562039
0.0579251
0.0595733
0.0611425
0.0626273
0.0640221
0.0653219
0.0665218
0.0676172
0.0686039
0.069478
0.0702358
0.0708742
0.0713905
0.0717824
0.0720479
0.0721858
0.0721948
0.0720743
0.0718243
0.0714448
0.0709367
0.0703011
0.0695393
0.0686532
0.0676448
0.0665165
0.0652708
0.0639103
0.0624377
0.060856
0.0591678
0.0573759
0.0554818
0.0534868
0.0514065
0.0492545
0.0468382
0.0439915
0.0240829
0.0209814
0.018375
0.016081
0.0138863
0.0118034
0.0098471
0.00801628
0.00630979
0.00472771
0.00327022
0.00193743
0.000729463
-0.000353627
-0.00131186
-0.00214533
-0.00285425
-0.00343896
-0.00389994
-0.0042378
-0.00445337
-0.00454767
-0.00452189
-0.00437742
-0.00411581
-0.00373883
-0.00324841
-0.00264668
-0.00193604
-0.00111902
-0.000198379
0.000822944
0.00194181
0.00315489
0.00445872
0.00584955
0.00732346
0.00887634
0.0105039
0.0122016
0.0139648
0.0157888
0.0176685
0.0195988
0.0215742
0.0235893
0.0256384
0.0277157
0.0298153
0.0319312
0.0340573
0.0361872
0.0383145
0.0404329
0.0425358
0.0446168
0.0466694
0.0486869
0.0506628
0.0525906
0.0544638
0.0562762
0.0580215
0.0596936
0.0612864
0.0627942
0.0642115
0.0655329
0.0667535
0.0678683
0.0688731
0.0697635
0.0705358
0.0711866
0.0717128
0.0721119
0.0723817
0.0725205
0.0725268
0.0723999
0.0721391
0.0717444
0.0712161
0.0705551
0.0697625
0.0688396
0.0677884
0.0666107
0.0653089
0.0638853
0.0623424
0.0606829
0.0589093
0.0570244
0.0550294
0.0529256
0.0507297
0.0484559
0.0459008
0.0428889
0.0248123
0.021548
0.0188062
0.0163948
0.0140895
0.0119036
0.00985258
0.00793517
0.00614993
0.00449669
0.00297531
0.00158554
0.000327126
-0.000800258
-0.001797
-0.00266357
-0.00340054
-0.00400864
-0.0044887
-0.00484171
-0.00506884
-0.00517142
-0.00515091
-0.00500896
-0.0047474
-0.00436821
-0.00387357
-0.00326581
-0.00254748
-0.00172129
-0.000790104
0.000242998
0.00137478
0.00260182
0.00392055
0.00532716
0.00681766
0.00838791
0.0100336
0.0117501
0.013533
0.0153772
0.0172779
0.0192298
0.0212276
0.0232656
0.0253384
0.02744
0.0295646
0.0317062
0.0338585
0.0360152
0.03817
0.0403164
0.0424478
0.0445578
0.0466397
0.0486869
0.0506928
0.0526506
0.054554
0.0563965
0.0581717
0.0598733
0.0614952
0.0630314
0.0644763
0.0658243
0.0670701
0.0682089
0.0692359
0.0701465
0.0709369
0.0716032
0.0721423
0.0725512
0.0728276
0.0729693
0.0729746
0.0728423
0.0725717
0.0721622
0.071614
0.0709275
0.0701036
0.0691433
0.0680482
0.0668201
0.0654608
0.0639726
0.0623579
0.0606189
0.0587584
0.0567788
0.0546815
0.0524677
0.050155
0.0477587
0.0450642
0.0418868
0.0254062
0.0219795
0.0191023
0.0165734
0.0141572
0.0118679
0.0097216
0.00771694
0.00585221
0.004127
0.00254088
0.0010933
-0.000216337
-0.00138869
-0.0024245
-0.00332456
-0.00408983
-0.00472139
-0.00522043
-0.0055883
-0.00582645
-0.00593651
-0.00592023
-0.00577953
-0.00551648
-0.00513332
-0.00463244
-0.00401636
-0.00328782
-0.00244966
-0.0015049
-0.00045673
0.000691482
0.00193622
0.0032738
0.00470034
0.0062118
0.007804
0.00947257
0.011213
0.0130205
0.0148904
0.0168174
0.0187965
0.0208223
0.0228891
0.0249915
0.0271234
0.0292792
0.0314525
0.0336374
0.0358273
0.0380158
0.0401965
0.0423628
0.0445081
0.0466257
0.0487089
0.050751
0.0527452
0.0546849
0.0565635
0.0583744
0.0601114
0.061768
0.0633381
0.0648159
0.0661956
0.0674717
0.068639
0.0696925
0.0706276
0.0714399
0.0721254
0.0726805
0.0731022
0.0733877
0.0735345
0.0735407
0.0734047
0.0731254
0.0727021
0.0721345
0.0714228
0.0705675
0.0695694
0.0684299
0.0671504
0.0657327
0.0641788
0.0624908
0.0606711
0.0587221
0.0566465
0.0544454
0.0521203
0.0496896
0.0471696
0.0443347
0.040991
0.0258574
0.0222682
0.0192555
0.0166087
0.0140813
0.011688
0.00944597
0.00735346
0.0054086
0.00361075
0.00195926
0.000453268
-0.00090811
-0.00212583
-0.00320096
-0.00413464
-0.00492819
-0.00558302
-0.00610068
-0.00648281
-0.00673118
-0.00684767
-0.00683435
-0.00669339
-0.00642711
-0.00603801
-0.00552869
-0.00490184
-0.00416039
-0.00330733
-0.0023458
-0.00127916
-0.000110903
0.00115534
0.0025158
0.00396651
0.00550339
0.00712219
0.0088185
0.0105878
0.0124252
0.0143259
0.0162848
0.0182967
0.0203561
0.0224576
0.0245954
0.0267638
0.0289568
0.0311682
0.0333918
0.0356212
0.0378499
0.0400713
0.0422789
0.0444659
0.0466256
0.0487512
0.0508359
0.0528727
0.0548549
0.0567758
0.0586286
0.0604069
0.062104
0.0637137
0.0652299
0.0666466
0.067958
0.0691587
0.0702435
0.0712074
0.0720457
0.0727542
0.0733291
0.0737668
0.0740643
0.0742189
0.0742282
0.0740904
0.0738041
0.0733682
0.0727821
0.0720458
0.0711594
0.0701236
0.0689393
0.067608
0.0661311
0.0645104
0.0627481
0.0608463
0.0588076
0.0566344
0.0543282
0.0518903
0.0493403
0.0466952
0.0437187
0.0402072
0.0261588
0.0224065
0.0192578
0.0164927
0.0138536
0.0113559
0.00901748
0.00683656
0.004811
0.00294
0.00122266
-0.000342115
-0.00175549
-0.00301872
-0.00413317
-0.00510036
-0.00592192
-0.00659959
-0.00713522
-0.00753076
-0.00778826
-0.00790991
-0.00789804
-0.0077551
-0.00748367
-0.00708646
-0.00656629
-0.00592604
-0.00516881
-0.00429775
-0.00331615
-0.00222752
-0.00103549
0.00025618
0.00164365
0.00312287
0.00468968
0.00633979
0.00806872
0.00987184
0.0117443
0.0136812
0.0156775
0.0177278
0.0198267
0.0219687
0.024148
0.0263589
0.0285952
0.0308509
0.0331196
0.0353948
0.03767
0.0399387
0.042194
0.0444293
0.0466376
0.0488121
0.0509458
0.0530317
0.0550628
0.0570322
0.0589331
0.0607588
0.0625025
0.0641576
0.0657179
0.0671771
0.0685293
0.0697686
0.0708896
0.0718869
0.0727557
0.0734914
0.0740898
0.0745471
0.0748599
0.0750252
0.0750403
0.074903
0.0746116
0.0741647
0.0735615
0.0728014
0.0718846
0.0708114
0.0695825
0.068199
0.0666624
0.0649743
0.0631366
0.0611517
0.059022
0.05675
0.0543371
0.0517849
0.0491139
0.0463423
0.0432224
0.0395411
0.0263031
0.0223869
0.0191014
0.0162174
0.0134659
0.0108632
0.00842788
0.00615801
0.00405129
0.00210674
0.00032326
-0.00130048
-0.00276591
-0.00407457
-0.00522816
-0.00622853
-0.00707758
-0.00777739
-0.0083301
-0.00873794
-0.00900326
-0.00912855
-0.00911641
-0.00896956
-0.00869083
-0.00828316
-0.00774955
-0.00709309
-0.00631704
-0.00542472
-0.00441961
-0.00330535
-0.00208573
-0.000764595
0.000654115
0.00216627
0.00376762
0.00545381
0.00722031
0.00906239
0.0109752
0.0129537
0.0149928
0.0170871
0.0192313
0.0214197
0.0236465
0.025906
0.0281919
0.0304981
0.0328182
0.0351457
0.037474
0.0397964
0.042106
0.0443961
0.0466597
0.0488897
0.0510789
0.0532204
0.0553069
0.0573314
0.0592868
0.0611662
0.0629626
0.0646694
0.0662797
0.0677873
0.0691857
0.070469
0.0716314
0.0726672
0.0735712
0.0743386
0.0749648
0.0754456
0.0757774
0.0759567
0.0759805
0.0758464
0.0755522
0.0750963
0.0744775
0.0736951
0.0727488
0.0716388
0.0703656
0.06893
0.0673334
0.0655773
0.0636637
0.0615946
0.0593726
0.0570004
0.0544794
0.0518112
0.0490175
0.0461175
0.042852
0.0389985
0.0262831
0.0222018
0.0187785
0.0157747
0.0129101
0.0102017
0.00766884
0.00530951
0.00312123
0.00110285
-0.00074692
-0.00242964
-0.00394701
-0.00530088
-0.00649323
-0.00752619
-0.008402
-0.009123
-0.00969162
-0.0101104
-0.010382
-0.0105092
-0.0104949
-0.010342
-0.0100536
-0.0096329
-0.00908306
-0.00840737
-0.0076093
-0.00669234
-0.00566014
-0.0045165
-0.00326532
-0.00191056
-0.000456271
0.00109334
0.00273393
0.00446105
0.00627012
0.00815632
0.0101147
0.0121402
0.0142278
0.0163719
0.0185672
0.0208079
0.0230883
0.0254025
0.0277443
0.0301073
0.0324853
0.0348715
0.0372594
0.039642
0.0420127
0.0443643
0.0466898
0.048982
0.0512336
0.0534374
0.055586
0.0576721
0.0596886
0.0616283
0.0634839
0.0652485
0.0669151
0.068477
0.0699277
0.0712607
0.07247
0.0735496
0.0744939
0.0752978
0.0759563
0.076465