/*--------------------------------*- C++ -*----------------------------------*\
| =========                 |                                                 |
| \\      /  F ield         | OpenFOAM: The Open Source CFD Toolbox           |
|  \\    /   O peration     | Version:  2212                                  |
|   \\  /    A nd           | Website:  www.openfoam.com                      |
|    \\/     M anipulation  |                                                 |
\*---------------------------------------------------------------------------*/
FoamFile
{
    version     2.0;
    format      ascii;
    arch        "LSB;label=32;scalar=64";
    class       surfaceScalarField;
    location    "0.053";
    object      phi_0;
}
// * * * * * * * * * * * * * * * * * * * * * * * * * * * * * * * * * * * * * //

dimensions      [0 3 -1 0 0 0 0];

oriented        oriented;

internalField   nonuniform List<scalar> 
19800
(
6.71323e-11
-6.45702e-11
2.23153e-10
-1.56027e-10
3.93322e-10
-1.70169e-10
5.24008e-10
-1.30698e-10
5.85229e-10
-6.12015e-11
5.60552e-10
2.46934e-11
4.4189e-10
1.18664e-10
2.26411e-10
2.15468e-10
-8.53692e-11
3.11771e-10
-4.90793e-10
4.05426e-10
-9.85814e-10
4.9502e-10
-1.56547e-09
5.79644e-10
-2.22418e-09
6.58698e-10
-2.95596e-09
7.31786e-10
-3.75461e-09
7.98648e-10
-4.61375e-09
8.59152e-10
-5.527e-09
9.1325e-10
-6.48794e-09
9.60942e-10
-7.49024e-09
1.00229e-09
-8.52765e-09
1.0374e-09
-9.59402e-09
1.06637e-09
-1.06834e-08
1.08934e-09
-1.17898e-08
1.10647e-09
-1.29078e-08
1.11792e-09
-1.40316e-08
1.12384e-09
-1.5156e-08
1.12441e-09
-1.62758e-08
1.11984e-09
-1.73861e-08
1.1103e-09
-1.84821e-08
1.09597e-09
-1.95592e-08
1.07706e-09
-2.0613e-08
1.05379e-09
-2.16393e-08
1.02633e-09
-2.26342e-08
9.94884e-10
-2.35938e-08
9.59661e-10
-2.45147e-08
9.20861e-10
-2.53934e-08
8.78674e-10
-2.62267e-08
8.33285e-10
-2.70116e-08
7.84901e-10
-2.77453e-08
7.33734e-10
-2.84253e-08
6.79981e-10
-2.90491e-08
6.23833e-10
-2.96146e-08
5.65493e-10
-3.01198e-08
5.05171e-10
-3.05629e-08
4.43064e-10
-3.09422e-08
3.79364e-10
-3.12565e-08
3.14276e-10
-3.15045e-08
2.4802e-10
-3.16853e-08
1.8081e-10
-3.17982e-08
1.12855e-10
-3.18426e-08
4.43651e-11
-3.18182e-08
-2.44365e-11
-3.17248e-08
-9.33231e-11
-3.15628e-08
-1.62066e-10
-3.13323e-08
-2.30434e-10
-3.10341e-08
-2.98197e-10
-3.0669e-08
-3.65121e-10
-3.0238e-08
-4.3097e-10
-2.97425e-08
-4.95499e-10
-2.91841e-08
-5.58453e-10
-2.85645e-08
-6.19582e-10
-2.78859e-08
-6.78639e-10
-2.71505e-08
-7.3538e-10
-2.63609e-08
-7.89555e-10
-2.552e-08
-8.40906e-10
-2.46309e-08
-8.89171e-10
-2.36968e-08
-9.34092e-10
-2.27213e-08
-9.75422e-10
-2.17084e-08
-1.01292e-09
-2.06621e-08
-1.04633e-09
-1.95867e-08
-1.07542e-09
-1.84868e-08
-1.09994e-09
-1.73671e-08
-1.11967e-09
-1.62327e-08
-1.13437e-09
-1.50889e-08
-1.14382e-09
-1.39411e-08
-1.14784e-09
-1.27948e-08
-1.14623e-09
-1.1656e-08
-1.13882e-09
-1.05306e-08
-1.12545e-09
-9.42459e-09
-1.10597e-09
-8.34433e-09
-1.08027e-09
-7.2961e-09
-1.04823e-09
-6.28633e-09
-1.00978e-09
-5.32146e-09
-9.64871e-10
-4.40796e-09
-9.13507e-10
-3.55224e-09
-8.55721e-10
-2.76065e-09
-7.91599e-10
-2.03936e-09
-7.21294e-10
-1.39432e-09
-6.45042e-10
-8.31133e-10
-5.63191e-10
-3.54877e-10
-4.7625e-10
3.00712e-11
-3.84943e-10
3.20387e-10
-2.90314e-10
5.14256e-10
-1.9387e-10
6.12115e-10
-9.78642e-11
6.17838e-10
-5.72663e-12
5.4063e-10
7.7208e-11
3.98047e-10
1.42583e-10
2.21131e-10
1.76915e-10
6.32215e-11
1.57912e-10
6.32181e-11
1.58262e-10
-2.22852e-10
4.29245e-10
-4.26994e-10
6.83381e-10
-4.24297e-10
8.27989e-10
-2.75333e-10
7.98911e-10
-3.21621e-11
5.55412e-10
2.68188e-10
7.40002e-11
6.00088e-10
-6.56446e-10
9.45924e-10
-1.63829e-09
1.29362e-09
-2.86774e-09
1.63486e-09
-4.33656e-09
1.96385e-09
-6.03349e-09
2.27659e-09
-7.94507e-09
2.57029e-09
-1.00563e-08
2.84304e-09
-1.23513e-08
3.09359e-09
-1.48133e-08
3.32112e-09
-1.74252e-08
3.52518e-09
-2.01699e-08
3.7056e-09
-2.303e-08
3.86242e-09
-2.59884e-08
3.99583e-09
-2.90282e-08
4.10615e-09
-3.21326e-08
4.19379e-09
-3.52854e-08
4.25924e-09
-3.84705e-08
4.30304e-09
-4.16725e-08
4.32582e-09
-4.48763e-08
4.32817e-09
-4.80672e-08
4.31077e-09
-5.12312e-08
4.2743e-09
-5.43547e-08
4.21949e-09
-5.74247e-08
4.14706e-09
-6.04287e-08
4.05775e-09
-6.33547e-08
3.95231e-09
-6.61913e-08
3.83151e-09
-6.89277e-08
3.69609e-09
-7.15537e-08
3.5468e-09
-7.40594e-08
3.3844e-09
-7.64358e-08
3.20967e-09
-7.86742e-08
3.02335e-09
-8.07667e-08
2.82623e-09
-8.27058e-08
2.61908e-09
-8.44847e-08
2.40267e-09
-8.6097e-08
2.17778e-09
-8.7537e-08
1.9452e-09
-8.87997e-08
1.70571e-09
-8.98804e-08
1.4601e-09
-9.07753e-08
1.20918e-09
-9.1481e-08
9.53746e-10
-9.19949e-08
6.94628e-10
-9.23147e-08
4.32658e-10
-9.2439e-08
1.68679e-10
-9.2367e-08
-9.64611e-11
-9.20984e-08
-3.61892e-10
-9.16337e-08
-6.26728e-10
-9.09741e-08
-8.90074e-10
-9.01213e-08
-1.15103e-09
-8.90777e-08
-1.4087e-09
-8.78465e-08
-1.66215e-09
-8.64316e-08
-1.91043e-09
-8.48374e-08
-2.15259e-09
-8.30693e-08
-2.38767e-09
-8.11332e-08
-2.61473e-09
-7.90359e-08
-2.83278e-09
-7.67845e-08
-3.04087e-09
-7.43875e-08
-3.23801e-09
-7.18534e-08
-3.42322e-09
-6.9192e-08
-3.59554e-09
-6.64134e-08
-3.754e-09
-6.35286e-08
-3.89768e-09
-6.05494e-08
-4.02562e-09
-5.74879e-08
-4.13692e-09
-5.43571e-08
-4.23068e-09
-5.11708e-08
-4.30603e-09
-4.7943e-08
-4.36215e-09
-4.46886e-08
-4.39823e-09
-4.14229e-08
-4.41353e-09
-3.81618e-08
-4.40737e-09
-3.49215e-08
-4.37912e-09
-3.17187e-08
-4.32822e-09
-2.85705e-08
-4.25418e-09
-2.54942e-08
-4.15658e-09
-2.25073e-08
-4.03512e-09
-1.96275e-08
-3.8896e-09
-1.68724e-08
-3.71997e-09
-1.42595e-08
-3.52633e-09
-1.18063e-08
-3.30897e-09
-9.52949e-09
-3.06841e-09
-7.44532e-09
-2.80547e-09
-5.56907e-09
-2.5213e-09
-3.91467e-09
-2.21759e-09
-2.49429e-09
-1.89663e-09
-1.31763e-09
-1.5616e-09
-3.91034e-10
-1.21691e-09
2.83793e-10
-8.68695e-10
7.11538e-10
-5.25604e-10
9.05762e-10
-1.99943e-10
8.92477e-10
9.05094e-11
7.14799e-10
3.20275e-10
4.38691e-10
4.53023e-10
1.57835e-10
4.38763e-10
2.2105e-10
1.71695e-10
-3.94542e-10
4.28182e-10
-6.83499e-10
6.09896e-10
-6.05971e-10
6.05083e-10
-2.70511e-10
3.33269e-10
2.39646e-10
-2.60086e-10
8.61527e-10
-1.20875e-09
1.54875e-09
-2.53051e-09
2.26768e-09
-4.23097e-09
2.99408e-09
-6.30662e-09
3.71049e-09
-8.74711e-09
4.40433e-09
-1.15371e-08
5.06654e-09
-1.46574e-08
5.69063e-09
-1.80863e-08
6.27198e-09
-2.18002e-08
6.80743e-09
-2.57739e-08
7.29484e-09
-2.99816e-08
7.7329e-09
-3.43969e-08
8.12091e-09
-3.89932e-08
8.4587e-09
-4.37438e-08
8.74644e-09
-4.86223e-08
8.98462e-09
-5.36025e-08
9.17399e-09
-5.86587e-08
9.31546e-09
-6.37658e-08
9.4101e-09
-6.88991e-08
9.45912e-09
-7.40347e-08
9.46381e-09
-7.91495e-08
9.42557e-09
-8.4221e-08
9.34583e-09
-8.92276e-08
9.22609e-09
-9.41485e-08
9.0679e-09
-9.89636e-08
8.87283e-09
-1.03654e-07
8.64251e-09
-1.08201e-07
8.37854e-09
-1.12587e-07
8.08255e-09
-1.16797e-07
7.7562e-09
-1.20813e-07
7.40114e-09
-1.24623e-07
7.01902e-09
-1.28211e-07
6.61151e-09
-1.31565e-07
6.18033e-09
-1.34673e-07
5.72715e-09
-1.37524e-07
5.25366e-09
-1.40108e-07
4.76159e-09
-1.42415e-07
4.25265e-09
-1.44438e-07
3.72857e-09
-1.46169e-07
3.19111e-09
-1.47602e-07
2.64202e-09
-1.48731e-07
2.08309e-09
-1.49553e-07
1.51614e-09
-1.50063e-07
9.42992e-10
-1.5026e-07
3.65487e-10
-1.50142e-07
-2.14492e-10
-1.49709e-07
-7.95035e-10
-1.48961e-07
-1.37421e-09
-1.47901e-07
-1.95007e-09
-1.46532e-07
-2.52063e-09
-1.44857e-07
-3.08388e-09
-1.42881e-07
-3.63781e-09
-1.40611e-07
-4.18034e-09
-1.38054e-07
-4.7094e-09
-1.35219e-07
-5.22292e-09
-1.32115e-07
-5.71878e-09
-1.28753e-07
-6.19487e-09
-1.25145e-07
-6.64908e-09
-1.21303e-07
-7.07929e-09
-1.17243e-07
-7.48338e-09
-1.1298e-07
-7.85926e-09
-1.08529e-07
-8.20484e-09
-1.03908e-07
-8.51807e-09
-9.9137e-08
-8.79695e-09
-9.42344e-08
-9.03951e-09
-8.92212e-08
-9.24384e-09
-8.41191e-08
-9.40809e-09
-7.89508e-08
-9.53048e-09
-7.37397e-08
-9.60935e-09
-6.85101e-08
-9.64313e-09
-6.32871e-08
-9.63037e-09
-5.80964e-08
-9.56979e-09
-5.29644e-08
-9.46023e-09
-4.79179e-08
-9.30072e-09
-4.2984e-08
-9.09048e-09
-3.81901e-08
-8.82898e-09
-3.35638e-08
-8.51594e-09
-2.91323e-08
-8.15142e-09
-2.49228e-08
-7.73584e-09
-2.09618e-08
-7.27006e-09
-1.72747e-08
-6.75548e-09
-1.3886e-08
-6.19419e-09
-1.08182e-08
-5.58908e-09
-8.09159e-09
-4.94418e-09
-5.72333e-09
-4.26488e-09
-3.72644e-09
-3.55849e-09
-2.10856e-09
-2.83481e-09
-8.70144e-10
-2.10712e-09
-2.30675e-12
-1.39344e-09
5.16195e-10
-7.18448e-10
7.2253e-10
-1.15826e-10
6.74435e-10
3.68376e-10
4.54987e-10
6.72469e-10
1.77414e-10
7.16327e-10
3.98463e-10
1.33592e-10
-5.28135e-10
2.83553e-10
-8.33495e-10
2.82674e-10
-6.051e-10
1.19885e-11
2.02419e-13
-6.15265e-10
8.66896e-10
-1.65983e-09
1.90609e-09
-3.16073e-09
3.04965e-09
-5.13958e-09
4.24652e-09
-7.60405e-09
5.45856e-09
-1.05509e-08
6.65736e-09
-1.39684e-08
7.82184e-09
-1.78383e-08
8.93637e-09
-2.21372e-08
9.98949e-09
-2.6838e-08
1.09728e-08
-3.19109e-08
1.18804e-08
-3.73241e-08
1.2708e-08
-4.30442e-08
1.34531e-08
-4.90372e-08
1.41139e-08
-5.52684e-08
1.46898e-08
-6.17028e-08
1.51809e-08
-6.83057e-08
1.55876e-08
-7.50427e-08
1.59109e-08
-8.18796e-08
1.61524e-08
-8.8783e-08
1.63135e-08
-9.57202e-08
1.63963e-08
-1.02659e-07
1.64029e-08
-1.09569e-07
1.63355e-08
-1.1642e-07
1.61966e-08
-1.23182e-07
1.59886e-08
-1.29829e-07
1.57142e-08
-1.36332e-07
1.5376e-08
-1.42666e-07
1.49768e-08
-1.48807e-07
1.45193e-08
-1.54731e-07
1.40064e-08
-1.60415e-07
1.34407e-08
-1.6584e-07
1.28253e-08
-1.70984e-07
1.2163e-08
-1.75829e-07
1.14566e-08
-1.80358e-07
1.07092e-08
-1.84554e-07
9.92353e-09
-1.88403e-07
9.10266e-09
-1.91891e-07
8.24954e-09
-1.95005e-07
7.36716e-09
-1.97735e-07
6.45853e-09
-2.00071e-07
5.5267e-09
-2.02004e-07
4.57476e-09
-2.03526e-07
3.60579e-09
-2.04633e-07
2.62296e-09
-2.0532e-07
1.62944e-09
-2.05583e-07
6.28463e-10
-2.0542e-07
-3.76712e-10
-2.04833e-07
-1.38277e-09
-2.03821e-07
-2.38637e-09
-2.02387e-07
-3.38412e-09
-2.00535e-07
-4.37256e-09
-1.9827e-07
-5.34822e-09
-1.956e-07
-6.30758e-09
-1.92534e-07
-7.24708e-09
-1.8908e-07
-8.16314e-09
-1.85251e-07
-9.05215e-09
-1.81059e-07
-9.91046e-09
-1.7652e-07
-1.07344e-08
-1.71648e-07
-1.15204e-08
-1.66463e-07
-1.22647e-08
-1.60982e-07
-1.29638e-08
-1.55228e-07
-1.3614e-08
-1.49221e-07
-1.42117e-08
-1.42985e-07
-1.47534e-08
-1.36547e-07
-1.52358e-08
-1.29931e-07
-1.56554e-08
-1.23166e-07
-1.6009e-08
-1.1628e-07
-1.62935e-08
-1.09305e-07
-1.65058e-08
-1.02271e-07
-1.66432e-08
-9.52111e-08
-1.67031e-08
-8.81585e-08
-1.6683e-08
-8.11474e-08
-1.65808e-08
-7.42129e-08
-1.63947e-08
-6.73904e-08
-1.61232e-08
-6.07159e-08
-1.5765e-08
-5.42255e-08
-1.53194e-08
-4.79551e-08
-1.47863e-08
-4.19407e-08
-1.41658e-08
-3.62175e-08
-1.34591e-08
-3.08196e-08
-1.2668e-08
-2.57799e-08
-1.17951e-08
-2.11296e-08
-1.08446e-08
-1.68969e-08
-9.82173e-09
-1.31071e-08
-8.73394e-09
-9.78115e-09
-7.59087e-09
-6.93432e-09
-6.40531e-09
-4.57508e-09
-5.19406e-09
-2.70293e-09
-3.97927e-09
-1.30616e-09
-2.79021e-09
-3.59033e-10
-1.66557e-09
1.81654e-10
-6.56511e-10
3.80482e-10
1.69552e-10
3.27705e-10
7.25242e-10
1.44766e-10
8.99257e-10
5.43231e-10
6.61853e-11
-5.9429e-10
4.66992e-11
-8.14043e-10
-2.16163e-10
-3.42259e-10
-8.38334e-10
6.22378e-10
-1.90602e-09
1.93459e-09
-3.48036e-09
3.48043e-09
-5.60156e-09
5.17085e-09
-8.29228e-09
6.93723e-09
-1.15607e-08
8.72695e-09
-1.54031e-08
1.04998e-08
-1.98063e-08
1.22251e-08
-2.47495e-08
1.38796e-08
-3.0206e-08
1.5446e-08
-3.61444e-08
1.69112e-08
-4.25298e-08
1.82657e-08
-4.93245e-08
1.95027e-08
-5.64891e-08
2.06177e-08
-6.39829e-08
2.16077e-08
-7.17642e-08
2.24711e-08
-7.9791e-08
2.32077e-08
-8.80212e-08
2.38178e-08
-9.6413e-08
2.43027e-08
-1.04925e-07
2.46642e-08
-1.13516e-07
2.49046e-08
-1.22146e-07
2.50266e-08
-1.30776e-07
2.50332e-08
-1.39369e-07
2.49278e-08
-1.47886e-07
2.47138e-08
-1.56292e-07
2.4395e-08
-1.64553e-07
2.39751e-08
-1.72635e-07
2.34583e-08
-1.80507e-07
2.28486e-08
-1.88138e-07
2.21501e-08
-1.95499e-07
2.13671e-08
-2.02562e-07
2.05038e-08
-2.09301e-07
1.95645e-08
-2.15692e-07
1.85537e-08
-2.21711e-07
1.74757e-08
-2.27337e-07
1.6335e-08
-2.32549e-07
1.5136e-08
-2.3733e-07
1.38833e-08
-2.41661e-07
1.25813e-08
-2.45529e-07
1.12347e-08
-2.48918e-07
9.84806e-09
-2.51818e-07
8.42607e-09
-2.54217e-07
6.97342e-09
-2.56106e-07
5.49488e-09
-2.57478e-07
3.99525e-09
-2.58328e-07
2.47941e-09
-2.58652e-07
9.52298e-10
-2.58447e-07
-5.81104e-10
-2.57714e-07
-2.11574e-09
-2.56454e-07
-3.64648e-09
-2.5467e-07
-5.16814e-09
-2.52367e-07
-6.67547e-09
-2.49552e-07
-8.16316e-09
-2.46234e-07
-9.62584e-09
-2.42423e-07
-1.10581e-08
-2.38132e-07
-1.24545e-08
-2.33374e-07
-1.38095e-08
-2.28167e-07
-1.51175e-08
-2.22529e-07
-1.63731e-08
-2.16478e-07
-1.75708e-08
-2.10038e-07
-1.87048e-08
-2.03232e-07
-1.97699e-08
-1.96086e-07
-2.07605e-08
-1.88626e-07
-2.16712e-08
-1.80883e-07
-2.24967e-08
-1.72887e-07
-2.32319e-08
-1.6467e-07
-2.38717e-08
-1.56268e-07
-2.44113e-08
-1.47716e-07
-2.48459e-08
-1.3905e-07
-2.51712e-08
-1.30311e-07
-2.53829e-08
-1.21536e-07
-2.54773e-08
-1.12769e-07
-2.54508e-08
-1.04049e-07
-2.53003e-08
-9.54209e-08
-2.50231e-08
-8.69269e-08
-2.46172e-08
-7.86108e-08
-2.40811e-08
-7.05165e-08
-2.34138e-08
-6.26875e-08
-2.26152e-08
-5.51671e-08
-2.16863e-08
-4.79974e-08
-2.06288e-08
-4.12193e-08
-1.9446e-08
-3.48719e-08
-1.81425e-08
-2.89919e-08
-1.67246e-08
-2.36124e-08
-1.52012e-08
-1.87627e-08
-1.35836e-08
-1.44669e-08
-1.18867e-08
-1.07423e-08
-1.01299e-08
-7.59839e-09
-8.33799e-09
-5.03453e-09
-6.54314e-09
-3.03801e-09
-4.78674e-09
-1.58142e-09
-3.12216e-09
-6.19753e-10
-1.61817e-09
-8.71279e-11
-3.63066e-10
1.06901e-10
5.31216e-10
8.22422e-11
9.23912e-10
6.25475e-10
-1.71419e-11
-5.77137e-10
-2.46335e-10
-5.8483e-10
-8.25716e-10
2.37095e-10
-1.86083e-09
1.65749e-09
-3.43149e-09
3.50526e-09
-5.59513e-09
5.64407e-09
-8.38973e-09
7.96544e-09
-1.18365e-08
1.0384e-08
-1.59423e-08
1.28328e-08
-2.07021e-08
1.52595e-08
-2.61007e-08
1.76237e-08
-3.21149e-08
1.98938e-08
-3.87147e-08
2.20458e-08
-4.58649e-08
2.40615e-08
-5.35264e-08
2.59271e-08
-6.16565e-08
2.76329e-08
-7.02104e-08
2.91717e-08
-7.91417e-08
3.0539e-08
-8.84028e-08
3.17321e-08
-9.79452e-08
3.27501e-08
-1.0772e-07
3.35931e-08
-1.1768e-07
3.42625e-08
-1.27776e-07
3.47603e-08
-1.37962e-07
3.50897e-08
-1.48189e-07
3.5254e-08
-1.58413e-07
3.52572e-08
-1.68589e-07
3.51039e-08
-1.78674e-07
3.47987e-08
-1.88626e-07
3.43467e-08
-1.98404e-07
3.37532e-08
-2.07969e-07
3.30237e-08
-2.17284e-07
3.21637e-08
-2.26313e-07
3.11791e-08
-2.35022e-07
3.00757e-08
-2.43377e-07
2.88595e-08
-2.51349e-07
2.75365e-08
-2.58909e-07
2.61129e-08
-2.66028e-07
2.45948e-08
-2.72681e-07
2.29885e-08
-2.78845e-07
2.13002e-08
-2.84498e-07
1.95362e-08
-2.8962e-07
1.7703e-08
-2.94193e-07
1.58071e-08
-2.98199e-07
1.38548e-08
-3.01626e-07
1.18529e-08
-3.04461e-07
9.80788e-09
-3.06692e-07
7.72652e-09
-3.08313e-07
5.61559e-09
-3.09315e-07
3.48198e-09
-3.09696e-07
1.33262e-09
-3.09451e-07
-8.25446e-10
-3.08582e-07
-2.98508e-09
-3.07089e-07
-5.13908e-09
-3.04977e-07
-7.28013e-09
-3.02252e-07
-9.40086e-09
-2.98921e-07
-1.14938e-08
-2.94996e-07
-1.35514e-08
-2.90488e-07
-1.5566e-08
-2.85412e-07
-1.753e-08
-2.79786e-07
-1.94357e-08
-2.73628e-07
-2.12752e-08
-2.6696e-07
-2.3041e-08
-2.59806e-07
-2.47251e-08
-2.52191e-07
-2.63199e-08
-2.44143e-07
-2.78177e-08
-2.35693e-07
-2.92108e-08
-2.26872e-07
-3.04918e-08
-2.17716e-07
-3.16533e-08
-2.0826e-07
-3.26881e-08
-1.98542e-07
-3.35893e-08
-1.88603e-07
-3.435e-08
-1.78485e-07
-3.49638e-08
-1.68232e-07
-3.54248e-08
-1.57888e-07
-3.5727e-08
-1.475e-07
-3.58654e-08
-1.37115e-07
-3.58351e-08
-1.26783e-07
-3.56321e-08
-1.16554e-07
-3.52528e-08
-1.06476e-07
-3.46945e-08
-9.66022e-08
-3.39554e-08
-8.69814e-08
-3.30345e-08
-7.76645e-08
-3.19321e-08
-6.8701e-08
-3.06498e-08
-6.01392e-08
-2.91906e-08
-5.20259e-08
-2.75593e-08
-4.44055e-08
-2.57629e-08
-3.73193e-08
-2.38108e-08
-3.0805e-08
-2.17155e-08
-2.48954e-08
-1.94932e-08
-1.96173e-08
-1.71648e-08
-1.49904e-08
-1.47568e-08
-1.10256e-08
-1.23028e-08
-7.72341e-09
-9.84534e-09
-5.07183e-09
-7.43832e-09
-3.04434e-09
-5.14965e-09
-1.59751e-09
-3.065e-09
-6.6841e-10
-1.29217e-09
-1.71833e-10
3.46447e-11
3.1359e-12
7.48941e-10
6.28612e-10
-1.08468e-10
-4.68677e-10
-5.71432e-10
-1.21847e-10
-1.50273e-09
1.16839e-09
-2.99271e-09
3.14746e-09
-5.11085e-09
5.62339e-09
-7.90748e-09
8.44069e-09
-1.14156e-08
1.14736e-08
-1.56528e-08
1.46212e-08
-2.0623e-08
1.7803e-08
-2.63187e-08
2.09552e-08
-3.27219e-08
2.40269e-08
-3.98067e-08
2.69785e-08
-4.75398e-08
2.9779e-08
-5.58827e-08
3.24043e-08
-6.47919e-08
3.48363e-08
-7.42206e-08
3.70616e-08
-8.41193e-08
3.90704e-08
-9.44364e-08
4.0856e-08
-1.05119e-07
4.24145e-08
-1.16113e-07
4.3744e-08
-1.27364e-07
4.48443e-08
-1.38818e-07
4.57167e-08
-1.50422e-07
4.63636e-08
-1.6212e-07
4.67886e-08
-1.73863e-07
4.6996e-08
-1.85596e-07
4.69908e-08
-1.97271e-07
4.67786e-08
-2.08837e-07
4.63655e-08
-2.20249e-07
4.5758e-08
-2.31459e-07
4.4963e-08
-2.42423e-07
4.39876e-08
-2.53098e-07
4.28392e-08
-2.63444e-07
4.15253e-08
-2.73422e-07
4.00536e-08
-2.82995e-07
3.84321e-08
-2.92127e-07
3.66686e-08
-3.00785e-07
3.47714e-08
-3.08939e-07
3.27485e-08
-3.16559e-07
3.06082e-08
-3.23618e-07
2.83589e-08
-3.3009e-07
2.60091e-08
-3.35954e-07
2.35671e-08
-3.41189e-07
2.10417e-08
-3.45776e-07
1.84414e-08
-3.49698e-07
1.57751e-08
-3.52942e-07
1.30516e-08
-3.55495e-07
1.02798e-08
-3.57348e-07
7.46882e-09
-3.58494e-07
4.62778e-09
-3.58927e-07
1.76594e-09
-3.58645e-07
-1.1073e-09
-3.57648e-07
-3.98247e-09
-3.55937e-07
-6.84994e-09
-3.53517e-07
-9.70001e-09
-3.50395e-07
-1.25228e-08
-3.46581e-07
-1.53085e-08
-3.42085e-07
-1.8047e-08
-3.36923e-07
-2.07282e-08
-3.31111e-07
-2.33419e-08
-3.24669e-07
-2.58778e-08
-3.17618e-07
-2.83258e-08
-3.09984e-07
-3.06756e-08
-3.01792e-07
-3.29167e-08
-2.93073e-07
-3.50392e-08
-2.83858e-07
-3.70327e-08
-2.74181e-07
-3.88873e-08
-2.6408e-07
-4.0593e-08
-2.53593e-07
-4.21401e-08
-2.42762e-07
-4.35193e-08
-2.3163e-07
-4.47214e-08
-2.20243e-07
-4.57374e-08
-2.08647e-07
-4.65591e-08
-1.96894e-07
-4.71784e-08
-1.85033e-07
-4.7588e-08
-1.73117e-07
-4.77812e-08
-1.612e-07
-4.77518e-08
-1.49338e-07
-4.74946e-08
-1.37585e-07
-4.70053e-08
-1.25999e-07
-4.62806e-08
-1.14636e-07
-4.53182e-08
-1.03553e-07
-4.41175e-08
-9.28063e-08
-4.2679e-08
-8.24509e-08
-4.10053e-08
-7.25406e-08
-3.91009e-08
-6.31274e-08
-3.69725e-08
-5.42606e-08
-3.46298e-08
-4.59857e-08
-3.20856e-08
-3.83445e-08
-2.93568e-08
-3.1373e-08
-2.64647e-08
-2.51012e-08
-2.34367e-08
-1.95513e-08
-2.03067e-08
-1.47365e-08
-1.71176e-08
-1.06595e-08
-1.39223e-08
-7.31088e-09
-1.0787e-08
-4.66711e-09
-7.79341e-09
-2.68909e-09
-5.04302e-09
-1.32014e-09
-2.66112e-09
-4.84317e-10
-8.01174e-10
-8.45773e-11
3.49199e-10
5.44034e-10
-2.03058e-10
-2.65635e-10
-9.12759e-10
5.87863e-10
-2.21731e-09
2.47295e-09
-4.1892e-09
5.11936e-09
-6.88492e-09
8.3191e-09
-1.03452e-08
1.1901e-08
-1.4596e-08
1.57243e-08
-1.96493e-08
1.96745e-08
-2.55048e-08
2.36585e-08
-3.21509e-08
2.76013e-08
-3.95667e-08
3.14426e-08
-4.77225e-08
3.51344e-08
-5.6582e-08
3.86384e-08
-6.61028e-08
4.19251e-08
-7.62377e-08
4.49713e-08
-8.69358e-08
4.77597e-08
-9.81432e-08
5.02777e-08
-1.09804e-07
5.25165e-08
-1.21859e-07
5.44703e-08
-1.34252e-07
5.61362e-08
-1.46921e-07
5.75136e-08
-1.59808e-07
5.86035e-08
-1.72853e-07
5.94087e-08
-1.85997e-07
5.99331e-08
-1.99183e-07
6.0182e-08
-2.12354e-07
6.01614e-08
-2.25453e-07
5.98782e-08
-2.38428e-07
5.93398e-08
-2.51224e-07
5.85543e-08
-2.63791e-07
5.75303e-08
-2.76081e-07
5.62767e-08
-2.88044e-07
5.48027e-08
-2.99637e-07
5.31179e-08
-3.10815e-07
5.1232e-08
-3.21538e-07
4.91549e-08
-3.31766e-07
4.68969e-08
-3.41463e-07
4.44681e-08
-3.50593e-07
4.18789e-08
-3.59125e-07
3.914e-08
-3.67028e-07
3.62619e-08
-3.74274e-07
3.32555e-08
-3.80839e-07
3.01315e-08
-3.86698e-07
2.69009e-08
-3.91831e-07
2.35749e-08
-3.96221e-07
2.01646e-08
-3.99851e-07
1.66813e-08
-4.02707e-07
1.31366e-08
-4.0478e-07
9.54187e-09
-4.06062e-07
5.90894e-09
-4.06545e-07
2.24964e-09
-4.06229e-07
-1.42405e-09
-4.05111e-07
-5.09999e-09
-4.03195e-07
-8.76593e-09
-4.00486e-07
-1.24094e-08
-3.9699e-07
-1.6018e-08
-3.9272e-07
-1.95788e-08
-3.87688e-07
-2.30793e-08
-3.8191e-07
-2.65064e-08
-3.75404e-07
-2.98472e-08
-3.68193e-07
-3.30887e-08
-3.60301e-07
-3.62178e-08
-3.51756e-07
-3.92214e-08
-3.42586e-07
-4.20865e-08
-3.32825e-07
-4.48001e-08
-3.22508e-07
-4.73494e-08
-3.11674e-07
-4.97215e-08
-3.00363e-07
-5.19039e-08
-2.88619e-07
-5.38845e-08
-2.76487e-07
-5.56512e-08
-2.64016e-07
-5.71926e-08
-2.51255e-07
-5.84975e-08
-2.38259e-07
-5.95553e-08
-2.25081e-07
-6.03562e-08
-2.11778e-07
-6.0891e-08
-1.98409e-07
-6.11511e-08
-1.85031e-07
-6.11292e-08
-1.71707e-07
-6.08189e-08
-1.58497e-07
-6.02149e-08
-1.45464e-07
-5.93134e-08
-1.32671e-07
-5.81119e-08
-1.20178e-07
-5.66098e-08
-1.08049e-07
-5.48085e-08
-9.63427e-08
-5.27115e-08
-8.51187e-08
-5.03249e-08
-7.44334e-08
-4.76578e-08
-6.43405e-08
-4.47227e-08
-5.48898e-08
-4.15363e-08
-4.61266e-08
-3.81199e-08
-3.80908e-08
-3.45006e-08
-3.08153e-08
-3.07121e-08
-2.43256e-08
-2.67964e-08
-1.86382e-08
-2.2805e-08
-1.3759e-08
-1.88015e-08
-9.68248e-09
-1.48635e-08
-6.39017e-09
-1.10857e-08
-3.84937e-09
-7.58382e-09
-2.01214e-09
-4.49834e-09
-8.14492e-10
-1.99882e-09
-1.76029e-10
-2.89269e-10
3.68001e-10
-2.98135e-10
3.24907e-11
-1.26017e-09
1.54991e-09
-2.94926e-09
4.16203e-09
-5.41894e-09
7.58904e-09
-8.71115e-09
1.16113e-08
-1.28554e-08
1.60452e-08
-1.78688e-08
2.07377e-08
-2.37563e-08
2.55621e-08
-3.05121e-08
3.04143e-08
-3.81198e-08
3.5209e-08
-4.65541e-08
3.98769e-08
-5.57817e-08
4.43619e-08
-6.57622e-08
4.86189e-08
-7.64495e-08
5.26124e-08
-8.77928e-08
5.63145e-08
-9.9737e-08
5.97039e-08
-1.12224e-07
6.27648e-08
-1.25194e-07
6.5486e-08
-1.38583e-07
6.786e-08
-1.5233e-07
6.98827e-08
-1.66369e-07
7.15527e-08
-1.80636e-07
7.28709e-08
-1.95068e-07
7.38403e-08
-2.096e-07
7.44653e-08
-2.2417e-07
7.4752e-08
-2.38716e-07
7.47073e-08
-2.53177e-07
7.43396e-08
-2.67495e-07
7.36576e-08
-2.81612e-07
7.26713e-08
-2.95472e-07
7.13908e-08
-3.09023e-07
6.98271e-08
-3.22211e-07
6.79913e-08
-3.34989e-07
6.58952e-08
-3.47307e-07
6.35506e-08
-3.59122e-07
6.09698e-08
-3.7039e-07
5.81652e-08
-3.81072e-07
5.51495e-08
-3.91129e-07
5.19356e-08
-4.00525e-07
4.85363e-08
-4.09228e-07
4.4965e-08
-4.17207e-07
4.12348e-08
-4.24435e-07
3.73592e-08
-4.30886e-07
3.33518e-08
-4.36538e-07
2.92264e-08
-4.4137e-07
2.49968e-08
-4.45365e-07
2.06769e-08
-4.4851e-07
1.62811e-08
-4.50792e-07
1.18236e-08
-4.52202e-07
7.31897e-09
-4.52734e-07
2.78187e-09
-4.52385e-07
-1.77285e-09
-4.51155e-07
-6.33017e-09
-4.49046e-07
-1.08749e-08
-4.46064e-07
-1.53917e-08
-4.42217e-07
-1.98649e-08
-4.37517e-07
-2.42791e-08
-4.31978e-07
-2.86182e-08
-4.25617e-07
-3.28665e-08
-4.18457e-07
-3.70079e-08
-4.10519e-07
-4.10263e-08
-4.01831e-07
-4.49056e-08
-3.92423e-07
-4.86296e-08
-3.82328e-07
-5.21823e-08
-3.7158e-07
-5.55478e-08
-3.60219e-07
-5.871e-08
-3.48287e-07
-6.16536e-08
-3.35828e-07
-6.43629e-08
-3.2289e-07
-6.68231e-08
-3.09521e-07
-6.90194e-08
-2.95776e-07
-7.09378e-08
-2.81709e-07
-7.25647e-08
-2.67377e-07
-7.38872e-08
-2.5284e-07
-7.48933e-08
-2.38159e-07
-7.55719e-08
-2.23397e-07
-7.59128e-08
-2.0862e-07
-7.59071e-08
-1.93892e-07
-7.55471e-08
-1.7928e-07
-7.48267e-08
-1.64852e-07
-7.37415e-08
-1.50675e-07
-7.22889e-08
-1.36816e-07
-7.04685e-08
-1.23342e-07
-6.82824e-08
-1.10318e-07
-6.57353e-08
-9.7808e-08
-6.28352e-08
-8.58721e-08
-5.95936e-08
-7.45686e-08
-5.60262e-08
-6.39514e-08
-5.21535e-08
-5.40696e-08
-4.80017e-08
-4.49668e-08
-4.36035e-08
-3.66796e-08
-3.89993e-08
-2.92373e-08
-3.42387e-08
-2.26602e-08
-2.93821e-08
-1.69589e-08
-2.45029e-08
-1.21329e-08
-1.96894e-08
-8.17032e-09
-1.50483e-08
-5.04644e-09
-1.07077e-08
-2.72379e-09
-6.821e-09
-1.15195e-09
-3.57066e-09
-2.68327e-10
-1.17289e-09
9.96688e-11
-3.92097e-10
4.24591e-10
-1.60732e-09
2.76512e-09
-3.6852e-09
6.23991e-09
-6.66036e-09
1.05642e-08
-1.05595e-08
1.55104e-08
-1.53997e-08
2.08855e-08
-2.11882e-08
2.65262e-08
-2.7922e-08
3.22959e-08
-3.55883e-08
3.80806e-08
-4.41651e-08
4.37859e-08
-5.36221e-08
4.9334e-08
-6.39215e-08
5.46613e-08
-7.50188e-08
5.97162e-08
-8.68638e-08
6.44574e-08
-9.94016e-08
6.88523e-08
-1.12573e-07
7.28756e-08
-1.26317e-07
7.65083e-08
-1.40567e-07
7.97366e-08
-1.55259e-07
8.25513e-08
-1.70323e-07
8.4947e-08
-1.85692e-07
8.69216e-08
-2.01297e-07
8.84757e-08
-2.17069e-07
8.96124e-08
-2.3294e-07
9.03366e-08
-2.48843e-07
9.0655e-08
-2.64712e-07
9.0576e-08
-2.80481e-07
9.0109e-08
-2.96088e-07
8.92644e-08
-3.11471e-07
8.80537e-08
-3.26569e-07
8.64892e-08
-3.41325e-07
8.45836e-08
-3.55685e-07
8.23505e-08
-3.69593e-07
7.98036e-08
-3.83e-07
7.69572e-08
-3.95856e-07
7.3826e-08
-4.08116e-07
7.0425e-08
-4.19736e-07
6.67693e-08
-4.30674e-07
6.28744e-08
-4.40894e-07
5.87559e-08
-4.50358e-07
5.44296e-08
-4.59035e-07
4.99117e-08
-4.66895e-07
4.52184e-08
-4.73909e-07
4.0366e-08
-4.80053e-07
3.53711e-08
-4.85307e-07
3.02504e-08
-4.89651e-07
2.50211e-08
-4.9307e-07
1.97e-08
-4.95551e-07
1.43047e-08
-4.97085e-07
8.85263e-09
-4.97665e-07
3.36151e-09
-4.97287e-07
-2.1507e-09
-4.95951e-07
-7.66586e-09
-4.9366e-07
-1.31656e-08
-4.90421e-07
-1.86314e-08
-4.86241e-07
-2.40446e-08
-4.81134e-07
-2.93861e-08
-4.75115e-07
-3.4637e-08
-4.68204e-07
-3.9778e-08
-4.60422e-07
-4.47899e-08
-4.51795e-07
-4.96533e-08
-4.42352e-07
-5.43487e-08
-4.32124e-07
-5.88568e-08
-4.21148e-07
-6.31582e-08
-4.09462e-07
-6.72338e-08
-3.97108e-07
-7.10644e-08
-3.8413e-07
-7.46314e-08
-3.70577e-07
-7.79163e-08
-3.56499e-07
-8.0901e-08
-3.4195e-07
-8.35682e-08
-3.26987e-07
-8.59008e-08
-3.11669e-07
-8.78828e-08
-2.96057e-07
-8.94989e-08
-2.80216e-07
-9.07346e-08
-2.64211e-07
-9.15769e-08
-2.4811e-07
-9.20138e-08
-2.31982e-07
-9.20348e-08
-2.15898e-07
-9.16309e-08
-1.9993e-07
-9.07952e-08
-1.84149e-07
-8.95227e-08
-1.68627e-07
-8.78106e-08
-1.53437e-07
-8.56588e-08
-1.38649e-07
-8.30702e-08
-1.24333e-07
-8.00508e-08
-1.10558e-07
-7.66105e-08
-9.73881e-08
-7.27635e-08
-8.48857e-08
-6.85286e-08
-7.31087e-08
-6.39305e-08
-6.21104e-08
-5.9e-08
-5.19383e-08
-5.37756e-08
-4.26332e-08
-4.83043e-08
-3.42288e-08
-4.26431e-08
-2.675e-08
-3.68609e-08
-2.02129e-08
-3.104e-08
-1.46234e-08
-2.52789e-08
-9.97694e-09
-1.96948e-08
-6.25826e-09
-1.44264e-08
-3.44134e-09
-9.63793e-09
-1.49007e-09
-5.52194e-09
-3.59783e-10
-2.30319e-09
-2.60118e-10
-4.84081e-10
9.0867e-10
-1.9503e-09
4.23134e-09
-4.41653e-09
8.70614e-09
-7.89908e-09
1.40467e-08
-1.24092e-08
2.00205e-08
-1.79512e-08
2.64275e-08
-2.45216e-08
3.30966e-08
-3.21084e-08
3.98827e-08
-4.06913e-08
4.66634e-08
-5.02418e-08
5.33364e-08
-6.07239e-08
5.98161e-08
-7.20947e-08
6.60321e-08
-8.43051e-08
7.19266e-08
-9.73006e-08
7.74529e-08
-1.11022e-07
8.25737e-08
-1.25406e-07
8.726e-08
-1.40388e-07
9.14894e-08
-1.55897e-07
9.52459e-08
-1.71864e-07
9.85183e-08
-1.88217e-07
1.013e-07
-2.04883e-07
1.03588e-07
-2.21789e-07
1.05382e-07
-2.38863e-07
1.06687e-07
-2.56033e-07
1.07506e-07
-2.73227e-07
1.07849e-07
-2.90374e-07
1.07723e-07
-3.07406e-07
1.07141e-07
-3.24255e-07
1.06114e-07
-3.40856e-07
1.04655e-07
-3.57145e-07
1.02778e-07
-3.7306e-07
1.00499e-07
-3.88544e-07
9.78335e-08
-4.03537e-07
9.47971e-08
-4.17987e-07
9.14069e-08
-4.31841e-07
8.76801e-08
-4.4505e-07
8.36342e-08
-4.57568e-07
7.92871e-08
-4.69351e-07
7.46572e-08
-4.80357e-07
6.97627e-08
-4.9055e-07
6.46226e-08
-4.99894e-07
5.92557e-08
-5.08357e-07
5.36812e-08
-5.1591e-07
4.79186e-08
-5.22526e-07
4.19874e-08
-5.28183e-07
3.59075e-08
-5.32861e-07
2.9699e-08
-5.36543e-07
2.33822e-08
-5.39216e-07
1.69776e-08
-5.40869e-07
1.05059e-08
-5.41496e-07
3.98817e-09
-5.41092e-07
-2.55436e-09
-5.39658e-07
-9.1002e-09
-5.37196e-07
-1.56276e-08
-5.33713e-07
-2.21148e-08
-5.29218e-07
-2.85394e-08
-5.23725e-07
-3.48791e-08
-5.17251e-07
-4.11114e-08
-5.09815e-07
-4.72137e-08
-5.01442e-07
-5.31631e-08
-4.92158e-07
-5.89367e-08
-4.81995e-07
-6.45116e-08
-4.70987e-07
-6.9865e-08
-4.59171e-07
-7.4974e-08
-4.46589e-07
-7.9816e-08
-4.33285e-07
-8.43687e-08
-4.19306e-07
-8.86098e-08
-4.04705e-07
-9.25177e-08
-3.89535e-07
-9.60712e-08
-3.73853e-07
-9.92499e-08
-3.5772e-07
-1.02034e-07
-3.41199e-07
-1.04404e-07
-3.24354e-07
-1.06343e-07
-3.07255e-07
-1.07834e-07
-2.89971e-07
-1.08861e-07
-2.72575e-07
-1.09411e-07
-2.55139e-07
-1.09471e-07
-2.37739e-07
-1.09031e-07
-2.2045e-07
-1.08084e-07
-2.0335e-07
-1.06623e-07
-1.86515e-07
-1.04646e-07
-1.70021e-07
-1.02153e-07
-1.53943e-07
-9.91478e-08
-1.38356e-07
-9.56377e-08
-1.23332e-07
-9.16346e-08
-1.0894e-07
-8.71551e-08
-9.52475e-08
-8.22215e-08
-8.23155e-08
-7.68625e-08
-7.02019e-08
-7.11136e-08
-5.89586e-08
-6.50189e-08
-4.86311e-08
-5.86318e-08
-3.92578e-08
-5.20164e-08
-3.08694e-08
-4.52493e-08
-2.34879e-08
-3.84215e-08
-1.71264e-08
-3.16404e-08
-1.17889e-08
-2.50323e-08
-7.47003e-09
-1.87452e-08
-4.15587e-09
-1.29521e-08
-1.82479e-09
-7.85302e-09
-4.49454e-10
-3.67853e-09
-7.09572e-10
-5.73649e-10
1.48231e-09
-2.28693e-09
5.94463e-09
-5.13801e-09
1.15572e-08
-9.12583e-09
1.80345e-08
-1.42466e-08
2.51412e-08
-2.04916e-08
3.26725e-08
-2.78462e-08
4.04512e-08
-3.62889e-08
4.83254e-08
-4.57912e-08
5.61657e-08
-5.63174e-08
6.38626e-08
-6.78254e-08
7.1324e-08
-8.02666e-08
7.84732e-08
-9.35868e-08
8.52468e-08
-1.07727e-07
9.15929e-08
-1.22623e-07
9.747e-08
-1.38208e-07
1.02845e-07
-1.54412e-07
1.07693e-07
-1.71163e-07
1.11996e-07
-1.88384e-07
1.1574e-07
-2.06001e-07
1.18917e-07
-2.23938e-07
1.21524e-07
-2.42117e-07
1.23561e-07
-2.60462e-07
1.25031e-07
-2.78896e-07
1.25941e-07
-2.97345e-07
1.26297e-07
-3.15734e-07
1.26112e-07
-3.3399e-07
1.25397e-07
-3.52042e-07
1.24166e-07
-3.69822e-07
1.22434e-07
-3.87262e-07
1.20218e-07
-4.04296e-07
1.17534e-07
-4.20863e-07
1.14401e-07
-4.36903e-07
1.10837e-07
-4.52357e-07
1.06861e-07
-4.67172e-07
1.02494e-07
-4.81294e-07
9.77566e-08
-4.94675e-07
9.26685e-08
-5.07269e-07
8.72512e-08
-5.19033e-07
8.15262e-08
-5.29926e-07
7.55153e-08
-5.3991e-07
6.92404e-08
-5.48953e-07
6.27241e-08
-5.57023e-07
5.59887e-08
-5.64093e-07
4.90572e-08
-5.70138e-07
4.19527e-08
-5.75138e-07
3.46985e-08
-5.79074e-07
2.73183e-08
-5.81932e-07
1.9836e-08
-5.83702e-07
1.22758e-08
-5.84376e-07
4.66206e-09
-5.8395e-07
-2.98039e-09
-5.82424e-07
-1.06266e-08
-5.798e-07
-1.82512e-08
-5.76086e-07
-2.58288e-08
-5.71292e-07
-3.33335e-08
-5.65432e-07
-4.07393e-08
-5.58523e-07
-4.802e-08
-5.50587e-07
-5.51493e-08