/*--------------------------------*- C++ -*----------------------------------*\
| =========                 |                                                 |
| \\      /  F ield         | OpenFOAM: The Open Source CFD Toolbox           |
|  \\    /   O peration     | Version:  2212                                  |
|   \\  /    A nd           | Website:  www.openfoam.com                      |
|    \\/     M anipulation  |                                                 |
\*---------------------------------------------------------------------------*/
FoamFile
{
    version     2.0;
    format      ascii;
    arch        "LSB;label=32;scalar=64";
    class       volVectorField;
    location    "0.053";
    object      U;
}
// * * * * * * * * * * * * * * * * * * * * * * * * * * * * * * * * * * * * * //

dimensions      [0 1 -1 0 0 0 0];

internalField   nonuniform List<vector> 
10000
(
(2.74761e-06 -2.93603e-06 0)
(1.39061e-05 -7.28341e-06 0)
(3.1286e-05 -8.21973e-06 0)
(4.74591e-05 -6.98226e-06 0)
(5.7691e-05 -4.58615e-06 0)
(5.98576e-05 -1.64313e-06 0)
(5.28426e-05 1.51672e-06 0)
(3.61573e-05 4.70793e-06 0)
(9.7208e-06 7.82613e-06 0)
(-2.62824e-05 1.08124e-05 0)
(-7.14987e-05 1.36334e-05 0)
(-0.000125466 1.62693e-05 0)
(-0.000187648 1.87089e-05 0)
(-0.00025746 2.09466e-05 0)
(-0.000334288 2.29798e-05 0)
(-0.0004175 2.48098e-05 0)
(-0.000506456 2.64379e-05 0)
(-0.000600514 2.78671e-05 0)
(-0.000699037 2.91018e-05 0)
(-0.000801392 3.01455e-05 0)
(-0.000906959 3.10043e-05 0)
(-0.00101513 3.16843e-05 0)
(-0.00112531 3.21887e-05 0)
(-0.00123692 3.2524e-05 0)
(-0.0013494 3.26966e-05 0)
(-0.00146221 3.27116e-05 0)
(-0.00157481 3.25756e-05 0)
(-0.0016867 3.22954e-05 0)
(-0.00179739 3.18758e-05 0)
(-0.00190642 3.13224e-05 0)
(-0.00201334 3.0642e-05 0)
(-0.00211771 2.98407e-05 0)
(-0.00221912 2.89238e-05 0)
(-0.00231719 2.78977e-05 0)
(-0.00241154 2.67681e-05 0)
(-0.00250184 2.55401e-05 0)
(-0.00258773 2.42194e-05 0)
(-0.00266893 2.28129e-05 0)
(-0.00274513 2.1327e-05 0)
(-0.00281606 1.97666e-05 0)
(-0.00288148 1.81362e-05 0)
(-0.00294116 1.64422e-05 0)
(-0.00299488 1.4691e-05 0)
(-0.00304246 1.28887e-05 0)
(-0.00308372 1.10404e-05 0)
(-0.00311853 9.15145e-06 0)
(-0.00314674 7.22845e-06 0)
(-0.00316825 5.27811e-06 0)
(-0.00318299 3.30639e-06 0)
(-0.00319088 1.31904e-06 0)
(-0.00319188 -6.78374e-07 0)
(-0.00318597 -2.67955e-06 0)
(-0.00317316 -4.67722e-06 0)
(-0.00315347 -6.66451e-06 0)
(-0.00312694 -8.63496e-06 0)
(-0.00309366 -1.05819e-05 0)
(-0.00305371 -1.24987e-05 0)
(-0.00300722 -1.43785e-05 0)
(-0.00295434 -1.62136e-05 0)
(-0.00289522 -1.79963e-05 0)
(-0.00283007 -1.97195e-05 0)
(-0.00275911 -2.13758e-05 0)
(-0.00268258 -2.29579e-05 0)
(-0.00260076 -2.44586e-05 0)
(-0.00251394 -2.58704e-05 0)
(-0.00242244 -2.71854e-05 0)
(-0.00232662 -2.83958e-05 0)
(-0.00222684 -2.94945e-05 0)
(-0.0021235 -3.04742e-05 0)
(-0.00201703 -3.13274e-05 0)
(-0.00190787 -3.20472e-05 0)
(-0.0017965 -3.26267e-05 0)
(-0.0016834 -3.3059e-05 0)
(-0.00156909 -3.33372e-05 0)
(-0.0014541 -3.34552e-05 0)
(-0.001339 -3.34069e-05 0)
(-0.00122434 -3.31862e-05 0)
(-0.00111073 -3.27876e-05 0)
(-0.000998772 -3.22069e-05 0)
(-0.000889079 -3.14399e-05 0)
(-0.000782284 -3.04825e-05 0)
(-0.000679024 -2.93308e-05 0)
(-0.000579945 -2.79819e-05 0)
(-0.000485695 -2.64338e-05 0)
(-0.000396919 -2.46852e-05 0)
(-0.00031426 -2.2736e-05 0)
(-0.000238346 -2.05876e-05 0)
(-0.000169788 -1.82435e-05 0)
(-0.000109166 -1.57096e-05 0)
(-5.70215e-05 -1.29956e-05 0)
(-1.3832e-05 -1.01172e-05 0)
(2.00078e-05 -7.09931e-06 0)
(4.4227e-05 -3.98072e-06 0)
(5.87368e-05 -8.26458e-07 0)
(6.37239e-05 2.25342e-06 0)
(5.97987e-05 5.06434e-06 0)
(4.82025e-05 7.27283e-06 0)
(3.12402e-05 8.28044e-06 0)
(1.35583e-05 7.06414e-06 0)
(2.66711e-06 2.66723e-06 0)
(6.98403e-06 -1.38275e-05 0)
(2.84794e-05 -2.88233e-05 0)
(5.70197e-05 -3.03249e-05 0)
(7.92592e-05 -2.26209e-05 0)
(8.64799e-05 -9.28467e-06 0)
(7.37002e-05 7.2593e-06 0)
(3.78924e-05 2.54487e-05 0)
(-2.25824e-05 4.42687e-05 0)
(-0.000108326 6.3061e-05 0)
(-0.000219209 8.13927e-05 0)
(-0.000354591 9.89746e-05 0)
(-0.000513469 0.000115614 0)
(-0.000694583 0.000131182 0)
(-0.000896495 0.000145594 0)
(-0.00111764 0.000158796 0)
(-0.00135638 0.000170757 0)
(-0.00161102 0.000181464 0)
(-0.00187984 0.000190915 0)
(-0.0021611 0.000199118 0)
(-0.00245308 0.000206089 0)
(-0.00275406 0.000211846 0)
(-0.00306237 0.000216416 0)
(-0.00337634 0.000219828 0)
(-0.00369435 0.000222111 0)
(-0.00401483 0.000223299 0)
(-0.00433624 0.000223427 0)
(-0.00465709 0.000222533 0)
(-0.00497594 0.000220652 0)
(-0.00529141 0.000217821 0)
(-0.00560216 0.000214079 0)
(-0.00590691 0.000209465 0)
(-0.00620444 0.00020402 0)
(-0.00649357 0.000197781 0)
(-0.00677319 0.000190788 0)
(-0.00704224 0.00018308 0)
(-0.00729972 0.000174697 0)
(-0.00754468 0.000165678 0)
(-0.00777622 0.000156062 0)
(-0.00799353 0.000145891 0)
(-0.00819581 0.000135203 0)
(-0.00838235 0.000124038 0)
(-0.0085525 0.000112435 0)
(-0.00870565 0.000100437 0)
(-0.00884126 8.80815e-05 0)
(-0.00895884 7.5411e-05 0)
(-0.00905797 6.24657e-05 0)
(-0.00913828 4.92879e-05 0)
(-0.00919947 3.59206e-05 0)
(-0.00924129 2.24055e-05 0)
(-0.00926358 8.78519e-06 0)
(-0.0092662 -4.89661e-06 0)
(-0.00924911 -1.85956e-05 0)
(-0.00921232 -3.2266e-05 0)
(-0.00915591 -4.58615e-05 0)
(-0.00908002 -5.93363e-05 0)
(-0.00898486 -7.26435e-05 0)
(-0.00887071 -8.57351e-05 0)
(-0.00873794 -9.85627e-05 0)
(-0.00858695 -0.000111077 0)
(-0.00841823 -0.000123228 0)
(-0.00823235 -0.000134965 0)
(-0.00802995 -0.00014624 0)
(-0.00781173 -0.000157001 0)
(-0.00757848 -0.000167197 0)
(-0.00733103 -0.000176779 0)
(-0.00707032 -0.000185695 0)
(-0.00679734 -0.000193896 0)
(-0.00651315 -0.000201332 0)
(-0.0062189 -0.000207953 0)
(-0.00591577 -0.000213713 0)
(-0.00560505 -0.000218565 0)
(-0.00528807 -0.000222462 0)
(-0.00496622 -0.000225362 0)
(-0.00464096 -0.000227223 0)
(-0.00431379 -0.000228005 0)
(-0.00398628 -0.00022767 0)
(-0.00366005 -0.000226185 0)
(-0.00333675 -0.000223517 0)
(-0.00301807 -0.000219639 0)
(-0.00270573 -0.00021453 0)
(-0.00240149 -0.00020817 0)
(-0.00210711 -0.000200545 0)
(-0.00182435 -0.000191649 0)
(-0.00155499 -0.00018148 0)
(-0.00130078 -0.00017005 0)
(-0.00106343 -0.000157377 0)
(-0.000844601 -0.000143495 0)
(-0.000645883 -0.000128458 0)
(-0.000468749 -0.000112339 0)
(-0.000314516 -9.52474e-05 0)
(-0.000184299 -7.73363e-05 0)
(-7.8923e-05 -5.88231e-05 0)
(1.17427e-06 -4.00198e-05 0)
(5.60959e-05 -2.13828e-05 0)
(8.6693e-05 -3.58957e-06 0)
(9.48671e-05 1.23274e-05 0)
(8.3904e-05 2.48167e-05 0)
(5.90024e-05 3.1518e-05 0)
(2.89842e-05 2.89793e-05 0)
(7.05692e-06 1.35474e-05 0)
(8.07841e-06 -3.11056e-05 0)
(3.01801e-05 -5.72071e-05 0)
(5.48725e-05 -5.49502e-05 0)
(6.6456e-05 -3.27353e-05 0)
(5.44133e-05 2.66473e-06 0)
(1.22572e-05 4.62543e-05 0)
(-6.42548e-05 9.44728e-05 0)
(-0.000177611 0.000144825 0)
(-0.000328906 0.000195563 0)
(-0.000518178 0.000245463 0)
(-0.000744682 0.000293664 0)
(-0.0010071 0.000339558 0)
(-0.00130367 0.000382721 0)
(-0.00163232 0.000422855 0)
(-0.00199077 0.000459762 0)
(-0.00237656 0.000493312 0)
(-0.00278713 0.000523432 0)
(-0.00321986 0.000550087 0)
(-0.00367207 0.000573274 0)
(-0.0041411 0.000593013 0)
(-0.00462428 0.000609349 0)
(-0.00511897 0.000622336 0)
(-0.00562257 0.000632042 0)
(-0.00613253 0.000638547 0)
(-0.00664635 0.000641936 0)
(-0.0071616 0.000642301 0)
(-0.00767592 0.00063974 0)
(-0.00818701 0.000634354 0)
(-0.00869268 0.000626247 0)
(-0.00919078 0.000615523 0)
(-0.00967927 0.000602293 0)
(-0.0101562 0.000586667 0)
(-0.0106196 0.000568754 0)
(-0.0110679 0.000548668 0)
(-0.0114992 0.000526521 0)
(-0.0119119 0.000502425 0)
(-0.0123046 0.000476492 0)
(-0.0126757 0.000448838 0)
(-0.013024 0.000419577 0)
(-0.0133483 0.000388823 0)
(-0.0136473 0.000356691 0)
(-0.01392 0.000323298 0)
(-0.0141654 0.00028876 0)
(-0.0143826 0.000253194 0)
(-0.014571 0.000216719 0)
(-0.0147297 0.000179454 0)
(-0.0148583 0.000141521 0)
(-0.0149562 0.000103042 0)
(-0.015023 6.41412e-05 0)
(-0.0150585 2.4942e-05 0)
(-0.0150624 -1.44279e-05 0)
(-0.0150348 -5.38392e-05 0)
(-0.0149755 -9.31616e-05 0)
(-0.0148848 -0.000132262 0)
(-0.0147629 -0.000171006 0)
(-0.0146101 -0.000209258 0)
(-0.0144269 -0.000246881 0)
(-0.0142139 -0.000283733 0)
(-0.0139717 -0.000319674 0)
(-0.0137011 -0.000354562 0)
(-0.0134031 -0.000388253 0)
(-0.0130787 -0.000420603 0)
(-0.0127289 -0.000451469 0)
(-0.0123551 -0.000480705 0)
(-0.0119586 -0.000508167 0)
(-0.0115409 -0.000533712 0)
(-0.0111036 -0.000557199 0)
(-0.0106484 -0.000578485 0)
(-0.0101772 -0.000597434 0)
(-0.00969174 -0.00061391 0)
(-0.00919418 -0.000627782 0)
(-0.00868661 -0.000638923 0)
(-0.00817125 -0.000647213 0)
(-0.00765042 -0.000652536 0)
(-0.00712652 -0.000654782 0)
(-0.00660201 -0.00065385 0)
(-0.00607946 -0.000649649 0)
(-0.00556148 -0.000642096 0)
(-0.00505073 -0.000631123 0)
(-0.00454992 -0.000616672 0)
(-0.00406178 -0.000598703 0)
(-0.00358908 -0.00057719 0)
(-0.00313457 -0.00055213 0)
(-0.00270097 -0.000523543 0)
(-0.00229098 -0.000491476 0)
(-0.00190722 -0.000456016 0)
(-0.00155218 -0.00041729 0)
(-0.00122825 -0.000375484 0)
(-0.000937576 -0.000330856 0)
(-0.000682053 -0.000283762 0)
(-0.00046322 -0.000234688 0)
(-0.000282143 -0.000184299 0)
(-0.000139274 -0.00013351 0)
(-3.42455e-05 -8.35959e-05 0)
(3.4375e-05 -3.63382e-05 0)
(6.94323e-05 5.75702e-06 0)
(7.55061e-05 3.91762e-05 0)
(5.93437e-05 5.90762e-05 0)
(3.16417e-05 5.90235e-05 0)
(8.29136e-06 3.12319e-05 0)
(6.96236e-06 -4.71584e-05 0)
(2.28463e-05 -7.95217e-05 0)
(3.33452e-05 -6.66184e-05 0)
(2.25709e-05 -2.17357e-05 0)
(-2.04467e-05 4.50462e-05 0)
(-0.000102864 0.000126014 0)
(-0.000229522 0.000215405 0)
(-0.000403379 0.000308986 0)
(-0.00062583 0.000403658 0)
(-0.000897032 0.000497161 0)
(-0.00121618 0.000587847 0)
(-0.00158174 0.000674511 0)
(-0.00199158 0.000756285 0)
(-0.00244315 0.000832543 0)
(-0.0029336 0.000902848 0)
(-0.0034598 0.000966903 0)
(-0.00401848 0.00102452 0)
(-0.00460625 0.00107559 0)
(-0.00521966 0.00112008 0)
(-0.00585522 0.001158 0)
(-0.00650942 0.0011894 0)
(-0.00717879 0.00121439 0)
(-0.00785989 0.00123306 0)
(-0.00854934 0.00124555 0)
(-0.00924381 0.00125203 0)
(-0.00994007 0.00125266 0)
(-0.010635 0.00124761 0)
(-0.0113254 0.00123707 0)
(-0.0120084 0.00122125 0)
(-0.0126812 0.00120034 0)
(-0.013341 0.00117455 0)
(-0.0139851 0.00114409 0)
(-0.014611 0.00110917 0)
(-0.0152164 0.00107001 0)
(-0.0157988 0.00102682 0)
(-0.0163562 0.000979825 0)
(-0.0168864 0.000929246 0)
(-0.0173876 0.000875303 0)
(-0.017858 0.000818218 0)
(-0.0182958 0.000758216 0)
(-0.0186994 0.000695522 0)
(-0.0190676 0.000630363 0)
(-0.0193988 0.000562967 0)
(-0.0196921 0.000493565 0)
(-0.0199462 0.000422388 0)
(-0.0201604 0.000349673 0)
(-0.0203338 0.000275656 0)
(-0.0204657 0.000200575 0)
(-0.0205557 0.000124676 0)
(-0.0206033 4.82018e-05 0)
(-0.0206084 -2.85967e-05 0)
(-0.0205707 -0.000105467 0)
(-0.0204904 -0.000182154 0)
(-0.0203677 -0.000258399 0)
(-0.0202028 -0.000333938 0)
(-0.0199962 -0.000408505 0)
(-0.0197487 -0.000481831 0)
(-0.0194608 -0.000553643 0)
(-0.0191336 -0.000623667 0)
(-0.0187682 -0.000691627 0)
(-0.0183657 -0.000757243 0)
(-0.0179276 -0.000820235 0)
(-0.0174553 -0.000880324 0)
(-0.0169507 -0.000937229 0)
(-0.0164155 -0.000990671 0)
(-0.0158517 -0.00104037 0)
(-0.0152615 -0.00108606 0)
(-0.0146472 -0.00112747 0)
(-0.0140112 -0.00116432 0)
(-0.0133562 -0.00119637 0)
(-0.0126847 -0.00122336 0)
(-0.0119998 -0.00124505 0)
(-0.0113042 -0.0012612 0)
(-0.0106013 -0.00127161 0)
(-0.00989404 -0.00127606 0)
(-0.00918588 -0.00127437 0)
(-0.00848018 -0.00126637 0)
(-0.0077804 -0.00125191 0)
(-0.00709008 -0.00123088 0)
(-0.00641281 -0.00120316 0)
(-0.0057522 -0.0011687 0)
(-0.00511188 -0.00112748 0)
(-0.00449544 -0.0010795 0)
(-0.00390647 -0.00102483 0)
(-0.00334844 -0.00096359 0)
(-0.00282474 -0.000895988 0)
(-0.00233857 -0.000822306 0)
(-0.00189293 -0.000742946 0)
(-0.00149053 -0.000658454 0)
(-0.00113369 -0.000569561 0)
(-0.000824266 -0.000477243 0)
(-0.000563487 -0.000382802 0)
(-0.000351796 -0.000287981 0)
(-0.000188641 -0.000195116 0)
(-7.22122e-05 -0.000107356 0)
(8.71416e-07 -2.89314e-05 0)
(3.58518e-05 3.4477e-05 0)
(4.02157e-05 7.53952e-05 0)
(2.52641e-05 8.4207e-05 0)
(7.34653e-06 4.83058e-05 0)
(4.71865e-06 -5.76521e-05 0)
(1.00387e-05 -8.72781e-05 0)
(-1.01627e-06 -5.51126e-05 0)
(-4.26687e-05 2.10611e-05 0)
(-0.000125368 0.000127997 0)
(-0.000256354 0.000255376 0)
(-0.000440596 0.000395254 0)
(-0.000681174 0.00054161 0)
(-0.000979566 0.0006899 0)
(-0.00133594 0.000836701 0)
(-0.0017494 0.000979443 0)
(-0.00221821 0.0011162 0)
(-0.00273994 0.00124555 0)
(-0.00331166 0.00136644 0)
(-0.00393003 0.00147811 0)
(-0.00459138 0.00158002 0)
(-0.00529185 0.00167183 0)
(-0.0060274 0.00175331 0)
(-0.0067939 0.00182435 0)
(-0.00758713 0.00188496 0)
(-0.00840289 0.00193517 0)
(-0.00923695 0.0019751 0)
(-0.0100851 0.00200492 0)
(-0.0109433 0.00202482 0)
(-0.0118074 0.00203503 0)
(-0.0126735 0.00203581 0)
(-0.0135376 0.00202743 0)
(-0.0143961 0.00201018 0)
(-0.0152453 0.00198438 0)
(-0.0160816 0.00195034 0)
(-0.0169016 0.00190839 0)
(-0.0177021 0.00185886 0)
(-0.0184799 0.0018021 0)
(-0.0192321 0.00173845 0)
(-0.0199558 0.00166826 0)
(-0.0206483 0.00159189 0)
(-0.0213071 0.00150969 0)
(-0.0219298 0.00142201 0)
(-0.0225141 0.00132923 0)
(-0.0230579 0.0012317 0)
(-0.0235593 0.0011298 0)
(-0.0240165 0.00102389 0)
(-0.0244279 0.00091434 0)
(-0.024792 0.000801531 0)
(-0.0251076 0.000685842 0)
(-0.0253734 0.000567654 0)
(-0.0255885 0.000447354 0)
(-0.0257522 0.000325333 0)
(-0.0258637 0.000201988 0)
(-0.0259225 7.77198e-05 0)
(-0.0259285 -4.70653e-05 0)
(-0.0258815 -0.000171956 0)
(-0.0257815 -0.000296537 0)
(-0.0256287 -0.000420384 0)
(-0.0254236 -0.000543071 0)
(-0.0251668 -0.000664164 0)
(-0.024859 -0.000783226 0)
(-0.0245013 -0.000899816 0)
(-0.0240947 -0.00101349 0)
(-0.0236407 -0.00112379 0)
(-0.0231407 -0.00123028 0)
(-0.0225964 -0.0013325 0)
(-0.0220099 -0.00142999 0)
(-0.0213831 -0.00152231 0)
(-0.0207184 -0.001609 0)
(-0.0200183 -0.00168962 0)
(-0.0192854 -0.00176373 0)
(-0.0185225 -0.00183089 0)
(-0.0177327 -0.00189068 0)
(-0.0169192 -0.00194269 0)
(-0.0160853 -0.00198651 0)
(-0.0152345 -0.00202177 0)
(-0.0143705 -0.00204809 0)
(-0.0134971 -0.00206513 0)
(-0.0126183 -0.00207257 0)
(-0.011738 -0.00207013 0)
(-0.0108606 -0.00205753 0)
(-0.00999006 -0.00203456 0)
(-0.00913087 -0.00200104 0)
(-0.00828736 -0.00195683 0)
(-0.00746391 -0.00190185 0)
(-0.0066649 -0.00183608 0)
(-0.00589471 -0.00175958 0)
(-0.00515761 -0.00167248 0)
(-0.00445778 -0.00157503 0)
(-0.00379924 -0.00146757 0)
(-0.0031858 -0.00135064 0)
(-0.00262097 -0.00122491 0)
(-0.00210792 -0.00109131 0)
(-0.00164932 -0.000951052 0)
(-0.0012473 -0.000805725 0)
(-0.000903235 -0.0006574 0)
(-0.000617606 -0.000508779 0)
(-0.000389801 -0.000363391 0)
(-0.000217868 -0.000225846 0)
(-9.82431e-05 -0.000102162 0)
(-2.54885e-05 -1.64512e-07 0)
(8.05153e-06 7.01149e-05 0)
(1.33117e-05 9.59573e-05 0)
(5.24843e-06 6.02428e-05 0)
(1.93258e-06 -6.03907e-05 0)
(-5.92284e-06 -7.5581e-05 0)
(-4.3459e-05 -1.40576e-05 0)
(-0.000121993 0.000102734 0)
(-0.000250707 0.000258735 0)
(-0.000436476 0.000441234 0)
(-0.000684024 0.000640236 0)
(-0.000996254 0.000847979 0)
(-0.00137452 0.00105846 0)
(-0.00181887 0.00126704 0)
(-0.00232824 0.00147016 0)
(-0.00290067 0.0016651 0)
(-0.00353345 0.00184979 0)
(-0.0042233 0.00202268 0)
(-0.00496647 0.00218262 0)
(-0.00575883 0.00232878 0)
(-0.006596 0.0024606 0)
(-0.00747338 0.00257769 0)
(-0.00838624 0.00267986 0)
(-0.00932977 0.00276704 0)
(-0.0102991 0.00283927 0)
(-0.0112894 0.00289668 0)
(-0.0122957 0.00293946 0)
(-0.0133134 0.00296789 0)
(-0.0143376 0.00298226 0)
(-0.0153638 0.00298293 0)
(-0.0163874 0.00297029 0)
(-0.017404 0.00294474 0)
(-0.0184094 0.00290672 0)
(-0.0193993 0.00285669 0)
(-0.0203699 0.00279511 0)
(-0.0213172 0.00272246 0)
(-0.0222376 0.00263924 0)
(-0.0231276 0.00254594 0)
(-0.0239838 0.00244308 0)
(-0.0248031 0.00233117 0)
(-0.0255823 0.00221072 0)
(-0.0263188 0.00208227 0)
(-0.0270099 0.00194633 0)
(-0.027653 0.00180345 0)
(-0.0282459 0.00165416 0)
(-0.0287866 0.00149899 0)
(-0.029273 0.00133851 0)
(-0.0297034 0.00117325 0)
(-0.0300764 0.00100378 0)
(-0.0303906 0.000830651 0)
(-0.0306448 0.000654439 0)
(-0.030838 0.000475717 0)
(-0.0309696 0.000295067 0)
(-0.031039 0.000113077 0)
(-0.0310458 -6.96572e-05 0)
(-0.0309899 -0.000252531 0)
(-0.0308714 -0.000434935 0)
(-0.0306905 -0.000616249 0)
(-0.0304477 -0.000795847 0)
(-0.0301438 -0.000973095 0)
(-0.0297797 -0.00114735 0)
(-0.0293565 -0.00131798 0)
(-0.0288756 -0.00148431 0)
(-0.0283386 -0.00164571 0)
(-0.0277473 -0.00180151 0)
(-0.0271037 -0.00195105 0)
(-0.0264101 -0.00209366 0)
(-0.025669 -0.00222871 0)
(-0.024883 -0.00235552 0)
(-0.0240552 -0.00247346 0)
(-0.0231885 -0.00258188 0)
(-0.0222864 -0.00268016 0)
(-0.0213524 -0.00276768 0)
(-0.0203903 -0.00284385 0)
(-0.019404 -0.00290809 0)
(-0.0183975 -0.00295985 0)
(-0.0173753 -0.0029986 0)
(-0.0163417 -0.00302387 0)
(-0.0153014 -0.00303519 0)
(-0.0142591 -0.00303216 0)
(-0.0132195 -0.00301441 0)
(-0.0121878 -0.00298165 0)
(-0.0111688 -0.00293363 0)
(-0.0101677 -0.00287018 0)
(-0.00918947 -0.00279121 0)
(-0.00823923 -0.00269673 0)
(-0.00732198 -0.00258685 0)
(-0.00644265 -0.00246181 0)
(-0.005606 -0.00232201 0)
(-0.00481663 -0.00216802 0)
(-0.00407884 -0.00200063 0)
(-0.00339662 -0.00182088 0)
(-0.00277351 -0.00163015 0)
(-0.00221253 -0.00143022 0)
(-0.00171604 -0.00122337 0)
(-0.00128561 -0.00101253 0)
(-0.00092185 -0.00080143 0)
(-0.000624225 -0.000594855 0)
(-0.000390856 -0.000398892 0)
(-0.000218293 -0.000221304 0)
(-0.000101274 -7.19589e-05 0)
(-3.24177e-05 3.67445e-05 0)
(-1.89361e-06 8.92901e-05 0)
(2.58923e-06 6.48493e-05 0)
(-1.07367e-06 -5.42735e-05 0)
(-2.35635e-05 -4.13944e-05 0)
(-9.06768e-05 6.08512e-05 0)
(-0.000210101 0.000228278 0)
(-0.000389261 0.000442494 0)
(-0.000634311 0.000688694 0)
(-0.000949431 0.000955024 0)
(-0.0013371 0.0012321 0)
(-0.00179837 0.00151249 0)
(-0.00233299 0.00179039 0)
(-0.00293967 0.00206119 0)
(-0.00361618 0.00232136 0)
(-0.0043595 0.00256813 0)
(-0.00516602 0.00279939 0)
(-0.0060316 0.00301355 0)
(-0.00695171 0.00320946 0)
(-0.00792149 0.00338627 0)
(-0.00893585 0.00354343 0)
(-0.00998955 0.00368062 0)
(-0.0110772 0.00379768 0)
(-0.0121934 0.00389463 0)
(-0.0133327 0.00397159 0)
(-0.0144897 0.00402879 0)
(-0.0156589 0.00406657 0)
(-0.0168351 0.0040853 0)
(-0.018013 0.00408544 0)
(-0.0191876 0.0040675 0)
(-0.0203537 0.00403201 0)
(-0.0215067 0.00397954 0)
(-0.0226417 0.00391071 0)
(-0.0237543 0.00382614 0)
(-0.0248401 0.00372647 0)
(-0.0258948 0.00361237 0)
(-0.0269146 0.00348451 0)
(-0.0278956 0.00334359 0)
(-0.0288341 0.0031903 0)
(-0.0297267 0.00302534 0)
(-0.0305703 0.00284943 0)
(-0.0313617 0.0026633 0)
(-0.0320982 0.00246767 0)
(-0.0327772 0.00226327 0)
(-0.0333962 0.00205084 0)
(-0.0339531 0.00183114 0)
(-0.0344459 0.00160492 0)
(-0.0348728 0.00137293 0)
(-0.0352323 0.00113596 0)
(-0.0355232 0.00089478 0)
(-0.0357443 0.000650176 0)
(-0.0358948 0.000402947 0)
(-0.035974 0.0001539 0)
(-0.0359816 -9.61485e-05 0)
(-0.0359173 -0.000346372 0)
(-0.0357814 -0.000595933 0)
(-0.0355741 -0.000843985 0)
(-0.035296 -0.00108967 0)
(-0.0349479 -0.00133213 0)
(-0.0345309 -0.00157047 0)
(-0.0340463 -0.00180384 0)
(-0.0334956 -0.00203132 0)
(-0.0328807 -0.00225204 0)
(-0.0322036 -0.00246509 0)
(-0.0314667 -0.00266957 0)
(-0.0306726 -0.0028646 0)
(-0.029824 -0.00304927 0)
(-0.028924 -0.0032227 0)
(-0.0279761 -0.00338401 0)
(-0.0269836 -0.00353234 0)
(-0.0259505 -0.00366683 0)
(-0.0248808 -0.00378666 0)
(-0.0237787 -0.00389102 0)
(-0.0226487 -0.00397914 0)
(-0.0214954 -0.00405028 0)
(-0.0203238 -0.00410375 0)
(-0.0191388 -0.00413888 0)
(-0.0179457 -0.00415509 0)
(-0.0167498 -0.00415184 0)
(-0.0155566 -0.00412865 0)
(-0.0143717 -0.00408514 0)
(-0.0132006 -0.00402101 0)
(-0.012049 -0.00393605 0)
(-0.0109228 -0.00383018 0)
(-0.00982745 -0.00370345 0)
(-0.00876863 -0.00355605 0)
(-0.00775182 -0.00338835 0)
(-0.00678233 -0.00320095 0)
(-0.00586524 -0.00299465 0)
(-0.00500532 -0.00277057 0)
(-0.00420697 -0.00253018 0)
(-0.0034741 -0.00227534 0)
(-0.00281005 -0.00200848 0)
(-0.00221745 -0.00173261 0)
(-0.00169813 -0.00145157 0)
(-0.00125291 -0.00117015 0)
(-0.000881475 -0.000894373 0)
(-0.000582222 -0.000631772 0)
(-0.000352059 -0.000391753 0)
(-0.000186194 -0.000186049 0)
(-7.78697e-05 -2.91554e-05 0)
(-1.88675e-05 6.10606e-05 0)
(-3.08328e-07 6.09664e-05 0)
(-4.12788e-06 -3.87721e-05 0)
(-4.19628e-05 1.70564e-05 0)
(-0.000140433 0.00017237 0)
(-0.00030326 0.000401072 0)
(-0.000535801 0.000682937 0)
(-0.000843244 0.00100141 0)
(-0.00122899 0.00134303 0)
(-0.0016949 0.00169692 0)
(-0.00224152 0.00205437 0)
(-0.00286823 0.00240837 0)
(-0.00357338 0.00275337 0)
(-0.00435439 0.00308495 0)
(-0.00520793 0.00339967 0)
(-0.00613003 0.00369481 0)
(-0.00711619 0.00396834 0)
(-0.00816145 0.0042187 0)
(-0.00926056 0.00444477 0)
(-0.010408 0.00464578 0)
(-0.011598 0.00482125 0)
(-0.0128247 0.00497094 0)
(-0.0140822 0.0050948 0)
(-0.0153645 0.00519297 0)
(-0.0166657 0.00526568 0)
(-0.0179798 0.00531333 0)
(-0.019301 0.00533639 0)
(-0.0206234 0.00533541 0)
(-0.0219416 0.00531101 0)
(-0.0232499 0.00526386 0)
(-0.0245429 0.00519471 0)
(-0.0258156 0.00510432 0)
(-0.0270627 0.00499348 0)
(-0.0282796 0.00486302 0)
(-0.0294616 0.0047138 0)
(-0.0306041 0.00454668 0)
(-0.031703 0.00436256 0)
(-0.0327542 0.00416234 0)
(-0.033754 0.00394693 0)
(-0.0346986 0.00371727 0)
(-0.0355849 0.00347428 0)
(-0.0364095 0.00321891 0)
(-0.0371696 0.00295213 0)
(-0.0378626 0.00267489 0)
(-0.0384859 0.00238818 0)
(-0.0390375 0.00209297 0)
(-0.0395153 0.00179026 0)
(-0.0399177 0.00148107 0)
(-0.0402431 0.0011664 0)
(-0.0404905 0.000847278 0)
(-0.0406587 0.000524755 0)
(-0.0407473 0.00019988 0)
(-0.0407556 -0.000126283 0)
(-0.0406836 -0.000452655 0)
(-0.0405314 -0.000778143 0)
(-0.0402993 -0.00110164 0)
(-0.0399879 -0.00142204 0)
(-0.0395982 -0.00173821 0)
(-0.0391314 -0.00204901 0)
(-0.0385889 -0.0023533 0)
(-0.0379725 -0.00264991 0)
(-0.0372842 -0.0029377 0)
(-0.0365264 -0.00321549 0)
(-0.0357015 -0.00348211 0)
(-0.0348125 -0.00373642 0)
(-0.0338626 -0.00397725 0)
(-0.0328551 -0.00420344 0)
(-0.0317938 -0.00441388 0)
(-0.0306825 -0.00460743 0)
(-0.0295256 -0.004783 0)
(-0.0283275 -0.00493953 0)
(-0.0270929 -0.00507599 0)
(-0.0258268 -0.00519137 0)
(-0.0245344 -0.00528475 0)
(-0.023221 -0.00535521 0)
(-0.0218923 -0.00540195 0)
(-0.0205539 -0.00542419 0)
(-0.0192117 -0.00542127 0)
(-0.0178719 -0.00539261 0)
(-0.0165405 -0.00533773 0)
(-0.0152237 -0.00525626 0)
(-0.0139278 -0.00514799 0)
(-0.012659 -0.00501284 0)
(-0.0114236 -0.0048509 0)
(-0.0102277 -0.00466249 0)
(-0.00907724 -0.00444813 0)
(-0.00797804 -0.00420862 0)
(-0.00693564 -0.00394506 0)
(-0.00595525 -0.00365893 0)
(-0.00504165 -0.00335213 0)
(-0.00419914 -0.00302709 0)
(-0.00343137 -0.00268688 0)
(-0.00274132 -0.0023353 0)
(-0.0021311 -0.00197708 0)
(-0.00160186 -0.00161809 0)
(-0.00115365 -0.00126554 0)
(-0.000785295 -0.000928311 0)
(-0.000494268 -0.000617322 0)
(-0.000276477 -0.000345952 0)
(-0.000126043 -0.000130466 0)
(-3.66746e-05 9.39586e-06 0)
(-3.26776e-06 4.80212e-05 0)
(-7.14088e-06 -1.37226e-05 0)
(-6.05598e-05 0.00010065 0)
(-0.000191253 0.000322063 0)
(-0.00039889 0.000623195 0)
(-0.000686607 0.000982459 0)
(-0.00105845 0.0013819 0)
(-0.00151689 0.00180667 0)
(-0.00206298 0.00224463 0)
(-0.00269666 0.00268585 0)
(-0.0034168 0.00312227 0)
(-0.00422129 0.00354737 0)
(-0.00510716 0.00395594 0)
(-0.00607069 0.0043438 0)
(-0.00710754 0.00470767 0)
(-0.00821283 0.00504501 0)
(-0.00938122 0.00535387 0)
(-0.010607 0.00563283 0)
(-0.0118843 0.00588088 0)
(-0.0132069 0.00609737 0)
(-0.0145685 0.00628194 0)
(-0.0159626 0.00643449 0)
(-0.0173829 0.00655511 0)
(-0.0188229 0.0066441 0)
(-0.0202762 0.00670187 0)
(-0.0217365 0.00672898 0)
(-0.0231974 0.00672609 0)
(-0.0246528 0.00669395 0)
(-0.0260969 0.00663338 0)
(-0.0275236 0.00654527 0)
(-0.0289274 0.00643056 0)
(-0.0303027 0.00629023 0)
(-0.0316444 0.00612532 0)
(-0.0329472 0.00593687 0)
(-0.0342064 0.00572598 0)
(-0.0354173 0.00549374 0)
(-0.0365755 0.00524128 0)
(-0.0376768 0.00496976 0)
(-0.0387174 0.00468032 0)
(-0.0396934 0.00437415 0)
(-0.0406016 0.00405243 0)
(-0.0414386 0.00371637 0)
(-0.0422017 0.00336717 0)
(-0.042888 0.00300607 0)
(-0.0434952 0.0026343 0)
(-0.0440212 0.00225312 0)
(-0.0444642 0.00186379 0)
(-0.0448224 0.00146759 0)
(-0.0450947 0.00106581 0)
(-0.0452799 0.00065977 0)
(-0.0453773 0.000250791 0)
(-0.0453865 -0.000159787 0)
(-0.0453072 -0.000570607 0)
(-0.0451397 -0.000980296 0)
(-0.0448842 -0.00138747 0)
(-0.0445414 -0.00179072 0)
(-0.0441125 -0.00218863 0)
(-0.0435987 -0.00257978 0)
(-0.0430016 -0.00296273 0)
(-0.0423231 -0.00333602 0)
(-0.0415655 -0.00369821 0)
(-0.0407312 -0.00404783 0)
(-0.0398232 -0.00438342 0)
(-0.0388444 -0.00470354 0)
(-0.0377985 -0.00500673 0)
(-0.0366891 -0.00529156 0)
(-0.0355203 -0.00555662 0)
(-0.0342964 -0.0058005 0)
(-0.0330219 -0.00602186 0)
(-0.0317019 -0.00621935 0)
(-0.0303414 -0.00639171 0)
(-0.0289458 -0.00653769 0)
(-0.0275207 -0.00665613 0)
(-0.0260721 -0.00674594 0)
(-0.024606 -0.00680609 0)
(-0.0231286 -0.00683567 0)
(-0.0216464 -0.00683385 0)
(-0.0201659 -0.00679994 0)
(-0.0186937 -0.00673336 0)
(-0.0172366 -0.0066337 0)
(-0.0158013 -0.00650073 0)
(-0.0143946 -0.00633438 0)
(-0.0130232 -0.00613482 0)
(-0.0116937 -0.00590248 0)
(-0.0104126 -0.00563805 0)
(-0.00918619 -0.00534258 0)
(-0.00802034 -0.00501747 0)
(-0.00692072 -0.00466459 0)
(-0.00589251 -0.00428632 0)
(-0.00494037 -0.00388565 0)
(-0.00406834 -0.00346631 0)
(-0.00327976 -0.0030329 0)
(-0.00257711 -0.00259104 0)
(-0.00196197 -0.0021476 0)
(-0.00143487 -0.00171093 0)
(-0.000995193 -0.00129116 0)
(-0.000641146 -0.000900549 0)
(-0.000369504 -0.000553878 0)
(-0.000175435 -0.000268864 0)
(-5.47384e-05 -6.66624e-05 0)
(-6.19584e-06 2.5813e-05 0)
(-1.00687e-05 2.08296e-05 0)
(-7.90188e-05 0.000209662 0)
(-0.00024219 0.000510653 0)
(-0.000495252 0.000895771 0)
(-0.000839077 0.00134247 0)
(-0.00127649 0.00183172 0)
(-0.00180888 0.00234755 0)
(-0.00243642 0.0028767 0)
(-0.0031583 0.00340819 0)
(-0.00397278 0.003933 0)
(-0.00487721 0.00444373 0)
(-0.00586816 0.00493437 0)
(-0.0069415 0.00540007 0)
(-0.00809245 0.00583697 0)
(-0.00931573 0.00624203 0)
(-0.0106056 0.00661292 0)
(-0.011956 0.00694788 0)
(-0.0133606 0.00724566 0)
(-0.0148128 0.00750543 0)
(-0.0163057 0.0077267 0)
(-0.0178327 0.0079093 0)
(-0.0193869 0.0080533 0)
(-0.0209612 0.008159 0)
(-0.0225489 0.00822687 0)
(-0.0241432 0.00825755 0)
(-0.0257374 0.0082518 0)
(-0.0273248 0.0082105 0)
(-0.0288991 0.00813463 0)
(-0.030454 0.00802524 0)
(-0.0319834 0.00788346 0)
(-0.0334814 0.00771047 0)
(-0.0349422 0.00750751 0)
(-0.0363606 0.00727584 0)
(-0.0377311 0.00701679 0)
(-0.0390488 0.00673168 0)
(-0.040309 0.0064219 0)
(-0.0415072 0.00608882 0)
(-0.0426391 0.00573388 0)
(-0.0437007 0.00535849 0)
(-0.0446883 0.00496411 0)
(-0.0455986 0.0045522 0)
(-0.0464283 0.00412425 0)
(-0.0471746 0.00368176 0)
(-0.0478348 0.00322624 0)
(-0.0484067 0.00275922 0)
(-0.0488883 0.00228225 0)
(-0.0492778 0.0017969 0)
(-0.0495738 0.00130475 0)
(-0.0497752 0.000807406 0)
(-0.0498812 0.000306487 0)
(-0.0498913 -0.000196366 0)
(-0.0498053 -0.000699495 0)
(-0.0496233 -0.00120122 0)
(-0.0493457 -0.00169985 0)
(-0.0489734 -0.00219367 0)
(-0.0485074 -0.00268095 0)
(-0.0479491 -0.00315994 0)
(-0.0473002 -0.00362889 0)
(-0.0465629 -0.00408604 0)
(-0.0457395 -0.00452961 0)
(-0.0448327 -0.00495781 0)
(-0.0438457 -0.00536889 0)
(-0.0427817 -0.00576106 0)
(-0.0416445 -0.00613257 0)
(-0.0404382 -0.00648167 0)
(-0.039167 -0.00680665 0)
(-0.0378357 -0.00710581 0)
(-0.0364492 -0.0073775 0)
(-0.0350128 -0.00762012 0)
(-0.0335319 -0.00783212 0)
(-0.0320124 -0.00801201 0)
(-0.0304604 -0.0081584 0)
(-0.0288822 -0.00826995 0)
(-0.0272842 -0.00834545 0)
(-0.0256732 -0.00838381 0)
(-0.024056 -0.00838405 0)
(-0.0224398 -0.00834535 0)
(-0.0208315 -0.00826706 0)
(-0.0192384 -0.00814869 0)
(-0.0176678 -0.00798999 0)
(-0.0161269 -0.00779094 0)
(-0.0146228 -0.00755179 0)
(-0.0131626 -0.00727308 0)
(-0.0117532 -0.0069557 0)
(-0.0104014 -0.00660094 0)
(-0.00911355 -0.00621055 0)
(-0.00789562 -0.00578678 0)
(-0.00675322 -0.00533249 0)
(-0.00569144 -0.00485127 0)
(-0.00471471 -0.0043475 0)
(-0.00382678 -0.00382653 0)
(-0.0030306 -0.00329487 0)
(-0.00232825 -0.00276033 0)
(-0.00172082 -0.00223231 0)
(-0.00120841 -0.00172205 0)
(-0.000790045 -0.00124298 0)
(-0.000463494 -0.00081107 0)
(-0.000225067 -0.00044517 0)
(-7.27117e-05 -0.000167464 0)
(-9.04588e-06 -5.63824e-06 0)
(-1.28923e-05 6.47184e-05 0)
(-9.715e-05 0.000343999 0)
(-0.000292649 0.000738287 0)
(-0.000591204 0.00121923 0)
(-0.000991454 0.00176366 0)
(-0.00149494 0.00235174 0)
(-0.00210194 0.00296659 0)
(-0.00281163 0.00359404 0)
(-0.00362238 0.0042222 0)
(-0.00453175 0.00484118 0)
(-0.0055365 0.00544277 0)
(-0.00663266 0.00602024 0)
(-0.00781559 0.0065681 0)
(-0.00908011 0.00708192 0)
(-0.0104205 0.0075582 0)
(-0.0118306 0.00799419 0)
(-0.0133039 0.00838784 0)
(-0.0148337 0.00873762 0)
(-0.016413 0.00904253 0)
(-0.0180346 0.00930195 0)
(-0.0196913 0.00951562 0)
(-0.0213758 0.0096836 0)
(-0.0230808 0.00980618 0)
(-0.0247989 0.00988388 0)
(-0.0265231 0.00991744 0)
(-0.0282461 0.00990771 0)
(-0.0299611 0.00985571 0)
(-0.031661 0.00976258 0)
(-0.0333394 0.00962954 0)
(-0.0349896 0.00945792 0)
(-0.0366055 0.0092491 0)
(-0.0381809 0.00900454 0)
(-0.03971 0.00872574 0)
(-0.0411873 0.00841426 0)
(-0.0426074 0.00807168 0)
(-0.0439653 0.00769965 0)
(-0.0452562 0.0072998 0)
(-0.0464754 0.00687382 0)
(-0.0476189 0.00642343 0)
(-0.0486826 0.00595035 0)
(-0.0496628 0.00545633 0)
(-0.0505563 0.00494314 0)
(-0.0513598 0.00441258 0)
(-0.0520708 0.00386645 0)
(-0.0526866 0.00330659 0)
(-0.0532051 0.00273485 0)
(-0.0536246 0.00215311 0)
(-0.0539434 0.00156325 0)
(-0.0541604 0.0009672 0)
(-0.0542748 0.000366893 0)
(-0.0542859 -0.000235708 0)
(-0.0541937 -0.000838621 0)
(-0.0539981 -0.00143984 0)
(-0.0536998 -0.00203734 0)
(-0.0532994 -0.00262907 0)
(-0.0527982 -0.00321296 0)
(-0.0521977 -0.00378694 0)
(-0.0514996 -0.00434891 0)
(-0.0507064 -0.00489676 0)
(-0.0498203 -0.00542838 0)
(-0.0488445 -0.00594165 0)
(-0.0477822 -0.00643445 0)