/*--------------------------------*- C++ -*----------------------------------*\
| =========                 |                                                 |
| \\      /  F ield         | OpenFOAM: The Open Source CFD Toolbox           |
|  \\    /   O peration     | Version:  2212                                  |
|   \\  /    A nd           | Website:  www.openfoam.com                      |
|    \\/     M anipulation  |                                                 |
\*---------------------------------------------------------------------------*/
FoamFile
{
    version     2.0;
    format      ascii;
    arch        "LSB;label=32;scalar=64";
    class       surfaceScalarField;
    location    "0.0535";
    object      phi_0;
}
// * * * * * * * * * * * * * * * * * * * * * * * * * * * * * * * * * * * * * //

dimensions      [0 3 -1 0 0 0 0];

oriented        oriented;

internalField   nonuniform List<scalar> 
19800
(
6.59162e-11
-6.59828e-11
2.24492e-10
-1.58565e-10
3.96229e-10
-1.71758e-10
5.28287e-10
-1.32055e-10
5.90327e-10
-6.20391e-11
5.65975e-10
2.43542e-11
4.47233e-10
1.18743e-10
2.31365e-10
2.15879e-10
-8.10809e-11
3.12448e-10
-4.87396e-10
4.06324e-10
-9.83512e-10
4.96116e-10
-1.56443e-09
5.80918e-10
-2.22455e-09
6.60119e-10
-2.95789e-09
7.33333e-10
-3.75822e-09
8.0032e-10
-4.61916e-09
8.60949e-10
-5.53433e-09
9.15174e-10
-6.49733e-09
9.62998e-10
-7.5018e-09
1.00447e-09
-8.54149e-09
1.03969e-09
-9.61025e-09
1.06876e-09
-1.07021e-08
1.09182e-09
-1.18111e-08
1.10901e-09
-1.29316e-08
1.12051e-09
-1.40581e-08
1.12647e-09
-1.51851e-08
1.12707e-09
-1.63076e-08
1.12251e-09
-1.74206e-08
1.11298e-09
-1.85193e-08
1.09865e-09
-1.9599e-08
1.07973e-09
-2.06554e-08
1.05643e-09
-2.16844e-08
1.02894e-09
-2.26818e-08
9.97447e-10
-2.3644e-08
9.62154e-10
-2.45672e-08
9.23265e-10
-2.54482e-08
8.80972e-10
-2.62837e-08
8.35472e-10
-2.70707e-08
7.86975e-10
-2.78064e-08
7.35688e-10
-2.84882e-08
6.81801e-10
-2.91137e-08
6.25502e-10
-2.96807e-08
5.67002e-10
-3.01872e-08
5.06505e-10
-3.06314e-08
4.44219e-10
-3.10117e-08
3.80345e-10
-3.13268e-08
3.15082e-10
-3.15755e-08
2.48649e-10
-3.17567e-08
1.8126e-10
-3.18698e-08
1.13124e-10
-3.19143e-08
4.44567e-11
-3.18898e-08
-2.45252e-11
-3.17962e-08
-9.35988e-11
-3.16336e-08
-1.62527e-10
-3.14026e-08
-2.31082e-10
-3.11035e-08
-2.99037e-10
-3.07374e-08
-3.66151e-10
-3.03052e-08
-4.32184e-10
-2.98083e-08
-4.96894e-10
-2.92483e-08
-5.60026e-10
-2.86269e-08
-6.21328e-10
-2.79464e-08
-6.80556e-10
-2.72089e-08
-7.37456e-10
-2.64172e-08
-7.91766e-10
-2.55739e-08
-8.43235e-10
-2.46823e-08
-8.9161e-10
-2.37457e-08
-9.36631e-10
-2.27676e-08
-9.78044e-10
-2.1752e-08
-1.01561e-09
-2.07029e-08
-1.04907e-09
-1.96248e-08
-1.07818e-09
-1.85221e-08
-1.10271e-09
-1.73996e-08
-1.12242e-09
-1.62625e-08
-1.1371e-09
-1.5116e-08
-1.14653e-09
-1.39655e-08
-1.15051e-09
-1.28166e-08
-1.14886e-09
-1.16753e-08
-1.14138e-09
-1.05473e-08
-1.12792e-09
-9.439e-09
-1.10834e-09
-8.35648e-09
-1.08252e-09
-7.30613e-09
-1.05036e-09
-6.29435e-09
-1.01178e-09
-5.3276e-09
-9.66738e-10
-4.41237e-09
-9.1523e-10
-3.55509e-09
-8.57285e-10
-2.7621e-09
-7.92989e-10
-2.03961e-09
-7.22497e-10
-1.39356e-09
-6.46052e-10
-8.29564e-10
-5.64004e-10
-3.52707e-10
-4.76861e-10
3.26442e-11
-3.85349e-10
3.23168e-10
-2.9052e-10
5.1705e-10
-1.93884e-10
6.14737e-10
-9.76916e-11
6.20118e-10
-5.37991e-12
5.4243e-10
7.76917e-11
3.99283e-10
1.4315e-10
2.21792e-10
1.7749e-10
6.34005e-11
1.58384e-10
6.33984e-11
1.56396e-10
-2.22381e-10
4.28123e-10
-4.30277e-10
6.84436e-10
-4.28066e-10
8.30979e-10
-2.78599e-10
8.0328e-10
-3.43389e-11
5.60414e-10
2.67225e-10
7.88684e-11
6.00281e-10
-6.5241e-10
9.47158e-10
-1.63575e-09
1.29578e-09
-2.86729e-09
1.63786e-09
-4.33879e-09
1.96761e-09
-6.03893e-09
2.28106e-09
-7.95422e-09
2.57541e-09
-1.00697e-08
2.84878e-09
-1.23692e-08
3.0999e-09
-1.48363e-08
3.32797e-09
-1.74537e-08
3.53255e-09
-2.02041e-08
3.71348e-09
-2.30704e-08
3.87077e-09
-2.60354e-08
4.00461e-09
-2.90819e-08
4.1153e-09
-3.21934e-08
4.20328e-09
-3.53533e-08
4.26899e-09
-3.85458e-08
4.31301e-09
-4.17553e-08
4.33593e-09
-4.49667e-08
4.33839e-09
-4.81652e-08
4.32106e-09
-5.13369e-08
4.28463e-09
-5.4468e-08
4.22981e-09
-5.75456e-08
4.15731e-09
-6.0557e-08
4.06788e-09
-6.34904e-08
3.96227e-09
-6.63342e-08
3.84124e-09
-6.90775e-08
3.70554e-09
-7.17102e-08
3.55593e-09
-7.42224e-08
3.39316e-09
-7.66049e-08
3.21801e-09
-7.88492e-08
3.03124e-09
-8.09471e-08
2.83363e-09
-8.28913e-08
2.62596e-09
-8.46748e-08
2.40899e-09
-8.62913e-08
2.18351e-09
-8.77351e-08
1.95031e-09
-8.90011e-08
1.71017e-09
-9.00846e-08
1.46389e-09
-9.09818e-08
1.21228e-09
-9.16893e-08
9.56162e-10
-9.22044e-08
6.96355e-10
-9.2525e-08
4.33689e-10
-9.26495e-08
1.69001e-10
-9.25772e-08
-9.6846e-11
-9.23078e-08
-3.62988e-10
-9.18418e-08
-6.28544e-10
-9.11802e-08
-8.92612e-10
-9.0325e-08
-1.15429e-09
-8.92785e-08
-1.41267e-09
-8.80439e-08
-1.6668e-09
-8.6625e-08
-1.91575e-09
-8.50264e-08
-2.15857e-09
-8.32535e-08
-2.3943e-09
-8.13121e-08
-2.62195e-09
-7.9209e-08
-2.84057e-09
-7.69516e-08
-3.04917e-09
-7.4548e-08
-3.24678e-09
-7.20072e-08
-3.43242e-09
-6.93387e-08
-3.60512e-09
-6.65528e-08
-3.76392e-09
-6.36606e-08
-3.90786e-09
-6.06737e-08
-4.036e-09
-5.76044e-08
-4.14744e-09
-5.44658e-08
-4.24128e-09
-5.12716e-08
-4.31665e-09
-4.8036e-08
-4.37274e-09
-4.47738e-08
-4.40875e-09
-4.15003e-08
-4.42393e-09
-3.82316e-08
-4.4176e-09
-3.49838e-08
-4.38911e-09
-3.17739e-08
-4.33791e-09
-2.86187e-08
-4.26351e-09
-2.55357e-08
-4.1655e-09
-2.25425e-08
-4.04358e-09
-1.96567e-08
-3.89758e-09
-1.6896e-08
-3.72743e-09
-1.4278e-08
-3.53321e-09
-1.18201e-08
-3.31524e-09
-9.53904e-09
-3.07402e-09
-7.45117e-09
-2.81037e-09
-5.57175e-09
-2.52548e-09
-3.91474e-09
-2.22101e-09
-2.49231e-09
-1.89929e-09
-1.31415e-09
-1.5635e-09
-3.86602e-10
-1.21807e-09
2.88657e-10
-8.69137e-10
7.16356e-10
-5.25386e-10
9.10087e-10
-1.99112e-10
8.95981e-10
9.17944e-11
7.17276e-10
3.21855e-10
4.40092e-10
4.5467e-10
1.58305e-10
4.40167e-10
2.2171e-10
1.71018e-10
-3.93414e-10
4.27143e-10
-6.86407e-10
6.09863e-10
-6.10794e-10
6.06279e-10
-2.75008e-10
3.35293e-10
2.36645e-10
-2.57938e-10
8.60474e-10
-1.20734e-09
1.54969e-09
-2.53073e-09
2.27055e-09
-4.2337e-09
2.99877e-09
-6.31275e-09
3.71689e-09
-8.7575e-09
4.41236e-09
-1.15526e-08
5.07612e-09
-1.46788e-08
5.70168e-09
-1.81145e-08
6.28445e-09
-2.18358e-08
6.82123e-09
-2.58178e-08
7.30989e-09
-3.00343e-08
7.74914e-09
-3.44591e-08
8.13826e-09
-3.90654e-08
8.47706e-09
-4.38265e-08
8.76572e-09
-4.8716e-08
9.00472e-09
-5.37075e-08
9.19479e-09
-5.87753e-08
9.33685e-09
-6.38943e-08
9.43197e-09
-6.90397e-08
9.48134e-09
-7.41876e-08
9.48628e-09
-7.93147e-08
9.44817e-09
-8.43986e-08
9.36847e-09
-8.94175e-08
9.24867e-09
-9.43504e-08
9.0903e-09
-9.91775e-08
8.89496e-09
-1.03879e-07
8.66423e-09
-1.08438e-07
8.39974e-09
-1.12836e-07
8.10313e-09
-1.17056e-07
7.77606e-09
-1.21083e-07
7.42018e-09
-1.24902e-07
7.03716e-09
-1.28499e-07
6.62868e-09
-1.31862e-07
6.19643e-09
-1.34978e-07
5.7421e-09
-1.37837e-07
5.2674e-09
-1.40427e-07
4.77404e-09
-1.42741e-07
4.26375e-09
-1.44769e-07
3.73828e-09
-1.46504e-07
3.19938e-09
-1.47941e-07
2.64882e-09
-1.49073e-07
2.08839e-09
-1.49897e-07
1.51991e-09
-1.50408e-07
9.45213e-10
-1.50605e-07
3.66155e-10
-1.50487e-07
-2.15386e-10
-1.50052e-07
-7.97495e-10
-1.49302e-07
-1.37824e-09
-1.48239e-07
-1.95567e-09
-1.46866e-07
-2.52777e-09
-1.45186e-07
-3.09255e-09
-1.43205e-07
-3.64796e-09
-1.40929e-07
-4.19195e-09
-1.38365e-07
-4.72242e-09
-1.35522e-07
-5.23728e-09
-1.32409e-07
-5.73442e-09
-1.29038e-07
-6.21172e-09
-1.2542e-07
-6.66704e-09
-1.21569e-07
-7.09827e-09
-1.17498e-07
-7.5033e-09
-1.13223e-07
-7.88e-09
-1.08761e-07
-8.22631e-09
-1.04128e-07
-8.54016e-09
-9.93449e-08
-8.81953e-09
-9.44299e-08
-9.06244e-09
-8.94041e-08
-9.267e-09
-8.42894e-08
-9.43135e-09
-7.91084e-08
-9.55374e-09
-7.38847e-08
-9.63249e-09
-6.86426e-08
-9.66603e-09
-6.34073e-08
-9.65292e-09
-5.82046e-08
-9.59184e-09
-5.30608e-08
-9.48166e-09
-4.80029e-08
-9.3214e-09
-4.30581e-08
-9.11031e-09
-3.82538e-08
-8.84785e-09
-3.36177e-08
-8.53375e-09
-2.9177e-08
-8.16808e-09
-2.4959e-08
-7.75125e-09
-2.09901e-08
-7.28413e-09
-1.7296e-08
-6.76813e-09
-1.3901e-08
-6.20533e-09
-1.08278e-08
-5.59866e-09
-8.0967e-09
-4.95214e-09
-5.72477e-09
-4.27122e-09
-3.72508e-09
-3.56319e-09
-2.10522e-09
-2.83792e-09
-8.65649e-10
-2.10869e-09
2.57062e-12
-1.3936e-09
5.20873e-10
-7.17411e-10
7.26479e-10
-1.13802e-10
6.77302e-10
3.71039e-10
4.5664e-10
6.75328e-10
1.77989e-10
7.18823e-10
3.99704e-10
1.3316e-10
-5.26569e-10
2.82903e-10
-8.36145e-10
2.82507e-10
-6.10399e-10
1.23471e-11
-4.84609e-12
-6.14848e-10
8.63842e-10
-1.66015e-09
1.90578e-09
-3.16278e-09
3.05232e-09
-5.14441e-09
4.25218e-09
-7.61279e-09
5.46715e-09
-1.05647e-08
6.66879e-09
-1.39883e-08
7.83602e-09
-1.78654e-08
8.95321e-09
-2.21726e-08
1.00089e-08
-2.68829e-08
1.09947e-08
-3.19662e-08
1.19046e-08
-3.73907e-08
1.27344e-08
-4.31231e-08
1.34815e-08
-4.91291e-08
1.41443e-08
-5.5374e-08
1.4722e-08
-6.18228e-08
1.52146e-08
-6.84407e-08
1.56227e-08
-7.51932e-08
1.59472e-08
-8.2046e-08
1.61897e-08
-8.89657e-08
1.63516e-08
-9.59194e-08
1.64351e-08
-1.02875e-07
1.64421e-08
-1.09802e-07
1.63749e-08
-1.16669e-07
1.6236e-08
-1.23449e-07
1.60279e-08
-1.30111e-07
1.57531e-08
-1.36631e-07
1.54144e-08
-1.42981e-07
1.50145e-08
-1.49137e-07
1.45561e-08
-1.55076e-07
1.4042e-08
-1.60775e-07
1.34751e-08
-1.66214e-07
1.28583e-08
-1.71371e-07
1.21944e-08
-1.76228e-07
1.14863e-08
-1.80769e-07
1.0737e-08
-1.84976e-07
9.94939e-09
-1.88835e-07
9.12642e-09
-1.92332e-07
8.27107e-09
-1.95455e-07
7.38637e-09
-1.98192e-07
6.47534e-09
-2.00534e-07
5.54102e-09
-2.02471e-07
4.58652e-09
-2.03998e-07
3.61495e-09
-2.05108e-07
2.62947e-09
-2.05796e-07
1.63326e-09
-2.06059e-07
6.29575e-10
-2.05896e-07
-3.78324e-10
-2.05306e-07
-1.38712e-09
-2.04291e-07
-2.39343e-09
-2.02853e-07
-3.39387e-09
-2.00996e-07
-4.38499e-09
-1.98725e-07
-5.36327e-09
-1.96048e-07
-6.32519e-09
-1.92973e-07
-7.26719e-09
-1.89509e-07
-8.18566e-09
-1.8567e-07
-9.07696e-09
-1.81467e-07
-9.93746e-09
-1.76915e-07
-1.07635e-08
-1.7203e-07
-1.15514e-08
-1.66831e-07
-1.22975e-08
-1.61336e-07
-1.29982e-08
-1.55567e-07
-1.36498e-08
-1.49544e-07
-1.42488e-08
-1.43293e-07
-1.47916e-08
-1.36837e-07
-1.52748e-08
-1.30205e-07
-1.56951e-08
-1.23423e-07
-1.60492e-08
-1.1652e-07
-1.63339e-08
-1.09528e-07
-1.65463e-08
-1.02477e-07
-1.66835e-08
-9.53996e-08
-1.6743e-08
-8.83302e-08
-1.67223e-08
-8.13027e-08
-1.66193e-08
-7.43521e-08
-1.64322e-08
-6.75141e-08
-1.61594e-08
-6.08246e-08
-1.57998e-08
-5.43199e-08
-1.53526e-08
-4.8036e-08
-1.48176e-08
-4.20089e-08
-1.41952e-08
-3.62738e-08
-1.34864e-08
-3.0865e-08
-1.26929e-08
-2.58156e-08
-1.18176e-08
-2.11564e-08
-1.08645e-08
-1.69161e-08
-9.83899e-09
-1.31198e-08
-8.74846e-09
-9.78834e-09
-7.60263e-09
-6.93721e-09
-6.4143e-09
-4.57477e-09
-5.20035e-09
-2.70048e-09
-3.98299e-09
-1.30252e-09
-2.79156e-09
-3.55078e-10
-1.66485e-09
1.85248e-10
-6.54115e-10
3.83209e-10
1.73075e-10
3.29321e-10
7.2921e-10
1.4534e-10
9.0281e-10
5.45041e-10
6.60903e-11
-5.92664e-10
4.64682e-11
-8.16515e-10
-2.16305e-10
-3.47624e-10
-8.38615e-10
6.17469e-10
-1.90711e-09
1.93234e-09
-3.48322e-09
3.4819e-09
-5.60735e-09
5.17646e-09
-8.30227e-09
6.94709e-09
-1.15762e-08
8.74106e-09
-1.54255e-08
1.05181e-08
-1.98369e-08
1.22475e-08
-2.47897e-08
1.3906e-08
-3.02571e-08
1.54763e-08
-3.62076e-08
1.69452e-08
-4.26063e-08
1.83032e-08
-4.94155e-08
1.95436e-08
-5.65957e-08
2.06617e-08
-6.4106e-08
2.16546e-08
-7.19047e-08
2.25207e-08
-7.99498e-08
2.32596e-08
-8.81989e-08
2.38718e-08
-9.66102e-08
2.43585e-08
-1.05142e-07
2.47215e-08
-1.13754e-07
2.49631e-08
-1.22404e-07
2.5086e-08
-1.31056e-07
2.50933e-08
-1.39669e-07
2.49881e-08
-1.48207e-07
2.47742e-08
-1.56634e-07
2.44551e-08
-1.64916e-07
2.40347e-08
-1.73018e-07
2.3517e-08
-1.8091e-07
2.29062e-08
-1.8856e-07
2.22063e-08
-1.9594e-07
2.14216e-08
-2.03021e-07
2.05563e-08
-2.09778e-07
1.96149e-08
-2.16185e-07
1.86017e-08
-2.2222e-07
1.75211e-08
-2.2786e-07
1.63775e-08
-2.33086e-07
1.51755e-08
-2.37879e-07
1.39195e-08
-2.42222e-07
1.26141e-08
-2.461e-07
1.1264e-08
-2.49498e-07
9.87369e-09
-2.52405e-07
8.4479e-09
-2.5481e-07
6.99136e-09
-2.56704e-07
5.50883e-09
-2.5808e-07
4.00515e-09
-2.58932e-07
2.4852e-09
-2.59256e-07
9.53932e-10
-2.59051e-07
-5.83634e-10
-2.58315e-07
-2.12243e-09
-2.57051e-07
-3.65733e-09
-2.55262e-07
-5.18311e-09
-2.52953e-07
-6.6945e-09
-2.5013e-07
-8.18618e-09
-2.46802e-07
-9.65276e-09
-2.42981e-07
-1.10888e-08
-2.38677e-07
-1.24888e-08
-2.33907e-07
-1.38473e-08
-2.28686e-07
-1.51587e-08
-2.23032e-07
-1.64175e-08
-2.16965e-07
-1.7618e-08
-2.10508e-07
-1.87548e-08
-2.03684e-07
-1.98223e-08
-1.96519e-07
-2.08151e-08
-1.8904e-07
-2.17277e-08
-1.81276e-07
-2.25549e-08
-1.7326e-07
-2.32915e-08
-1.65022e-07
-2.39323e-08
-1.56599e-07
-2.44726e-08
-1.48025e-07
-2.49077e-08
-1.39338e-07
-2.52331e-08
-1.30577e-07
-2.54446e-08
-1.21782e-07
-2.55384e-08
-1.12993e-07
-2.55111e-08
-1.04253e-07
-2.53594e-08
-9.56044e-08
-2.50807e-08
-8.70908e-08
-2.4673e-08
-7.87559e-08
-2.41347e-08
-7.06436e-08
-2.34649e-08
-6.27975e-08
-2.26637e-08
-5.52609e-08
-2.17318e-08
-4.80762e-08
-2.06711e-08
-4.12843e-08
-1.94848e-08
-3.49243e-08
-1.81776e-08
-2.90328e-08
-1.67559e-08
-2.36433e-08
-1.52285e-08
-1.8785e-08
-1.36068e-08
-1.44818e-08
-1.19058e-08
-1.07513e-08
-1.01448e-08
-7.60276e-09
-8.3489e-09
-5.03554e-09
-6.55021e-09
-3.03684e-09
-4.79026e-09
-1.57912e-09
-3.12257e-09
-6.17192e-10
-1.61604e-09
-8.49792e-11
-3.59149e-10
1.08249e-10
5.35978e-10
8.27341e-11
9.28326e-10
6.2777e-10
-1.70582e-11
-5.75611e-10
-2.4644e-10
-5.87141e-10
-8.26157e-10
2.32097e-10
-1.86215e-09
1.65346e-09
-3.43459e-09
3.50479e-09
-5.6012e-09
5.64851e-09
-8.40011e-09
7.97538e-09
-1.18526e-08
1.03996e-08
-1.59658e-08
1.28542e-08
-2.07344e-08
1.52867e-08
-2.61435e-08
1.76565e-08
-3.21696e-08
1.99321e-08
-3.87829e-08
2.20895e-08
-4.59481e-08
2.41104e-08
-5.36258e-08
2.5981e-08
-6.17736e-08
2.76914e-08
-7.03464e-08
2.92345e-08
-7.92977e-08
3.06059e-08
-8.85797e-08
3.18027e-08
-9.8144e-08
3.28239e-08
-1.07942e-07
3.36698e-08
-1.17925e-07
3.43417e-08
-1.28045e-07
3.48416e-08
-1.38255e-07
3.51726e-08
-1.48507e-07
3.53381e-08
-1.58756e-07
3.53422e-08
-1.68957e-07
3.51893e-08
-1.79067e-07
3.48841e-08
-1.89044e-07
3.44317e-08
-1.98846e-07
3.38373e-08
-2.08436e-07
3.31065e-08
-2.17774e-07
3.22449e-08
-2.26826e-07
3.12583e-08
-2.35557e-07
3.01525e-08
-2.43935e-07
2.89336e-08
-2.51927e-07
2.76076e-08
-2.59506e-07
2.61805e-08
-2.66644e-07
2.46587e-08
-2.73315e-07
2.30484e-08
-2.79495e-07
2.13558e-08
-2.85163e-07
1.95873e-08
-2.90298e-07
1.77493e-08
-2.94882e-07
1.58484e-08
-2.989e-07
1.38909e-08
-3.02335e-07
1.18836e-08
-3.05177e-07
9.83312e-09
-3.07414e-07
7.74613e-09
-3.09039e-07
5.62948e-09
-3.10044e-07
3.49007e-09
-3.10425e-07
1.33486e-09
-3.10179e-07
-8.29079e-10
-3.09307e-07
-2.99459e-09
-3.0781e-07
-5.15443e-09
-3.05692e-07
-7.30128e-09
-3.02958e-07
-9.42773e-09
-2.99618e-07
-1.15263e-08
-2.95682e-07
-1.35893e-08
-2.91161e-07
-1.56093e-08
-2.86072e-07
-1.75784e-08
-2.8043e-07
-1.9489e-08
-2.74256e-07
-2.13332e-08
-2.6757e-07
-2.31034e-08
-2.60396e-07
-2.47916e-08
-2.52761e-07
-2.63902e-08
-2.44691e-07
-2.78915e-08
-2.36219e-07
-2.92877e-08
-2.27375e-07
-3.05715e-08
-2.18195e-07
-3.17353e-08
-2.08714e-07
-3.27721e-08
-1.98972e-07
-3.36748e-08
-1.89008e-07
-3.44366e-08
-1.78864e-07
-3.50511e-08
-1.68585e-07
-3.55122e-08
-1.58216e-07
-3.58142e-08
-1.47802e-07
-3.59519e-08
-1.37393e-07
-3.59204e-08
-1.27036e-07
-3.57158e-08
-1.16783e-07
-3.53344e-08
-1.06682e-07
-3.47736e-08
-9.67854e-08
-3.40315e-08
-8.7143e-08
-3.31073e-08
-7.78055e-08
-3.20012e-08
-6.88225e-08
-3.07148e-08
-6.02425e-08
-2.92511e-08
-5.21124e-08
-2.7615e-08
-4.44765e-08
-2.58135e-08
-3.73764e-08
-2.3856e-08
-3.08496e-08
-2.17552e-08
-2.49291e-08
-1.95273e-08
-1.96417e-08
-1.71932e-08
-1.50071e-08
-1.47795e-08
-1.10361e-08
-1.23199e-08
-7.72909e-09
-9.85717e-09
-5.07411e-09
-7.44523e-09
-3.04447e-09
-5.15221e-09
-1.59655e-09
-3.06397e-09
-6.67193e-10
-1.28851e-09
-1.70936e-10
3.97241e-11
3.49015e-12
7.53899e-10
6.31263e-10
-1.08359e-10
-4.67241e-10
-5.71706e-10
-1.23785e-10
-1.50392e-09
1.16432e-09
-2.99566e-09
3.14521e-09
-5.1167e-09
5.62583e-09
-7.91761e-09
8.44942e-09
-1.14316e-08
1.14893e-08
-1.56763e-08
1.46444e-08
-2.06558e-08
1.78337e-08
-2.63624e-08
2.09933e-08
-3.27783e-08
2.40725e-08
-3.98775e-08
2.70313e-08
-4.76268e-08
2.98388e-08
-5.59874e-08
3.2471e-08
-6.49159e-08
3.49095e-08
-7.43654e-08
3.71409e-08
-8.42862e-08
3.91553e-08
-9.46266e-08
4.09462e-08
-1.05333e-07
4.25096e-08
-1.16353e-07
4.38434e-08
-1.27631e-07
4.49474e-08
-1.39112e-07
4.5823e-08
-1.50743e-07
4.64727e-08
-1.6247e-07
4.68998e-08
-1.74241e-07
4.71088e-08
-1.86003e-07
4.71046e-08
-1.97707e-07
4.68928e-08
-2.09302e-07
4.64797e-08
-2.20742e-07
4.58716e-08
-2.3198e-07
4.50754e-08
-2.42972e-07
4.40983e-08
-2.53675e-07
4.29477e-08
-2.64048e-07
4.16311e-08
-2.74051e-07
4.01562e-08
-2.83649e-07
3.8531e-08
-2.92804e-07
3.67634e-08
-3.01485e-07
3.48616e-08
-3.0966e-07
3.28337e-08
-3.173e-07
3.06881e-08
-3.24377e-07
2.8433e-08
-3.30867e-07
2.60771e-08
-3.36747e-07
2.36288e-08
-3.41995e-07
2.10967e-08
-3.46594e-07
1.84895e-08
-3.50526e-07
1.58161e-08
-3.53778e-07
1.30852e-08
-3.56338e-07
1.03059e-08
-3.58196e-07
7.48728e-09
-3.59344e-07
4.6385e-09
-3.59778e-07
1.76887e-09
-3.59495e-07
-1.11221e-09
-3.58494e-07
-3.99521e-09
-3.56778e-07
-6.87048e-09
-3.54351e-07
-9.72826e-09
-3.5122e-07
-1.25587e-08
-3.47395e-07
-1.53518e-08
-3.42887e-07
-1.80976e-08
-3.3771e-07
-2.07859e-08
-3.31882e-07
-2.34064e-08
-3.25422e-07
-2.59489e-08
-3.18352e-07
-2.84031e-08
-3.10697e-07
-3.07587e-08
-3.02483e-07
-3.30054e-08
-2.9374e-07
-3.51329e-08
-2.84501e-07
-3.71311e-08
-2.74799e-07
-3.89898e-08
-2.64671e-07
-4.06992e-08
-2.54157e-07
-4.22495e-08
-2.43298e-07
-4.36313e-08
-2.32137e-07
-4.48354e-08
-2.2072e-07
-4.5853e-08
-2.09096e-07
-4.66755e-08
-1.97313e-07
-4.72952e-08
-1.85423e-07
-4.77046e-08
-1.73478e-07
-4.78968e-08
-1.61532e-07
-4.7866e-08
-1.49641e-07
-4.76067e-08
-1.37861e-07
-4.71147e-08
-1.26248e-07
-4.63867e-08
-1.14859e-07
-4.54205e-08
-1.03751e-07
-4.42154e-08
-9.29799e-08
-4.2772e-08
-8.26017e-08
-4.10929e-08
-7.26702e-08
-3.91826e-08
-6.32372e-08
-3.7048e-08
-5.4352e-08
-3.46986e-08
-4.60606e-08
-3.21475e-08
-3.84044e-08
-2.94114e-08
-3.14197e-08
-2.6512e-08
-2.51365e-08
-2.34765e-08
-1.95769e-08
-2.03391e-08
-1.47541e-08
-1.71427e-08
-1.06708e-08
-1.39405e-08
-7.31739e-09
-1.07987e-08
-4.67028e-09
-7.79933e-09
-2.69015e-09
-5.0441e-09
-1.32012e-09
-2.65852e-09
-4.84005e-10
-7.96396e-10
-8.4394e-11
3.5429e-10
5.46878e-10
-2.03031e-10
-2.64211e-10
-9.13457e-10
5.86642e-10
-2.21966e-09
2.47052e-09
-4.19433e-09
5.11989e-09
-6.8942e-09
8.32572e-09
-1.03603e-08
1.19155e-08
-1.46185e-08
1.57476e-08
-1.96812e-08
1.9707e-08
-2.55479e-08
2.37004e-08
-3.22072e-08
2.76527e-08
-3.9638e-08
3.15033e-08
-4.78109e-08
3.52042e-08
-5.66891e-08
3.87171e-08
-6.62305e-08
4.20123e-08
-7.63876e-08
4.50667e-08
-8.71096e-08
4.78628e-08
-9.83423e-08
5.0388e-08
-1.10029e-07
5.26334e-08
-1.22113e-07
5.45932e-08
-1.34534e-07
5.62645e-08
-1.47233e-07
5.76466e-08
-1.60151e-07
5.87406e-08
-1.73227e-07
5.95491e-08
-1.86404e-07
6.00762e-08
-1.99622e-07
6.0327e-08
-2.12825e-07
6.03077e-08
-2.25957e-07
6.0025e-08
-2.38964e-07
5.94864e-08
-2.51793e-07
5.87001e-08
-2.64392e-07
5.76746e-08
-2.76712e-07
5.64187e-08
-2.88706e-07
5.49419e-08
-3.00329e-07
5.32535e-08
-3.11536e-07
5.13635e-08
-3.22287e-07
4.92817e-08
-3.32541e-07
4.70183e-08
-3.42263e-07
4.45836e-08
-3.51418e-07
4.19881e-08
-3.59972e-07
3.92423e-08
-3.67896e-07
3.63568e-08
-3.75161e-07
3.33426e-08
-3.81743e-07
3.02104e-08
-3.87617e-07
2.69713e-08
-3.92764e-07
2.36364e-08
-3.97165e-07
2.02169e-08
-4.00804e-07
1.67243e-08
-4.03668e-07
1.31699e-08
-4.05746e-07
9.56543e-09
-4.07031e-07
5.9226e-09
-4.07515e-07
2.25331e-09
-4.07197e-07
-1.43041e-09
-4.06076e-07
-5.11638e-09
-4.04154e-07
-8.79228e-09
-4.01436e-07
-1.24457e-08
-3.97931e-07
-1.60639e-08
-3.93649e-07
-1.96344e-08
-3.88602e-07
-2.31441e-08
-3.82808e-07
-2.65803e-08
-3.76284e-07
-2.99298e-08
-3.69054e-07
-3.31797e-08
-3.6114e-07
-3.63168e-08
-3.52571e-07
-3.93279e-08
-3.43376e-07
-4.22e-08
-3.33589e-07
-4.49201e-08
-3.23245e-07
-4.74753e-08
-3.12382e-07
-4.98527e-08
-3.01041e-07
-5.20399e-08
-2.89266e-07
-5.40246e-08
-2.77102e-07
-5.57947e-08
-2.64599e-07
-5.73388e-08
-2.51806e-07
-5.86456e-08
-2.38777e-07
-5.97047e-08
-2.25566e-07
-6.05061e-08
-2.12231e-07
-6.10405e-08
-1.98828e-07
-6.12996e-08
-1.85418e-07
-6.12759e-08
-1.72061e-07
-6.0963e-08
-1.58821e-07
-6.03557e-08
-1.45757e-07
-5.94501e-08
-1.32934e-07
-5.82438e-08
-1.20413e-07
-5.67362e-08
-1.08256e-07
-5.49288e-08
-9.65242e-08
-5.2825e-08
-8.52758e-08
-5.0431e-08
-7.45678e-08
-4.7756e-08
-6.44537e-08
-4.48126e-08
-5.49838e-08
-4.16175e-08
-4.62031e-08
-3.8192e-08
-3.81517e-08
-3.45634e-08
-3.08626e-08
-3.07656e-08
-2.43612e-08
-2.68405e-08
-1.86639e-08
-2.284e-08
-1.37766e-08
-1.88277e-08
-9.69382e-09
-1.48815e-08
-6.39681e-09
-1.10963e-08
-3.85276e-09
-7.58814e-09
-2.01352e-09
-4.49776e-09
-8.14858e-10
-1.99507e-09
-1.76036e-10
-2.84524e-10
3.70847e-10
-2.98258e-10
3.40519e-11
-1.26148e-09
1.54988e-09
-2.95304e-09
4.16208e-09
-5.42664e-09
7.59349e-09
-8.72438e-09
1.16235e-08
-1.2876e-08
1.60671e-08
-1.78986e-08
2.07702e-08
-2.37974e-08
2.56059e-08
-3.05666e-08
3.04695e-08
-3.81897e-08
3.52758e-08
-4.66415e-08
3.99551e-08
-5.58886e-08
4.44512e-08
-6.58905e-08
4.87191e-08
-7.66013e-08
5.2723e-08
-8.79697e-08
5.64351e-08
-9.99408e-08
5.98339e-08
-1.12456e-07
6.29035e-08
-1.25456e-07
6.56327e-08
-1.38876e-07
6.8014e-08
-1.52655e-07
7.00433e-08
-1.66728e-07
7.1719e-08
-1.81029e-07
7.30422e-08
-1.95496e-07
7.40156e-08
-2.10063e-07
7.46438e-08
-2.24669e-07
7.49328e-08
-2.39251e-07
7.48896e-08
-2.53748e-07
7.45224e-08
-2.68102e-07
7.38402e-08
-2.82255e-07
7.28527e-08
-2.96151e-07
7.15703e-08
-3.09736e-07
7.00037e-08
-3.22958e-07
6.81643e-08
-3.35768e-07
6.60637e-08
-3.48119e-07
6.37139e-08
-3.59964e-07
6.11272e-08
-3.71262e-07
5.8316e-08
-3.81971e-07
5.5293e-08
-3.92054e-07
5.20711e-08
-4.01475e-07
4.86633e-08
-4.10201e-07
4.50828e-08
-4.18202e-07
4.13429e-08
-4.25449e-07
3.74572e-08
-4.31916e-07
3.34392e-08
-4.37583e-07
2.93027e-08
-4.42428e-07
2.50617e-08
-4.46433e-07
2.07302e-08
-4.49586e-07
1.63224e-08
-4.51873e-07
1.18528e-08
-4.53287e-07
7.33585e-09
-4.5382e-07
2.78635e-09
-4.53469e-07
-1.78082e-09
-4.52235e-07
-6.35058e-09
-4.5012e-07
-1.09077e-08
-4.47128e-07
-1.54367e-08
-4.4327e-07
-1.99221e-08
-4.38557e-07
-2.4348e-08
-4.33002e-07
-2.86988e-08
-4.26624e-07
-3.29583e-08
-4.19443e-07
-3.71105e-08
-4.11484e-07
-4.11392e-08
-4.02772e-07
-4.50284e-08
-3.93338e-07
-4.87618e-08
-3.83215e-07
-5.23232e-08
-3.72439e-07
-5.56967e-08
-3.61048e-07
-5.88664e-08
-3.49084e-07
-6.18166e-08
-3.36592e-07
-6.45318e-08
-3.23619e-07
-6.6997e-08
-3.10216e-07
-6.91976e-08
-2.96436e-07
-7.11194e-08
-2.82333e-07
-7.27488e-08
-2.67964e-07
-7.40729e-08
-2.53391e-07
-7.50797e-08
-2.38673e-07
-7.5758e-08
-2.23875e-07
-7.60977e-08
-2.09061e-07
-7.60898e-08
-1.94298e-07
-7.57267e-08
-1.79651e-07
-7.50023e-08
-1.65189e-07
-7.39122e-08
-1.50979e-07
-7.24538e-08
-1.37089e-07
-7.06267e-08
-1.23584e-07
-6.84332e-08
-1.10531e-07
-6.58778e-08
-9.79936e-08
-6.29688e-08
-8.60321e-08
-5.97176e-08
-7.47047e-08
-5.614e-08
-6.40654e-08
-5.22567e-08
-5.41636e-08
-4.80938e-08
-4.50428e-08
-4.36843e-08
-3.67397e-08
-3.90687e-08
-2.92835e-08
-3.42967e-08
-2.26946e-08
-2.94289e-08
-1.69834e-08
-2.45389e-08
-1.21495e-08
-1.97153e-08
-8.18078e-09
-1.50651e-08
-5.05241e-09
-1.07165e-08
-2.72671e-09
-6.82346e-09
-1.15305e-09
-3.56874e-09
-2.68538e-10
-1.16903e-09
1.02305e-10
-3.92415e-10
4.26464e-10
-1.60936e-09
2.76683e-09
-3.69062e-09
6.24334e-09
-6.67091e-09
1.05738e-08
-1.0577e-08
1.55296e-08
-1.54262e-08
2.09163e-08
-2.12258e-08
2.65698e-08
-2.79729e-08
3.23529e-08
-3.56547e-08
3.81513e-08
-4.42493e-08
4.38704e-08
-5.37263e-08
4.94321e-08
-6.40477e-08
5.47727e-08
-7.51692e-08
5.98405e-08
-8.70404e-08
6.45942e-08
-9.96063e-08
6.9001e-08
-1.12808e-07
7.30354e-08
-1.26583e-07
7.66785e-08
-1.40866e-07
7.99164e-08
-1.55592e-07
8.27398e-08
-1.70692e-07
8.51433e-08
-1.86098e-07
8.71246e-08
-2.0174e-07
8.86845e-08
-2.17551e-07
8.98259e-08
-2.33461e-07
9.05539e-08
-2.49403e-07
9.0875e-08
-2.65311e-07
9.07976e-08
-2.8112e-07
9.03312e-08
-2.96766e-07
8.94862e-08
-3.12187e-07
8.8274e-08
-3.27324e-07
8.6707e-08
-3.42118e-07
8.4798e-08
-3.56514e-07
8.25603e-08
-3.70458e-07
8.0008e-08
-3.839e-07
7.71553e-08
-3.9679e-07
7.40169e-08
-4.09081e-07
7.06078e-08
-4.20732e-07
6.69432e-08
-4.31699e-07
6.30386e-08
-4.41945e-07
5.89097e-08
-4.51435e-07
5.45723e-08
-4.60135e-07
5.00427e-08
-4.68015e-07
4.5337e-08
-4.75047e-07
4.04717e-08
-4.81208e-07
3.54634e-08
-4.86475e-07
3.0329e-08
-4.9083e-07
2.50855e-08
-4.94258e-07
1.975e-08
-4.96745e-07
1.434e-08
-4.98282e-07
8.87299e-09
-4.98863e-07
3.36686e-09
-4.98483e-07
-2.16043e-09
-4.97143e-07
-7.69065e-09
-4.94846e-07
-1.32054e-08
-4.91596e-07
-1.8686e-08
-4.87404e-07
-2.41138e-08
-4.82283e-07
-2.94697e-08
-4.76247e-07
-3.47346e-08
-4.69316e-07
-3.98892e-08
-4.61512e-07
-4.49142e-08
-4.52861e-07
-4.97901e-08
-4.43392e-07
-5.44975e-08
-4.33137e-07
-5.90169e-08
-4.22132e-07
-6.33289e-08
-4.10414e-07
-6.74143e-08
-3.98027e-07
-7.12539e-08
-3.85014e-07
-7.48289e-08
-3.71425e-07
-7.8121e-08
-3.5731e-07
-8.11119e-08
-3.42723e-07
-8.37843e-08
-3.27722e-07
-8.61211e-08
-3.12364e-07
-8.81062e-08
-2.96713e-07
-8.97242e-08
-2.80832e-07
-9.09609e-08
-2.64787e-07
-9.18029e-08
-2.48646e-07
-9.22384e-08
-2.32479e-07
-9.22569e-08
-2.16356e-07
-9.18495e-08
-2.0035e-07
-9.1009e-08
-1.84531e-07
-8.97307e-08
-1.68973e-07
-8.80117e-08
-1.53748e-07
-8.58521e-08
-1.38926e-07
-8.32546e-08
-1.24579e-07
-8.02254e-08
-1.10773e-07
-7.67746e-08
-9.75744e-08
-7.29161e-08
-8.50453e-08
-6.86692e-08
-7.32436e-08
-6.40583e-08
-6.22227e-08
-5.91148e-08
-5.203e-08
-5.38769e-08
-4.27067e-08
-4.8392e-08
-3.42862e-08
-4.27172e-08
-2.67936e-08
-3.69216e-08
-2.02447e-08
-3.10878e-08
-1.46455e-08
-2.53145e-08
-9.99144e-09
-1.97192e-08
-6.26695e-09
-1.4441e-08
-3.44588e-09
-9.64453e-09
-1.49195e-09
-5.52267e-09
-3.60214e-10
-2.30076e-09
-2.57911e-10
-4.8461e-10
9.11077e-10
-1.95315e-09
4.23537e-09
-4.42371e-09
8.7139e-09
-7.91262e-09
1.40627e-08
-1.24312e-08
2.00482e-08
-1.7984e-08
2.6469e-08
-2.45674e-08
3.31532e-08
-3.21695e-08
3.99551e-08
-4.07701e-08
4.67519e-08
-5.03407e-08
5.3441e-08
-6.08452e-08
5.99366e-08
-7.22407e-08
6.61682e-08
-8.4478e-08
7.20778e-08
-9.75025e-08
7.76187e-08
-1.11255e-07
8.27534e-08
-1.25672e-07
8.74527e-08
-1.40688e-07
9.16942e-08
-1.56233e-07
9.54618e-08
-1.72238e-07
9.87443e-08
-1.88629e-07
1.01535e-07
-2.05335e-07
1.03831e-07
-2.22283e-07
1.05632e-07
-2.39398e-07
1.06942e-07
-2.5661e-07
1.07766e-07
-2.73846e-07
1.08111e-07
-2.91036e-07
1.07987e-07
-3.0811e-07
1.07406e-07
-3.25002e-07
1.06378e-07
-3.41645e-07
1.04917e-07
-3.57975e-07
1.03037e-07
-3.73932e-07
1.00754e-07
-3.89455e-07
9.80832e-08
-4.04487e-07
9.50403e-08
-4.18974e-07
9.16425e-08
-4.32864e-07
8.7907e-08
-4.46108e-07
8.38514e-08
-4.58658e-07
7.94938e-08
-4.70472e-07
7.48523e-08
-4.81508e-07
6.99454e-08
-4.91727e-07
6.47921e-08
-5.01096e-07
5.94112e-08
-5.09581e-07
5.38221e-08
-5.17153e-07
4.80441e-08
-5.23787e-07
4.20971e-08
-5.29459e-07
3.60008e-08
-5.34149e-07
2.97755e-08
-5.3784e-07
2.34415e-08
-5.4052e-07
1.70193e-08
-5.42177e-07
1.053e-08
-5.42804e-07
3.99442e-09
-5.42399e-07
-2.566e-09
-5.40959e-07
-9.12972e-09
-5.3849e-07
-1.5675e-08
-5.34996e-07
-2.21797e-08
-5.30488e-07
-2.86216e-08
-5.2498e-07
-3.49784e-08
-5.18487e-07
-4.12274e-08
-5.1103e-07
-4.73458e-08
-5.02634e-07
-5.33107e-08
-4.93325e-07
-5.90992e-08
-4.83134e-07
-6.46884e-08
-4.72096e-07
-7.00552e-08
-4.60248e-07
-7.51768e-08
-4.47632e-07
-8.00305e-08
-4.34292e-07
-8.45937e-08
-4.20276e-07
-8.88445e-08
-4.05636e-07
-9.2761e-08
-3.90426e-07
-9.63219e-08
-3.74704e-07
-9.95068e-08
-3.58529e-07
-1.02296e-07
-3.41965e-07
-1.0467e-07
-3.25078e-07
-1.06611e-07
-3.07936e-07
-1.08103e-07
-2.90609e-07
-1.0913e-07
-2.73169e-07
-1.09678e-07
-2.55691e-07
-1.09735e-07
-2.38248e-07
-1.09292e-07
-2.20919e-07
-1.08339e-07
-2.03778e-07
-1.06871e-07
-1.86903e-07
-1.04887e-07
-1.7037e-07
-1.02385e-07
-1.54256e-07
-9.9369e-08
-1.38634e-07
-9.58475e-08
-1.23577e-07
-9.1832e-08
-1.09153e-07
-8.73392e-08
-9.5431e-08
-8.23916e-08
-8.24716e-08
-7.70177e-08
-7.03328e-08
-7.12536e-08
-5.90665e-08
-6.51432e-08
-4.87184e-08
-5.87401e-08
-3.93268e-08
-5.21088e-08
-3.09224e-08
-4.5326e-08
-2.35272e-08
-3.84829e-08
-1.71543e-08
-3.16874e-08
-1.18076e-08
-2.5066e-08
-7.48153e-09
-1.8767e-08
-4.16209e-09
-1.2964e-08
-1.82747e-09
-7.85728e-09
-4.50114e-10
-3.67812e-09
-7.08017e-10
-5.74405e-10
1.48549e-09
-2.29061e-09
5.95158e-09
-5.14699e-09
1.15703e-08
-9.14246e-09
1.80582e-08
-1.42732e-08
2.51789e-08
-2.05307e-08
3.27265e-08
-2.79002e-08
4.05228e-08
-3.63604e-08
4.84153e-08
-4.58826e-08
5.62742e-08
-5.64313e-08
6.39897e-08
-6.79642e-08
7.14695e-08
-8.04327e-08
7.86367e-08
-9.37825e-08
8.54276e-08
-1.07954e-07
9.17905e-08
-1.22884e-07
9.76835e-08
-1.38505e-07
1.03074e-07
-1.54747e-07
1.07936e-07
-1.71536e-07
1.12251e-07
-1.88798e-07
1.16006e-07
-2.06458e-07
1.19194e-07
-2.24437e-07
1.2181e-07
-2.4266e-07
1.23855e-07
-2.6105e-07
1.25331e-07
-2.79529e-07
1.26245e-07
-2.98024e-07
1.26605e-07
-3.16458e-07
1.26422e-07
-3.3476e-07
1.25708e-07
-3.52858e-07
1.24476e-07
-3.70683e-07
1.22742e-07
-3.88167e-07
1.20521e-07
-4.05245e-07
1.17832e-07
-4.21854e-07
1.14693e-07
-4.37935e-07
1.11121e-07
-4.53429e-07
1.07137e-07
-4.68282e-07
1.0276e-07
-4.82442e-07
9.80107e-08
-4.95858e-07
9.29101e-08
-5.08485e-07
8.74793e-08
-5.20279e-07
8.17398e-08
-5.312e-07
7.57133e-08
-5.41211e-07
6.94222e-08
-5.50278e-07
6.28886e-08
-5.58369e-07
5.61353e-08
-5.65457e-07
4.91853e-08
-5.71518e-07
4.20616e-08
-5.7653e-07
3.47877e-08
-5.80476e-07
2.73875e-08
-5.83342e-07
1.98847e-08
-5.85116e-07
1.23038e-08
-5.85791e-07
4.66928e-09
-5.85362e-07
-2.99408e-09
-5.83831e-07
-1.06612e-08
-5.81199e-07
-1.83066e-08
-5.77474e-07
-2.59047e-08
-5.72666e-07
-3.34297e-08
-5.66789e-07
-4.08554e-08
-5.59861e-07
-4.81555e-08
-5.51903e-07