/*--------------------------------*- C++ -*----------------------------------*\
| =========                 |                                                 |
| \\      /  F ield         | OpenFOAM: The Open Source CFD Toolbox           |
|  \\    /   O peration     | Version:  2212                                  |
|   \\  /    A nd           | Website:  www.openfoam.com                      |
|    \\/     M anipulation  |                                                 |
\*---------------------------------------------------------------------------*/
FoamFile
{
    version     2.0;
    format      ascii;
    arch        "LSB;label=32;scalar=64";
    class       volVectorField;
    location    "0.034";
    object      U;
}
// * * * * * * * * * * * * * * * * * * * * * * * * * * * * * * * * * * * * * //

dimensions      [0 1 -1 0 0 0 0];

internalField   nonuniform List<vector> 
10000
(
(2.8314e-06 -2.62733e-06 0)
(1.24114e-05 -5.68316e-06 0)
(2.6103e-05 -5.98634e-06 0)
(3.77508e-05 -4.85648e-06 0)
(4.39303e-05 -2.86797e-06 0)
(4.29576e-05 -3.65437e-07 0)
(3.38292e-05 2.35904e-06 0)
(1.61194e-05 5.14315e-06 0)
(-1.02178e-05 7.87186e-06 0)
(-4.50061e-05 1.04856e-05 0)
(-8.78784e-05 1.29526e-05 0)
(-0.000138395 1.52467e-05 0)
(-0.000196051 1.73596e-05 0)
(-0.000260283 1.92875e-05 0)
(-0.000330527 2.10236e-05 0)
(-0.000406205 2.25733e-05 0)
(-0.000486721 2.39434e-05 0)
(-0.0005715 2.51325e-05 0)
(-0.000659966 2.61392e-05 0)
(-0.000751544 2.69767e-05 0)
(-0.00084569 2.76534e-05 0)
(-0.000941866 2.81743e-05 0)
(-0.00103955 2.8547e-05 0)
(-0.00113824 2.8774e-05 0)
(-0.00123745 2.88568e-05 0)
(-0.00133672 2.88e-05 0)
(-0.00143558 2.86126e-05 0)
(-0.00153361 2.83048e-05 0)
(-0.0016304 2.7882e-05 0)
(-0.00172555 2.73479e-05 0)
(-0.00181868 2.67066e-05 0)
(-0.00190945 2.59636e-05 0)
(-0.0019975 2.51248e-05 0)
(-0.00208252 2.41958e-05 0)
(-0.00216421 2.31838e-05 0)
(-0.00224227 2.2094e-05 0)
(-0.00231644 2.0929e-05 0)
(-0.00238647 1.96915e-05 0)
(-0.00245212 1.83872e-05 0)
(-0.00251318 1.70241e-05 0)
(-0.00256944 1.56078e-05 0)
(-0.00262073 1.41416e-05 0)
(-0.00266687 1.26292e-05 0)
(-0.00270771 1.10742e-05 0)
(-0.00274312 9.48272e-06 0)
(-0.00277299 7.86031e-06 0)
(-0.00279721 6.21003e-06 0)
(-0.00281569 4.53689e-06 0)
(-0.00282837 2.84753e-06 0)
(-0.00283519 1.14623e-06 0)
(-0.00283613 -5.62965e-07 0)
(-0.00283117 -2.27519e-06 0)
(-0.00282031 -3.98632e-06 0)
(-0.00280356 -5.69046e-06 0)
(-0.00278096 -7.38037e-06 0)
(-0.00275258 -9.05152e-06 0)
(-0.00271847 -1.07001e-05 0)
(-0.00267875 -1.23196e-05 0)
(-0.00263352 -1.39037e-05 0)
(-0.00258291 -1.54473e-05 0)
(-0.00252707 -1.69442e-05 0)
(-0.0024662 -1.83878e-05 0)
(-0.00240046 -1.97727e-05 0)
(-0.0023301 -2.10933e-05 0)
(-0.00225533 -2.23425e-05 0)
(-0.00217642 -2.3513e-05 0)
(-0.00209365 -2.45987e-05 0)
(-0.00200732 -2.55936e-05 0)
(-0.00191777 -2.64912e-05 0)
(-0.00182532 -2.7285e-05 0)
(-0.00173036 -2.79694e-05 0)
(-0.00163327 -2.85386e-05 0)
(-0.00153446 -2.89853e-05 0)
(-0.00143435 -2.93019e-05 0)
(-0.00133341 -2.94822e-05 0)
(-0.0012321 -2.95207e-05 0)
(-0.0011309 -2.94123e-05 0)
(-0.00103033 -2.91517e-05 0)
(-0.000930909 -2.8734e-05 0)
(-0.000833167 -2.81548e-05 0)
(-0.000737657 -2.74086e-05 0)
(-0.000644943 -2.64895e-05 0)
(-0.0005556 -2.53926e-05 0)
(-0.00047021 -2.41154e-05 0)
(-0.000389359 -2.26565e-05 0)
(-0.000313633 -2.10144e-05 0)
(-0.000243613 -1.91879e-05 0)
(-0.000179869 -1.71782e-05 0)
(-0.000122954 -1.49885e-05 0)
(-7.33956e-05 -1.26244e-05 0)
(-3.16752e-05 -1.00951e-05 0)
(1.789e-06 -7.41693e-06 0)
(2.66744e-05 -4.61901e-06 0)
(4.28047e-05 -1.75338e-06 0)
(5.02323e-05 1.08864e-06 0)
(4.9367e-05 3.74578e-06 0)
(4.11628e-05 5.92905e-06 0)
(2.75133e-05 7.1082e-06 0)
(1.2425e-05 6.34336e-06 0)
(2.61117e-06 2.61007e-06 0)
(7.07049e-06 -1.28094e-05 0)
(2.57221e-05 -2.38609e-05 0)
(4.81226e-05 -2.28099e-05 0)
(6.2785e-05 -1.49564e-05 0)
(6.2811e-05 -2.76374e-06 0)
(4.43975e-05 1.20618e-05 0)
(5.12346e-06 2.82775e-05 0)
(-5.62558e-05 4.49905e-05 0)
(-0.000140128 6.16038e-05 0)
(-0.0002462 7.77425e-05 0)
(-0.000373783 9.31369e-05 0)
(-0.000521871 0.000107619 0)
(-0.000689226 0.000121094 0)
(-0.000874496 0.000133481 0)
(-0.00107622 0.000144745 0)
(-0.00129287 0.000154871 0)
(-0.00152291 0.000163857 0)
(-0.00176477 0.000171703 0)
(-0.0020169 0.000178429 0)
(-0.00227774 0.000184052 0)
(-0.0025458 0.000188601 0)
(-0.00281956 0.000192107 0)
(-0.0030976 0.000194605 0)
(-0.00337849 0.000196128 0)
(-0.00366086 0.000196703 0)
(-0.00394341 0.000196366 0)
(-0.00422485 0.000195154 0)
(-0.00450396 0.000193105 0)
(-0.00477957 0.000190257 0)
(-0.00505055 0.000186644 0)
(-0.00531583 0.000182306 0)
(-0.00557439 0.000177274 0)
(-0.00582525 0.000171585 0)
(-0.0060675 0.000165273 0)
(-0.00630027 0.000158378 0)
(-0.00652272 0.000150933 0)
(-0.00673411 0.000142972 0)
(-0.00693369 0.000134527 0)
(-0.00712081 0.000125632 0)
(-0.00729483 0.000116323 0)
(-0.00745518 0.000106633 0)
(-0.00760134 9.65953e-05 0)
(-0.00773282 8.62409e-05 0)
(-0.00784919 7.56043e-05 0)
(-0.00795007 6.47172e-05 0)
(-0.00803511 5.36116e-05 0)
(-0.00810404 4.23212e-05 0)
(-0.00815661 3.08796e-05 0)
(-0.00819263 1.93216e-05 0)
(-0.00821195 7.68123e-06 0)
(-0.00821448 -4.00919e-06 0)
(-0.00820019 -1.57157e-05 0)
(-0.00816906 -2.7402e-05 0)
(-0.00812117 -3.90316e-05 0)
(-0.00805663 -5.05677e-05 0)
(-0.00797559 -6.1974e-05 0)
(-0.00787828 -7.32134e-05 0)
(-0.00776497 -8.42463e-05 0)
(-0.00763599 -9.50328e-05 0)
(-0.00749172 -0.000105534 0)
(-0.00733262 -0.000115709 0)
(-0.00715918 -0.000125517 0)
(-0.00697196 -0.000134918 0)
(-0.00677158 -0.000143868 0)
(-0.00655874 -0.000152325 0)
(-0.00633416 -0.000160244 0)
(-0.00609866 -0.000167584 0)
(-0.00585309 -0.000174302 0)
(-0.00559839 -0.000180354 0)
(-0.00533555 -0.000185698 0)
(-0.00506559 -0.000190295 0)
(-0.00478963 -0.000194103 0)
(-0.00450884 -0.000197078 0)
(-0.00422442 -0.00019918 0)
(-0.00393766 -0.000200369 0)
(-0.00364986 -0.000200609 0)
(-0.00336242 -0.000199867 0)
(-0.00307674 -0.000198109 0)
(-0.00279429 -0.000195307 0)
(-0.00251657 -0.000191432 0)
(-0.00224509 -0.000186458 0)
(-0.00198144 -0.000180361 0)
(-0.00172716 -0.000173126 0)
(-0.00148386 -0.000164744 0)
(-0.00125312 -0.000155213 0)
(-0.00103651 -0.00014454 0)
(-0.000835578 -0.000132743 0)
(-0.000651805 -0.000119852 0)
(-0.000486608 -0.000105918 0)
(-0.00034129 -9.10204e-05 0)
(-0.000216994 -7.52714e-05 0)
(-0.000114636 -5.88397e-05 0)
(-3.48129e-05 -4.19758e-05 0)
(2.23212e-05 -2.5057e-05 0)
(5.72511e-05 -8.6585e-06 0)
(7.13665e-05 6.33599e-06 0)
(6.7277e-05 1.85584e-05 0)
(4.93198e-05 2.5883e-05 0)
(2.51111e-05 2.50974e-05 0)
(6.34306e-06 1.24174e-05 0)
(8.00926e-06 -2.87083e-05 0)
(2.70175e-05 -4.75055e-05 0)
(4.54751e-05 -4.00992e-05 0)
(4.93347e-05 -1.72193e-05 0)
(3.00943e-05 1.59656e-05 0)
(-1.72623e-05 5.5712e-05 0)
(-9.60215e-05 9.91196e-05 0)
(-0.000208005 0.000144051 0)
(-0.00035382 0.000189031 0)
(-0.000533246 0.000232983 0)
(-0.000745372 0.000275169 0)
(-0.000988806 0.000315095 0)
(-0.00126184 0.000352398 0)
(-0.00156249 0.000386851 0)
(-0.00188859 0.000418309 0)
(-0.00223789 0.00044668 0)
(-0.00260804 0.000471927 0)
(-0.00299665 0.000494046 0)
(-0.00340134 0.000513053 0)
(-0.0038197 0.00052899 0)
(-0.00424939 0.000541913 0)
(-0.00468807 0.000551893 0)
(-0.00513348 0.000559009 0)
(-0.00558338 0.00056335 0)
(-0.00603562 0.000565002 0)
(-0.0064881 0.000564057 0)
(-0.0069388 0.000560615 0)
(-0.00738578 0.000554773 0)
(-0.00782716 0.000546634 0)
(-0.00826114 0.000536298 0)
(-0.00868602 0.00052387 0)
(-0.00910014 0.000509449 0)
(-0.00950196 0.000493135 0)
(-0.00989 0.00047503 0)
(-0.0102629 0.000455235 0)
(-0.0106192 0.000433852 0)
(-0.0109578 0.000410976 0)
(-0.0112776 0.000386707 0)
(-0.0115773 0.000361142 0)
(-0.0118561 0.000334379 0)
(-0.012113 0.000306513 0)
(-0.0123471 0.00027764 0)
(-0.0125576 0.000247856 0)
(-0.012744 0.000217256 0)
(-0.0129055 0.000185937 0)
(-0.0130417 0.000153991 0)
(-0.013152 0.000121513 0)
(-0.0132361 8.86039e-05 0)
(-0.0132936 5.53599e-05 0)
(-0.0133244 2.18786e-05 0)
(-0.0133283 -1.17402e-05 0)
(-0.0133052 -4.5397e-05 0)
(-0.0132552 -7.89896e-05 0)
(-0.0131783 -0.000112412 0)
(-0.0130747 -0.00014556 0)
(-0.0129448 -0.000178327 0)
(-0.0127887 -0.000210604 0)
(-0.0126071 -0.000242279 0)
(-0.0124004 -0.000273239 0)
(-0.0121693 -0.000303369 0)
(-0.0119144 -0.000332553 0)
(-0.0116366 -0.000360675 0)
(-0.0113368 -0.000387616 0)
(-0.011016 -0.000413254 0)
(-0.0106753 -0.000437468 0)
(-0.0103158 -0.000460135 0)
(-0.00993894 -0.000481134 0)
(-0.009546 -0.000500343 0)
(-0.00913849 -0.000517641 0)
(-0.00871799 -0.000532908 0)
(-0.00828616 -0.000546027 0)
(-0.00784477 -0.00055688 0)
(-0.00739567 -0.000565354 0)
(-0.00694079 -0.000571334 0)
(-0.00648216 -0.000574716 0)
(-0.00602188 -0.000575398 0)
(-0.0055621 -0.000573287 0)
(-0.00510509 -0.000568295 0)
(-0.00465313 -0.000560343 0)
(-0.00420859 -0.00054936 0)
(-0.00377385 -0.000535284 0)
(-0.00335135 -0.000518068 0)
(-0.00294354 -0.000497679 0)
(-0.00255286 -0.000474109 0)
(-0.00218176 -0.000447371 0)
(-0.00183264 -0.000417507 0)
(-0.00150782 -0.000384595 0)
(-0.00120954 -0.000348759 0)
(-0.00093987 -0.000310183 0)
(-0.000700701 -0.000269134 0)
(-0.000493631 -0.000225988 0)
(-0.000319875 -0.000181279 0)
(-0.000180142 -0.000135757 0)
(-7.44573e-05 -9.04923e-05 0)
(-1.92247e-06 -4.70088e-05 0)
(3.95849e-05 -7.49022e-06 0)
(5.37286e-05 2.49405e-05 0)
(4.61512e-05 4.58872e-05 0)
(2.60139e-05 4.93361e-05 0)
(7.12742e-06 2.75183e-05 0)
(6.5584e-06 -4.30915e-05 0)
(1.91522e-05 -6.49382e-05 0)
(2.38968e-05 -4.48563e-05 0)
(6.60813e-06 8.65859e-07 0)
(-4.17898e-05 6.39394e-05 0)
(-0.000126931 0.000138274 0)
(-0.000252574 0.000219089 0)
(-0.000420796 0.000302836 0)
(-0.000632417 0.000386864 0)
(-0.000887198 0.00046926 0)
(-0.00118409 0.000548643 0)
(-0.00152145 0.000624006 0)
(-0.00189718 0.000694646 0)
(-0.00230882 0.000760081 0)
(-0.00275366 0.00081997 0)
(-0.00322882 0.000874109 0)
(-0.00373131 0.000922383 0)
(-0.00425804 0.000964749 0)
(-0.00480591 0.00100121 0)
(-0.00537181 0.00103183 0)
(-0.00595263 0.0010567 0)
(-0.00654531 0.00107591 0)
(-0.00714683 0.00108962 0)
(-0.00775426 0.00109796 0)
(-0.00836472 0.00110111 0)
(-0.00897542 0.00109924 0)
(-0.00958366 0.00109253 0)
(-0.0101868 0.00108116 0)
(-0.0107824 0.00106532 0)
(-0.011368 0.0010452 0)
(-0.0119413 0.00102101 0)
(-0.0125001 0.000992934 0)
(-0.0130423 0.000961167 0)
(-0.0135659 0.000925906 0)
(-0.014069 0.000887346 0)
(-0.0145499 0.000845677 0)
(-0.0150068 0.000801095 0)
(-0.0154382 0.000753789 0)
(-0.0158427 0.000703952 0)
(-0.0162188 0.000651772 0)
(-0.0165654 0.000597437 0)
(-0.0168812 0.000541132 0)
(-0.0171653 0.000483047 0)
(-0.0174167 0.00042337 0)
(-0.0176345 0.000362286 0)
(-0.0178181 0.000299981 0)
(-0.0179668 0.000236644 0)
(-0.0180801 0.000172467 0)
(-0.0181576 0.000107641 0)
(-0.0181989 4.23567e-05 0)
(-0.018204 -2.31925e-05 0)
(-0.0181726 -8.8807e-05 0)
(-0.0181049 -0.000154285 0)
(-0.0180009 -0.000219425 0)
(-0.017861 -0.000284021 0)
(-0.0176854 -0.000347863 0)
(-0.0174747 -0.000410737 0)
(-0.0172295 -0.000472429 0)
(-0.0169505 -0.000532715 0)
(-0.0166386 -0.000591374 0)
(-0.0162947 -0.00064818 0)
(-0.0159199 -0.000702905 0)
(-0.0155154 -0.000755317 0)
(-0.0150827 -0.000805183 0)
(-0.0146232 -0.000852267 0)
(-0.0141384 -0.000896334 0)
(-0.0136302 -0.000937149 0)
(-0.0131004 -0.000974475 0)
(-0.0125509 -0.00100808 0)
(-0.011984 -0.00103774 0)
(-0.0114019 -0.00106321 0)
(-0.0108068 -0.00108429 0)
(-0.0102014 -0.00110075 0)
(-0.00958814 -0.00111238 0)
(-0.00896978 -0.00111897 0)
(-0.00834911 -0.00112036 0)
(-0.00772903 -0.00111634 0)
(-0.00711251 -0.00110678 0)
(-0.00650261 -0.00109152 0)
(-0.00590244 -0.00107043 0)
(-0.00531516 -0.00104342 0)
(-0.00474397 -0.00101041 0)
(-0.00419208 -0.000971367 0)
(-0.00366269 -0.00092629 0)
(-0.00315896 -0.000875233 0)
(-0.00268398 -0.000818306 0)
(-0.00224075 -0.000755695 0)
(-0.00183208 -0.000687681 0)
(-0.00146059 -0.000614666 0)
(-0.0011286 -0.000537209 0)
(-0.00083805 -0.000456084 0)
(-0.000590368 -0.000372347 0)
(-0.000386324 -0.000287443 0)
(-0.000225848 -0.00020335 0)
(-0.000107785 -0.000122774 0)
(-2.96049e-05 -4.94265e-05 0)
(1.28784e-05 1.16309e-05 0)
(2.58927e-05 5.36075e-05 0)
(1.89783e-05 6.75585e-05 0)
(6.00496e-06 4.12827e-05 0)
(4.05352e-06 -5.15712e-05 0)
(6.2341e-06 -6.82235e-05 0)
(-9.46369e-06 -2.78447e-05 0)
(-5.54433e-05 4.84931e-05 0)
(-0.000140422 0.000149462 0)
(-0.000270191 0.000266603 0)
(-0.00044856 0.000393288 0)
(-0.000677719 0.000524405 0)
(-0.000958474 0.000656103 0)
(-0.00129053 0.000785504 0)
(-0.00167272 0.000910452 0)
(-0.00210317 0.00102936 0)
(-0.00257945 0.00114108 0)
(-0.00309873 0.00124477 0)
(-0.00365785 0.00133987 0)
(-0.00425342 0.00142599 0)
(-0.00488188 0.0015029 0)
(-0.00553958 0.00157048 0)
(-0.0062228 0.00162872 0)
(-0.00692777 0.00167765 0)
(-0.00765077 0.00171741 0)
(-0.00838808 0.00174814 0)
(-0.00913604 0.00177004 0)
(-0.00989105 0.00178332 0)
(-0.0106496 0.00178825 0)
(-0.0114083 0.00178508 0)
(-0.0121638 0.00177409 0)
(-0.0129129 0.00175557 0)
(-0.0136525 0.00172983 0)
(-0.0143796 0.00169716 0)
(-0.0150915 0.00165788 0)
(-0.0157852 0.0016123 0)
(-0.0164584 0.00156073 0)
(-0.0171084 0.00150349 0)
(-0.0177331 0.00144088 0)
(-0.01833 0.00137323 0)
(-0.0188973 0.00130083 0)
(-0.0194328 0.00122401 0)
(-0.0199349 0.00114306 0)
(-0.0204018 0.00105831 0)
(-0.020832 0.000970048 0)
(-0.021224 0.000878586 0)
(-0.0215765 0.00078423 0)
(-0.0218885 0.000687283 0)
(-0.0221588 0.000588049 0)
(-0.0223865 0.000486834 0)
(-0.0225709 0.000383948 0)
(-0.0227114 0.0002797 0)
(-0.0228074 0.0001744 0)
(-0.0228585 6.83632e-05 0)
(-0.0228646 -3.80925e-05 0)
(-0.0228254 -0.000144646 0)
(-0.0227411 -0.000250968 0)
(-0.0226119 -0.00035673 0)
(-0.0224379 -0.000461594 0)
(-0.0222198 -0.000565222 0)
(-0.0219581 -0.000667265 0)
(-0.0216536 -0.000767372 0)
(-0.0213072 -0.000865185 0)
(-0.0209199 -0.000960345 0)
(-0.020493 -0.00105248 0)
(-0.0200278 -0.00114123 0)
(-0.0195258 -0.00122621 0)
(-0.0189887 -0.00130706 0)
(-0.0184185 -0.00138338 0)
(-0.017817 -0.0014548 0)
(-0.0171864 -0.00152094 0)
(-0.016529 -0.00158143 0)
(-0.0158473 -0.00163588 0)
(-0.0151439 -0.00168394 0)
(-0.0144216 -0.00172523 0)
(-0.0136833 -0.00175941 0)
(-0.012932 -0.00178612 0)
(-0.012171 -0.00180504 0)
(-0.0114035 -0.00181586 0)
(-0.010633 -0.00181827 0)
(-0.00986296 -0.001812 0)
(-0.00909714 -0.00179682 0)
(-0.00833921 -0.00177249 0)
(-0.00759296 -0.00173884 0)
(-0.00686223 -0.00169573 0)
(-0.0061509 -0.00164306 0)
(-0.00546283 -0.0015808 0)
(-0.00480188 -0.00150899 0)
(-0.00417182 -0.00142774 0)
(-0.00357634 -0.00133727 0)
(-0.00301897 -0.00123793 0)
(-0.00250305 -0.00113021 0)
(-0.00203161 -0.0010148 0)
(-0.00160733 -0.000892654 0)
(-0.00123244 -0.000765035 0)
(-0.000908528 -0.000633641 0)
(-0.000636468 -0.000500726 0)
(-0.000416182 -0.00036929 0)
(-0.000246436 -0.000243312 0)
(-0.000124597 -0.000128074 0)
(-4.6364e-05 -3.05512e-05 0)
(-5.43626e-06 4.01714e-05 0)
(7.22823e-06 7.23602e-05 0)
(3.91969e-06 4.98034e-05 0)
(1.20883e-06 -5.22848e-05 0)
(-9.19855e-06 -5.29243e-05 0)
(-4.95672e-05 1.66759e-05 0)
(-0.000129397 0.000131878 0)
(-0.000256304 0.000278648 0)
(-0.00043575 0.000446391 0)
(-0.000671375 0.000626625 0)
(-0.00096517 0.000812758 0)
(-0.00131781 0.000999701 0)
(-0.00172885 0.00118354 0)
(-0.00219696 0.00136132 0)
(-0.00272001 0.00153078 0)
(-0.00329531 0.00169026 0)
(-0.00391968 0.00183853 0)
(-0.00458957 0.00197471 0)
(-0.00530116 0.00209819 0)
(-0.00605043 0.0022086 0)
(-0.00683319 0.00230571 0)
(-0.00764521 0.00238945 0)
(-0.00848218 0.00245986 0)
(-0.00933978 0.00251705 0)
(-0.0102138 0.00256122 0)
(-0.0110998 0.00259263 0)
(-0.0119939 0.00261158 0)
(-0.0128918 0.0026184 0)
(-0.0137896 0.00261346 0)
(-0.0146834 0.00259715 0)
(-0.0155694 0.00256989 0)
(-0.0164441 0.0025321 0)
(-0.0173039 0.00248421 0)
(-0.0181456 0.00242666 0)
(-0.0189658 0.00235991 0)
(-0.0197616 0.0022844 0)
(-0.0205301 0.00220059 0)
(-0.0212684 0.00210894 0)
(-0.021974 0.0020099 0)
(-0.0226444 0.00190392 0)
(-0.0232774 0.00179145 0)
(-0.0238708 0.00167295 0)
(-0.0244226 0.00154886 0)
(-0.0249309 0.00141964 0)
(-0.0253941 0.00128573 0)
(-0.0258107 0.00114758 0)
(-0.0261792 0.00100563 0)
(-0.0264986 0.000860341 0)
(-0.0267676 0.000712154 0)
(-0.0269853 0.000561524 0)
(-0.0271512 0.000408905 0)
(-0.0272644 0.000254754 0)
(-0.0273246 9.95331e-05 0)
(-0.0273316 -5.62911e-05 0)
(-0.0272851 -0.000212244 0)
(-0.0271853 -0.000367847 0)
(-0.0270324 -0.000522616 0)
(-0.0268267 -0.000676058 0)
(-0.0265687 -0.000827674 0)
(-0.0262594 -0.000976955 0)
(-0.0258994 -0.00112339 0)
(-0.0254899 -0.00126645 0)
(-0.0250322 -0.00140561 0)
(-0.0245277 -0.00154035 0)
(-0.0239779 -0.00167011 0)
(-0.0233848 -0.00179435 0)
(-0.0227502 -0.00191252 0)
(-0.0220764 -0.00202409 0)
(-0.0213657 -0.00212848 0)
(-0.0206207 -0.00222516 0)
(-0.019844 -0.00231357 0)
(-0.0190386 -0.00239318 0)
(-0.0182075 -0.00246346 0)
(-0.0173539 -0.00252387 0)
(-0.0164814 -0.00257392 0)
(-0.0155935 -0.0026131 0)
(-0.0146939 -0.00264095 0)
(-0.0137864 -0.00265703 0)
(-0.0128751 -0.0026609 0)
(-0.0119642 -0.0026522 0)
(-0.0110578 -0.00263058 0)
(-0.0101603 -0.00259574 0)
(-0.00927606 -0.00254745 0)
(-0.00840955 -0.00248552 0)
(-0.00756522 -0.00240986 0)
(-0.00674753 -0.00232044 0)
(-0.00596089 -0.00221736 0)
(-0.00520962 -0.00210083 0)
(-0.00449792 -0.0019712 0)
(-0.00382979 -0.00182904 0)
(-0.00320899 -0.00167509 0)
(-0.00263893 -0.00151042 0)
(-0.00212261 -0.00133642 0)
(-0.00166251 -0.00115492 0)
(-0.00126043 -0.000968342 0)
(-0.000917367 -0.000779809 0)
(-0.000633365 -0.000593388 0)
(-0.000407296 -0.000414345 0)
(-0.000236674 -0.000249491 0)
(-0.000117411 -0.0001076 0)
(-4.35348e-05 1.54865e-07 0)
(-7.14271e-06 5.95858e-05 0)
(1.39694e-06 5.12835e-05 0)
(-1.70645e-06 -4.45404e-05 0)
(-2.57234e-05 -1.66387e-05 0)
(-9.32379e-05 9.22798e-05 0)
(-0.00021023 0.000255151 0)
(-0.000382647 0.000455801 0)
(-0.000615372 0.000681679 0)
(-0.000911538 0.000922688 0)
(-0.00127276 0.00117082 0)
(-0.00169944 0.00141977 0)
(-0.00219086 0.00166463 0)
(-0.00274545 0.00190157 0)
(-0.00336083 0.00212767 0)
(-0.00403401 0.00234069 0)
(-0.0047615 0.00253897 0)
(-0.0055394 0.00272128 0)
(-0.00636349 0.00288676 0)
(-0.00722933 0.00303484 0)
(-0.00813232 0.00316517 0)
(-0.00906771 0.00327759 0)
(-0.0100307 0.00337212 0)
(-0.0110166 0.00344887 0)
(-0.0120205 0.00350807 0)
(-0.0130376 0.00355003 0)
(-0.0140633 0.00357514 0)
(-0.0150931 0.00358381 0)
(-0.0161223 0.00357653 0)
(-0.0171466 0.00355381 0)
(-0.0181619 0.00351619 0)
(-0.0191638 0.00346423 0)
(-0.0201487 0.00339852 0)
(-0.0211125 0.00331966 0)
(-0.0220517 0.00322823 0)
(-0.0229628 0.00312485 0)
(-0.0238426 0.00301014 0)
(-0.0246877 0.0028847 0)
(-0.0254954 0.00274917 0)
(-0.0262628 0.00260415 0)
(-0.0269872 0.00245026 0)
(-0.0276663 0.00228812 0)
(-0.0282977 0.00211834 0)
(-0.0288794 0.00194153 0)
(-0.0294094 0.00175832 0)
(-0.0298861 0.0015693 0)
(-0.0303077 0.00137509 0)
(-0.030673 0.00117632 0)
(-0.0309807 0.000973581 0)
(-0.0312297 0.000767511 0)
(-0.0314193 0.000558727 0)
(-0.0315488 0.000347856 0)
(-0.0316175 0.000135533 0)
(-0.0316253 -7.76017e-05 0)
(-0.031572 -0.000290899 0)
(-0.0314576 -0.000503703 0)
(-0.0312825 -0.000715351 0)
(-0.031047 -0.000925169 0)
(-0.0307518 -0.00113247 0)
(-0.0303977 -0.00133657 0)
(-0.0299857 -0.00153675 0)
(-0.0295171 -0.00173231 0)
(-0.0289934 -0.00192253 0)
(-0.0284161 -0.00210668 0)
(-0.0277871 -0.00228402 0)
(-0.0271084 -0.00245381 0)
(-0.0263824 -0.00261531 0)
(-0.0256114 -0.00276777 0)
(-0.0247982 -0.00291044 0)
(-0.0239457 -0.00304257 0)
(-0.023057 -0.00316344 0)
(-0.0221353 -0.00327229 0)
(-0.0211841 -0.00336843 0)
(-0.0202072 -0.00345114 0)
(-0.0192084 -0.00351974 0)
(-0.0181917 -0.00357357 0)
(-0.0171615 -0.003612 0)
(-0.016122 -0.00363444 0)
(-0.0150778 -0.00364035 0)
(-0.0140335 -0.00362921 0)
(-0.012994 -0.00360059 0)
(-0.0119641 -0.00355411 0)
(-0.0109487 -0.00348946 0)
(-0.00995278 -0.00340645 0)
(-0.00898139 -0.00330497 0)
(-0.00803948 -0.00318504 0)
(-0.00713195 -0.00304681 0)
(-0.00626361 -0.00289063 0)
(-0.0054391 -0.00271703 0)
(-0.00466285 -0.00252679 0)
(-0.00393898 -0.00232101 0)
(-0.00327127 -0.00210112 0)
(-0.00266303 -0.00186903 0)
(-0.00211697 -0.00162719 0)
(-0.00163515 -0.00137876 0)
(-0.0012188 -0.00112777 0)
(-0.000868172 -0.000879346 0)
(-0.000582414 -0.000639997 0)
(-0.000359405 -0.000417961 0)
(-0.00019553 -0.000223632 0)
(-8.54495e-05 -6.99979e-05 0)
(-2.28273e-05 2.67438e-05 0)
(-1.28557e-06 4.48403e-05 0)
(-4.55729e-06 -2.80937e-05 0)
(-4.25777e-05 4.18871e-05 0)
(-0.000138513 0.000201083 0)
(-0.00029454 0.000421011 0)
(-0.000514745 0.000683778 0)
(-0.000803114 0.00097529 0)
(-0.00116208 0.00128402 0)
(-0.00159272 0.00160066 0)
(-0.00209499 0.00191782 0)
(-0.00266784 0.00222958 0)
(-0.00330934 0.00253131 0)
(-0.00401684 0.00281937 0)
(-0.00478703 0.00309096 0)
(-0.00561609 0.00334394 0)
(-0.00649979 0.00357672 0)
(-0.00743356 0.00378816 0)
(-0.00841256 0.00397745 0)
(-0.00943178 0.00414411 0)
(-0.0104861 0.00428789 0)
(-0.0115702 0.00440875 0)
(-0.012679 0.00450679 0)
(-0.0138071 0.00458226 0)
(-0.0149493 0.00463553 0)
(-0.0161005 0.00466706 0)
(-0.0172556 0.00467736 0)
(-0.0184097 0.00466704 0)
(-0.0195579 0.00463673 0)
(-0.0206956 0.00458712 0)
(-0.0218181 0.00451892 0)
(-0.0229212 0.00443287 0)
(-0.0240006 0.00432972 0)
(-0.0250522 0.00421025 0)
(-0.0260723 0.00407525 0)
(-0.0270571 0.0039255 0)
(-0.0280031 0.00376179 0)
(-0.028907 0.00358494 0)
(-0.0297658 0.00339573 0)
(-0.0305765 0.00319497 0)
(-0.0313363 0.00298345 0)
(-0.0320428 0.00276199 0)
(-0.0326936 0.00253137 0)
(-0.0332866 0.00229239 0)
(-0.0338198 0.00204586 0)
(-0.0342914 0.00179256 0)
(-0.0347 0.00153331 0)
(-0.0350441 0.00126892 0)
(-0.0353227 0.00100018 0)
(-0.0355347 0.000727914 0)
(-0.0356793 0.000452939 0)
(-0.0357562 0.000176084 0)
(-0.0357648 -0.000101814 0)
(-0.0357051 -0.00037991 0)
(-0.0355771 -0.000657348 0)
(-0.0353811 -0.000933262 0)
(-0.0351176 -0.00120677 0)
(-0.0347873 -0.00147699 0)
(-0.0343912 -0.00174301 0)
(-0.0339303 -0.00200392 0)
(-0.0334062 -0.00225879 0)
(-0.0328203 -0.00250669 0)
(-0.0321745 -0.00274667 0)
(-0.0314709 -0.00297778 0)
(-0.0307117 -0.00319904 0)
(-0.0298995 -0.00340951 0)
(-0.029037 -0.00360821 0)
(-0.0281273 -0.00379417 0)
(-0.0271734 -0.00396643 0)
(-0.026179 -0.00412404 0)
(-0.0251475 -0.00426606 0)
(-0.024083 -0.00439155 0)
(-0.0229894 -0.00449963 0)
(-0.0218711 -0.0045894 0)
(-0.0207326 -0.00466004 0)
(-0.0195785 -0.00471074 0)
(-0.0184138 -0.00474075 0)
(-0.0172433 -0.00474937 0)
(-0.0160722 -0.00473599 0)
(-0.0149059 -0.00470004 0)
(-0.0137495 -0.00464109 0)
(-0.0126087 -0.00455875 0)
(-0.0114887 -0.00445282 0)
(-0.0103952 -0.00432318 0)
(-0.00933346 -0.00416991 0)
(-0.00830894 -0.00399326 0)
(-0.00732685 -0.0037937 0)
(-0.00639224 -0.00357199 0)
(-0.00550993 -0.00332918 0)
(-0.00468441 -0.00306669 0)
(-0.00391979 -0.0027864 0)
(-0.00321966 -0.00249075 0)
(-0.00258708 -0.00218282 0)
(-0.00202436 -0.00186653 0)
(-0.00153304 -0.0015468 0)
(-0.00111373 -0.00122977 0)
(-0.000765967 -0.000923117 0)
(-0.000488183 -0.000636363 0)
(-0.000277431 -0.000381313 0)
(-0.000129216 -0.000172453 0)
(-3.90234e-05 -2.75354e-05 0)
(-3.98015e-06 3.00965e-05 0)
(-7.30455e-06 -2.96627e-06 0)
(-5.9338e-05 0.000123101 0)
(-0.000184133 0.000344174 0)
(-0.00038013 0.000630935 0)
(-0.000649354 0.000964333 0)
(-0.000994761 0.00132903 0)
(-0.00141795 0.0017123 0)
(-0.0019193 0.00210373 0)
(-0.0024982 0.0024949 0)
(-0.00315316 0.002879 0)
(-0.00388185 0.00325059 0)
(-0.00468127 0.00360538 0)
(-0.00554775 0.00393997 0)
(-0.00647716 0.00425177 0)
(-0.0074649 0.00453878 0)
(-0.00850606 0.00479956 0)
(-0.00959544 0.00503309 0)
(-0.0107277 0.00523871 0)
(-0.0118972 0.00541607 0)
(-0.0130984 0.00556505 0)
(-0.0143256 0.00568574 0)
(-0.0155731 0.00577842 0)
(-0.0168354 0.00584349 0)
(-0.0181068 0.00588149 0)
(-0.0193819 0.00589304 0)
(-0.0206552 0.00587886 0)
(-0.0219216 0.00583971 0)
(-0.0231759 0.00577643 0)
(-0.0244132 0.00568989 0)
(-0.0256288 0.00558101 0)
(-0.026818 0.0054507 0)
(-0.0279764 0.00529994 0)
(-0.0290998 0.00512969 0)
(-0.0301842 0.00494094 0)
(-0.0312258 0.00473468 0)
(-0.032221 0.0045119 0)
(-0.0331663 0.0042736 0)
(-0.0340586 0.00402079 0)
(-0.034895 0.00375447 0)
(-0.0356725 0.00347565 0)
(-0.0363887 0.00318532 0)
(-0.0370412 0.00288449 0)
(-0.0376279 0.00257416 0)
(-0.0381469 0.00225533 0)
(-0.0385964 0.00192903 0)
(-0.0389751 0.00159627 0)
(-0.0392815 0.00125805 0)
(-0.0395147 0.000915402 0)
(-0.0396739 0.000569366 0)
(-0.0397584 0.000220979 0)
(-0.0397679 -0.000128705 0)
(-0.0397022 -0.000478623 0)
(-0.0395614 -0.000827698 0)
(-0.0393458 -0.00117484 0)
(-0.0390559 -0.00151894 0)
(-0.0386926 -0.00185889 0)
(-0.0382568 -0.00219355 0)
(-0.0377499 -0.00252176 0)
(-0.0371732 -0.00284238 0)
(-0.0365287 -0.00315422 0)
(-0.0358182 -0.0034561 0)
(-0.0350441 -0.00374682 0)
(-0.0342088 -0.00402519 0)
(-0.0333152 -0.00428998 0)
(-0.0323661 -0.00454 0)
(-0.0313649 -0.00477404 0)
(-0.0303151 -0.0049909 0)
(-0.0292205 -0.00518938 0)
(-0.0280849 -0.00536832 0)
(-0.0269127 -0.00552657 0)
(-0.0257084 -0.00566301 0)
(-0.0244765 -0.00577655 0)
(-0.023222 -0.00586617 0)
(-0.02195 -0.00593086 0)
(-0.0206657 -0.00596973 0)
(-0.0193745 -0.00598191 0)
(-0.0180821 -0.00596666 0)
(-0.0167942 -0.00592331 0)
(-0.0155164 -0.00585133 0)
(-0.0142548 -0.0057503 0)
(-0.0130152 -0.00561997 0)
(-0.0118035 -0.00546026 0)
(-0.0106256 -0.0052713 0)
(-0.00948719 -0.00505345 0)
(-0.00839401 -0.00480735 0)
(-0.00735145 -0.00453397 0)
(-0.00636471 -0.00423465 0)
(-0.00543862 -0.00391118 0)
(-0.00457764 -0.0035659 0)
(-0.00378571 -0.00320176 0)
(-0.00306619 -0.00282251 0)
(-0.00242178 -0.0024328 0)
(-0.00185436 -0.0020384 0)
(-0.001365 -0.00164641 0)
(-0.000953776 -0.00126555 0)
(-0.000619778 -0.000906475 0)
(-0.000360876 -0.000582176 0)
(-0.000173562 -0.000308333 0)
(-5.52491e-05 -0.000103834 0)
(-6.61045e-06 6.98722e-06 0)
(-9.92494e-06 3.06479e-05 0)
(-7.5752e-05 0.000227015 0)
(-0.000229367 0.000521851 0)
(-0.00046556 0.000885584 0)
(-0.000784281 0.00129837 0)
(-0.0011874 0.00174392 0)
(-0.00167556 0.00220855 0)
(-0.00224833 0.00268091 0)
(-0.00290446 0.00315168 0)
(-0.00364191 0.00361324 0)
(-0.00445791 0.00405943 0)
(-0.005349 0.00448528 0)
(-0.00631118 0.00488687 0)
(-0.00733992 0.00526111 0)
(-0.00843028 0.00560565 0)
(-0.009577 0.00591872 0)
(-0.0107745 0.00619907 0)
(-0.0120171 0.00644586 0)
(-0.0132988 0.00665862 0)
(-0.0146137 0.00683717 0)
(-0.0159557 0.00698156 0)
(-0.0173188 0.0070921 0)
(-0.0186969 0.00716922 0)
(-0.0200841 0.00721354 0)
(-0.0214745 0.00722579 0)
(-0.0228624 0.00720679 0)
(-0.0242421 0.00715746 0)
(-0.0256082 0.00707878 0)
(-0.0269553 0.0069718 0)
(-0.0282784 0.00683761 0)
(-0.0295724 0.00667732 0)
(-0.0308327 0.00649209 0)
(-0.0320547 0.0062831 0)
(-0.0332341 0.00605152 0)
(-0.0343668 0.00579857 0)
(-0.0354488 0.00552546 0)
(-0.0364765 0.0052334 0)
(-0.0374465 0.00492361 0)
(-0.0383555 0.00459731 0)
(-0.0392006 0.00425573 0)
(-0.039979 0.00390009 0)
(-0.0406881 0.00353161 0)
(-0.0413257 0.00315153 0)
(-0.0418897 0.00276108 0)
(-0.0423781 0.00236149 0)
(-0.0427896 0.00195399 0)
(-0.0431226 0.00153985 0)
(-0.0433761 0.0011203 0)
(-0.0435491 0.000696618 0)
(-0.043641 0.000270076 0)
(-0.0436514 -0.000158038 0)
(-0.0435801 -0.000586423 0)
(-0.0434273 -0.00101376 0)
(-0.0431932 -0.00143872 0)
(-0.0428785 -0.00185995 0)
(-0.0424839 -0.00227608 0)
(-0.0420107 -0.00268573 0)
(-0.0414601 -0.0030875 0)
(-0.0408338 -0.00347997 0)
(-0.0401336 -0.0038617 0)
(-0.0393619 -0.00423126 0)
(-0.0385209 -0.00458718 0)
(-0.0376133 -0.004928 0)
(-0.0366423 -0.00525225 0)
(-0.035611 -0.00555846 0)
(-0.0345228 -0.00584517 0)
(-0.0333817 -0.00611092 0)
(-0.0321916 -0.00635426 0)
(-0.0309568 -0.00657379 0)
(-0.029682 -0.00676812 0)
(-0.0283718 -0.00693588 0)
(-0.0270313 -0.00707578 0)
(-0.0256658 -0.00718657 0)
(-0.0242807 -0.00726708 0)
(-0.0228818 -0.00731619 0)
(-0.0214747 -0.00733292 0)
(-0.0200655 -0.00731636 0)
(-0.0186603 -0.00726575 0)
(-0.0172653 -0.00718045 0)
(-0.0158867 -0.00706001 0)
(-0.014531 -0.00690415 0)
(-0.0132044 -0.00671283 0)
(-0.0119131 -0.00648623 0)
(-0.0106634 -0.00622483 0)
(-0.00946116 -0.00592946 0)
(-0.00831233 -0.00560131 0)
(-0.00722242 -0.00524202 0)
(-0.00619662 -0.00485376 0)
(-0.00523974 -0.00443932 0)
(-0.0043561 -0.0040022 0)
(-0.00354942 -0.00354676 0)
(-0.0028228 -0.00307835 0)
(-0.00217861 -0.00260356 0)
(-0.00161841 -0.00213034 0)
(-0.00114292 -0.00166836 0)
(-0.000751984 -0.00122923 0)
(-0.000444392 -0.000826928 0)
(-0.000217683 -0.000478037 0)
(-7.12255e-05 -0.000202229 0)
(-9.14089e-06 -2.43738e-05 0)
(-1.24135e-05 7.25197e-05 0)
(-9.17093e-05 0.000353305 0)
(-0.000273774 0.000733971 0)
(-0.000549923 0.00118504 0)
(-0.000918121 0.00168614 0)
(-0.00137909 0.00222035 0)
(-0.00193245 0.00277322 0)
(-0.00257691 0.00333262 0)
(-0.00331051 0.00388848 0)
(-0.00413058 0.00443245 0)
(-0.00503382 0.00495769 0)
(-0.00601633 0.00545866 0)
(-0.00707366 0.0059309 0)
(-0.00820091 0.00637089 0)
(-0.00939275 0.00677588 0)
(-0.0106436 0.00714382 0)
(-0.0119474 0.00747321 0)
(-0.0132983 0.00776304 0)
(-0.0146898 0.00801271 0)
(-0.0161156 0.00822196 0)
(-0.0175695 0.00839083 0)
(-0.0190448 0.00851962 0)
(-0.0205353 0.00860882 0)
(-0.0220346 0.00865912 0)
(-0.0235366 0.00867135 0)
(-0.025035 0.00864646 0)
(-0.026524 0.00858551 0)
(-0.0279977 0.00848965 0)
(-0.0294505 0.0083601 0)
(-0.0308768 0.00819812 0)
(-0.0322715 0.00800505 0)
(-0.0336295 0.00778224 0)
(-0.034946 0.00753108 0)
(-0.0362164 0.00725298 0)
(-0.0374362 0.00694936 0)
(-0.0386013 0.00662167 0)
(-0.0397078 0.00627134 0)
(-0.0407521 0.00589983 0)
(-0.0417306 0.0055086 0)
(-0.0426402 0.00509911 0)
(-0.043478 0.00467282 0)
(-0.0442412 0.00423119 0)
(-0.0449274 0.00377568 0)
(-0.0455343 0.00330779 0)
(-0.0460601 0.00282897 0)
(-0.0465029 0.00234072 0)
(-0.0468613 0.00184452 0)
(-0.0471342 0.00134187 0)
(-0.0473205 0.000834286 0)
(-0.0474196 0.000323298 0)
(-0.0474311 -0.000189557 0)
(-0.0473547 -0.000702723 0)
(-0.0471905 -0.00121462 0)
(-0.046939 -0.00172367 0)
(-0.0466007 -0.00222824 0)
(-0.0461766 -0.0027267 0)
(-0.0456677 -0.0032174 0)
(-0.0450757 -0.00369867 0)
(-0.0444022 -0.00416881 0)
(-0.0436492 -0.00462612 0)