/*--------------------------------*- C++ -*----------------------------------*\
| =========                 |                                                 |
| \\      /  F ield         | OpenFOAM: The Open Source CFD Toolbox           |
|  \\    /   O peration     | Version:  2212                                  |
|   \\  /    A nd           | Website:  www.openfoam.com                      |
|    \\/     M anipulation  |                                                 |
\*---------------------------------------------------------------------------*/
FoamFile
{
    version     2.0;
    format      ascii;
    arch        "LSB;label=32;scalar=64";
    class       volScalarField;
    location    "0.0495";
    object      p;
}
// * * * * * * * * * * * * * * * * * * * * * * * * * * * * * * * * * * * * * //

dimensions      [0 2 -2 0 0 0 0];

internalField   nonuniform List<scalar> 
10000
(
-2.48732e-08
7.69781e-05
-0.00013867
-0.000687378
-0.0015166
-0.00256997
-0.00379465
-0.00514144
-0.00656605
-0.00802981
-0.00949875
-0.0109433
-0.0123379
-0.0136602
-0.0148912
-0.0160145
-0.0170158
-0.0178831
-0.0186064
-0.0191776
-0.0195898
-0.0198379
-0.0199176
-0.0198264
-0.0195626
-0.0191258
-0.0185163
-0.0177353
-0.0167847
-0.0156672
-0.0143862
-0.0129456
-0.01135
-0.00960462
-0.00771507
-0.00568738
-0.00352802
-0.00124387
0.0011578
0.00366941
0.00628305
0.00899039
0.0117828
0.0146516
0.0175876
0.0205817
0.0236244
0.026706
0.0298167
0.0329466
0.0360855
0.0392234
0.0423501
0.0454553
0.0485289
0.0515606
0.0545403
0.0574579
0.0603035
0.0630673
0.0657396
0.0683111
0.0707728
0.0731159
0.0753321
0.0774133
0.0793519
0.0811409
0.0827739
0.0842449
0.0855488
0.0866811
0.0876378
0.0884162
0.0890143
0.0894311
0.0896664
0.0897215
0.0895986
0.0893012
0.0888343
0.0882043
0.0874193
0.0864889
0.0854247
0.0842403
0.0829516
0.0815768
0.0801367
0.078655
0.0771587
0.0756785
0.0742494
0.0729106
0.071706
0.0706837
0.0698932
0.0693827
0.0691937
0.0692841
-7.76175e-05
-1.08963e-05
-0.000222913
-0.000711761
-0.00142766
-0.00233145
-0.00338488
-0.00454904
-0.00578725
-0.00706596
-0.00835502
-0.00962756
-0.0108597
-0.0120306
-0.0131221
-0.0141183
-0.0150054
-0.0157716
-0.0164069
-0.016903
-0.0172531
-0.0174517
-0.0174947
-0.0173789
-0.0171024
-0.0166644
-0.0160648
-0.0153045
-0.0143851
-0.0133087
-0.0120785
-0.0106978
-0.00917097
-0.00750263
-0.00569803
-0.00376277
-0.00170287
0.000475212
0.00276473
0.00515851
0.00764904
0.0102284
0.0128885
0.0156209
0.0184171
0.0212685
0.0241659
0.0271002
0.030062
0.0330418
0.0360299
0.0390169
0.041993
0.0449486
0.047874
0.0507594
0.053595
0.0563716
0.0590798
0.0617101
0.0642536
0.0667013
0.069045
0.0712762
0.0733874
0.0753709
0.0772197
0.0789272
0.0804876
0.0818956
0.0831464
0.0842359
0.0851607
0.0859186
0.0865078
0.0869278
0.0871789
0.0872624
0.0871809
0.0869381
0.0865391
0.0859905
0.0853003
0.084478
0.0835348
0.0824842
0.0813414
0.0801237
0.0788508
0.0775447
0.0762305
0.0749358
0.0736916
0.0725316
0.0714922
0.0706114
0.0699255
0.0694683
0.0692835
0.0693743
0.000126285
0.000180469
-3.3766e-05
-0.000492186
-0.00114368
-0.00195669
-0.00290046
-0.0039429
-0.00505268
-0.00620064
-0.00735999
-0.00850625
-0.00961759
-0.0106746
-0.01166
-0.0125587
-0.0133576
-0.0140452
-0.0146117
-0.0150488
-0.0153498
-0.0155093
-0.0155228
-0.0153874
-0.0151007
-0.0146617
-0.0140701
-0.0133265
-0.0124322
-0.0113891
-0.0101999
-0.00886781
-0.00739672
-0.00579099
-0.00405545
-0.00219537
-0.00021645
0.00187523
0.0040733
0.006371
0.00876109
0.011236
0.013788
0.0164092
0.0190913
0.0218262
0.024605
0.027419
0.0302593
0.0331166
0.0359819
0.0388458
0.0416993
0.044533
0.0473377
0.050104
0.0528227
0.0554847
0.0580813
0.0606034
0.0630424
0.0653899
0.0676379
0.0697788
0.0718051
0.0737097
0.075486
0.0771279
0.07863
0.0799872
0.0811954
0.0822505
0.0831498
0.0838911
0.0844732
0.0848956
0.0851589
0.0852647
0.0852156
0.0850156
0.0846697
0.0841845
0.0835677
0.0828287
0.0819783
0.0810296
0.0799969
0.0788969
0.0777478
0.0765701
0.0753868
0.0742229
0.0731059
0.0720652
0.0711317
0.0703372
0.0697112
0.069282
0.0690978
0.0691861
0.000643562
0.00064028
0.000396496
-6.0652e-05
-0.000686001
-0.00145154
-0.00233075
-0.00329589
-0.0043198
-0.005377
-0.00644344
-0.00749712
-0.00851822
-0.00948871
-0.0103925
-0.0112154
-0.0119449
-0.0125701
-0.0130817
-0.0134716
-0.013733
-0.0138608
-0.0138505
-0.013699
-0.0134041
-0.0129645
-0.0123799
-0.0116504
-0.0107774
-0.00976237
-0.00860779
-0.00731674
-0.00589283
-0.00434007
-0.002663
-0.000866664
0.00104355
0.00306193
0.00518239
0.00739842
0.00970311
0.0120892
0.0145493
0.017076
0.0196612
0.0222969
0.0249749
0.0276867
0.0304237
0.033177
0.0359379
0.0386974
0.0414469
0.0441773
0.0468798
0.0495452
0.0521649
0.0547302
0.0572324
0.0596632
0.062014
0.0642771
0.0664448
0.0685097
0.0704646
0.072303
0.0740186
0.0756055
0.0770586
0.0783735
0.0795459
0.0805723
0.0814501
0.0821775
0.0827533
0.0831773
0.0834502
0.0835736
0.0835504
0.0833845
0.0830808
0.0826459
0.082087
0.0814133
0.0806352
0.079765
0.0788166
0.0778052
0.0767481
0.075664
0.0745741
0.0735008
0.0724687
0.0715034
0.0706322
0.0698825
0.06928
0.0688506
0.0686396
0.0686774
0.00143492
0.00132632
0.0010217
0.000540306
-8.5098e-05
-0.000829936
-0.0016709
-0.0025841
-0.00354629
-0.00453498
-0.00552901
-0.00650884
-0.00745634
-0.00835517
-0.00919055
-0.00994919
-0.0106193
-0.0111908
-0.0116546
-0.0120032
-0.0122302
-0.0123301
-0.0122989
-0.0121335
-0.0118317
-0.0113921
-0.0108141
-0.010098
-0.00924475
-0.00825578
-0.00713336
-0.00588037
-0.00450013
-0.00299645
-0.00137362
0.000363602
0.00221011
0.00416051
0.00620896
0.00834917
0.0105745
0.0128781
0.015253
0.0176918
0.0201869
0.0227306
0.025315
0.0279319
0.0305731
0.0332299
0.0358939
0.0385567
0.0412099
0.0438446
0.0464524
0.0490246
0.0515527
0.0540285
0.0564438
0.0587901
0.0610598
0.0632451
0.0653388
0.0673336
0.069223
0.0710005
0.0726602
0.0741967
0.075605
0.0768809
0.0780204
0.0790203
0.0798783
0.0805926
0.0811623
0.0815871
0.0818679
0.0820065
0.0820057
0.0818693
0.0816022
0.0812105
0.0807014
0.0800834
0.0793666
0.0785626
0.0776842
0.0767459
0.0757632
0.0747537
0.0737361
0.0727309
0.0717597
0.070845
0.0700104
0.0692797
0.0686756
0.0682213
0.0679515
0.0678886
0.00245631
0.00220729
0.00181513
0.00128636
0.000637457
-0.000110182
-0.000936134
-0.00182017
-0.00274216
-0.0036827
-0.00462338
-0.00554672
-0.0064365
-0.00727797
-0.00805762
-0.00876326
-0.009384
-0.00991029
-0.0103337
-0.0106472
-0.0108445
-0.0109208
-0.0108719
-0.0106948
-0.0103874
-0.00994836
-0.00937701
-0.0086735
-0.00783859
-0.00687369
-0.00578092
-0.00456296
-0.00322289
-0.00176431
-0.000191353
0.0014915
0.00327944
0.00516734
0.00714954
0.00921997
0.0113723
0.0136001
0.0158964
0.0182544
0.0206666
0.0231257
0.0256241
0.0281537
0.0307067
0.0332748
0.0358498
0.0384239
0.0409885
0.0435355
0.0460564
0.0485432
0.0509875
0.0533815
0.0557171
0.0579864
0.0601818
0.0622961
0.0643223
0.0662534
0.068083
0.0698051
0.071414
0.0729046
0.0742721
0.0755124
0.0766219
0.0775976
0.0784373
0.0791394
0.0797029
0.0801278
0.0804149
0.0805661
0.0805841
0.0804725
0.0802362
0.0798808
0.0794133
0.0788417
0.0781755
0.0774255
0.0766038
0.0757234
0.0747989
0.0738458
0.0728813
0.0719236
0.0709917
0.0701052
0.0692846
0.0685501
0.0679219
0.0674204
0.067065
0.0668654
0.00366113
0.00324844
0.00274849
0.00215277
0.00146021
0.000689193
-0.00014247
-0.00101759
-0.00191916
-0.00283047
-0.00373541
-0.00461871
-0.00546597
-0.00626389
-0.00700023
-0.00766393
-0.00824508
-0.00873478
-0.00912524
-0.00940977
-0.00958271
-0.00963938
-0.00957598
-0.0093896
-0.00907817
-0.00864037
-0.0080756
-0.00738388
-0.0065659
-0.00562306
-0.00455736
-0.00337125
-0.0020677
-0.000650126
0.000877533
0.00251105
0.00424585
0.00607697
0.00799895
0.010006
0.0120921
0.0142509
0.016476
0.0187605
0.0210975
0.0234798
0.0258999
0.0283504
0.0308233
0.033311
0.0358055
0.038299
0.0407835
0.043251
0.0456935
0.048103
0.0504716
0.0527916
0.0550554
0.0572552
0.0593838
0.0614342
0.0633996
0.0652734
0.0670493
0.0687217
0.070285
0.0717344
0.0730652
0.0742736
0.0753561
0.0763099
0.0771329
0.0778236
0.078381
0.0788052
0.0790969
0.079258
0.0792912
0.0791998
0.0789885
0.0786625
0.0782285
0.077694
0.0770678
0.0763601
0.0755817
0.0747449
0.0738625
0.072949
0.0720196
0.0710903
0.0701779
0.0692995
0.0684724
0.067714
0.067042
0.0664742
0.0660132
0.0656535
0.00500488
0.00441442
0.00379199
0.00311409
0.00236155
0.00154997
0.000695419
-0.000188075
-0.00108625
-0.00198471
-0.00286951
-0.00372738
-0.00454566
-0.00531245
-0.00601681
-0.00664876
-0.00719931
-0.00766034
-0.00802471
-0.00828625
-0.00843971
-0.00848078
-0.00840596
-0.00821252
-0.00789852
-0.00746271
-0.00690447
-0.00622386
-0.00542156
-0.00449892
-0.00345781
-0.00230058
-0.00103009
0.000350367
0.00183708
0.00342606
0.00511288
0.00689269
0.00876025
0.01071
0.0127363
0.0148329
0.0169936
0.0192118
0.0214808
0.0237937
0.0261433
0.0285222
0.030923
0.0333382
0.0357601
0.0381811
0.0405935
0.0429895
0.0453614
0.0477015
0.0500022
0.0522559
0.0544552
0.0565927
0.0586616
0.0606548
0.0625659
0.0643885
0.0661166
0.0677447
0.0692674
0.07068
0.0719782
0.073158
0.0742163
0.0751504
0.0759582
0.0766383
0.0771897
0.0776124
0.0779072
0.0780758
0.0781207
0.0780452
0.0778533
0.0775504
0.0771423
0.0766364
0.0760406
0.0753642
0.0746173
0.0738109
0.0729567
0.0720676
0.0711573
0.0702399
0.0693299
0.0684421
0.0675914
0.0667922
0.0660605
0.0654114
0.06483
0.064296
0.00644816
0.00567213
0.00491745
0.00414589
0.00332035
0.00245449
0.00156268
0.000656258
-0.000252926
-0.00115264
-0.00203091
-0.00287623
-0.0036775
-0.00442428
-0.0051069
-0.00571636
-0.00624452
-0.00668416
-0.00702879
-0.00727278
-0.00741136
-0.00744057
-0.00735725
-0.0071589
-0.00684374
-0.00641058
-0.00585887
-0.00518875
-0.00440094
-0.00349672
-0.00247787
-0.00134671
-0.00010603
0.00124105
0.00269102
0.00424001
0.00588373
0.00761748
0.0094362
0.0113346
0.0133071
0.0153479
0.0174508
0.0196095
0.0218176
0.0240683
0.0263547
0.0286695
0.0310057
0.0333559
0.0357129
0.0380691
0.040417
0.0427492
0.0450581
0.0473364
0.0495765
0.0517712
0.0539132
0.0559955
0.0580112
0.0599539
0.0618169
0.0635942
0.0652799
0.0668688
0.0683558
0.0697359
0.0710051
0.0721597
0.0731965
0.074113
0.0749071
0.0755773
0.0761228
0.0765434
0.0768398
0.0770136
0.0770671
0.0770034
0.0768261
0.0765403
0.0761514
0.0756662
0.0750919
0.0744371
0.0737108
0.0729231
0.0720845
0.0712066
0.0703015
0.0693815
0.0684593
0.0675475
0.0666587
0.0658049
0.0650005
0.0642587
0.0635471
0.0628312
0.0079567
0.006992
0.00609889
0.00522514
0.00431676
0.00338557
0.0024446
0.00150309
0.000570703
-0.000342403
-0.00122598
-0.00207004
-0.00286497
-0.0036017
-0.0042717
-0.004867
-0.00538033
-0.00580522
-0.00613593
-0.0063674
-0.00649534
-0.00651617
-0.00642706
-0.00622581
-0.00591077
-0.00548086
-0.00493567
-0.00427546
-0.00350096
-0.00261342
-0.00161462
-0.000506841
0.000707204
0.00202453
0.00344179
0.00495519
0.00656053
0.00825326
0.0100285
0.0118813
0.013806
0.0157971
0.0178486
0.0199545
0.0221085
0.0243039
0.026534
0.028792
0.0310709
0.0333637
0.0356631
0.0379619
0.0402528
0.0425286
0.044782
0.0470057
0.0491924
0.0513351
0.0534267
0.0554605
0.0574297
0.0593279
0.0611489
0.0628866
0.0645354
0.0660902
0.0675458
0.0688976
0.0701415
0.071274
0.0722921
0.073193
0.0739749
0.0746362
0.0751759
0.0755938
0.0758905
0.0760675
0.0761268
0.0760711
0.0759039
0.0756298
0.075254
0.0747822
0.0742215
0.0735793
0.0728639
0.0720844
0.0712504
0.070372
0.0694598
0.0685248
0.0675777
0.0666296
0.0656908
0.0647712
0.063884
0.063041
0.062193
0.0612919
0.00950123
0.00834763
0.00731254
0.00633079
0.00533199
0.00432665
0.00332696
0.00234026
0.00137429
0.000437468
-0.000461519
-0.00131415
-0.00211216
-0.00284765
-0.0035132
-0.00410181
-0.00460711
-0.00502334
-0.00534543
-0.00556897
-0.00569014
-0.00570578
-0.00561339
-0.00541103
-0.00509723
-0.00467111
-0.00413241
-0.00348151
-0.00271913
-0.00184655
-0.000865627
0.000221344
0.00141183
0.00270297
0.00409143
0.00557346
0.00714498
0.00880164
0.0105388
0.0123513
0.014234
0.0161814
0.0181878
0.0202473
0.0223537
0.0245005
0.0266814
0.0288895
0.0311183
0.0333607
0.0356097
0.0378583
0.0400995
0.0423261
0.0445311
0.0467074
0.0488477
0.0509452
0.0529932
0.054985
0.0569141
0.058774
0.0605587
0.0622623
0.0638795
0.065405
0.0668337
0.0681613
0.0693836
0.0704972
0.071499
0.0723866
0.0731577
0.0738108
0.074345
0.0747598
0.0750558
0.0752342
0.0752966
0.0752457
0.0750846
0.0748174
0.0744488
0.0739842
0.0734297
0.0727921
0.072079
0.0712985
0.0704591
0.0695699
0.0686401
0.0676793
0.0666967
0.0657017
0.0647031
0.0637088
0.0627311
0.0617807
0.0607929
0.0597063
0.0110567
0.00971575
0.00853726
0.00744346
0.00634853
0.00526228
0.00419617
0.00315586
0.00214756
0.0011783
0.000255236
-0.000614483
-0.00142376
-0.00216573
-0.00283404
-0.00342263
-0.00392595
-0.004339
-0.00465731
-0.00487707
-0.00499496
-0.00500829
-0.00491487
-0.00471296
-0.00440136
-0.00397947
-0.00344719
-0.00280486
-0.00205338
-0.00119414
-0.00022902
0.000839789
0.00200979
0.00327815
0.00464156
0.00609635
0.00763857
0.00926396
0.010968
0.0127457
0.014592
0.0165016
0.0184689
0.0204882
0.0225534
0.0246582
0.0267965
0.0289617
0.0311472
0.0333462
0.0355518
0.0377572
0.0399557
0.0421402
0.0443038
0.0464394
0.0485402
0.0505993
0.0526103
0.0545665
0.0564615
0.058289
0.0600432
0.0617183
0.0633088
0.0648097
0.0662161
0.0675233
0.0687276
0.0698254
0.0708138
0.07169
0.0724519
0.0730978
0.0736268
0.0740384
0.0743327
0.0745108
0.0745743
0.0745252
0.0743665
0.0741019
0.0737356
0.0732722
0.0727174
0.0720774
0.0713589
0.0705692
0.0697158
0.0688068
0.0678503
0.0668544
0.0658272
0.0647768
0.0637103
0.0626341
0.0615602
0.0604983
0.0593689
0.0580983
0.0126012
0.0110759
0.00975382
0.00854531
0.00735019
0.00617778
0.0050391
0.0039384
0.00288057
0.00187139
0.00091675
2.2651e-05
-0.000804936
-0.00156017
-0.00223758
-0.00283204
-0.00333873
-0.00375342
-0.00407224
-0.00429193
-0.00440973
-0.00442328
-0.00433071
-0.00413065
-0.00382213
-0.00340474
-0.00287856
-0.00224409
-0.00150232
-0.000654751
0.000296729
0.00134996
0.00250246
0.00375139
0.00509345
0.00652506
0.00804236
0.00964117
0.011317
0.0130651
0.0148805
0.016758
0.0186921
0.0206773
0.0227075
0.0247768
0.026879
0.0290079
0.0311568
0.0333192
0.0354883
0.0376575
0.0398201
0.0419693
0.0440983
0.0462001
0.0482679
0.0502952
0.0522756
0.0542024
0.0560694
0.0578705
0.0595997
0.0612515
0.0628205
0.0643015
0.0656897
0.0669807
0.0681705
0.0692557
0.0702332
0.0711002
0.0718545
0.0724944
0.0730188
0.0734269
0.073719
0.0738956
0.0739581
0.0739084
0.073749
0.0734831
0.0731144
0.0726472
0.0720864
0.0714377
0.070707
0.0699009
0.0690261
0.0680895
0.0670982
0.0660595
0.0649801
0.0638671
0.0627261
0.0615626
0.060388
0.0592119
0.0579404
0.0564884
0.0141165
0.0124099
0.0109448
0.00962024
0.00832203
0.00705939
0.00584328
0.00467674
0.00356345
0.0025081
0.00151555
0.000590797
-0.000261201
-0.00103556
-0.00172764
-0.00233311
-0.00284792
-0.00326848
-0.00359162
-0.00381453
-0.00393493
-0.00395091
-0.00386088
-0.00366376
-0.00335896
-0.00294624
-0.00242578
-0.00179831
-0.00106499
-0.000227405
0.00071261
0.00175288
0.00289084
0.00412362
0.00544799
0.00686043
0.00835711
0.00993391
0.0115864
0.01331
0.0150999
0.0169509
0.0188576
0.0208145
0.0228159
0.0248559
0.0269286
0.0290276
0.0311465
0.0332788
0.0354181
0.0375578
0.0396913
0.041812
0.0439129
0.0459874
0.0480289
0.0500309
0.0519869
0.0538905
0.0557355
0.0575158
0.0592256
0.0608594
0.0624117
0.0638775
0.0652519
0.0665306
0.0677096
0.0687853
0.0697546
0.0706146
0.0713631
0.0719982
0.0725187
0.0729236
0.0732129
0.0733871
0.0734471
0.0733946
0.0732316
0.072961
0.0725861
0.0721105
0.0715389
0.0708759
0.0701272
0.0692984
0.0683955
0.0674245
0.0663918
0.0653035
0.0641656
0.0629839
0.0617633
0.0605081
0.0592296
0.0579376
0.0565243
0.0548939
0.0155864
0.0137019
0.0120949
0.0106535
0.00925023
0.00789431
0.00659694
0.00536015
0.00418652
0.00307983
0.00204408
0.00108333
0.000201678
-0.000596839
-0.00130838
-0.00192936
-0.00245645
-0.00288661
-0.00321732
-0.00344635
-0.00357174
-0.00359191
-0.00350577
-0.00331259
-0.00301193
-0.00260376
-0.00208853
-0.00146718
-0.000740981
8.84601e-05
0.00101924
0.00204911
0.00317546
0.00439539
0.00570569
0.00710289
0.00858319
0.0101425
0.0117765
0.0134807
0.0152503
0.0170801
0.0189651
0.0208996
0.0228782
0.0248951
0.0269444
0.0290198
0.0311152
0.033224
0.0353401
0.0374569
0.0395679
0.0416665
0.043746
0.0457998
0.0478214
0.0498043
0.0517422
0.0536286
0.0554574
0.0572227
0.0589186
0.0605396
0.0620802
0.0635354
0.0649004
0.0661708
0.0673426
0.068412
0.0693759
0.0702313
0.0709758
0.0716075
0.0721249
0.0725271
0.0728135
0.0729846
0.0730409
0.0729836
0.0728148
0.0725366
0.072152
0.0716643
0.0710773
0.0703955
0.0696235
0.0687665
0.0678298
0.0668188
0.0657388
0.0645953
0.0633934
0.0621382
0.0608337
0.0594833
0.0580987
0.0566895
0.0551354
0.0533298
0.0169967
0.0149377
0.0131901
0.0116317
0.0101221
0.00867072
0.00728901
0.0059783
0.00474034
0.00357807
0.00249466
0.00149343
0.000577703
-0.000249314
-0.000984471
-0.00162481
-0.00216768
-0.00261074
-0.00295189
-0.00318935
-0.00332164
-0.00334762
-0.0032665
-0.00307786
-0.00278152
-0.00237769
-0.00186708
-0.00125083
-0.000530275
0.000292925
0.00121675
0.00223882
0.00335646
0.00456681
0.00586669
0.00725257
0.00872067
0.010267
0.0118872
0.013577
0.0153314
0.0171455
0.0190142
0.0209322
0.0228939
0.0248937
0.0269257
0.0289839
0.031062
0.0331538
0.035253
0.0373534
0.0394484
0.0415315
0.043596
0.0456355
0.0476435
0.0496136
0.0515394
0.0534147
0.0552332
0.0569891
0.0586765
0.0602899
0.0618238
0.0632731
0.064633
0.0658992
0.0670674
0.0681339
0.0690953
0.0699485
0.0706911
0.071321
0.0718365
0.0722365
0.0725202
0.0726876
0.0727392
0.0726759
0.0724993
0.0722112
0.0718141
0.0713109
0.0707048
0.0699998
0.0692002
0.0683104
0.067335
0.0662789
0.0651467
0.0639431
0.0626728
0.0613401
0.0599482
0.0585
0.0570074
0.0554805
0.0537865
0.0518088
0.018335
0.0161048
0.014218
0.0125426
0.0109258
0.00937734
0.00790896
0.00652142
0.00521581
0.00399445
0.00285973
0.00181421
0.000860591
1.44496e-06
-0.000760782
-0.00142383
-0.00198557
-0.00244421
-0.00279816
-0.00304605
-0.00318684
-0.00321983
-0.00314456
-0.00296083
-0.00266875
-0.00226889
-0.00176218
-0.00114984
-0.00043328
0.000385662
0.0013048
0.00232167
0.00343361
0.00463773
0.00593077
0.00730921
0.00876927
0.010307
0.0119182
0.0135984
0.0153428
0.0171465
0.0190045
0.0209115
0.0228621
0.0248508
0.0268716
0.0289186
0.0309857
0.0330668
0.0351557
0.037246
0.0393314
0.0414052
0.0434612
0.0454928
0.0474935
0.0494569
0.0513767
0.0532467
0.0550608
0.056813
0.0584973
0.0601083
0.0616404
0.0630885
0.0644478
0.0657138
0.0668822
0.0679492
0.0689111
0.0697648
0.0705078
0.0711377
0.0716527
0.0720513
0.0723326
0.0724964
0.0725427
0.0724723
0.0722864
0.0719865
0.0715745
0.0710529
0.0704246
0.069693
0.0688619
0.0679352
0.0669171
0.0658116
0.064623
0.0633554
0.0620128
0.0605991
0.0591171
0.0575689
0.055967
0.054322
0.0524892
0.0503422
0.0195902
0.0171916
0.0151672
0.013375
0.0116505
0.0100037
0.00844679
0.00698016
0.00560427
0.00432079
0.00313164
0.00203874
0.00104407
0.000149652
-0.000642633
-0.00133112
-0.00191431
-0.00239079
-0.00275941
-0.00301933
-0.00316993
-0.00321084
-0.00314187
-0.00296316
-0.0026752
-0.00227878
-0.00177497
-0.00116512
-0.000450842
0.000365848
0.00128265
0.00229705
0.00340634
0.00460754
0.00589735
0.00727223
0.00872844
0.0102621
0.0118688
0.0135443
0.0152838
0.0170823
0.018935
0.0208367
0.0227821
0.0247654
0.026781
0.028823
0.0308853
0.032962
0.0350467
0.0371333
0.0392153
0.0412863
0.04334
0.0453699
0.0473695
0.0493323
0.0512522
0.0531229
0.0549383
0.0566924
0.0583791
0.0599929
0.0615282
0.0629799
0.0643431
0.0656131
0.0667856
0.0678565
0.0688221
0.0696792
0.0704249
0.0710569
0.0715729
0.0719713
0.0722509
0.0724112
0.0724522
0.0723741
0.0721778
0.0718645
0.0714357
0.0708935
0.0702403
0.0694792
0.0686135
0.0676466
0.0665821
0.0654237
0.0641751
0.06284
0.061422
0.0599246
0.0583499
0.0566999
0.0549877
0.0532243
0.0512537
0.0489398
0.0207521
0.0181879
0.0160272
0.0141185
0.0122857
0.0105397
0.00889301
0.00734541
0.00589703
0.0045491
0.00330294
0.00215995
0.00112164
0.000189404
-0.000635475
-0.00135176
-0.0019584
-0.00245448
-0.00283935
-0.00311257
-0.00327388
-0.00332323
-0.0032608
-0.00308707
-0.00280282
-0.00240905
-0.00190695
-0.00129807
-0.000584269
0.00023229
0.00114923
0.00216398
0.0032737
0.00447533
0.00576553
0.00714078
0.00859734
0.0101313
0.0117383
0.0134138
0.0151533
0.016952
0.0188049
0.0207069
0.0226526
0.0246364
0.0266527
0.0286957
0.0307594
0.0328378
0.0349246
0.0370136
0.0390986
0.0411731
0.0432308
0.0452652
0.0472698
0.0492382
0.0511642
0.0530415
0.054864
0.0566256
0.0583202
0.059942
0.0614855
0.0629457
0.0643174
0.0655957
0.0667762
0.0678547
0.0688274
0.0696908
0.070442
0.0710783
0.0715971
0.0719967
0.0722756
0.0724331
0.0724689
0.0723829
0.0721756
0.0718477
0.0714006
0.0708359
0.0701558
0.0693628
0.0684598
0.0674498
0.066336
0.0651216
0.06381
0.0624045
0.0609084
0.0593248
0.0576556
0.0559022
0.0540787
0.0521967
0.050089
0.0476101
0.021812
0.019084
0.0167881
0.0147633
0.0128222
0.0109761
0.00923834
0.00760837
0.00608574
0.00467133
0.00336607
0.00217086
0.00108668
0.000114464
-0.000744973
-0.00149088
-0.00212261
-0.00263972
-0.00304201
-0.00332942
-0.00350201
-0.00356006
-0.00350417
-0.00333514
-0.00305395
-0.00266177
-0.00216002
-0.00155049
-0.000835241
-1.65476e-05
0.000903131
0.0019211
0.00303439
0.00423985
0.00553414
0.00691372
0.00837485
0.00991349
0.0115253
0.0132058
0.0149504
0.0167545
0.0186129
0.0205207
0.0224724
0.0244625
0.0264854
0.0285355
0.0306066
0.0326928
0.0347879
0.0368857
0.0389798
0.0410641
0.0431321
0.0451771
0.0471929
0.0491729
0.051111
0.0530009
0.0548363
0.056611
0.0583188
0.059954
0.0615111
0.0629846
0.0643694
0.0656605
0.0668531
0.067943
0.0689263
0.0697993
0.0705588
0.0712018
0.0717255
0.072128
0.0724075
0.0725632
0.0725943
0.0725005
0.0722818
0.0719388
0.0714723
0.0708838
0.0701751
0.0693483
0.0684059
0.0673504
0.0661848
0.0649118
0.0635347
0.0620563
0.0604798
0.0588079
0.0570422
0.0551842
0.0532484
0.0512476
0.0490032
0.0463607
0.0227616
0.0198713
0.017441
0.0153003
0.0132506
0.0113039
0.00947409
0.00776044
0.00616214
0.00467965
0.00331353
0.0020643
0.000932498
-8.14233e-05
-0.000976998
-0.00175391
-0.00241198
-0.0029512
-0.00337173
-0.00367383
-0.00385795
-0.00392476
-0.00387519
-0.00371029
-0.00343123
-0.00303939
-0.0025365
-0.00192456
-0.00120577
-0.000382506
0.000542615
0.00156673
0.00268678
0.00389956
0.00520171
0.00658967
0.00805957
0.0096073
0.0112285
0.0129189
0.0146737
0.0164883
0.0183577
0.0202767
0.02224
0.0242422
0.0262778
0.0283408
0.0304255
0.0325256
0.0346351
0.0367478
0.0388575
0.0409578
0.0430422
0.0451041
0.0471371
0.049135
0.0510913
0.0529997
0.0548537
0.0566471
0.0583738
0.0600278
0.0616036
0.0630955
0.0644982
0.0658065
0.0670156
0.068121
0.0691186
0.0700046
0.0707753
0.0714277
0.0719587
0.072366
0.0726479
0.072803
0.0728303
0.0727291
0.0724991
0.0721406
0.0716542
0.071041
0.0703025
0.0694405
0.0684569
0.0673541
0.0661345
0.0648008
0.063356
0.0618026
0.0601436
0.0583815
0.0565177
0.0545536
0.0525048
0.0503846
0.0480038
0.0451983
0.0235928
0.0205414
0.0179773
0.0157208
0.0135623
0.0115144
0.00959175
0.00779336
0.00611811
0.00456621
0.00313784
0.00183315
0.00065228
-0.00040462
-0.00133752
-0.00214651
-0.00283184
-0.00339387
-0.00383308
-0.00415009
-0.00434575
-0.00442112
-0.00437736
-0.00421573
-0.00393762
-0.00354474
-0.00303907
-0.00242277
-0.00169815
-0.000867772
6.55618e-05
0.00109884
0.00222893
0.00345263
0.00476651
0.00616687
0.00764975
0.009211
0.0108464
0.0125514
0.0143216
0.016152
0.0180376
0.0199733
0.021954
0.0239741
0.0260281
0.0281102
0.0302143
0.0323344
0.0344645
0.0365985
0.0387299
0.0408524
0.0429594
0.0450445
0.0471011
0.0491229
0.0511035
0.0530363
0.0549148
0.0567327
0.0584839
0.0601623
0.0617621
0.0632775
0.064703
0.0660331
0.0672631
0.0683882
0.0694041
0.0703066
0.0710919
0.0717566
0.0722975
0.0727121
0.0729983
0.0731545
0.0731791
0.0730713
0.0728305
0.0724566
0.0719501
0.0713118
0.0705427
0.0696443
0.0686182
0.0674664
0.0661913
0.0647952
0.0632807
0.0616505
0.0599071
0.058053
0.0560896
0.0540182
0.0518552
0.0496151
0.0470975
0.0441294
0.0242983
0.0210864
0.0183886
0.0160163
0.0137488
0.0115991
0.0095829
0.00769885
0.00594566
0.00432322
0.00283146
0.00147018
0.000239225
-0.000861599
-0.00183269
-0.00267453
-0.0033877
-0.00397287
-0.00443089
-0.0047628
-0.00496982
-0.00505323
-0.00501443
-0.00485493
-0.00457647
-0.00418102
-0.00367073
-0.0030479
-0.00231503
-0.0014749
-0.000530503
0.000515079
0.00165868
0.00289699
0.00422646
0.00564326
0.00714337
0.00872267
0.0103769
0.0121016
0.0138921
0.0157434
0.0176507
0.0196087
0.0216124
0.0236562
0.0257346
0.0278415
0.0299712
0.0321175
0.0342745
0.0364359
0.0385953
0.0407462
0.0428821
0.0449966
0.0470831
0.0491351
0.051146
0.0531092
0.0550182
0.0568665
0.058648
0.0603563
0.0619855
0.0635297
0.064983
0.06634
0.0675955
0.0687447
0.0697829
0.0707058
0.0715091
0.0721894
0.0727432
0.0731677
0.0734605
0.0736195
0.0736431
0.0735298
0.073279
0.0728904
0.0723641
0.0717005
0.0709004
0.0699649
0.0688953
0.0676934
0.0663613
0.0649013
0.0633158
0.061607
0.0597775
0.0578298
0.0557652
0.0535852
0.051307
0.048946
0.046291
0.0431597
0.0248708
0.0214987
0.0186672
0.0161788
0.0138017
0.0115498
0.00943928
0.0074688
0.0056368
0.00394293
0.00238688
0.00096821
-0.00031356
-0.00145902
-0.00246891
-0.00334402
-0.00408524
-0.00469361
-0.00517037
-0.00551693
-0.00573477
-0.00582538
-0.00579045
-0.00563183
-0.00535154
-0.00495174
-0.00443473
-0.00380304
-0.0030594
-0.00220681
-0.00124833
-0.000187125
0.000973539
0.00223019
0.00357913
0.00501646
0.00653817
0.00814013
0.00981801
0.0115672
0.0133831
0.0152606
0.0171948
0.0191808
0.0212132
0.0232865
0.025395
0.0275329
0.0296942
0.0318729
0.0340629
0.036258
0.0384516
0.0406373
0.0428085
0.0449588
0.0470814
0.0491698
0.0512173
0.053217
0.0551625
0.0570473
0.0588649
0.0606089
0.0622731
0.0638514
0.0653378
0.0667267
0.0680126
0.0691905
0.0702554
0.0712026
0.0720279
0.0727273
0.0732972
0.0737345
0.0740364
0.0742006
0.0742249
0.0741078
0.0738483
0.0734459
0.0729004
0.0722117
0.0713805
0.0704074
0.0692937
0.0680409
0.0666509
0.0651258
0.0634678
0.0616789
0.0597618
0.0577189
0.0555517
0.0532616
0.050867
0.0483839
0.0455904
0.042295
0.0253032
0.0217706
0.0188052
0.0162002
0.0137129
0.0113581
0.00915272
0.00709512
0.00518356
0.00341756
0.0017966
0.000319954
-0.00101318
-0.00220373
-0.0032527
-0.00416119
-0.00493043
-0.00556185
-0.00605705
-0.00641768
-0.00664546
-0.00674219
-0.00670987
-0.00655067
-0.00626682
-0.00586065
-0.00533467
-0.00469168
-0.00393465
-0.00306668
-0.00209092
-0.00101064
0.000170701
0.00144945
0.00282182
0.00428391
0.00583169
0.00746095
0.00916723
0.0109459
0.0127921
0.0147011
0.0166679
0.0186874
0.0207541
0.0228627
0.0250072
0.027182
0.029381
0.0315983
0.0338276
0.0360626
0.0382967
0.0405236
0.0427366
0.044929
0.0470942
0.0492254
0.0513156
0.0533582
0.0553465
0.0572738
0.0591335
0.060919
0.062624
0.064242
0.0657669
0.067193
0.0685144
0.0697258
0.0708219
0.0717978
0.0726491
0.0733715
0.0739611
0.0744144
0.0747283
0.0749001
0.0749275
0.0748086
0.0745421
0.0741272
0.0735632
0.0728501
0.071988
0.0709774
0.0698193
0.0685151
0.0670665
0.0654752
0.0637434
0.0618732
0.0598671
0.0577276
0.0554562
0.0530545
0.0505419
0.0479353
0.0450018
0.0415407
0.0255884
0.0218946
0.0187946
0.0160724
0.0134745
0.0110161
0.0087151
0.00656969
0.004578
0.00273937
0.00105302
-0.000482037
-0.00186689
-0.0031027
-0.00419075
-0.0051325
-0.00592955
-0.00658366
-0.00709666
-0.00747046
-0.00770706
-0.00780864
-0.0077775
-0.00761601
-0.00732659
-0.00691182
-0.00637451
-0.00571766
-0.0049444
-0.00405793
-0.00306152
-0.00195866
-0.000752997
0.000551719
0.00195165
0.00344286
0.00502123
0.00668242
0.00842188
0.0102349
0.0121168
0.0140626
0.0160674
0.0181259
0.0202327
0.0223822
0.0245687
0.0267865
0.0290295
0.0312915
0.0335663
0.0358475
0.0381286
0.040403
0.0426642
0.0449054
0.0471195
0.0492998
0.0514393
0.0535312
0.0555686
0.0575447
0.0594527
0.0612858
0.0630374
0.0647009
0.0662701
0.0677388
0.069101
0.0703509
0.0714832
0.0724925
0.0733742
0.0741237
0.0747368
0.0752097
0.0755388
0.0757212
0.0757542
0.0756358
0.0753643
0.0749385
0.0743575
0.0736208
0.0727283
0.0716805
0.0704781
0.0691223
0.0676144
0.0659563
0.0641498
0.0621971
0.0601006
0.057863
0.055486
0.052971
0.0503387
0.0476068
0.0445314
0.0409024
0.0257193
0.0218632
0.0186278
0.0157877
0.0130782
0.0105156
0.00811828
0.00588451
0.00381218
0.00190047
0.000148358
-0.00144537
-0.00288204
-0.00416304
-0.00529001
-0.00626475
-0.00708917
-0.00776527
-0.00829513
-0.00868095
-0.00892511
-0.00903008
-0.00899839
-0.00883262
-0.00853545
-0.00810975
-0.00755857
-0.00688509
-0.00609253
-0.00518425
-0.00416377
-0.00303475
-0.00180098
-0.000466272
0.000965486
0.00249025
0.00410376
0.00580156
0.00757906
0.00943157
0.0113543
0.0133423
0.0153906
0.0174937
0.0196462
0.0218426
0.0240772
0.026344
0.028637
0.03095
0.0332766
0.0356104
0.0379449
0.0402735
0.0425895
0.0448857
0.0471554
0.0493914
0.0515868
0.0537345
0.0558275
0.0578589
0.0598214
0.0617083
0.0635127
0.0652278
0.0668471
0.0683642
0.0697727
0.0710666
0.0722401
0.0732879
0.0742047
0.0749858
0.0756265
0.0761228
0.0764707
0.076667
0.0767088
0.0765935
0.0763193
0.0758845
0.075288
0.074529
0.0736072
0.0725228
0.0712764
0.0698689
0.0683015
0.0665759
0.0646939
0.0626576
0.0604695
0.0581325
0.0556481
0.0530181
0.0502641
0.047405
0.0441854
0.0403858
0.025689
0.0216691
0.0182971
0.015338
0.0125161
0.00984841
0.00735415
0.00503147
0.00287802
0.000892825
-0.000925293
-0.00257776
-0.00406613
-0.00539215
-0.00655774
-0.00756498
-0.00841602
-0.00911312
-0.00965867
-0.0100552
-0.0103054
-0.0104121
-0.0103778
-0.0102056
-0.00989836
-0.00945922
-0.00889142
-0.00819827
-0.00738317
-0.00644971
-0.00540162
-0.00424272
-0.00297689
-0.001608
-0.000140053
0.00142274
0.003076
0.0048152
0.00663573
0.00853287
0.0105018
0.0125374
0.0146346
0.016788
0.0189921
0.0212413
0.0235299
0.0258519
0.0282012
0.0305714
0.0329562
0.0353491
0.0377436
0.0401328
0.0425101
0.0448681
0.0471999
0.0494984
0.0517563
0.0539666
0.0561219
0.058215
0.0602387
0.0621859
0.0640494
0.0658224
0.067498
0.0690693
0.07053
0.0718735
0.0730938
0.0741852
0.0751422
0.0759597
0.0766326