/*--------------------------------*- C++ -*----------------------------------*\
| =========                 |                                                 |
| \\      /  F ield         | OpenFOAM: The Open Source CFD Toolbox           |
|  \\    /   O peration     | Version:  2212                                  |
|   \\  /    A nd           | Website:  www.openfoam.com                      |
|    \\/     M anipulation  |                                                 |
\*---------------------------------------------------------------------------*/
FoamFile
{
    version     2.0;
    format      ascii;
    arch        "LSB;label=32;scalar=64";
    class       surfaceScalarField;
    location    "0.0495";
    object      phi_0;
}
// * * * * * * * * * * * * * * * * * * * * * * * * * * * * * * * * * * * * * //

dimensions      [0 3 -1 0 0 0 0];

oriented        oriented;

internalField   nonuniform List<scalar> 
19800
(
6.50809e-11
-6.51204e-11
2.161e-10
-1.51038e-10
3.82729e-10
-1.66609e-10
5.0996e-10
-1.27253e-10
5.68573e-10
-5.86043e-11
5.42351e-10
2.62315e-11
4.23365e-10
1.18988e-10
2.08955e-10
2.14416e-10
-1.00291e-10
3.09245e-10
-5.01662e-10
4.01375e-10
-9.91099e-10
4.89441e-10
-1.56363e-09
5.72541e-10
-2.21371e-09
6.50087e-10
-2.93542e-09
7.21716e-10
-3.72264e-09
7.87216e-10
-4.56909e-09
8.4645e-10
-5.46846e-09
8.99371e-10
-6.41445e-09
9.45994e-10
-7.40083e-09
9.86376e-10
-8.42144e-09
1.02061e-09
-9.47026e-09
1.04881e-09
-1.05414e-08
1.07111e-09
-1.1629e-08
1.08765e-09
-1.27277e-08
1.09862e-09
-1.38319e-08
1.10419e-09
-1.49364e-08
1.10451e-09
-1.60362e-08
1.09979e-09
-1.71264e-08
1.09022e-09
-1.82023e-08
1.07597e-09
-1.92596e-08
1.05724e-09
-2.02938e-08
1.03424e-09
-2.1301e-08
1.00716e-09
-2.22772e-08
9.76172e-10
-2.32187e-08
9.41491e-10
-2.4122e-08
9.03327e-10
-2.49838e-08
8.61854e-10
-2.58011e-08
8.17253e-10
-2.65708e-08
7.69725e-10
-2.72903e-08
7.19479e-10
-2.7957e-08
6.66705e-10
-2.85686e-08
6.11593e-10
-2.91229e-08
5.5435e-10
-2.96181e-08
4.95181e-10
-3.00524e-08
4.34273e-10
-3.04242e-08
3.71823e-10
-3.07322e-08
3.0803e-10
-3.09753e-08
2.43104e-10
-3.11526e-08
1.77257e-10
-3.12633e-08
1.10682e-10
-3.13069e-08
4.35873e-11
-3.1283e-08
-2.38059e-11
-3.11918e-08
-9.12771e-11
-3.10332e-08
-1.58604e-10
-3.08076e-08
-2.25569e-10
-3.05156e-08
-2.9196e-10
-3.01581e-08
-3.57548e-10
-2.9736e-08
-4.2209e-10
-2.92507e-08
-4.85345e-10
-2.87036e-08
-5.47074e-10
-2.80965e-08
-6.07032e-10
-2.74315e-08
-6.64987e-10
-2.67109e-08
-7.20693e-10
-2.5937e-08
-7.73893e-10
-2.51126e-08
-8.24334e-10
-2.42409e-08
-8.71769e-10
-2.33249e-08
-9.15947e-10
-2.23683e-08
-9.56618e-10
-2.13747e-08
-9.93545e-10
-2.03483e-08
-1.02649e-09
-1.92931e-08
-1.05521e-09
-1.82136e-08
-1.07946e-09
-1.71146e-08
-1.09902e-09
-1.60009e-08
-1.11368e-09
-1.48777e-08
-1.12321e-09
-1.37502e-08
-1.12743e-09
-1.26241e-08
-1.12615e-09
-1.15049e-08
-1.1192e-09
-1.03985e-08
-1.10639e-09
-9.3109e-09
-1.0876e-09
-8.24822e-09
-1.06268e-09
-7.21668e-09
-1.03154e-09
-6.22259e-09
-9.94097e-10
-5.27229e-09
-9.50299e-10
-4.37214e-09
-9.0014e-10
-3.5285e-09
-8.43647e-10
-2.7476e-09
-7.80896e-10
-2.03557e-09
-7.12034e-10
-1.39827e-09
-6.37291e-10
-8.41274e-10
-5.57003e-10
-3.69622e-10
-4.71654e-10
1.23271e-11
-3.81947e-10
3.01236e-10
-2.88907e-10
4.95215e-10
-1.93981e-10
5.94586e-10
-9.93754e-11
6.0303e-10
-8.44655e-12
5.29446e-10
7.35832e-11
3.90934e-10
1.38512e-10
2.17868e-10
1.73068e-10
6.26278e-11
1.55239e-10
6.26292e-11
1.57505e-10
-2.22647e-10
4.22286e-10
-4.15809e-10
6.68271e-10
-4.12596e-10
8.06315e-10
-2.65293e-10
7.72733e-10
-2.50307e-11
5.27435e-10
2.7153e-10
4.74576e-11
5.98946e-10
-6.77874e-10
9.39756e-10
-1.65066e-09
1.28203e-09
-2.8669e-09
1.6176e-09
-4.31832e-09
1.94085e-09
-5.99366e-09
2.24786e-09
-7.87953e-09
2.53595e-09
-9.96111e-09
2.8033e-09
-1.22226e-08
3.0487e-09
-1.46475e-08
3.2714e-09
-1.72191e-08
3.47097e-09
-1.99204e-08
3.64728e-09
-2.27344e-08
3.80035e-09
-2.56442e-08
3.93041e-09
-2.86331e-08
4.03776e-09
-3.16848e-08
4.12283e-09
-3.47832e-08
4.1861e-09
-3.79127e-08
4.22813e-09
-4.10581e-08
4.24952e-09
-4.42045e-08
4.25093e-09
-4.73377e-08
4.23299e-09
-5.04439e-08
4.19641e-09
-5.35099e-08
4.1419e-09
-5.65228e-08
4.07017e-09
-5.94705e-08
3.98193e-09
-6.23412e-08
3.87794e-09
-6.5124e-08
3.75891e-09
-6.7808e-08
3.6256e-09
-7.03835e-08
3.47875e-09
-7.28408e-08
3.31912e-09
-7.5171e-08
3.14744e-09
-7.73657e-08
2.96448e-09
-7.94172e-08
2.77098e-09
-8.13182e-08
2.56768e-09
-8.30619e-08
2.35536e-09
-8.46424e-08
2.13478e-09
-8.60539e-08
1.90672e-09
-8.72916e-08
1.67193e-09
-8.83509e-08
1.4312e-09
-8.92282e-08
1.1853e-09
-8.99201e-08
9.35035e-10
-9.04241e-08
6.81189e-10
-9.0738e-08
4.24572e-10
-9.08604e-08
1.65996e-10
-9.07905e-08
-9.37029e-11
-9.05281e-08
-3.53675e-10
-9.00736e-08
-6.13075e-10
-8.94282e-08
-8.71042e-10
-8.85934e-08
-1.1267e-09
-8.75718e-08
-1.37918e-09
-8.63663e-08
-1.62757e-09
-8.49807e-08
-1.87094e-09
-8.34194e-08
-2.10838e-09
-8.16875e-08
-2.33894e-09
-7.97908e-08
-2.56169e-09
-7.77358e-08
-2.77569e-09
-7.55297e-08
-2.97999e-09
-7.31804e-08
-3.17363e-09
-7.06965e-08
-3.35564e-09
-6.80874e-08
-3.52508e-09
-6.5363e-08
-3.68101e-09
-6.2534e-08
-3.82251e-09
-5.96119e-08
-3.94864e-09
-5.66085e-08
-4.05853e-09
-5.35367e-08
-4.15128e-09
-5.04097e-08
-4.22605e-09
-4.72413e-08
-4.28201e-09
-4.40462e-08
-4.3184e-09
-4.08391e-08
-4.33447e-09
-3.76357e-08
-4.32955e-09
-3.44519e-08
-4.30299e-09
-3.13041e-08
-4.25423e-09
-2.82089e-08
-4.18276e-09
-2.51835e-08
-4.08816e-09
-2.22449e-08
-3.97011e-09
-1.94106e-08
-3.82841e-09
-1.66979e-08
-3.66298e-09
-1.41242e-08
-3.47389e-09
-1.17064e-08
-3.2614e-09
-9.46127e-09
-3.02602e-09
-7.4048e-09
-2.76851e-09
-5.55208e-09
-2.49001e-09
-3.91697e-09
-2.19211e-09
-2.51157e-09
-1.87706e-09
-1.34559e-09
-1.54794e-09
-4.25472e-10
-1.20903e-09
2.46873e-10
-8.66328e-10
6.75772e-10
-5.28277e-10
8.74277e-10
-2.06957e-10
8.67624e-10
8.02315e-11
6.97899e-10
3.08238e-10
4.29708e-10
4.41263e-10
1.55075e-10
4.29875e-10
2.17712e-10
1.67401e-10
-3.90025e-10
4.16925e-10
-6.65328e-10
5.90167e-10
-5.8581e-10
5.78772e-10
-2.53912e-10
3.03745e-10
2.50022e-10
-2.88571e-10
8.6384e-10
-1.23116e-09
1.54154e-09
-2.5412e-09
2.2498e-09
-4.22386e-09
2.96469e-09
-6.27534e-09
3.6691e-09
-8.6852e-09
4.3507e-09
-1.1438e-08
5.0007e-09
-1.45149e-08
5.61282e-09
-1.78942e-08
6.18262e-09
-2.15526e-08
6.70704e-09
-2.54652e-08
7.18407e-09
-2.96067e-08
7.61245e-09
-3.3951e-08
7.99157e-09
-3.84719e-08
8.32126e-09
-4.31433e-08
8.60174e-09
-4.7939e-08
8.83351e-09
-5.28336e-08
9.01733e-09
-5.78016e-08
9.15413e-09
-6.28185e-08
9.245e-09
-6.78601e-08
9.29113e-09
-7.2903e-08
9.29383e-09
-7.79245e-08
9.2545e-09
-8.29026e-08
9.17455e-09
-8.78162e-08
9.05548e-09
-9.26448e-08
8.89881e-09
-9.7369e-08
8.70611e-09
-1.0197e-07
8.47894e-09
-1.0643e-07
8.2189e-09
-1.10732e-07
7.92759e-09
-1.1486e-07
7.60663e-09
-1.18798e-07
7.25765e-09
-1.22533e-07
6.88228e-09
-1.26051e-07
6.48217e-09
-1.29339e-07
6.05896e-09
-1.32386e-07
5.6143e-09
-1.3518e-07
5.14987e-09
-1.37713e-07
4.66733e-09
-1.39974e-07
4.16837e-09
-1.41957e-07
3.65469e-09
-1.43654e-07
3.12798e-09
-1.45058e-07
2.58997e-09
-1.46166e-07
2.0424e-09
-1.46972e-07
1.48702e-09
-1.47473e-07
9.25612e-10
-1.47667e-07
3.59975e-10
-1.47552e-07
-2.08072e-10
-1.47129e-07
-7.76677e-10
-1.46398e-07
-1.34397e-09
-1.45361e-07
-1.90805e-09
-1.44021e-07
-2.467e-09
-1.42381e-07
-3.01887e-09
-1.40447e-07
-3.56169e-09
-1.38225e-07
-4.09347e-09
-1.35721e-07
-4.61216e-09
-1.32944e-07
-5.11574e-09
-1.29904e-07
-5.60216e-09
-1.2661e-07
-6.06935e-09
-1.23075e-07
-6.51523e-09
-1.19311e-07
-6.93775e-09
-1.15331e-07
-7.33482e-09
-1.11152e-07
-7.70439e-09
-1.06789e-07
-8.04442e-09
-1.02258e-07
-8.35289e-09
-9.75792e-08
-8.62785e-09
-9.27704e-08
-8.86733e-09
-8.78522e-08
-9.06947e-09
-8.28458e-08
-9.23245e-09
-7.77733e-08
-9.35453e-09
-7.26576e-08
-9.43405e-09
-6.75226e-08
-9.46946e-09
-6.23928e-08
-9.45934e-09
-5.72934e-08
-9.40236e-09
-5.22503e-08
-9.29737e-09
-4.72897e-08
-9.14338e-09
-4.24383e-08
-8.93958e-09
-3.77229e-08
-8.68543e-09
-3.31707e-08
-8.3806e-09
-2.88086e-08
-8.02511e-09
-2.46632e-08
-7.61932e-09
-2.07605e-08
-7.16404e-09
-1.7126e-08
-6.66059e-09
-1.37835e-08
-6.11096e-09
-1.07556e-08
-5.51796e-09
-8.0622e-09
-4.88547e-09
-5.72053e-09
-4.21873e-09
-3.74361e-09
-3.52485e-09
-2.13927e-09
-2.81338e-09
-9.08307e-10
-2.09728e-09
-4.23733e-11
-1.39422e-09
4.7898e-10
-7.28315e-10
6.91909e-10
-1.32686e-10
6.52751e-10
3.47408e-10
4.42854e-10
6.51162e-10
1.73378e-10
6.99361e-10
3.91094e-10
1.2913e-10
-5.1918e-10
2.71356e-10
-8.07552e-10
2.62626e-10
-5.77083e-10
-1.28563e-11
2.1582e-11
-6.40139e-10
8.77298e-10
-1.67873e-09
1.90244e-09
-3.16681e-09
3.02962e-09
-5.1253e-09
4.20829e-09
-7.56143e-09
5.40082e-09
-1.04716e-08
6.5793e-09
-1.3844e-08
7.72309e-09
-1.76603e-08
8.817e-09
-2.18973e-08
9.84985e-09
-2.65283e-08
1.08136e-08
-3.15237e-08
1.17024e-08
-3.6852e-08
1.25124e-08
-4.24805e-08
1.3241e-08
-4.83756e-08
1.38867e-08
-5.45031e-08
1.44488e-08
-6.08288e-08
1.49274e-08
-6.73185e-08
1.53232e-08
-7.39383e-08
1.56371e-08
-8.06548e-08
1.58706e-08
-8.74352e-08
1.60254e-08
-9.42474e-08
1.61033e-08
-1.0106e-07
1.61066e-08
-1.07843e-07
1.60375e-08
-1.14567e-07
1.58983e-08
-1.21203e-07
1.56915e-08
-1.27724e-07
1.54198e-08
-1.34104e-07
1.50858e-08
-1.40317e-07
1.46921e-08
-1.46339e-07
1.42415e-08
-1.52148e-07
1.37367e-08
-1.57722e-07
1.31805e-08
-1.6304e-07
1.25757e-08
-1.68083e-07
1.19252e-08
-1.72833e-07
1.12317e-08
-1.77272e-07
1.04981e-08
-1.81385e-07
9.72738e-09
-1.85157e-07
8.92232e-09
-1.88576e-07
8.08584e-09
-1.91628e-07
7.22087e-09
-1.94304e-07
6.33036e-09
-1.96593e-07
5.41729e-09
-1.98488e-07
4.48463e-09
-1.99981e-07
3.53543e-09
-2.01067e-07
2.57273e-09
-2.01741e-07
1.59963e-09
-2.02e-07
6.19264e-10
-2.01843e-07
-3.65193e-10
-2.01269e-07
-1.35054e-09
-2.0028e-07
-2.3335e-09
-1.98877e-07
-3.3108e-09
-1.97065e-07
-4.27909e-09
-1.94849e-07
-5.235e-09
-1.92235e-07
-6.17508e-09
-1.89233e-07
-7.09588e-09
-1.85851e-07
-7.99392e-09
-1.82101e-07
-8.86566e-09
-1.77996e-07
-9.70755e-09
-1.73549e-07
-1.0516e-08
-1.68777e-07
-1.12875e-08
-1.63696e-07
-1.20185e-08
-1.58325e-07
-1.27054e-08
-1.52685e-07
-1.33446e-08
-1.46797e-07
-1.39327e-08
-1.40684e-07
-1.44662e-08
-1.3437e-07
-1.49417e-08
-1.27881e-07
-1.5356e-08
-1.21245e-07
-1.57058e-08
-1.14489e-07
-1.5988e-08
-1.07644e-07
-1.61998e-08
-1.0074e-07
-1.63383e-08
-9.38085e-08
-1.64009e-08
-8.68826e-08
-1.63852e-08
-7.99958e-08
-1.62892e-08
-7.31824e-08
-1.61108e-08
-6.64771e-08
-1.58486e-08
-5.99153e-08
-1.55014e-08
-5.35324e-08
-1.50684e-08
-4.73638e-08
-1.45492e-08
-4.14448e-08
-1.39441e-08
-3.581e-08
-1.32541e-08
-3.04933e-08
-1.24808e-08
-2.5527e-08
-1.16269e-08
-2.09418e-08
-1.06961e-08
-1.67659e-08
-9.69385e-09
-1.30243e-08
-8.62708e-09
-9.7378e-09
-7.50524e-09
-6.92188e-09
-6.34076e-09
-4.58519e-09
-5.15006e-09
-2.72769e-09
-3.95479e-09
-1.33833e-09
-2.78358e-09
-3.92275e-10
-1.67437e-09
1.52432e-10
-6.77381e-10
3.58784e-10
1.41055e-10
3.151e-10
6.94842e-10
1.40444e-10
8.74026e-10
5.31536e-10
6.21603e-11
-5.81331e-10
3.64081e-11
-7.8181e-10
-2.31621e-10
-3.09025e-10
-8.54868e-10
6.4481e-10
-1.91734e-09
1.93978e-09
-3.4789e-09
3.46401e-09
-5.57876e-09
5.1295e-09
-8.23889e-09
6.86842e-09
-1.14669e-08
8.62887e-09
-1.52589e-08
1.03713e-08
-1.96016e-08
1.20657e-08
-2.44741e-08
1.36895e-08
-2.98499e-08
1.52257e-08
-3.5698e-08
1.66616e-08
-4.19837e-08
1.79882e-08
-4.86701e-08
1.91988e-08
-5.57182e-08
2.02891e-08
-6.30879e-08
2.12563e-08
-7.07382e-08
2.20991e-08
-7.86279e-08
2.28171e-08
-8.67155e-08
2.34108e-08
-9.496e-08
2.38816e-08
-1.03321e-07
2.42313e-08
-1.11757e-07
2.44622e-08
-1.20231e-07
2.4577e-08
-1.28703e-07
2.45787e-08
-1.37137e-07
2.44708e-08
-1.45495e-07
2.42565e-08
-1.53743e-07
2.39397e-08
-1.61847e-07
2.35242e-08
-1.69775e-07
2.30138e-08
-1.77496e-07
2.24126e-08
-1.84979e-07
2.17247e-08
-1.92197e-07
2.09542e-08
-1.99121e-07
2.01054e-08
-2.05728e-07
1.91825e-08
-2.11993e-07
1.81898e-08
-2.17893e-07
1.71315e-08
-2.23407e-07
1.60122e-08
-2.28515e-07
1.4836e-08
-2.33201e-07
1.36075e-08
-2.37446e-07
1.23311e-08
-2.41236e-07
1.10112e-08
-2.44558e-07
9.65233e-09
-2.474e-07
8.25906e-09
-2.49751e-07
6.83596e-09
-2.51603e-07
5.38766e-09
-2.5295e-07
3.91884e-09
-2.53784e-07
2.43423e-09
-2.54104e-07
9.38631e-10
-2.53906e-07
-5.63106e-10
-2.5319e-07
-2.06607e-09
-2.51958e-07
-3.56528e-09
-2.50213e-07
-5.05571e-09
-2.4796e-07
-6.53225e-09
-2.45205e-07
-7.98975e-09
-2.41958e-07
-9.42298e-09
-2.38227e-07
-1.08267e-08
-2.34025e-07
-1.21955e-08
-2.29367e-07
-1.3524e-08
-2.24267e-07
-1.4807e-08
-2.18744e-07
-1.6039e-08
-2.12818e-07
-1.72145e-08
-2.06508e-07
-1.83281e-08
-1.99839e-07
-1.93745e-08
-1.92835e-07
-2.03483e-08
-1.85524e-07
-2.12443e-08
-1.77933e-07
-2.20571e-08
-1.70092e-07
-2.27819e-08
-1.62035e-07
-2.34135e-08
-1.53793e-07
-2.39472e-08
-1.45403e-07
-2.43784e-08
-1.369e-07
-2.47027e-08
-1.28322e-07
-2.49159e-08
-1.19709e-07
-2.50143e-08
-1.111e-07
-2.49944e-08
-1.02536e-07
-2.48529e-08
-9.40594e-08
-2.45874e-08
-8.57125e-08
-2.41955e-08
-7.75381e-08
-2.36758e-08
-6.95793e-08
-2.30272e-08
-6.18789e-08
-2.22496e-08
-5.44793e-08
-2.13437e-08
-4.74221e-08
-2.03112e-08
-4.07478e-08
-1.91552e-08
-3.44947e-08
-1.78799e-08
-2.86991e-08
-1.64917e-08
-2.3394e-08
-1.4999e-08
-1.86083e-08
-1.34127e-08
-1.43661e-08
-1.17475e-08
-1.06848e-08
-1.00221e-08
-7.57409e-09
-8.26074e-09
-5.03394e-09
-6.49494e-09
-3.05233e-09
-4.7652e-09
-1.60284e-09
-3.12385e-09
-6.4181e-10
-1.63841e-09
-1.05027e-10
-3.95738e-10
9.58981e-11
4.93915e-10
7.83256e-11
8.91602e-10
6.09856e-10
-2.00962e-11
-5.61225e-10
-2.52764e-10
-5.49147e-10
-8.32969e-10
2.71175e-10
-1.86345e-09
1.67531e-09
-3.42189e-09
3.49822e-09
-5.56426e-09
5.60637e-09
-8.32748e-09
7.89273e-09
-1.1732e-08
1.0273e-08
-1.57843e-08
1.26812e-08
-2.04789e-08
1.50659e-08
-2.58007e-08
1.73875e-08
-3.17263e-08
1.96151e-08
-3.82261e-08
2.17255e-08
-4.52654e-08
2.37009e-08
-5.28052e-08
2.5528e-08
-6.08037e-08
2.71973e-08
-6.92167e-08
2.87021e-08
-7.79983e-08
3.0038e-08
-8.71017e-08
3.12025e-08
-9.64795e-08
3.21948e-08
-1.06084e-07
3.30153e-08
-1.15868e-07
3.36652e-08
-1.25783e-07
3.41468e-08
-1.35784e-07
3.44631e-08
-1.45825e-07
3.46176e-08
-1.5586e-07
3.46143e-08
-1.65847e-07
3.44576e-08
-1.75743e-07
3.41523e-08
-1.85506e-07
3.37033e-08
-1.95098e-07
3.3116e-08
-2.0448e-07
3.23956e-08
-2.13615e-07
3.15478e-08
-2.22469e-07
3.05783e-08
-2.31007e-07
2.94928e-08
-2.39199e-07
2.82971e-08
-2.47014e-07
2.69973e-08
-2.54424e-07
2.55993e-08
-2.61401e-07
2.41092e-08
-2.67922e-07
2.25331e-08
-2.73963e-07
2.08771e-08
-2.79503e-07
1.91474e-08
-2.84522e-07
1.73503e-08
-2.89003e-07
1.54921e-08
-2.9293e-07
1.35791e-08
-2.96289e-07
1.16177e-08
-2.99067e-07
9.61441e-09
-3.01255e-07
7.57573e-09
-3.02845e-07
5.50826e-09
-3.03829e-07
3.4187e-09
-3.04204e-07
1.3138e-09
-3.03968e-07
-7.9962e-10
-3.03119e-07
-2.91461e-09
-3.0166e-07
-5.02417e-09
-2.99595e-07
-7.1212e-09
-2.96929e-07
-9.19854e-09
-2.93669e-07
-1.12489e-08
-2.89827e-07
-1.3265e-08
-2.85415e-07
-1.52393e-08
-2.80446e-07
-1.71645e-08
-2.74937e-07
-1.90329e-08
-2.68907e-07
-2.08371e-08
-2.62376e-07
-2.25694e-08
-2.55368e-07
-2.42224e-08
-2.47908e-07
-2.57883e-08
-2.40023e-07
-2.72598e-08
-2.31742e-07
-2.86292e-08
-2.23097e-07
-2.98894e-08
-2.14121e-07
-3.1033e-08
-2.0485e-07
-3.2053e-08
-1.95321e-07
-3.29425e-08
-1.85573e-07
-3.36949e-08
-1.75648e-07
-3.43038e-08
-1.65587e-07
-3.47631e-08
-1.55436e-07
-3.50673e-08
-1.45239e-07
-3.52111e-08
-1.35044e-07
-3.51898e-08
-1.24898e-07
-3.49992e-08
-1.14849e-07
-3.46358e-08
-1.04948e-07
-3.40968e-08
-9.52433e-08
-3.33803e-08
-8.57852e-08
-3.24853e-08
-7.66229e-08
-3.14119e-08
-6.78052e-08
-3.01614e-08
-5.93797e-08
-2.87367e-08
-5.13925e-08
-2.71423e-08
-4.38875e-08
-2.5385e-08
-3.69054e-08
-2.34738e-08
-3.04837e-08
-2.14208e-08
-2.46547e-08
-1.92417e-08
-1.94453e-08
-1.69569e-08
-1.48753e-08
-1.45921e-08
-1.09559e-08
-1.21802e-08
-7.68806e-09
-9.76282e-09
-5.06053e-09
-7.39273e-09
-3.04786e-09
-5.13651e-09
-1.60797e-09
-3.07831e-09
-6.79635e-10
-1.32408e-09
-1.79734e-10
-5.98399e-12
6.30376e-14
7.11804e-10
6.09918e-10
-1.09961e-10
-4.51256e-10
-5.72738e-10
-8.63835e-11
-1.49931e-09
1.19777e-09
-2.97761e-09
3.15361e-09
-5.07504e-09
5.59566e-09
-7.84047e-09
8.37181e-09
-1.13058e-08
1.13581e-08
-1.5488e-08
1.44551e-08
-2.03904e-08
1.75836e-08
-2.60052e-08
2.06807e-08
-3.23145e-08
2.36968e-08
-3.92924e-08
2.6593e-08
-4.6906e-08
2.93391e-08
-5.51169e-08
3.19118e-08
-6.38825e-08
3.42936e-08
-7.31565e-08
3.64713e-08
-8.28901e-08
3.84356e-08
-9.30323e-08
4.01802e-08
-1.03531e-07
4.17014e-08
-1.14334e-07
4.29975e-08
-1.25387e-07
4.40683e-08
-1.36637e-07
4.49153e-08
-1.48031e-07
4.55411e-08
-1.59517e-07
4.59492e-08
-1.71044e-07
4.61439e-08
-1.8256e-07
4.61303e-08
-1.94016e-07
4.59141e-08
-2.05365e-07
4.55011e-08
-2.1656e-07
4.4898e-08
-2.27555e-07
4.41115e-08
-2.38308e-07
4.31486e-08
-2.48777e-07
4.20166e-08
-2.58922e-07
4.07229e-08
-2.68704e-07
3.92753e-08
-2.78088e-07
3.76813e-08
-2.8704e-07
3.59489e-08
-2.95527e-07
3.40859e-08
-3.03518e-07
3.21005e-08
-3.10985e-07
3.00007e-08
-3.17903e-07
2.77946e-08
-3.24246e-07
2.54906e-08
-3.29993e-07
2.30968e-08
-3.35122e-07
2.06218e-08
-3.39617e-07
1.8074e-08
-3.43461e-07
1.54618e-08
-3.46641e-07
1.2794e-08
-3.49144e-07
1.00792e-08
-3.50962e-07
7.32617e-09
-3.52087e-07
4.54389e-09
-3.52515e-07
1.74135e-09
-3.52242e-07
-1.07235e-09
-3.51269e-07
-3.88799e-09
-3.49597e-07
-6.69622e-09
-3.4723e-07
-9.48761e-09
-3.44176e-07
-1.22526e-08
-3.40444e-07
-1.49815e-08
-3.36044e-07
-1.76646e-08
-3.30991e-07
-2.02921e-08
-3.25302e-07
-2.2854e-08
-3.18994e-07
-2.53404e-08
-3.1209e-07
-2.77411e-08
-3.04613e-07
-3.00463e-08
-2.9659e-07
-3.22459e-08
-2.88048e-07
-3.43298e-08
-2.7902e-07
-3.62882e-08
-2.69538e-07
-3.81112e-08
-2.59638e-07
-3.9789e-08
-2.49359e-07
-4.13122e-08
-2.38741e-07
-4.26715e-08
-2.27825e-07
-4.38579e-08
-2.16657e-07
-4.48626e-08
-2.05284e-07
-4.56774e-08
-1.93752e-07
-4.62944e-08
-1.82113e-07
-4.67063e-08
-1.70418e-07
-4.69063e-08
-1.58719e-07
-4.68885e-08
-1.47071e-07
-4.66474e-08
-1.35528e-07
-4.61788e-08
-1.24146e-07
-4.54792e-08
-1.1298e-07
-4.45464e-08
-1.02086e-07
-4.33793e-08
-9.15191e-08
-4.19786e-08
-8.1334e-08
-4.03465e-08
-7.15836e-08
-3.84871e-08
-6.23189e-08
-3.6407e-08
-5.35886e-08
-3.41153e-08
-4.54379e-08
-3.16245e-08
-3.79079e-08
-2.89508e-08
-3.10344e-08
-2.61152e-08
-2.48473e-08
-2.31439e-08
-1.9369e-08
-2.00704e-08
-1.46128e-08
-1.69363e-08
-1.05821e-08
-1.37936e-08
-7.26797e-09
-1.07068e-08
-4.64809e-09
-7.75639e-09
-2.68463e-09
-5.04177e-09
-1.32258e-09
-2.68612e-09
-4.88058e-10
-8.4051e-10
-8.64712e-11
3.10215e-10
5.23449e-10
-2.029e-10
-2.48352e-10
-9.08197e-10
6.18901e-10
-2.20173e-09
2.4913e-09
-4.15389e-09
5.10577e-09
-6.81931e-09
8.2611e-09
-1.02374e-08
1.17899e-08
-1.44329e-08
1.55536e-08
-1.94173e-08
1.94395e-08
-2.51898e-08
2.33561e-08
-3.17387e-08
2.72296e-08
-3.90429e-08
3.10009e-08
-4.7073e-08
3.46231e-08
-5.57929e-08
3.8059e-08
-6.51607e-08
4.12797e-08
-7.51299e-08
4.42628e-08
-8.56503e-08
4.69917e-08
-9.66687e-08
4.9454e-08
-1.0813e-07
5.16413e-08
-1.19977e-07
5.35483e-08
-1.32151e-07
5.51723e-08
-1.44596e-07
5.65128e-08
-1.57252e-07
5.7571e-08
-1.7006e-07
5.83498e-08
-1.82964e-07
5.88532e-08
-1.95907e-07
5.90865e-08
-2.08832e-07
5.90558e-08
-2.21686e-07
5.87678e-08
-2.34415e-07
5.823e-08
-2.46968e-07
5.74505e-08
-2.59294e-07
5.64377e-08
-2.71346e-07
5.52004e-08
-2.83077e-07
5.37477e-08
-2.94443e-07
5.20891e-08
-3.05402e-07
5.02342e-08
-3.15913e-07
4.81926e-08
-3.25939e-07
4.59745e-08
-3.35443e-07
4.35898e-08
-3.44391e-07
4.10488e-08
-3.52752e-07
3.83618e-08
-3.60497e-07
3.55393e-08
-3.67598e-07
3.25916e-08
-3.74031e-07
2.95295e-08
-3.79772e-07
2.63636e-08
-3.84803e-07
2.31047e-08
-3.89105e-07
1.97639e-08
-3.92663e-07
1.6352e-08
-3.95464e-07
1.28802e-08
-3.97498e-07
9.35976e-09
-3.98756e-07
5.8021e-09
-3.99233e-07
2.21872e-09
-3.98927e-07
-1.37874e-09
-3.97836e-07
-4.97847e-09
-3.95964e-07
-8.56857e-09
-3.93315e-07
-1.2137e-08
-3.89896e-07
-1.56715e-08
-3.85718e-07
-1.91597e-08
-3.80793e-07
-2.25893e-08
-3.75137e-07
-2.59477e-08
-3.68769e-07
-2.92222e-08
-3.61709e-07
-3.24001e-08
-3.53982e-07
-3.54688e-08
-3.45613e-07
-3.84154e-08
-3.36632e-07
-4.12271e-08
-3.2707e-07
-4.38914e-08
-3.16963e-07
-4.63955e-08
-3.06347e-07
-4.87271e-08
-2.95262e-07
-5.08737e-08
-2.83751e-07
-5.28235e-08
-2.71858e-07
-5.45646e-08
-2.5963e-07
-5.60857e-08
-2.47117e-07
-5.73758e-08
-2.34369e-07
-5.84246e-08
-2.21442e-07
-5.92221e-08
-2.08389e-07
-5.97593e-08
-1.95267e-07
-6.00278e-08
-1.82136e-07
-6.00201e-08
-1.69053e-07
-5.97297e-08
-1.56081e-07
-5.91515e-08
-1.43279e-07
-5.82814e-08
-1.30708e-07
-5.71168e-08
-1.1843e-07
-5.5657e-08
-1.06506e-07
-5.3903e-08
-9.49944e-08
-5.18581e-08
-8.39536e-08
-4.9528e-08
-7.34392e-08
-4.69213e-08
-6.35042e-08
-4.40503e-08
-5.41979e-08
-4.09308e-08
-4.5565e-08
-3.75837e-08
-3.76451e-08
-3.4035e-08
-3.04712e-08
-3.03179e-08
-2.40686e-08
-2.6473e-08
-1.8454e-08
-2.25509e-08
-1.36339e-08
-1.86137e-08
-9.60344e-09
-1.47373e-08
-6.34514e-09
-1.10147e-08
-3.82755e-09
-7.55935e-09
-2.00431e-09
-4.50936e-09
-8.13352e-10
-2.03148e-09
-1.76569e-10
-3.26567e-10
3.46878e-10
-2.96224e-10
4.78862e-11
-1.24936e-09
1.57203e-09
-2.92062e-09
4.16257e-09
-5.36187e-09
7.54701e-09
-8.61341e-09
1.15127e-08
-1.27035e-08
1.588e-08
-1.76484e-08
2.04985e-08
-2.34525e-08
2.52436e-08
-3.01094e-08
3.0013e-08
-3.76027e-08
3.47229e-08
-4.59072e-08
3.93054e-08
-5.49898e-08
4.37056e-08
-6.48104e-08
4.78797e-08
-7.53236e-08
5.17929e-08
-8.64791e-08
5.54183e-08
-9.82227e-08
5.87352e-08
-1.10497e-07
6.17284e-08
-1.23243e-07
6.4387e-08
-1.36399e-07
6.67042e-08
-1.49902e-07
6.8676e-08
-1.63691e-07
7.03013e-08
-1.77701e-07
7.15811e-08
-1.9187e-07
7.25187e-08
-2.06135e-07
7.31184e-08
-2.20435e-07
7.33865e-08
-2.34709e-07
7.33299e-08
-2.48898e-07
7.29568e-08
-2.62944e-07
7.22762e-08
-2.76792e-07
7.12978e-08
-2.90385e-07
7.00316e-08
-3.03674e-07
6.84885e-08
-3.16605e-07
6.66796e-08
-3.29133e-07
6.46163e-08
-3.41209e-07
6.23105e-08
-3.5279e-07
5.97741e-08
-3.63835e-07
5.70193e-08
-3.74304e-07
5.40587e-08
-3.8416e-07
5.09047e-08
-3.93368e-07
4.75701e-08
-4.01897e-07
4.40678e-08
-4.09716e-07
4.04108e-08
-4.16799e-07
3.66122e-08
-4.2312e-07
3.26852e-08
-4.28659e-07
2.86432e-08
-4.33395e-07
2.44998e-08
-4.37311e-07
2.02686e-08
-4.40395e-07
1.59634e-08
-4.42633e-07
1.15982e-08
-4.44018e-07
7.18698e-09
-4.44543e-07
2.74411e-09
-4.44206e-07
-1.71599e-09
-4.43006e-07
-6.17874e-09
-4.40945e-07
-1.06294e-08
-4.38029e-07
-1.50529e-08
-4.34266e-07
-1.94343e-08
-4.29668e-07
-2.37583e-08
-4.24247e-07
-2.80096e-08
-4.18022e-07
-3.21725e-08
-4.11013e-07
-3.62316e-08
-4.03242e-07
-4.01711e-08
-3.94735e-07
-4.39754e-08
-3.85522e-07
-4.76286e-08
-3.75634e-07
-5.11151e-08
-3.65107e-07
-5.44192e-08
-3.53977e-07
-5.75254e-08
-3.42285e-07
-6.04184e-08
-3.30076e-07
-6.30832e-08
-3.17395e-07
-6.55048e-08
-3.0429e-07
-6.76691e-08
-2.90814e-07
-6.9562e-08
-2.77019e-07
-7.11702e-08
-2.62963e-07
-7.2481e-08
-2.48703e-07
-7.34825e-08
-2.34298e-07
-7.41636e-08
-2.19812e-07
-7.45141e-08
-2.05307e-07
-7.45252e-08
-1.90847e-07
-7.41893e-08
-1.76499e-07
-7.35e-08
-1.62327e-07
-7.24528e-08
-1.48399e-07
-7.1045e-08
-1.3478e-07
-6.92759e-08
-1.21536e-07
-6.71472e-08
-1.08731e-07
-6.46634e-08
-9.64267e-08
-6.1832e-08
-8.46841e-08
-5.8664e-08
-7.35599e-08
-5.51744e-08
-6.31075e-08
-5.13832e-08
-5.33756e-08
-4.73156e-08
-4.44071e-08
-4.30035e-08
-3.62388e-08
-3.84862e-08
-2.88998e-08
-3.38121e-08
-2.24105e-08
-2.90402e-08
-1.67819e-08
-2.42422e-08
-1.20145e-08
-1.95048e-08
-8.0968e-09
-1.49323e-08
-5.00556e-09
-1.06506e-08
-2.70466e-09
-6.81026e-09
-1.14545e-09
-3.5907e-09
-2.67397e-10
-1.20462e-09
7.94742e-11
-3.88402e-10
4.36286e-10
-1.59006e-09
2.77368e-09
-3.64304e-09
6.21557e-09
-6.58065e-09
1.04846e-08
-1.04282e-08
1.53602e-08
-1.52018e-08
2.06536e-08
-2.09079e-08
2.62046e-08
-2.7543e-08
3.18787e-08
-3.50939e-08
3.7564e-08
-4.35389e-08
4.31678e-08
-5.28475e-08
4.8614e-08
-6.29823e-08
5.38404e-08
-7.38992e-08
5.87966e-08
-8.55488e-08
6.34425e-08
-9.78768e-08
6.77463e-08
-1.10825e-07
7.16835e-08
-1.24333e-07
7.52358e-08
-1.38335e-07
7.839e-08
-1.52769e-07
8.11373e-08
-1.67565e-07
8.34728e-08
-1.82659e-07
8.53945e-08
-1.97981e-07
8.69033e-08
-2.13465e-07
8.80024e-08
-2.29043e-07
8.8697e-08
-2.4465e-07
8.89938e-08
-2.60222e-07
8.89011e-08
-2.75693e-07
8.84284e-08
-2.91003e-07
8.75862e-08
-3.06091e-07
8.63857e-08
-3.20899e-07
8.48391e-08
-3.35369e-07
8.29591e-08
-3.49448e-07
8.07589e-08
-3.63084e-07
7.82522e-08
-3.76227e-07
7.54532e-08
-3.88829e-07
7.23762e-08
-4.00846e-07
6.90358e-08
-4.12234e-07
6.5447e-08
-4.22954e-07
6.1625e-08
-4.32969e-07
5.75851e-08
-4.42244e-07
5.33427e-08
-4.50747e-07
4.89136e-08
-4.58448e-07
4.43136e-08
-4.65322e-07
3.95587e-08
-4.71344e-07
3.46651e-08
-4.76493e-07
2.9649e-08
-4.80751e-07
2.45271e-08
-4.84104e-07
1.93159e-08
-4.86538e-07
1.40323e-08
-4.88044e-07
8.69342e-09
-4.88617e-07
3.31645e-09
-4.88252e-07
-2.08116e-09
-4.86949e-07
-7.48179e-09
-4.8471e-07
-1.28676e-08
-4.81543e-07
-1.82205e-08
-4.77455e-07
-2.35224e-08
-4.72458e-07
-2.87548e-08
-4.66569e-07
-3.38993e-08
-4.59804e-07
-3.8937e-08
-4.52187e-07
-4.38492e-08
-4.43741e-07
-4.8617e-08
-4.34495e-07
-5.32215e-08
-4.24479e-07
-5.76437e-08
-4.1373e-07
-6.18648e-08
-4.02283e-07
-6.5866e-08
-3.9018e-07
-6.96286e-08
-3.77464e-07
-7.31342e-08
-3.64182e-07
-7.63648e-08
-3.50385e-07
-7.93027e-08
-3.36123e-07
-8.19306e-08
-3.21453e-07
-8.4232e-08
-3.06432e-07
-8.61909e-08
-2.91121e-07
-8.77922e-08
-2.75582e-07
-8.90217e-08
-2.59879e-07
-8.98662e-08
-2.4408e-07
-9.0314e-08
-2.2825e-07
-9.03545e-08
-2.12461e-07
-8.99788e-08
-1.96781e-07
-8.91796e-08
-1.81282e-07
-8.79519e-08
-1.66034e-07
-8.62928e-08
-1.51108e-07
-8.42017e-08
-1.36574e-07
-8.16812e-08
-1.22501e-07
-7.87369e-08
-1.08955e-07
-7.53781e-08
-9.60003e-08
-7.16185e-08
-8.36987e-08
-6.74761e-08
-7.21072e-08
-6.29747e-08
-6.12785e-08
-5.81444e-08
-5.12595e-08
-5.30224e-08
-4.20911e-08
-4.76546e-08
-3.38066e-08
-4.20966e-08
-2.64312e-08
-3.64156e-08
-1.99812e-08
-3.06922e-08
-1.44631e-08
-2.50228e-08
-9.87319e-09
-1.95223e-08
-6.19715e-09
-1.43266e-08
-3.41024e-09
-9.59718e-09
-1.47793e-09
-5.52302e-09
-3.57324e-10
-2.32523e-09
-2.77854e-10
-4.78606e-10
9.14894e-10
-1.92656e-09
4.22162e-09
-4.36068e-09
8.6497e-09
-7.79627e-09
1.39202e-08
-1.22436e-08
1.98075e-08
-1.77061e-08
2.61162e-08
-2.41798e-08
3.26783e-08
-3.16523e-08
3.93511e-08
-4.0103e-08
4.60147e-08
-4.95037e-08
5.25685e-08
-5.98185e-08
5.89289e-08
-7.1005e-08
6.50269e-08
-8.30145e-08
7.08061e-08
-9.57932e-08
7.62212e-08
-1.09283e-07
8.12359e-08
-1.23421e-07
8.58219e-08
-1.38143e-07
8.99578e-08
-1.53381e-07
9.36281e-08
-1.69066e-07
9.68221e-08
-1.85127e-07
9.95337e-08
-2.01493e-07
1.0176e-07
-2.18092e-07
1.03502e-07
-2.34853e-07
1.04763e-07
-2.51705e-07
1.05549e-07
-2.68578e-07
1.05867e-07
-2.85403e-07
1.05726e-07
-3.02113e-07
1.05138e-07
-3.18641e-07
1.04114e-07
-3.34924e-07
1.02668e-07
-3.50899e-07
1.00814e-07
-3.66506e-07
9.8566e-08
-3.81687e-07
9.594e-08
-3.96387e-07
9.29519e-08
-4.10552e-07
8.96184e-08
-4.24132e-07
8.59563e-08
-4.37079e-07
8.19828e-08
-4.49348e-07
7.77157e-08
-4.60895e-07
7.31726e-08
-4.71682e-07
6.83718e-08
-4.8167e-07
6.33315e-08
-4.90827e-07
5.80702e-08
-4.9912e-07
5.26068e-08
-5.06522e-07
4.69601e-08
-5.13006e-07
4.11493e-08
-5.18551e-07
3.51938e-08
-5.23137e-07
2.91129e-08
-5.26747e-07
2.29266e-08
-5.2937e-07
1.66547e-08
-5.30994e-07
1.03175e-08
-5.31613e-07
3.93535e-09
-5.31223e-07
-2.47109e-09
-5.29824e-07
-8.88094e-09
-5.27418e-07
-1.52731e-08
-5.24013e-07
-2.16262e-08
-5.19616e-07
-2.79187e-08
-5.14242e-07
-3.41289e-08
-5.07907e-07
-4.02348e-08
-5.00629e-07
-4.62144e-08
-4.92433e-07
-5.20454e-08
-4.83345e-07
-5.77055e-08
-4.73394e-07
-6.31724e-08
-4.62614e-07
-6.84237e-08
-4.51041e-07
-7.34372e-08
-4.38717e-07
-7.81907e-08
-4.25683e-07
-8.26623e-08
-4.11987e-07
-8.68302e-08
-3.97678e-07
-9.06734e-08
-3.8281e-07
-9.41709e-08
-3.67438e-07
-9.73025e-08
-3.51621e-07
-1.00049e-07
-3.35421e-07
-1.02391e-07
-3.18901e-07
-1.04312e-07
-3.02129e-07
-1.05794e-07
-2.85172e-07
-1.06823e-07
-2.68101e-07
-1.07385e-07
-2.50988e-07
-1.07467e-07
-2.33908e-07
-1.0706e-07
-2.16933e-07
-1.06154e-07
-2.00139e-07
-1.04745e-07
-1.83602e-07
-1.0283e-07
-1.67397e-07
-1.00407e-07
-1.51597e-07
-9.74813e-08
-1.36275e-07
-9.40585e-08
-1.21503e-07
-9.01502e-08
-1.07349e-07
-8.57725e-08
-9.38782e-08
-8.09467e-08
-8.11524e-08
-7.57005e-08
-6.92283e-08
-7.00685e-08
-5.81572e-08
-6.40935e-08
-4.79844e-08
-5.78274e-08
-3.87481e-08
-5.13329e-08
-3.0479e-08
-4.46847e-08
-2.31994e-08
-3.79718e-08
-1.69228e-08
-3.12994e-08
-1.16538e-08
-2.47913e-08
-7.38796e-09
-1.85925e-08
-4.1124e-09
-1.28727e-08
-1.80685e-09
-7.82858e-09
-4.45442e-10
-3.68664e-09
-7.2329e-10
-5.66425e-10
1.48133e-09
-2.25673e-09
5.91191e-09
-5.06845e-09
1.14614e-08
-8.99982e-09
1.78516e-08
-1.40463e-08
2.4854e-08
-2.01988e-08
3.22687e-08
-2.74421e-08
3.99216e-08
-3.57546e-08
4.76636e-08
-4.51077e-08
5.53679e-08
-5.54661e-08
6.29269e-08
-6.67878e-08
7.02506e-08
-7.90248e-08
7.72639e-08
-9.21235e-08
8.39049e-08
-1.06026e-07
9.01233e-08
-1.20668e-07
9.58785e-08
-1.35985e-07
1.01139e-07
-1.51907e-07
1.0588e-07
-1.68363e-07
1.10084e-07
-1.85279e-07
1.13738e-07
-2.0258e-07
1.16835e-07
-2.20193e-07
1.19373e-07
-2.3804e-07
1.2135e-07
-2.56048e-07
1.22771e-07
-2.74141e-07
1.23642e-07
-2.92245e-07
1.23971e-07
-3.10288e-07
1.23769e-07
-3.28199e-07
1.23049e-07
-3.45907e-07
1.21823e-07
-3.63346e-07
1.20107e-07
-3.80449e-07
1.17917e-07
-3.97153e-07
1.1527e-07
-4.13397e-07
1.12184e-07
-4.29123e-07
1.08677e-07
-4.44273e-07
1.04769e-07
-4.58795e-07
1.00478e-07
-4.72637e-07
9.58253e-08
-4.85752e-07
9.08309e-08
-4.98095e-07
8.55155e-08
-5.09624e-07
7.99002e-08
-5.20298e-07
7.40062e-08
-5.30083e-07
6.78551e-08
-5.38945e-07
6.14687e-08
-5.46854e-07
5.48691e-08
-5.53783e-07
4.80784e-08
-5.59709e-07
4.11192e-08
-5.6461e-07
3.40143e-08
-5.6847e-07
2.67866e-08
-5.71275e-07
1.94595e-08
-5.73014e-07
1.20564e-08
-5.73679e-07
4.60104e-09
-5.73268e-07
-2.88243e-09
-5.71779e-07
-1.03697e-08
-5.69216e-07
-1.78363e-08
-5.65585e-07
-2.52574e-08
-5.60896e-07
-3.26078e-08
-5.55162e-07
-3.98622e-08
-5.48402e-07
-4.69953e-08
-5.40635e-07
-5.39812e-08