/*--------------------------------*- C++ -*----------------------------------*\
| =========                 |                                                 |
| \\      /  F ield         | OpenFOAM: The Open Source CFD Toolbox           |
|  \\    /   O peration     | Version:  2212                                  |
|   \\  /    A nd           | Website:  www.openfoam.com                      |
|    \\/     M anipulation  |                                                 |
\*---------------------------------------------------------------------------*/
FoamFile
{
    version     2.0;
    format      ascii;
    arch        "LSB;label=32;scalar=64";
    class       volVectorField;
    location    "0.0495";
    object      U;
}
// * * * * * * * * * * * * * * * * * * * * * * * * * * * * * * * * * * * * * //

dimensions      [0 1 -1 0 0 0 0];

internalField   nonuniform List<vector> 
10000
(
(2.78843e-06 -2.83952e-06 0)
(1.37476e-05 -7.29619e-06 0)
(3.11965e-05 -8.40838e-06 0)
(4.74012e-05 -7.10808e-06 0)
(5.76728e-05 -4.63123e-06 0)
(5.98027e-05 -1.63946e-06 0)
(5.27557e-05 1.5314e-06 0)
(3.61047e-05 4.71215e-06 0)
(9.81067e-06 7.80213e-06 0)
(-2.59212e-05 1.07507e-05 0)
(-7.07234e-05 1.35309e-05 0)
(-0.00012413 1.61226e-05 0)
(-0.000185605 1.85181e-05 0)
(-0.000254564 2.0715e-05 0)
(-0.000330403 2.27091e-05 0)
(-0.000412496 2.45006e-05 0)
(-0.000500207 2.60926e-05 0)
(-0.000592908 2.74868e-05 0)
(-0.000689966 2.86894e-05 0)
(-0.00079076 2.97064e-05 0)
(-0.000894682 3.05413e-05 0)
(-0.00100113 3.11965e-05 0)
(-0.00110952 3.16796e-05 0)
(-0.00121929 3.19991e-05 0)
(-0.00132988 3.21595e-05 0)
(-0.00144077 3.21658e-05 0)
(-0.00155143 3.20247e-05 0)
(-0.00166136 3.17417e-05 0)
(-0.0017701 3.13221e-05 0)
(-0.00187719 3.07723e-05 0)
(-0.00198217 3.00987e-05 0)
(-0.00208464 2.93068e-05 0)
(-0.0021842 2.84014e-05 0)
(-0.00228046 2.73889e-05 0)
(-0.00237306 2.62761e-05 0)
(-0.00246166 2.50685e-05 0)
(-0.00254595 2.3771e-05 0)
(-0.00262561 2.23893e-05 0)
(-0.00270037 2.093e-05 0)
(-0.00276996 1.93982e-05 0)
(-0.00283414 1.77986e-05 0)
(-0.00289268 1.61367e-05 0)
(-0.00294538 1.44181e-05 0)
(-0.00299205 1.26498e-05 0)
(-0.00303254 1.08375e-05 0)
(-0.00306668 8.98569e-06 0)
(-0.00309437 7.10034e-06 0)
(-0.00311549 5.18821e-06 0)
(-0.00312997 3.25455e-06 0)
(-0.00313773 1.30527e-06 0)
(-0.00313875 -6.53269e-07 0)
(-0.00313299 -2.61553e-06 0)
(-0.00312047 -4.57453e-06 0)
(-0.0031012 -6.52259e-06 0)
(-0.00307523 -8.45423e-06 0)
(-0.00304264 -1.0364e-05 0)
(-0.00300352 -1.22444e-05 0)
(-0.00295797 -1.40881e-05 0)
(-0.00290616 -1.58885e-05 0)
(-0.00284823 -1.76382e-05 0)
(-0.00278438 -1.93298e-05 0)
(-0.00271483 -2.09567e-05 0)
(-0.00263981 -2.25115e-05 0)
(-0.00255959 -2.39857e-05 0)
(-0.00247446 -2.53729e-05 0)
(-0.00238473 -2.66667e-05 0)
(-0.00229074 -2.78593e-05 0)
(-0.00219286 -2.89424e-05 0)
(-0.00209147 -2.99088e-05 0)
(-0.00198699 -3.07514e-05 0)
(-0.00187985 -3.14632e-05 0)
(-0.00177051 -3.20382e-05 0)
(-0.00165946 -3.24702e-05 0)
(-0.00154719 -3.27523e-05 0)
(-0.00143423 -3.2877e-05 0)
(-0.00132113 -3.28385e-05 0)
(-0.00120844 -3.26318e-05 0)
(-0.00109674 -3.22515e-05 0)
(-0.000986622 -3.16922e-05 0)
(-0.000878701 -3.09491e-05 0)
(-0.000773593 -3.00188e-05 0)
(-0.000671925 -2.88977e-05 0)
(-0.000574332 -2.75822e-05 0)
(-0.000481455 -2.60692e-05 0)
(-0.00039393 -2.43575e-05 0)
(-0.000312392 -2.24473e-05 0)
(-0.000237462 -2.03405e-05 0)
(-0.000169745 -1.80401e-05 0)
(-0.000109816 -1.55516e-05 0)
(-5.82106e-05 -1.28845e-05 0)
(-1.5406e-05 -1.00541e-05 0)
(1.82039e-05 -7.08474e-06 0)
(4.23454e-05 -4.01361e-06 0)
(5.69235e-05 -9.04418e-07 0)
(6.21112e-05 2.1348e-06 0)
(5.84965e-05 4.91534e-06 0)
(4.72861e-05 7.10853e-06 0)
(3.07308e-05 8.12679e-06 0)
(1.33878e-05 6.96154e-06 0)
(2.65148e-06 2.65176e-06 0)
(6.73913e-06 -1.3575e-05 0)
(2.77316e-05 -2.84714e-05 0)
(5.57199e-05 -3.03567e-05 0)
(7.76605e-05 -2.26462e-05 0)
(8.47672e-05 -9.22897e-06 0)
(7.19859e-05 7.30674e-06 0)
(3.63726e-05 2.53957e-05 0)
(-2.36386e-05 4.40342e-05 0)
(-0.000108602 6.25929e-05 0)
(-0.000218338 8.06603e-05 0)
(-0.000352193 9.79597e-05 0)
(-0.00050915 0.000114313 0)
(-0.000687946 0.000129598 0)
(-0.000887157 0.000143734 0)
(-0.00110523 0.000156672 0)
(-0.00134054 0.000168385 0)
(-0.00159141 0.000178858 0)
(-0.00185615 0.000188091 0)
(-0.00213305 0.000196095 0)
(-0.0024204 0.000202888 0)
(-0.00271653 0.000208487 0)
(-0.00301978 0.000212919 0)
(-0.00332852 0.000216212 0)
(-0.00364115 0.000218398 0)
(-0.00395613 0.00021951 0)
(-0.00427196 0.000219585 0)
(-0.00458718 0.000218658 0)
(-0.00490037 0.000216764 0)
(-0.00521019 0.000213942 0)
(-0.00551532 0.00021023 0)
(-0.00581451 0.000205667 0)
(-0.00610657 0.00020029 0)
(-0.00639035 0.000194138 0)
(-0.00666476 0.000187249 0)
(-0.00692876 0.000179664 0)
(-0.00718138 0.00017142 0)
(-0.00742169 0.000162556 0)
(-0.00764883 0.00015311 0)
(-0.00786198 0.000143123 0)
(-0.00806039 0.000132632 0)
(-0.00824335 0.000121675 0)
(-0.00841023 0.000110292 0)
(-0.00856043 9.85234e-05 0)
(-0.00869343 8.64073e-05 0)
(-0.00880875 7.39838e-05 0)
(-0.00890599 6.12931e-05 0)
(-0.00898478 4.83749e-05 0)
(-0.00904483 3.5271e-05 0)
(-0.0090859 2.20237e-05 0)
(-0.00910783 8.67384e-06 0)
(-0.00911048 -4.73631e-06 0)
(-0.00909382 -1.81626e-05 0)
(-0.00905785 -3.15614e-05 0)
(-0.00900265 -4.48882e-05 0)
(-0.00892836 -5.80972e-05 0)
(-0.00883518 -7.11429e-05 0)
(-0.00872339 -8.39792e-05 0)
(-0.00859333 -9.65593e-05 0)
(-0.0084454 -0.000108835 0)
(-0.0082801 -0.000120758 0)
(-0.00809795 -0.000132278 0)
(-0.00789958 -0.000143347 0)
(-0.00768568 -0.000153915 0)
(-0.00745702 -0.000163933 0)
(-0.0072144 -0.000173352 0)
(-0.00695875 -0.000182122 0)
(-0.00669102 -0.000190195 0)
(-0.00641226 -0.000197521 0)
(-0.00612357 -0.000204052 0)
(-0.00582613 -0.000209741 0)
(-0.00552118 -0.000214543 0)
(-0.00521003 -0.000218412 0)
(-0.00489403 -0.000221307 0)
(-0.00457461 -0.000223186 0)
(-0.00425325 -0.000224009 0)
(-0.00393148 -0.000223739 0)
(-0.00361087 -0.000222342 0)
(-0.00329306 -0.000219787 0)
(-0.0029797 -0.000216045 0)
(-0.00267248 -0.000211093 0)
(-0.00237312 -0.00020491 0)
(-0.00208335 -0.000197482 0)
(-0.00180493 -0.000188802 0)
(-0.00153958 -0.000178867 0)
(-0.00128905 -0.000167684 0)
(-0.00105501 -0.000155274 0)
(-0.000839118 -0.000141669 0)
(-0.000642936 -0.000126919 0)
(-0.000467926 -0.000111098 0)
(-0.0003154 -9.43098e-05 0)
(-0.000186466 -7.67029e-05 0)
(-8.1955e-05 -5.84907e-05 0)
(-2.31818e-06 -3.99767e-05 0)
(5.25215e-05 -2.16084e-05 0)
(8.33773e-05 -4.05112e-06 0)
(9.20894e-05 1.1689e-05 0)
(8.18561e-05 2.40846e-05 0)
(5.7763e-05 3.08124e-05 0)
(2.84654e-05 2.8463e-05 0)
(6.95418e-06 1.33783e-05 0)
(7.56714e-06 -3.00788e-05 0)
(2.87341e-05 -5.59894e-05 0)
(5.23945e-05 -5.43649e-05 0)
(6.33107e-05 -3.24067e-05 0)
(5.10186e-05 2.81352e-06 0)
(8.99982e-06 4.61073e-05 0)
(-6.69284e-05 9.38743e-05 0)
(-0.000179207 0.000143638 0)
(-0.000328872 0.000193693 0)
(-0.00051594 0.000242843 0)
(-0.000739634 0.000290262 0)
(-0.000998623 0.000335366 0)
(-0.00129116 0.000377742 0)
(-0.00161518 0.000417113 0)
(-0.00196842 0.000453289 0)
(-0.00234845 0.000486146 0)
(-0.00275274 0.000515616 0)
(-0.00317871 0.000541671 0)
(-0.00362371 0.000564308 0)
(-0.00408513 0.000583555 0)
(-0.00456035 0.000599455 0)
(-0.00504677 0.000612063 0)
(-0.00554182 0.000621449 0)
(-0.00604302 0.000627693 0)
(-0.00654791 0.00063088 0)
(-0.0070541 0.000631104 0)
(-0.00755928 0.000628462 0)
(-0.00806121 0.000623054 0)
(-0.00855773 0.000614981 0)
(-0.00904673 0.000604351 0)
(-0.00952624 0.000591272 0)
(-0.00999431 0.00057585 0)
(-0.0104491 0.000558194 0)
(-0.0108889 0.000538415 0)
(-0.0113121 0.000516625 0)
(-0.011717 0.000492932 0)
(-0.0121022 0.000467448 0)
(-0.0124662 0.000440285 0)
(-0.0128078 0.000411555 0)
(-0.0131258 0.00038137 0)
(-0.013419 0.000349842 0)
(-0.0136864 0.000317083 0)
(-0.0139271 0.00028321 0)
(-0.0141401 0.000248336 0)
(-0.0143249 0.000212576 0)
(-0.0144805 0.000176046 0)
(-0.0146067 0.000138865 0)
(-0.0147027 0.000101152 0)
(-0.0147683 6.30263e-05 0)
(-0.0148032 2.46117e-05 0)
(-0.0148072 -1.39696e-05 0)
(-0.0147802 -5.2593e-05 0)
(-0.0147223 -9.11299e-05 0)
(-0.0146336 -0.000129452 0)
(-0.0145142 -0.000167428 0)
(-0.0143646 -0.000204926 0)
(-0.0141852 -0.000241811 0)
(-0.0139766 -0.000277949 0)
(-0.0137393 -0.000313202 0)
(-0.0134742 -0.00034743 0)
(-0.0131822 -0.000380493 0)
(-0.0128642 -0.000412251 0)
(-0.0125214 -0.000442563 0)
(-0.012155 -0.000471286 0)
(-0.0117663 -0.000498281 0)
(-0.0113567 -0.000523407 0)
(-0.0109279 -0.000546525 0)
(-0.0104814 -0.000567495 0)
(-0.0100191 -0.000586182 0)
(-0.00954283 -0.000602455 0)
(-0.00905455 -0.000616185 0)
(-0.00855635 -0.000627246 0)
(-0.00805041 -0.000635518 0)
(-0.00753899 -0.000640888 0)
(-0.00702443 -0.000643246 0)
(-0.00650917 -0.000642492 0)
(-0.0059957 -0.000638536 0)
(-0.00548658 -0.000631295 0)
(-0.00498443 -0.000620697 0)
(-0.0044919 -0.000606683 0)
(-0.00401169 -0.00058921 0)
(-0.00354651 -0.00056825 0)
(-0.00309907 -0.000543796 0)
(-0.00267205 -0.000515864 0)
(-0.0022681 -0.0004845 0)
(-0.00188981 -0.000449783 0)
(-0.00153966 -0.000411837 0)
(-0.00121998 -0.000370842 0)
(-0.000932926 -0.000327048 0)
(-0.000680371 -0.000280798 0)
(-0.000463851 -0.000232567 0)
(-0.000284446 -0.000183004 0)
(-0.00014263 -0.000133004 0)
(-3.80801e-05 -8.38153e-05 0)
(3.05806e-05 -3.71828e-05 0)
(6.61076e-05 4.43355e-06 0)
(7.29578e-05 3.7579e-05 0)
(5.77353e-05 5.74826e-05 0)
(3.09268e-05 5.77854e-05 0)
(8.13586e-06 3.0723e-05 0)
(6.5046e-06 -4.52956e-05 0)
(2.14229e-05 -7.70935e-05 0)
(3.07823e-05 -6.50823e-05 0)
(1.92534e-05 -2.08968e-05 0)
(-2.39396e-05 4.52101e-05 0)
(-0.000105925 0.000125338 0)
(-0.000231488 0.000213686 0)
(-0.000403524 0.000306047 0)
(-0.000623402 0.000399358 0)
(-0.000891242 0.000491413 0)
(-0.00120622 0.000580602 0)
(-0.0015668 0.000665756 0)
(-0.00197086 0.000746038 0)
(-0.00241586 0.000820845 0)
(-0.00289898 0.000889756 0)
(-0.00341713 0.000952491 0)
(-0.00396708 0.00100887 0)
(-0.0045455 0.0010588 0)
(-0.00514896 0.00110225 0)
(-0.00577405 0.00113923 0)
(-0.00641731 0.00116981 0)
(-0.00707534 0.00119408 0)
(-0.00774475 0.00121215 0)
(-0.00842223 0.00122415 0)
(-0.00910451 0.00123026 0)
(-0.00978841 0.00123063 0)
(-0.0104708 0.00122543 0)
(-0.0111488 0.00121487 0)
(-0.0118194 0.00119913 0)
(-0.0124798 0.00117842 0)
(-0.0131274 0.00115293 0)
(-0.0137595 0.00112287 0)
(-0.0143737 0.00108846 0)
(-0.0149675 0.00104991 0)
(-0.0155389 0.00100742 0)
(-0.0160857 0.000961224 0)
(-0.0166057 0.000911525 0)
(-0.0170973 0.000858545 0)
(-0.0175585 0.000802503 0)
(-0.0179878 0.000743614 0)
(-0.0183837 0.000682102 0)
(-0.0187446 0.000618188 0)
(-0.0190695 0.000552094 0)
(-0.019357 0.000484046 0)
(-0.0196062 0.000414271 0)
(-0.0198163 0.000342995 0)
(-0.0199863 0.000270451 0)
(-0.0201158 0.000196872 0)
(-0.0202041 0.000122494 0)
(-0.020251 4.75555e-05 0)
(-0.0202561 -2.76992e-05 0)
(-0.0202194 -0.000103026 0)
(-0.0201409 -0.000178176 0)
(-0.0200208 -0.000252897 0)
(-0.0198594 -0.000326933 0)
(-0.0196572 -0.000400026 0)
(-0.0194147 -0.000471912 0)
(-0.0191328 -0.000542328 0)
(-0.0188123 -0.000611006 0)
(-0.0184543 -0.000677676 0)
(-0.01806 -0.000742066 0)
(-0.0176306 -0.0008039 0)
(-0.0171678 -0.000862907 0)
(-0.0166732 -0.000918812 0)
(-0.0161485 -0.000971343 0)
(-0.0155958 -0.00102023 0)
(-0.015017 -0.0010652 0)
(-0.0144146 -0.00110598 0)
(-0.0137907 -0.00114233 0)
(-0.013148 -0.00117398 0)
(-0.0124892 -0.00120069 0)
(-0.0118169 -0.00122221 0)
(-0.0111342 -0.00123833 0)
(-0.010444 -0.00124882 0)
(-0.00974945 -0.00125348 0)
(-0.00905384 -0.00125213 0)
(-0.00836048 -0.00124459 0)
(-0.00767276 -0.00123073 0)
(-0.00699417 -0.0012104 0)
(-0.00632821 -0.00118351 0)
(-0.00567844 -0.00115 0)
(-0.00504842 -0.00110983 0)
(-0.0044417 -0.00106301 0)
(-0.0038618 -0.0010096 0)
(-0.00331214 -0.000949707 0)
(-0.00279605 -0.000883531 0)
(-0.00231672 -0.000811343 0)
(-0.00187711 -0.000733533 0)
(-0.00147989 -0.000650629 0)
(-0.0011274 -0.000563341 0)
(-0.00082146 -0.000472622 0)
(-0.000563334 -0.000379743 0)
(-0.000353493 -0.000286407 0)
(-0.000191437 -0.000194904 0)
(-7.54311e-05 -0.000108319 0)
(-2.19943e-06 -3.08097e-05 0)
(3.3363e-05 3.20366e-05 0)
(3.85785e-05 7.28561e-05 0)
(2.45105e-05 8.21478e-05 0)
(7.1771e-06 4.73836e-05 0)
(4.38562e-06 -5.50243e-05 0)
(8.95106e-06 -8.37021e-05 0)
(-3.03934e-06 -5.26638e-05 0)
(-4.52236e-05 2.22928e-05 0)
(-0.000127772 0.000127896 0)
(-0.000257837 0.000253692 0)
(-0.000440296 0.000391734 0)
(-0.000678189 0.000536027 0)
(-0.000972943 0.000682085 0)
(-0.0013247 0.000826543 0)
(-0.00173257 0.000966882 0)
(-0.00219478 0.00110123 0)
(-0.00270895 0.0012282 0)
(-0.00327216 0.00134678 0)
(-0.00388109 0.00145623 0)
(-0.00453214 0.00155605 0)
(-0.00522149 0.00164589 0)
(-0.00594515 0.00172555 0)
(-0.00669905 0.00179495 0)
(-0.00747907 0.00185406 0)
(-0.00828103 0.00190296 0)
(-0.00910082 0.00194176 0)
(-0.00993431 0.00197063 0)
(-0.0107774 0.00198976 0)
(-0.0116263 0.00199938 0)
(-0.0124769 0.00199976 0)
(-0.0133254 0.00199117 0)
(-0.0141683 0.0019739 0)
(-0.0150018 0.00194825 0)
(-0.0158227 0.00191454 0)
(-0.0166274 0.00187309 0)
(-0.0174129 0.00182424 0)
(-0.0181761 0.00176832 0)
(-0.018914 0.00170567 0)
(-0.0196239 0.00163663 0)
(-0.0203031 0.00156155 0)
(-0.0209493 0.00148079 0)
(-0.0215599 0.00139469 0)
(-0.0221328 0.00130361 0)
(-0.0226661 0.0012079 0)
(-0.0231577 0.00110793 0)
(-0.023606 0.00100405 0)
(-0.0240093 0.000896623 0)
(-0.0243664 0.000786023 0)
(-0.0246758 0.000672617 0)
(-0.0249365 0.000556778 0)
(-0.0251475 0.000438881 0)
(-0.025308 0.000319307 0)
(-0.0254175 0.000198444 0)
(-0.0254754 7.66786e-05 0)
(-0.0254815 -4.55922e-05 0)
(-0.0254356 -0.000167968 0)
(-0.0253379 -0.000290044 0)
(-0.0251884 -0.00041141 0)
(-0.0249877 -0.00053165 0)
(-0.0247363 -0.000650343 0)
(-0.0244349 -0.000767063 0)
(-0.0240846 -0.00088138 0)
(-0.0236864 -0.00099286 0)
(-0.0232416 -0.00110107 0)
(-0.0227517 -0.00120556 0)
(-0.0222185 -0.00130589 0)
(-0.0216437 -0.00140162 0)
(-0.0210294 -0.00149231 0)
(-0.0203778 -0.00157752 0)
(-0.0196914 -0.00165681 0)
(-0.0189728 -0.00172974 0)
(-0.0182246 -0.0017959 0)
(-0.01745 -0.00185486 0)
(-0.0166519 -0.00190622 0)
(-0.0158337 -0.00194958 0)
(-0.0149988 -0.00198456 0)
(-0.0141508 -0.00201081 0)
(-0.0132933 -0.00202798 0)
(-0.0124304 -0.00203575 0)
(-0.0115658 -0.00203383 0)
(-0.0107038 -0.00202197 0)
(-0.00984838 -0.00199993 0)
(-0.0090039 -0.00196754 0)
(-0.0081746 -0.00192465 0)
(-0.00736479 -0.00187117 0)
(-0.00657879 -0.00180709 0)
(-0.00582087 -0.00173244 0)
(-0.00509528 -0.00164734 0)
(-0.0044061 -0.00155203 0)
(-0.00375733 -0.00144686 0)
(-0.0031527 -0.0013323 0)
(-0.00259571 -0.00120904 0)
(-0.00208949 -0.00107796 0)
(-0.00163671 -0.000940251 0)
(-0.00123948 -0.000797457 0)
(-0.0008992 -0.000651601 0)
(-0.000616392 -0.000505328 0)
(-0.0003905 -0.000362094 0)
(-0.000219655 -0.00022642 0)
(-0.000100407 -0.000104221 0)
(-2.7463e-05 -3.19399e-06 0)
(6.65665e-06 6.67785e-05 0)
(1.26375e-05 9.31404e-05 0)
(5.09088e-06 5.89198e-05 0)
(1.72294e-06 -5.72577e-05 0)
(-6.60353e-06 -7.1215e-05 0)
(-4.46646e-05 -1.10547e-05 0)
(-0.00012327 0.000103942 0)
(-0.000251282 0.00025783 0)
(-0.000435436 0.000437859 0)
(-0.00068036 0.000634052 0)
(-0.000988889 0.000838715 0)
(-0.00136234 0.00104591 0)
(-0.00180073 0.00125108 0)
(-0.00230298 0.00145073 0)
(-0.00286715 0.0016422 0)
(-0.00349055 0.00182347 0)
(-0.00416993 0.00199304 0)
(-0.00490156 0.0021498 0)
(-0.00568139 0.00229294 0)
(-0.00650508 0.00242193 0)
(-0.0073681 0.00253642 0)
(-0.00826579 0.00263622 0)
(-0.00919343 0.00272127 0)
(-0.0101462 0.00279162 0)
(-0.0111194 0.0028474 0)
(-0.0121082 0.00288883 0)
(-0.0131079 0.00291616 0)
(-0.0141139 0.00292971 0)
(-0.0151216 0.00292983 0)
(-0.0161266 0.0029169 0)
(-0.0171246 0.00289134 0)
(-0.0181114 0.00285356 0)
(-0.019083 0.00280403 0)
(-0.0200354 0.00274321 0)
(-0.0209649 0.00267156 0)
(-0.0218679 0.00258958 0)
(-0.0227409 0.00249776 0)
(-0.0235807 0.0023966 0)
(-0.0243842 0.0022866 0)
(-0.0251484 0.00216828 0)
(-0.0258706 0.00204214 0)
(-0.0265482 0.00190871 0)
(-0.0271788 0.0017685 0)
(-0.0277602 0.00162205 0)
(-0.0282902 0.00146987 0)
(-0.0287671 0.00131251 0)
(-0.0291892 0.0011505 0)
(-0.0295549 0.000984377 0)
(-0.0298629 0.000814701 0)
(-0.0301123 0.00064202 0)
(-0.0303019 0.000466892 0)
(-0.0304311 0.000289884 0)
(-0.0304993 0.00011157 0)
(-0.0305063 -6.74728e-05 0)
(-0.0304518 -0.000246656 0)
(-0.0303359 -0.000425386 0)
(-0.030159 -0.00060306 0)
(-0.0299214 -0.000779068 0)
(-0.029624 -0.000952796 0)
(-0.0292674 -0.00112362 0)
(-0.028853 -0.00129091 0)
(-0.028382 -0.00145403 0)
(-0.027856 -0.00161235 0)
(-0.0272767 -0.00176522 0)
(-0.0266462 -0.00191199 0)
(-0.0259665 -0.00205203 0)
(-0.0252402 -0.00218468 0)
(-0.0244698 -0.00230932 0)
(-0.0236582 -0.0024253 0)
(-0.0228085 -0.002532 0)
(-0.0219239 -0.0026288 0)
(-0.0210079 -0.00271509 0)
(-0.0200641 -0.0027903 0)
(-0.0190964 -0.00285385 0)
(-0.0181088 -0.0029052 0)
(-0.0171055 -0.00294384 0)
(-0.0160909 -0.00296927 0)
(-0.0150695 -0.00298105 0)
(-0.0140458 -0.00297877 0)
(-0.0130247 -0.00296207 0)
(-0.012011 -0.00293064 0)
(-0.0110096 -0.00288423 0)
(-0.0100255 -0.00282268 0)
(-0.00906359 -0.00274587 0)
(-0.00812896 -0.0026538 0)
(-0.00722651 -0.00254658 0)
(-0.00636107 -0.00242442 0)
(-0.00553736 -0.00228771 0)
(-0.00475988 -0.00213698 0)
(-0.00403292 -0.00197301 0)
(-0.00336039 -0.00179679 0)
(-0.00274583 -0.00160968 0)
(-0.00219222 -0.00141339 0)
(-0.00170194 -0.00121017 0)
(-0.00127656 -0.00100286 0)
(-0.00091673 -0.000795126 0)
(-0.000621987 -0.000591644 0)
(-0.000390535 -0.000398392 0)
(-0.000219039 -0.000222995 0)
(-0.000102382 -7.51592e-05 0)
(-3.33666e-05 3.29054e-05 0)
(-2.40546e-06 8.58932e-05 0)
(2.45925e-06 6.3191e-05 0)
(-1.18252e-06 -5.0879e-05 0)
(-2.3827e-05 -3.66712e-05 0)
(-9.09494e-05 6.38948e-05 0)
(-0.00020982 0.000228857 0)
(-0.000387542 0.000440075 0)
(-0.000630122 0.000682766 0)
(-0.000941619 0.000945173 0)
(-0.00132445 0.00121799 0)
(-0.00177959 0.0014939 0)
(-0.00230682 0.00176715 0)
(-0.0029048 0.00203327 0)
(-0.00357132 0.00228875 0)
(-0.00430341 0.00253092 0)
(-0.00509746 0.00275772 0)
(-0.0059494 0.00296761 0)
(-0.00685475 0.00315947 0)
(-0.00780872 0.00333249 0)
(-0.0088063 0.00348616 0)
(-0.00984232 0.00362016 0)
(-0.0109115 0.00373436 0)
(-0.0120085 0.00382879 0)
(-0.013128 0.00390358 0)
(-0.0142646 0.00395897 0)
(-0.0154131 0.0039953 0)
(-0.0165682 0.00401295 0)
(-0.0177248 0.00401237 0)
(-0.0188779 0.00399407 0)
(-0.0200227 0.00395858 0)
(-0.0211543 0.00390648 0)
(-0.0222681 0.00383836 0)
(-0.0233598 0.00375485 0)
(-0.0244251 0.00365657 0)
(-0.0254598 0.00354419 0)
(-0.0264601 0.00341838 0)
(-0.0274222 0.0032798 0)
(-0.0283426 0.00312914 0)
(-0.0292179 0.00296711 0)
(-0.0300451 0.00279439 0)
(-0.0308211 0.0026117 0)
(-0.0315432 0.00241974 0)
(-0.0322089 0.00221924 0)
(-0.0328158 0.00201092 0)
(-0.0333617 0.0017955 0)
(-0.0338449 0.00157374 0)
(-0.0342635 0.00134636 0)
(-0.0346161 0.00111412 0)
(-0.0349013 0.00087778 0)
(-0.0351183 0.000638105 0)
(-0.035266 0.000395872 0)
(-0.0353439 0.000151865 0)
(-0.0353517 -9.31228e-05 0)
(-0.0352891 -0.000338286 0)
(-0.0351563 -0.000582812 0)
(-0.0349535 -0.000825875 0)
(-0.0346814 -0.00106664 0)
(-0.0343407 -0.00130427 0)
(-0.0339324 -0.00153792 0)
(-0.0334578 -0.00176671 0)
(-0.0329185 -0.00198979 0)
(-0.0323162 -0.00220629 0)
(-0.031653 -0.00241532 0)
(-0.030931 -0.00261602 0)
(-0.0301528 -0.00280751 0)
(-0.0293212 -0.00298891 0)
(-0.0284392 -0.00315935 0)
(-0.0275099 -0.00331797 0)
(-0.0265369 -0.00346393 0)
(-0.0255239 -0.00359638 0)
(-0.0244748 -0.00371452 0)
(-0.0233938 -0.00381756 0)
(-0.0222852 -0.00390472 0)
(-0.0211536 -0.00397529 0)
(-0.0200038 -0.00402856 0)
(-0.0188407 -0.0040639 0)
(-0.0176693 -0.00408071 0)
(-0.016495 -0.00407844 0)
(-0.015323 -0.00405665 0)
(-0.0141589 -0.00401491 0)
(-0.0130081 -0.00395294 0)
(-0.0118763 -0.00387052 0)
(-0.010769 -0.00376755 0)
(-0.00969184 -0.00364405 0)
(-0.00865028 -0.00350022 0)
(-0.00764973 -0.00333639 0)
(-0.00669542 -0.00315313 0)
(-0.00579237 -0.00295121 0)
(-0.00494529 -0.00273172 0)
(-0.00415853 -0.00249607 0)
(-0.00343598 -0.00224608 0)
(-0.00278094 -0.0019841 0)
(-0.00219606 -0.00171309 0)
(-0.00168316 -0.00143678 0)
(-0.0012431 -0.00115988 0)
(-0.000875651 -0.000888278 0)
(-0.000579274 -0.000629365 0)
(-0.000350998 -0.000392384 0)
(-0.000186174 -0.000188869 0)
(-7.8224e-05 -3.30885e-05 0)
(-1.91612e-05 5.73464e-05 0)
(-4.02387e-07 5.90737e-05 0)
(-4.15122e-06 -3.53363e-05 0)
(-4.18283e-05 2.1667e-05 0)
(-0.00013973 0.000174827 0)
(-0.000301266 0.000400281 0)
(-0.000531513 0.000678128 0)
(-0.000835493 0.000991941 0)
(-0.00121649 0.00132838 0)
(-0.00167629 0.0016767 0)
(-0.00221541 0.0020283 0)
(-0.00283319 0.00237631 0)
(-0.00352799 0.00271526 0)
(-0.00429724 0.00304082 0)
(-0.00513764 0.00334963 0)
(-0.00604527 0.00363906 0)
(-0.00701567 0.00390711 0)
(-0.00804397 0.00415229 0)
(-0.00912497 0.00437351 0)
(-0.0102532 0.00457005 0)
(-0.0114231 0.00474145 0)
(-0.0126288 0.00488749 0)
(-0.0138645 0.00500814 0)
(-0.0151244 0.00510353 0)
(-0.0164025 0.00517395 0)
(-0.0176932 0.00521976 0)
(-0.0189906 0.00524145 0)
(-0.020289 0.00523958 0)
(-0.021583 0.00521476 0)
(-0.0228671 0.00516766 0)
(-0.0241362 0.00509902 0)
(-0.025385 0.00500959 0)
(-0.0266087 0.00490016 0)
(-0.0278025 0.00477155 0)
(-0.0289619 0.0046246 0)
(-0.0300826 0.00446017 0)
(-0.0311603 0.00427913 0)
(-0.0321912 0.00408238 0)
(-0.0331715 0.0038708 0)
(-0.0340978 0.00364531 0)
(-0.0349667 0.00340683 0)
(-0.0357752 0.00315628 0)
(-0.0365204 0.0028946 0)
(-0.0371998 0.00262273 0)
(-0.0378109 0.00234163 0)
(-0.0383517 0.00205225 0)
(-0.0388202 0.00175557 0)
(-0.0392148 0.00145256 0)
(-0.039534 0.00114422 0)
(-0.0397767 0.000831547 0)
(-0.0399419 0.000515552 0)
(-0.040029 0.000197261 0)
(-0.0400376 -0.00012229 0)
(-0.0399674 -0.000442051 0)
(-0.0398187 -0.000760963 0)
(-0.0395916 -0.00107795 0)
(-0.039287 -0.00139193 0)
(-0.0389056 -0.0017018 0)
(-0.0384486 -0.00200645 0)
(-0.0379174 -0.00230477 0)
(-0.0373137 -0.00259563 0)
(-0.0366396 -0.0028779 0)
(-0.0358972 -0.00315045 0)
(-0.0350891 -0.00341213 0)
(-0.0342181 -0.00366181 0)
(-0.0332872 -0.00389836 0)
(-0.0322997 -0.00412064 0)
(-0.0312594 -0.00432756 0)
(-0.03017 -0.00451801 0)
(-0.0290356 -0.00469091 0)
(-0.0278607 -0.00484522 0)
(-0.0266498 -0.00497992 0)
(-0.0254078 -0.00509404 0)
(-0.0241397 -0.00518663 0)
(-0.0228508 -0.00525681 0)
(-0.0215466 -0.00530377 0)
(-0.0202327 -0.00532676 0)
(-0.0189149 -0.00532509 0)
(-0.017599 -0.00529818 0)
(-0.0162911 -0.00524556 0)
(-0.0149973 -0.00516685 0)
(-0.0137237 -0.00506181 0)
(-0.0124765 -0.00493036 0)
(-0.0112618 -0.00477257 0)
(-0.0100855 -0.00458872 0)
(-0.00895361 -0.00437931 0)
(-0.00787183 -0.00414509 0)
(-0.00684562 -0.00388714 0)
(-0.00588011 -0.00360687 0)
(-0.00498004 -0.00330613 0)
(-0.00414966 -0.0029873 0)
(-0.00339261 -0.00265333 0)
(-0.00271185 -0.00230797 0)
(-0.00210951 -0.00195582 0)
(-0.00158677 -0.00160263 0)
(-0.00114375 -0.00125547 0)
(-0.000779332 -0.000923048 0)
(-0.000491114 -0.000616086 0)
(-0.000275139 -0.000347734 0)
(-0.000125698 -0.000133995 0)
(-3.67103e-05 5.689e-06 0)
(-3.31908e-06 4.60197e-05 0)
(-7.09361e-06 -1.04472e-05 0)
(-6.00468e-05 0.000104653 0)
(-0.000189563 0.000323253 0)
(-0.00039511 0.000620186 0)
(-0.000679582 0.000974281 0)
(-0.00104688 0.00136776 0)
(-0.00149934 0.00178597 0)
(-0.00203798 0.00221691 0)
(-0.00266268 0.00265081 0)
(-0.00337229 0.00307975 0)
(-0.00416471 0.00349733 0)
(-0.005037 0.00389843 0)
(-0.00598547 0.00427898 0)
(-0.00700582 0.00463577 0)
(-0.00809323 0.00496634 0)
(-0.00924245 0.0052688 0)
(-0.0104479 0.00554178 0)
(-0.0117036 0.0057843 0)
(-0.0130037 0.00599576 0)
(-0.0143418 0.00617583 0)
(-0.0157116 0.00632442 0)
(-0.017107 0.00644165 0)
(-0.0185214 0.00652781 0)
(-0.0199486 0.00658334 0)
(-0.0213824 0.0066088 0)
(-0.0228167 0.00660484 0)
(-0.0242454 0.00657223 0)
(-0.0256627 0.00651177 0)
(-0.0270628 0.00642434 0)
(-0.0284402 0.00631089 0)
(-0.0297896 0.00617238 0)
(-0.0311058 0.00600983 0)
(-0.0323837 0.00582428 0)
(-0.0336188 0.0056168 0)
(-0.0348063 0.00538847 0)
(-0.0359421 0.00514041 0)
(-0.037022 0.00487373 0)
(-0.0380423 0.00458958 0)
(-0.0389993 0.00428911 0)
(-0.0398897 0.00397347 0)
(-0.0407103 0.00364386 0)
(-0.0414583 0.00330144 0)
(-0.0421312 0.00294742 0)
(-0.0427266 0.00258301 0)
(-0.0432423 0.00220942 0)
(-0.0436767 0.0018279 0)
(-0.0440281 0.00143968 0)
(-0.0442952 0.00104603 0)
(-0.0444771 0.000648218 0)
(-0.0445729 0.000247539 0)
(-0.0445824 -0.000154705 0)
(-0.0445051 -0.000557195 0)
(-0.0443414 -0.000958596 0)
(-0.0440915 -0.00135756 0)
(-0.0437562 -0.00175272 0)
(-0.0433364 -0.0021427 0)
(-0.0428334 -0.0025261 0)
(-0.0422488 -0.00290153 0)
(-0.0415844 -0.00326758 0)
(-0.0408423 -0.00362281 0)
(-0.0400251 -0.00396582 0)
(-0.0391355 -0.00429518 0)
(-0.0381766 -0.00460946 0)
(-0.0371517 -0.00490726 0)
(-0.0360644 -0.00518715 0)
(-0.0349187 -0.00544776 0)
(-0.0337189 -0.00568772 0)
(-0.0324693 -0.00590569 0)
(-0.0311748 -0.00610037 0)
(-0.0298404 -0.00627049 0)
(-0.0284714 -0.00641483 0)
(-0.0270733 -0.00653226 0)
(-0.0256518 -0.00662167 0)
(-0.0242129 -0.00668206 0)
(-0.0227626 -0.00671251 0)
(-0.0213073 -0.0067122 0)
(-0.0198534 -0.00668043 0)
(-0.0184073 -0.00661662 0)
(-0.0169758 -0.00652035 0)
(-0.0155653 -0.00639135 0)
(-0.0141826 -0.00622956 0)
(-0.0128343 -0.00603512 0)
(-0.0115269 -0.0058084 0)
(-0.0102667 -0.00555008 0)
(-0.0090599 -0.00526115 0)
(-0.00791239 -0.00494296 0)
(-0.0068297 -0.00459732 0)
(-0.00581698 -0.00422654 0)
(-0.00487883 -0.00383353 0)
(-0.00401928 -0.00342193 0)
(-0.00324163 -0.0029962 0)
(-0.00254839 -0.00256187 0)
(-0.00194116 -0.00212564 0)
(-0.00142052 -0.00169571 0)
(-0.000985929 -0.00128201 0)
(-0.000635694 -0.000896552 0)
(-0.000366716 -0.000553888 0)
(-0.00017432 -0.000271427 0)
(-5.44911e-05 -6.99935e-05 0)
(-6.20047e-06 2.38438e-05 0)
(-9.96161e-06 2.3753e-05 0)
(-7.81431e-05 0.000212575 0)
(-0.000239521 0.000509848 0)
(-0.000489655 0.000889642 0)
(-0.00082923 0.00132987 0)
(-0.00126093 0.00181172 0)
(-0.00178606 0.00231947 0)
(-0.00240473 0.00284003 0)
(-0.00311609 0.00336262 0)
(-0.00391838 0.00387835 0)
(-0.00480899 0.00437997 0)
(-0.00578451 0.00486159 0)
(-0.00684082 0.00531848 0)
(-0.00797324 0.00574685 0)
(-0.00917653 0.00614377 0)
(-0.0104451 0.00650695 0)
(-0.0117728 0.00683472 0)
(-0.0131536 0.00712587 0)
(-0.0145808 0.0073796 0)
(-0.0160479 0.00759547 0)
(-0.0175482 0.00777333 0)
(-0.0190748 0.00791327 0)
(-0.0206211 0.00801561 0)
(-0.0221802 0.00808082 0)
(-0.0237455 0.00810956 0)
(-0.0253105 0.00810258 0)
(-0.0268687 0.00806077 0)
(-0.0284138 0.00798509 0)
(-0.0299397 0.00787661 0)
(-0.0314403 0.00773642 0)
(-0.0329099 0.0075657 0)
(-0.034343 0.00736568 0)
(-0.0357342 0.0071376 0)
(-0.0370785 0.00688276 0)
(-0.0383708 0.00660249 0)
(-0.0396066 0.00629811 0)
(-0.0407814 0.00597101 0)
(-0.0418912 0.00562257 0)
(-0.0429321 0.00525419 0)
(-0.0439004 0.00486728 0)
(-0.0447928 0.0044633 0)
(-0.0456063 0.00404367 0)
(-0.0463379 0.00360987 0)
(-0.0469852 0.00316338 0)
(-0.047546 0.00270568 0)
(-0.0480182 0.00223829 0)
(-0.0484003 0.00176274 0)
(-0.0486907 0.00128055 0)
(-0.0488885 0.000793299 0)
(-0.0489929 0.000302557 0)
(-0.0490032 -0.000190081 0)
(-0.0489195 -0.000683 0)
(-0.0487416 -0.00117457 0)
(-0.0484702 -0.00166314 0)
(-0.0481059 -0.00214704 0)
(-0.0476499 -0.00262459 0)
(-0.0471033 -0.00309409 0)
(-0.046468 -0.00355383 0)
(-0.045746 -0.00400209 0)
(-0.0449395 -0.00443714 0)
(-0.0440513 -0.00485725 0)
(-0.0430844 -0.00526067 0)
(-0.0420419 -0.00564568 0)
(-0.0409276 -0.00601056 0)
(-0.0397453 -0.0063536 0)
(-0.0384993 -0.00667311 0)
(-0.0371942 -0.00696744 0)
(-0.0358348 -0.00723496 0)
(-0.0344262 -0.0074741 0)
(-0.0329738 -0.00768332 0)
(-0.0314833 -0.00786117 0)
(-0.0299607 -0.00800625 0)
(-0.028412 -0.00811726 0)
(-0.0268437 -0.00819299 0)
(-0.0252624 -0.00823235 0)
(-0.0236747 -0.00823436 0)
(-0.0220875 -0.0081982 0)
(-0.0205079 -0.0081232 0)
(-0.0189429 -0.00800887 0)
(-0.0173995 -0.00785494 0)
(-0.0158851 -0.00766136 0)
(-0.0144064 -0.00742833 0)
(-0.0129706 -0.00715637 0)
(-0.0115845 -0.00684633 0)
(-0.0102545 -0.00649943 0)
(-0.00898709 -0.00611735 0)
(-0.00778816 -0.00570229 0)
(-0.00666323 -0.00525702 0)
(-0.00561733 -0.00478501 0)
(-0.00465486 -0.00429055 0)
(-0.00377956 -0.00377886 0)
(-0.00299437 -0.00325629 0)
(-0.00230139 -0.0027305 0)
(-0.00170177 -0.00221069 0)
(-0.00119565 -0.00170789 0)
(-0.000782155 -0.00123527 0)
(-0.000459167 -0.000808517 0)
(-0.000223138 -0.000446162 0)
(-7.21665e-05 -0.000170023 0)
(-9.00204e-06 -7.42473e-06 0)
(-1.27298e-05 6.71129e-05 0)
(-9.593e-05 0.000345334 0)
(-0.000289015 0.000734755 0)
(-0.000583786 0.00120905 0)
(-0.000978749 0.00174553 0)
(-0.00147534 0.00232463 0)
(-0.00207373 0.00292975 0)
(-0.00277308 0.00354692 0)
(-0.00357173 0.00416447 0)
(-0.00446723 0.00477267 0)
(-0.00545636 0.00536347 0)
(-0.00653519 0.00593027 0)
(-0.00769914 0.00646772 0)
(-0.00894308 0.0069715 0)
(-0.0102613 0.00743818 0)
(-0.0116479 0.00786511 0)
(-0.0130964 0.0082503 0)
(-0.0146 0.00859229 0)
(-0.0161521 0.00889012 0)
(-0.0177454 0.00914321 0)
(-0.019373 0.00935133 0)
(-0.0210276 0.00951456 0)
(-0.0227021 0.00963322 0)
(-0.0243892 0.00970785 0)
(-0.026082 0.00973917 0)
(-0.0277735 0.00972806 0)
(-0.0294568 0.00967553 0)
(-0.0311251 0.00958271 0)
(-0.0327721 0.00945082 0)
(-0.0343913 0.00928117 0)
(-0.0359766 0.00907513 0)
(-0.037522 0.00883415 0)
(-0.0390219 0.0085597 0)
(-0.0404708 0.00825333 0)
(-0.0418635 0.00791658 0)
(-0.0431951 0.00755107 0)
(-0.0444609 0.00715841 0)
(-0.0456564 0.00674026 0)
(-0.0467775 0.0062983 0)
(-0.0478204 0.00583421 0)
(-0.0487815 0.0053497 0)
(-0.0496574 0.00484651 0)
(-0.0504452 0.00432639 0)
(-0.0511423 0.00379111 0)
(-0.0517461 0.00324244 0)
(-0.0522546 0.00268219 0)
(-0.0526661 0.00211219 0)
(-0.052979 0.00153429 0)
(-0.0531921 0.000950344 0)
(-0.0533047 0.000362241 0)
(-0.0533161 -0.000228111 0)
(-0.0532263 -0.000818782 0)
(-0.0530353 -0.00140782 0)
(-0.0527435 -0.00199326 0)
(-0.0523518 -0.0025731 0)
(-0.0518613 -0.00314533 0)
(-0.0512734 -0.00370794 0)
(-0.05059 -0.00425886 0)
(-0.0498131 -0.00479606 0)
(-0.0489454 -0.00531746 0)
(-0.0479895 -0.00582101 0)
(-0.0469488 -0.00630463 0)