/*--------------------------------*- C++ -*----------------------------------*\
| =========                 |                                                 |
| \\      /  F ield         | OpenFOAM: The Open Source CFD Toolbox           |
|  \\    /   O peration     | Version:  2212                                  |
|   \\  /    A nd           | Website:  www.openfoam.com                      |
|    \\/     M anipulation  |                                                 |
\*---------------------------------------------------------------------------*/
FoamFile
{
    version     2.0;
    format      ascii;
    arch        "LSB;label=32;scalar=64";
    class       surfaceScalarField;
    location    "0.052";
    object      phi_0;
}
// * * * * * * * * * * * * * * * * * * * * * * * * * * * * * * * * * * * * * //

dimensions      [0 3 -1 0 0 0 0];

oriented        oriented;

internalField   nonuniform List<scalar> 
19800
(
6.55588e-11
-6.55616e-11
2.25553e-10
-1.59983e-10
4.02395e-10
-1.76845e-10
5.38708e-10
-1.36316e-10
6.03303e-10
-6.45962e-11
5.80262e-10
2.3054e-11
4.62168e-10
1.18085e-10
2.4678e-10
2.15408e-10
-6.50302e-11
3.11801e-10
-4.70341e-10
4.05304e-10
-9.64949e-10
4.94617e-10
-1.54383e-09
5.78874e-10
-2.20134e-09
6.57521e-10
-2.93151e-09
7.30158e-10
-3.7281e-09
7.96586e-10
-4.58477e-09
8.56674e-10
-5.49515e-09
9.10385e-10
-6.45287e-09
9.57725e-10
-7.45161e-09
9.98747e-10
-8.48516e-09
1.03355e-09
-9.5474e-09
1.06224e-09
-1.06324e-08
1.08497e-09
-1.17343e-08
1.10189e-09
-1.28474e-08
1.11315e-09
-1.39663e-08
1.11892e-09
-1.50857e-08
1.11937e-09
-1.62004e-08
1.11472e-09
-1.73056e-08
1.10514e-09
-1.83964e-08
1.09081e-09
-1.94683e-08
1.07194e-09
-2.05171e-08
1.04873e-09
-2.15384e-08
1.02137e-09
-2.25285e-08
9.90052e-10
-2.34834e-08
9.54968e-10
-2.43998e-08
9.16327e-10
-2.52741e-08
8.74324e-10
-2.61032e-08
8.29151e-10
-2.68842e-08
7.81008e-10
-2.76143e-08
7.30099e-10
-2.8291e-08
6.7662e-10
-2.89117e-08
6.20759e-10
-2.94744e-08
5.62713e-10
-2.99771e-08
5.02691e-10
-3.0418e-08
4.40902e-10
-3.07955e-08
3.77542e-10
-3.11084e-08
3.12804e-10
-3.13553e-08
2.46906e-10
-3.15353e-08
1.80057e-10
-3.16478e-08
1.12466e-10
-3.16921e-08
4.43526e-11
-3.16681e-08
-2.40683e-11
-3.15755e-08
-9.25793e-11
-3.14145e-08
-1.60952e-10
-3.11856e-08
-2.28958e-10
-3.08892e-08
-2.96373e-10
-3.05262e-08
-3.62961e-10
-3.00978e-08
-4.28473e-10
-2.96051e-08
-4.92673e-10
-2.90498e-08
-5.55324e-10
-2.84336e-08
-6.16176e-10
-2.77586e-08
-6.74961e-10
-2.70272e-08
-7.31433e-10
-2.62419e-08
-7.85349e-10
-2.54054e-08
-8.36453e-10
-2.45209e-08
-8.84488e-10
-2.35917e-08
-9.29213e-10
-2.26213e-08
-9.70374e-10
-2.16136e-08
-1.00771e-09
-2.05727e-08
-1.04096e-09
-1.95028e-08
-1.06992e-09
-1.84084e-08
-1.09435e-09
-1.72944e-08
-1.114e-09
-1.61658e-08
-1.12866e-09
-1.50276e-08
-1.13814e-09
-1.38854e-08
-1.14222e-09
-1.27447e-08
-1.1407e-09
-1.16113e-08
-1.1334e-09
-1.04911e-08
-1.12018e-09
-9.39021e-09
-1.1009e-09
-8.3148e-09
-1.07541e-09
-7.27118e-09
-1.04362e-09
-6.26572e-09
-1.00545e-09
-5.30487e-09
-9.60852e-10
-4.39507e-09
-9.0981e-10
-3.54272e-09
-8.52349e-10
-2.75415e-09
-7.88563e-10
-2.03554e-09
-7.18614e-10
-1.39281e-09
-6.42739e-10
-8.31526e-10
-5.61281e-10
-3.56781e-10
-4.74743e-10
2.70662e-11
-3.83848e-10
3.16705e-10
-2.89642e-10
5.1032e-10
-1.93617e-10
6.08331e-10
-9.8013e-11
6.14565e-10
-6.23729e-12
5.38149e-10
7.64166e-11
3.96513e-10
1.41639e-10
2.20499e-10
1.76016e-10
6.3159e-11
1.57341e-10
6.31592e-11
1.52521e-10
-2.18074e-10
4.21679e-10
-4.29149e-10
6.79968e-10
-4.35117e-10
8.30255e-10
-2.86605e-10
8.06212e-10
-4.05488e-11
5.66656e-10
2.62595e-10
8.84235e-11
5.96329e-10
-6.3912e-10
9.4293e-10
-1.61789e-09
1.29059e-09
-2.84372e-09
1.63114e-09
-4.30819e-09
1.95909e-09
-5.99986e-09
2.27056e-09
-7.9052e-09
2.56286e-09
-1.00092e-08
2.83418e-09
-1.22959e-08
3.08328e-09
-1.47487e-08
3.30941e-09
-1.73505e-08
3.51216e-09
-2.00841e-08
3.69137e-09
-2.29324e-08
3.84707e-09
-2.58784e-08
3.97946e-09
-2.8905e-08
4.08887e-09
-3.19957e-08
4.17571e-09
-3.51343e-08
4.24046e-09
-3.83048e-08
4.28369e-09
-4.14919e-08
4.30598e-09
-4.46805e-08
4.30798e-09
-4.78562e-08
4.29037e-09
-5.10048e-08
4.25382e-09
-5.4113e-08
4.19904e-09
-5.71679e-08
4.12676e-09
-6.01569e-08
4.03773e-09
-6.30682e-08
3.93267e-09
-6.58905e-08
3.81233e-09
-6.8613e-08
3.67747e-09
-7.12255e-08
3.52884e-09
-7.37183e-08
3.3672e-09
-7.60825e-08
3.19329e-09
-7.83093e-08
3.00789e-09
-8.0391e-08
2.81177e-09
-8.232e-08
2.60567e-09
-8.40897e-08
2.39038e-09
-8.56936e-08
2.16666e-09
-8.71262e-08
1.9353e-09
-8.83824e-08
1.69708e-09
-8.94577e-08
1.45279e-09
-9.03481e-08
1.20322e-09
-9.10503e-08
9.49168e-10
-9.15617e-08
6.91467e-10
-9.18802e-08
4.30933e-10
-9.20042e-08
1.68398e-10
-9.1933e-08
-9.52817e-11
-9.16664e-08
-3.59253e-10
-9.12047e-08
-6.2265e-10
-9.0549e-08
-8.84586e-10
-8.97012e-08
-1.14416e-09
-8.86637e-08
-1.40047e-09
-8.74396e-08
-1.65259e-09
-8.60327e-08
-1.89959e-09
-8.44475e-08
-2.14053e-09
-8.26892e-08
-2.37446e-09
-8.07638e-08
-2.6004e-09
-7.86778e-08
-2.81739e-09
-7.64387e-08
-3.02446e-09
-7.40545e-08
-3.22065e-09
-7.1534e-08
-3.40501e-09
-6.88867e-08
-3.57655e-09
-6.61227e-08
-3.73432e-09
-6.32531e-08
-3.87738e-09
-6.02892e-08
-4.00479e-09
-5.72435e-08
-4.11566e-09
-5.41288e-08
-4.20909e-09
-5.09585e-08
-4.28424e-09
-4.77469e-08
-4.34028e-09
-4.45087e-08
-4.37642e-09
-4.1259e-08
-4.39192e-09
-3.80136e-08
-4.38609e-09
-3.47887e-08
-4.35829e-09
-3.16009e-08
-4.30797e-09
-2.84672e-08
-4.23461e-09
-2.54048e-08
-4.13783e-09
-2.24311e-08
-4.0173e-09
-1.95637e-08
-3.87281e-09
-1.68203e-08
-3.7043e-09
-1.42182e-08
-3.51187e-09
-1.17748e-08
-3.29578e-09
-9.50678e-09
-3.05656e-09
-7.43039e-09
-2.79501e-09
-5.56082e-09
-2.51231e-09
-3.91199e-09
-2.21011e-09
-2.49604e-09
-1.8907e-09
-1.32265e-09
-1.55724e-09
-3.98181e-10
-1.21411e-09
2.75613e-10
-8.6741e-10
7.03337e-10
-5.25735e-10
8.98426e-10
-2.01327e-10
8.86673e-10
8.81713e-11
7.10909e-10
3.17405e-10
4.36708e-10
4.50216e-10
1.57275e-10
4.36778e-10
2.20434e-10
1.6274e-10
-3.80818e-10
4.10858e-10
-6.77246e-10
5.90234e-10
-6.14499e-10
5.87015e-10
-2.83383e-10
3.18697e-10
2.27751e-10
-2.70197e-10
8.51494e-10
-1.21373e-09
1.53985e-09
-2.52959e-09
2.2588e-09
-4.2232e-09
2.98419e-09
-6.29083e-09
3.69877e-09
-8.72197e-09
4.39023e-09
-1.15012e-08
5.04973e-09
-1.46092e-08
5.67093e-09
-1.80244e-08
6.24937e-09
-2.1723e-08
6.78192e-09
-2.56801e-08
7.26652e-09
-2.98699e-08
7.70193e-09
-3.4266e-08
8.08747e-09
-3.88419e-08
8.42298e-09
-4.35711e-08
8.70867e-09
-4.84273e-08
8.94503e-09
-5.33844e-08
9.13279e-09
-5.84168e-08
9.2729e-09
-6.34996e-08
9.36643e-09
-6.86082e-08
9.41456e-09
-7.37188e-08
9.41863e-09
-7.88085e-08
9.38002e-09
-8.38548e-08
9.30016e-09
-8.88363e-08
9.18056e-09
-9.37323e-08
9.02275e-09
-9.85229e-08
8.82831e-09
-1.03189e-07
8.59882e-09
-1.07713e-07
8.3359e-09
-1.12076e-07
8.04118e-09
-1.16264e-07
7.71628e-09
-1.20259e-07
7.36287e-09
-1.24049e-07
6.98259e-09
-1.27618e-07
6.57712e-09
-1.30954e-07
6.14811e-09
-1.34046e-07
5.69726e-09
-1.36882e-07
5.22624e-09
-1.39452e-07
4.73676e-09
-1.41747e-07
4.23052e-09
-1.43759e-07
3.70926e-09
-1.45481e-07
3.17471e-09
-1.46907e-07
2.62861e-09
-1.4803e-07
2.07275e-09
-1.48848e-07
1.50891e-09
-1.49356e-07
9.38918e-10
-1.49552e-07
3.64601e-10
-1.49435e-07
-2.12173e-10
-1.49005e-07
-7.89517e-10
-1.48262e-07
-1.36552e-09
-1.47208e-07
-1.93825e-09
-1.45846e-07
-2.50573e-09
-1.44181e-07
-3.06597e-09
-1.42217e-07
-3.61695e-09
-1.3996e-07
-4.15663e-09
-1.37417e-07
-4.68296e-09
-1.34598e-07
-5.19387e-09
-1.31511e-07
-5.68722e-09
-1.28167e-07
-6.16095e-09
-1.24579e-07
-6.61293e-09
-1.20758e-07
-7.04107e-09
-1.1672e-07
-7.44327e-09
-1.12479e-07
-7.81743e-09
-1.08052e-07
-8.1615e-09
-1.03456e-07
-8.47342e-09
-9.87097e-08
-8.75118e-09
-9.38325e-08
-8.99285e-09
-8.88451e-08
-9.19653e-09
-8.3769e-08
-9.36037e-09
-7.86266e-08
-9.48263e-09
-7.34414e-08
-9.56164e-09
-6.82375e-08
-9.59584e-09
-6.30398e-08
-9.58377e-09
-5.7874e-08
-9.52414e-09
-5.27661e-08
-9.41579e-09
-4.7743e-08
-9.25775e-09
-4.28316e-08
-9.04925e-09
-3.80592e-08
-8.78971e-09
-3.34531e-08
-8.47888e-09
-2.90406e-08
-8.11678e-09
-2.48487e-08
-7.7038e-09
-2.09037e-08
-7.24079e-09
-1.72311e-08
-6.72915e-09
-1.38552e-08
-6.17093e-09
-1.07985e-08
-5.56903e-09
-8.08115e-09
-4.92743e-09
-5.72037e-09
-4.25149e-09
-3.72916e-09
-3.54845e-09
-2.1152e-09
-2.82808e-09
-8.79044e-10
-2.10357e-09
-1.19339e-11
-1.39284e-09
5.07135e-10
-7.20389e-10
7.15057e-10
-1.19755e-10
6.69187e-10
3.63269e-10
4.52121e-10
6.67281e-10
1.76496e-10
7.12402e-10
3.96932e-10
1.25758e-10
-5.06582e-10
2.66156e-10
-8.17636e-10
2.59835e-10
-6.08181e-10
-1.20753e-11
-1.14491e-11
-6.37335e-10
8.53012e-10
-1.67751e-09
1.89166e-09
-3.17203e-09
3.03437e-09
-5.14264e-09
4.22943e-09
-7.59707e-09
5.43861e-09
-1.0532e-08
6.63369e-09
-1.39356e-08
7.79384e-09
-1.77895e-08
8.90366e-09
-2.20705e-08
9.95188e-09
-2.67514e-08
1.09303e-08
-3.18025e-08
1.1833e-08
-3.7192e-08
1.2656e-08
-4.28868e-08
1.33967e-08
-4.88528e-08
1.40535e-08
-5.50555e-08
1.46257e-08
-6.14601e-08
1.51133e-08
-6.80321e-08
1.5517e-08
-7.4737e-08
1.58378e-08
-8.15411e-08
1.6077e-08
-8.8411e-08
1.62363e-08
-9.53142e-08
1.63178e-08
-1.02219e-07
1.63234e-08
-1.09094e-07
1.62555e-08
-1.15911e-07
1.61164e-08
-1.22639e-07
1.59088e-08
-1.29251e-07
1.56351e-08
-1.35721e-07
1.5298e-08
-1.42023e-07
1.49003e-08
-1.48131e-07
1.44447e-08
-1.54024e-07
1.39339e-08
-1.59679e-07
1.33709e-08
-1.65074e-07
1.27584e-08
-1.70191e-07
1.20992e-08
-1.7501e-07
1.13964e-08
-1.79515e-07
1.06527e-08
-1.83689e-07
9.87115e-09
-1.87517e-07
9.05459e-09
-1.90986e-07
8.20599e-09
-1.94084e-07
7.32833e-09
-1.96799e-07
6.42462e-09
-1.99122e-07
5.49787e-09
-2.01045e-07
4.55114e-09
-2.0256e-07
3.58752e-09
-2.03661e-07
2.61012e-09
-2.04344e-07
1.62211e-09
-2.04606e-07
6.26674e-10
-2.04445e-07
-3.72932e-10
-2.03862e-07
-1.37343e-09
-2.02856e-07
-2.37149e-09
-2.0143e-07
-3.36376e-09
-1.99589e-07
-4.34682e-09
-1.97338e-07
-5.31719e-09
-1.94683e-07
-6.27141e-09
-1.91634e-07
-7.20593e-09
-1.882e-07
-8.11718e-09
-1.84392e-07
-9.00158e-09
-1.80224e-07
-9.85551e-09
-1.75709e-07
-1.06753e-08
-1.70865e-07
-1.14574e-08
-1.65708e-07
-1.21981e-08
-1.60257e-07
-1.28939e-08
-1.54534e-07
-1.35411e-08
-1.48559e-07
-1.41362e-08
-1.42357e-07
-1.46757e-08
-1.35952e-07
-1.51561e-08
-1.2937e-07
-1.55742e-08
-1.2264e-07
-1.59267e-08
-1.1579e-07
-1.62105e-08
-1.0885e-07
-1.64227e-08
-1.01851e-07
-1.65603e-08
-9.48261e-08
-1.66209e-08
-8.78079e-08
-1.6602e-08
-8.08306e-08
-1.65014e-08
-7.3929e-08
-1.63174e-08
-6.71385e-08
-1.60483e-08
-6.04947e-08
-1.5693e-08
-5.40335e-08
-1.52508e-08
-4.7791e-08
-1.47214e-08
-4.18027e-08
-1.41051e-08
-3.61037e-08
-1.34028e-08
-3.0728e-08
-1.26164e-08
-2.57085e-08
-1.17486e-08
-2.10761e-08
-1.08034e-08
-1.68591e-08
-9.78604e-09
-1.30826e-08
-8.70389e-09
-9.76756e-09
-7.56654e-09
-6.92933e-09
-6.38668e-09
-4.57641e-09
-5.18101e-09
-2.70842e-09
-3.97156e-09
-1.31383e-09
-2.78742e-09
-3.67166e-10
-1.66705e-09
1.74441e-10
-6.61366e-10
3.75142e-10
1.62571e-10
3.24651e-10
7.17777e-10
1.43744e-10
8.93304e-10
5.40677e-10
6.09875e-11
-5.67577e-10
3.36371e-11
-7.90277e-10
-2.34864e-10
-3.39696e-10
-8.59076e-10
6.12766e-10
-1.92518e-09
1.91912e-09
-3.49471e-09
3.46119e-09
-5.60819e-09
5.14786e-09
-8.28847e-09
6.9097e-09
-1.15438e-08
8.69394e-09
-1.53706e-08
1.04605e-08
-1.97556e-08
1.21788e-08
-2.4678e-08
1.38261e-08
-3.01113e-08
1.53851e-08
-3.60239e-08
1.68429e-08
-4.23812e-08
1.81903e-08
-4.91456e-08
1.94205e-08
-5.62778e-08
2.05289e-08
-6.37372e-08
2.15129e-08
-7.14824e-08
2.23708e-08
-7.94714e-08
2.31024e-08
-8.76625e-08
2.37081e-08
-9.60139e-08
2.41892e-08
-1.04484e-07
2.45475e-08
-1.13033e-07
2.47853e-08
-1.21621e-07
2.49053e-08
-1.30208e-07
2.49106e-08
-1.38757e-07
2.48045e-08
-1.47231e-07
2.45904e-08
-1.55594e-07
2.42721e-08
-1.63813e-07
2.38535e-08
-1.71853e-07
2.33384e-08
-1.79684e-07
2.2731e-08
-1.87275e-07
2.20354e-08
-1.94596e-07
2.12558e-08
-2.01622e-07
2.03965e-08
-2.08325e-07
1.94617e-08
-2.14682e-07
1.84558e-08
-2.20669e-07
1.73832e-08
-2.26264e-07
1.62483e-08
-2.31449e-07
1.50555e-08
-2.36203e-07
1.38094e-08
-2.40512e-07
1.25143e-08
-2.44358e-07
1.1175e-08
-2.4773e-07
9.7959e-09
-2.50613e-07
8.38169e-09
-2.52999e-07
6.93704e-09
-2.54879e-07
5.46668e-09
-2.56244e-07
3.97538e-09
-2.5709e-07
2.46797e-09
-2.57412e-07
9.49359e-10
-2.5721e-07
-5.7551e-10
-2.56482e-07
-2.10162e-09
-2.55229e-07
-3.62388e-09
-2.53456e-07
-5.13714e-09
-2.51166e-07
-6.63621e-09
-2.48368e-07
-8.11579e-09
-2.45069e-07
-9.57056e-09
-2.41279e-07
-1.09952e-08
-2.37013e-07
-1.23841e-08
-2.32282e-07
-1.3732e-08
-2.27104e-07
-1.50334e-08
-2.21497e-07
-1.62826e-08
-2.1548e-07
-1.74743e-08
-2.09075e-07
-1.86028e-08
-2.02306e-07
-1.96628e-08
-1.95199e-07
-2.06489e-08
-1.87779e-07
-2.15555e-08
-1.80077e-07
-2.23776e-08
-1.72124e-07
-2.31099e-08
-1.6395e-07
-2.37475e-08
-1.55592e-07
-2.42854e-08
-1.47083e-07
-2.4719e-08
-1.38462e-07
-2.50439e-08
-1.29766e-07
-2.5256e-08
-1.21036e-07
-2.53514e-08
-1.12311e-07
-2.53266e-08
-1.03634e-07
-2.51785e-08
-9.50469e-08
-2.49044e-08
-8.6593e-08
-2.45023e-08
-7.83155e-08
-2.39705e-08
-7.02581e-08
-2.33082e-08
-6.24643e-08
-2.25153e-08
-5.49769e-08
-2.15925e-08
-4.78379e-08
-2.05418e-08
-4.10883e-08
-1.93661e-08
-3.47668e-08
-1.80702e-08
-2.89099e-08
-1.66603e-08
-2.35508e-08
-1.51451e-08
-1.87188e-08
-1.35359e-08
-1.44377e-08
-1.18476e-08
-1.07251e-08
-1.00993e-08
-7.5904e-09
-8.3157e-09
-5.03317e-09
-6.52879e-09
-3.04088e-09
-4.77971e-09
-1.5864e-09
-3.12154e-09
-6.25085e-10
-1.62268e-09
-9.1502e-11
-3.71004e-10
1.04223e-10
5.22057e-10
8.13004e-11
9.16224e-10
6.21979e-10
-1.99567e-11
-5.47608e-10
-2.54419e-10
-5.55836e-10
-8.3795e-10
2.43846e-10
-1.87427e-09
1.64907e-09
-3.44254e-09
3.48739e-09
-5.60016e-09
5.6188e-09
-8.38522e-09
7.93291e-09
-1.18191e-08
1.03436e-08
-1.59087e-08
1.27836e-08
-2.06491e-08
1.52009e-08
-2.60252e-08
1.7555e-08
-3.20139e-08
1.98147e-08
-3.85851e-08
2.19564e-08
-4.5704e-08
2.39618e-08
-5.33312e-08
2.58175e-08
-6.14246e-08
2.75138e-08
-6.99393e-08
2.90437e-08
-7.88292e-08
3.04027e-08
-8.80467e-08
3.15883e-08
-9.75438e-08
3.25995e-08
-1.07272e-07
3.34365e-08
-1.17184e-07
3.41006e-08
-1.2723e-07
3.45942e-08
-1.37365e-07
3.492e-08
-1.47541e-07
3.50817e-08
-1.57714e-07
3.50832e-08
-1.67839e-07
3.4929e-08
-1.77872e-07
3.46238e-08
-1.87773e-07
3.41727e-08
-1.975e-07
3.35809e-08
-2.07015e-07
3.28539e-08
-2.16282e-07
3.19972e-08
-2.25263e-07
3.10168e-08
-2.33925e-07
2.99182e-08
-2.42237e-07
2.87077e-08
-2.50166e-07
2.7391e-08
-2.57685e-07
2.59744e-08
-2.64765e-07
2.44639e-08
-2.71383e-07
2.28658e-08
-2.77514e-07
2.11863e-08
-2.83136e-07
1.94317e-08
-2.8823e-07
1.76083e-08
-2.92778e-07
1.57226e-08
-2.96763e-07
1.3781e-08
-3.00171e-07
1.17901e-08
-3.0299e-07
9.75637e-09
-3.0521e-07
7.68656e-09
-3.06822e-07
5.58739e-09
-3.0782e-07
3.46568e-09
-3.08199e-07
1.32832e-09
-3.07957e-07
-8.17683e-10
-3.07093e-07
-2.96528e-09
-3.0561e-07
-5.1073e-09
-3.0351e-07
-7.2365e-09
-3.00801e-07
-9.34553e-09
-2.9749e-07
-1.1427e-08
-2.93587e-07
-1.34734e-08
-2.89105e-07
-1.54772e-08
-2.84058e-07
-1.74307e-08
-2.78464e-07
-1.93264e-08
-2.72341e-07
-2.11564e-08
-2.65711e-07
-2.29131e-08
-2.58596e-07
-2.45888e-08
-2.51023e-07
-2.61758e-08
-2.43019e-07
-2.76665e-08
-2.34615e-07
-2.90532e-08
-2.25842e-07
-3.03285e-08
-2.16734e-07
-3.14851e-08
-2.07329e-07
-3.25159e-08
-1.97662e-07
-3.34138e-08
-1.87775e-07
-3.41722e-08
-1.7771e-07
-3.47846e-08
-1.67509e-07
-3.52451e-08
-1.57217e-07
-3.55478e-08
-1.46881e-07
-3.56875e-08
-1.36548e-07
-3.56596e-08
-1.26266e-07
-3.54598e-08
-1.16086e-07
-3.50848e-08
-1.06057e-07
-3.45316e-08
-9.62288e-08
-3.37986e-08
-8.66524e-08
-3.28846e-08
-7.73777e-08
-3.179e-08
-6.8454e-08
-3.05162e-08
-5.99294e-08
-2.90663e-08
-5.18506e-08
-2.74449e-08
-4.42618e-08
-2.5659e-08
-3.72042e-08
-2.37179e-08
-3.07153e-08
-2.1634e-08
-2.48278e-08
-1.94234e-08
-1.95686e-08
-1.71068e-08
-1.49574e-08
-1.47105e-08
-1.10052e-08
-1.22679e-08
-7.71255e-09
-9.82144e-09
-5.06772e-09
-7.42454e-09
-3.04447e-09
-5.14479e-09
-1.59972e-09
-3.06743e-09
-6.71019e-10
-1.29971e-09
-1.73719e-10
2.47568e-11
2.4013e-12
7.40106e-10
6.2438e-10
-1.09465e-10
-4.3815e-10
-5.7499e-10
-9.03063e-11
-1.50821e-09
1.17707e-09
-2.99754e-09
3.1384e-09
-5.11148e-09
5.60134e-09
-7.90009e-09
8.40738e-09
-1.13963e-08
1.14291e-08
-1.56177e-08
1.4565e-08
-2.05683e-08
1.77343e-08
-2.62407e-08
2.08732e-08
-3.26171e-08
2.39313e-08
-3.96714e-08
2.68691e-08
-4.73708e-08
2.96558e-08
-5.56766e-08
3.22676e-08
-6.45457e-08
3.46866e-08
-7.39314e-08
3.68995e-08
-8.37843e-08
3.88966e-08
-9.4053e-08
4.06715e-08
-1.04685e-07
4.22201e-08
-1.15626e-07
4.35408e-08
-1.26823e-07
4.46333e-08
-1.38221e-07
4.54989e-08
-1.49767e-07
4.61402e-08
-1.61408e-07
4.65608e-08
-1.73091e-07
4.67648e-08
-1.84765e-07
4.67574e-08
-1.96381e-07
4.65442e-08
-2.07888e-07
4.61312e-08
-2.1924e-07
4.5525e-08
-2.30392e-07
4.47324e-08
-2.41298e-07
4.37604e-08
-2.51918e-07
4.26165e-08
-2.62209e-07
4.13082e-08
-2.72134e-07
3.98431e-08
-2.81655e-07
3.82291e-08
-2.90738e-07
3.64741e-08
-2.9935e-07
3.45862e-08
-3.0746e-07
3.25735e-08
-3.15038e-07
3.04443e-08
-3.22059e-07
2.82068e-08
-3.28497e-07
2.58694e-08
-3.34329e-07
2.34406e-08
-3.39535e-07
2.09288e-08
-3.44097e-07
1.83428e-08
-3.47998e-07
1.56912e-08
-3.51224e-07
1.29827e-08
-3.53764e-07
1.02264e-08
-3.55608e-07
7.43108e-09
-3.56748e-07
4.60594e-09
-3.5718e-07
1.76013e-09
-3.569e-07
-1.09702e-09
-3.5591e-07
-3.95611e-09
-3.54209e-07
-6.80759e-09
-3.51804e-07
-9.64182e-09
-3.487e-07
-1.2449e-08
-3.44908e-07
-1.52194e-08
-3.40439e-07
-1.79429e-08
-3.35306e-07
-2.06096e-08
-3.29527e-07
-2.32094e-08
-3.23122e-07
-2.57319e-08
-3.16111e-07
-2.81672e-08
-3.08519e-07
-3.05049e-08
-3.00373e-07
-3.27348e-08
-2.91702e-07
-3.48468e-08
-2.82538e-07
-3.68308e-08
-2.72914e-07
-3.86768e-08
-2.62868e-07
-4.03749e-08
-2.52438e-07
-4.19156e-08
-2.41664e-07
-4.32893e-08
-2.30591e-07
-4.4487e-08
-2.19263e-07
-4.54999e-08
-2.07728e-07
-4.63197e-08
-1.96035e-07
-4.69383e-08
-1.84234e-07
-4.73484e-08
-1.72379e-07
-4.75433e-08
-1.60521e-07
-4.7517e-08
-1.48717e-07
-4.72641e-08
-1.37021e-07
-4.67803e-08
-1.25491e-07
-4.60622e-08
-1.14182e-07
-4.51078e-08
-1.0315e-07
-4.39161e-08
-9.24524e-08
-4.24877e-08
-8.21434e-08
-4.08252e-08
-7.22769e-08
-3.89329e-08
-6.29043e-08
-3.68175e-08
-5.40748e-08
-3.44885e-08
-4.5834e-08
-3.19587e-08
-3.82232e-08
-2.92448e-08
-3.12786e-08
-2.6368e-08
-2.50301e-08
-2.33553e-08
-1.94999e-08
-2.02407e-08
-1.47013e-08
-1.70665e-08
-1.06371e-08
-1.38856e-08
-7.29812e-09
-1.07635e-08
-4.66109e-09
-7.78182e-09
-2.68725e-09
-5.04127e-09
-1.32039e-09
-2.66658e-09
-4.85107e-10
-8.10528e-10
-8.50157e-11
3.40018e-10
5.39361e-10
-2.027e-10
-2.35426e-10
-9.12537e-10
6.195e-10
-2.21649e-09
2.48102e-09
-4.18527e-09
5.1072e-09
-6.87434e-09
8.29041e-09
-1.0324e-08
1.1857e-08
-1.45599e-08
1.5665e-08
-1.95941e-08
1.95991e-08
-2.54262e-08
2.35665e-08
-3.2045e-08
2.7492e-08
-3.94293e-08
3.13157e-08
-4.75499e-08
3.49896e-08
-5.63703e-08
3.84762e-08
-6.58484e-08
4.17457e-08
-7.59373e-08
4.47755e-08
-8.65861e-08
4.75483e-08
-9.77413e-08
5.00517e-08
-1.09347e-07
5.22769e-08
-1.21345e-07
5.42184e-08
-1.33677e-07
5.58733e-08
-1.46285e-07
5.72409e-08
-1.59109e-07
5.83224e-08
-1.72089e-07
5.91206e-08
-1.85168e-07
5.96395e-08
-1.98287e-07
5.98844e-08
-2.11391e-07
5.98611e-08
-2.24424e-07
5.95767e-08
-2.37331e-07
5.90386e-08
-2.50061e-07
5.82549e-08
-2.62563e-07
5.72341e-08
-2.74787e-07
5.5985e-08
-2.86687e-07
5.45169e-08
-2.98219e-07
5.28393e-08
-3.09337e-07
5.09619e-08
-3.20003e-07
4.88945e-08
-3.30176e-07
4.66474e-08
-3.3982e-07
4.42306e-08
-3.48901e-07
4.16546e-08
-3.57387e-07
3.89298e-08
-3.65247e-07
3.60669e-08
-3.72454e-07
3.30764e-08
-3.78983e-07
2.99692e-08
-3.8481e-07
2.67562e-08
-3.89916e-07
2.34484e-08
-3.94281e-07
2.0057e-08
-3.97892e-07
1.65931e-08
-4.00733e-07
1.30681e-08
-4.02796e-07
9.49348e-09
-4.04071e-07
5.88093e-09
-4.04553e-07
2.24218e-09
-4.04239e-07
-1.4109e-09
-4.03129e-07
-5.06625e-09
-4.01225e-07
-8.71168e-09
-3.98532e-07
-1.23349e-08
-3.95057e-07
-1.59234e-08
-3.90812e-07
-1.94647e-08
-3.85809e-07
-2.2946e-08
-3.80064e-07
-2.63545e-08
-3.73596e-07
-2.96774e-08
-3.66426e-07
-3.29018e-08
-3.58579e-07
-3.60145e-08
-3.50081e-07
-3.90027e-08
-3.40962e-07
-4.18534e-08
-3.31256e-07
-4.45536e-08
-3.20996e-07
-4.70906e-08
-3.10221e-07
-4.94517e-08
-2.98971e-07
-5.16244e-08
-2.8729e-07
-5.35966e-08
-2.75223e-07
-5.53563e-08
-2.62818e-07
-5.68921e-08
-2.50125e-07
-5.81929e-08
-2.37197e-07
-5.92482e-08
-2.24087e-07
-6.00481e-08
-2.10852e-07
-6.05834e-08
-1.9755e-07
-6.08457e-08
-1.84239e-07
-6.08275e-08
-1.70981e-07
-6.05225e-08
-1.57836e-07
-5.99254e-08
-1.44866e-07
-5.90322e-08
-1.32133e-07
-5.78406e-08
-1.19699e-07
-5.63499e-08
-1.07625e-07
-5.45613e-08
-9.59722e-08
-5.24783e-08
-8.47982e-08
-5.01069e-08
-7.41596e-08
-4.7456e-08
-6.41098e-08
-4.45382e-08
-5.46986e-08
-4.13699e-08
-4.59712e-08
-3.79722e-08
-3.79671e-08
-3.43721e-08
-3.07195e-08
-3.06029e-08
-2.42538e-08
-2.67064e-08
-1.85864e-08
-2.27339e-08
-1.37235e-08
-1.87484e-08
-9.65984e-09
-1.48273e-08
-6.37705e-09
-1.10646e-08
-3.84281e-09
-7.57551e-09
-2.00961e-09
-4.49978e-09
-8.13966e-10
-2.00616e-09
-1.76108e-10
-2.97841e-10
3.63252e-10
-2.96811e-10
6.13773e-11
-1.25681e-09
1.57952e-09
-2.94273e-09
4.16692e-09
-5.40656e-09
7.57102e-09
-8.68923e-09
1.15731e-08
-1.28197e-08
1.59875e-08
-1.78148e-08
2.06601e-08
-2.36797e-08
2.5464e-08
-3.04081e-08
3.02949e-08
-3.79841e-08
3.50679e-08
-4.63823e-08
3.97138e-08
-5.55695e-08
4.41768e-08
-6.55056e-08
4.84123e-08
-7.61446e-08
5.23848e-08
-8.74359e-08
5.60668e-08
-9.93247e-08
5.94371e-08
-1.11753e-07
6.24802e-08
-1.24661e-07
6.51848e-08
-1.37986e-07
6.75438e-08
-1.51666e-07
6.95531e-08
-1.65637e-07
7.12113e-08
-1.79834e-07
7.25194e-08
-1.94193e-07
7.34804e-08
-2.08653e-07
7.40988e-08
-2.23149e-07
7.43806e-08
-2.37621e-07
7.43329e-08
-2.52008e-07
7.39639e-08
-2.66252e-07
7.32825e-08
-2.80295e-07
7.22985e-08
-2.94083e-07
7.1022e-08
-3.07562e-07
6.9464e-08
-3.20681e-07
6.76357e-08
-3.3339e-07
6.55486e-08
-3.45643e-07
6.32146e-08
-3.57395e-07
6.0646e-08
-3.68602e-07
5.78551e-08
-3.79226e-07
5.48544e-08
-3.89228e-07
5.16568e-08
-3.98574e-07
4.82752e-08
-4.07229e-07
4.47226e-08
-4.15165e-07
4.10123e-08
-4.22354e-07
3.71577e-08
-4.2877e-07
3.31721e-08
-4.34391e-07
2.90694e-08
-4.39197e-07
2.48631e-08
-4.43171e-07
2.05673e-08
-4.46299e-07
1.6196e-08
-4.48569e-07
1.17635e-08
-4.49972e-07
7.28421e-09
-4.50503e-07
2.77262e-09
-4.50157e-07
-1.7565e-09
-4.48935e-07
-6.28824e-09
-4.46839e-07
-1.08075e-08
-4.43875e-07
-1.52991e-08
-4.40051e-07
-1.97475e-08
-4.35378e-07
-2.41373e-08
-4.29872e-07
-2.84527e-08
-4.23548e-07
-3.26779e-08
-4.16429e-07
-3.6797e-08
-4.08536e-07
-4.07941e-08
-3.99898e-07
-4.4653e-08
-3.90543e-07
-4.83579e-08
-3.80503e-07
-5.18927e-08
-3.69816e-07
-5.52415e-08
-3.58518e-07
-5.83886e-08
-3.46651e-07
-6.13184e-08
-3.3426e-07
-6.40156e-08
-3.21391e-07
-6.64653e-08
-3.08094e-07
-6.86529e-08
-2.94422e-07
-7.05643e-08
-2.80429e-07
-7.2186e-08
-2.66172e-07
-7.35052e-08
-2.5171e-07
-7.451e-08
-2.37105e-07
-7.51891e-08
-2.22418e-07
-7.55325e-08
-2.07714e-07
-7.55312e-08
-1.93059e-07
-7.51776e-08
-1.78519e-07
-7.44655e-08
-1.64161e-07
-7.33905e-08
-1.50051e-07
-7.19499e-08
-1.36258e-07
-7.01433e-08
-1.22847e-07
-6.79726e-08
-1.09883e-07
-6.54425e-08
-9.74285e-08
-6.25609e-08
-8.55454e-08
-5.93391e-08
-7.4291e-08
-5.57927e-08
-6.37188e-08
-5.19421e-08
-5.3878e-08
-4.7813e-08
-4.4812e-08
-4.34381e-08
-3.65574e-08
-3.88575e-08
-2.91435e-08
-3.41203e-08
-2.25906e-08
-2.92868e-08
-1.69093e-08
-2.44297e-08
-1.20995e-08
-1.9637e-08
-8.14942e-09
-1.50147e-08
-5.03468e-09
-1.06902e-08
-2.71817e-09
-6.81629e-09
-1.14996e-09
-3.57438e-09
-2.68003e-10
-1.1798e-09
9.52494e-11
-3.90038e-10
4.51406e-10
-1.60135e-09
2.79084e-09
-3.67355e-09
6.23912e-09
-6.63999e-09
1.05375e-08
-1.05264e-08
1.54595e-08
-1.53495e-08
2.08106e-08
-2.11161e-08
2.64267e-08
-2.78232e-08
3.2171e-08
-3.54579e-08
3.79297e-08
-4.39984e-08
4.36085e-08
-5.34145e-08
4.91299e-08
-6.36684e-08
5.44307e-08
-7.47159e-08
5.94597e-08
-8.65069e-08
6.41759e-08
-9.89869e-08
6.85467e-08
-1.12097e-07
7.25473e-08
-1.25776e-07
7.61587e-08
-1.39958e-07
7.93674e-08
-1.54579e-07
8.21643e-08
-1.6957e-07
8.45441e-08
-1.84863e-07
8.65047e-08
-2.00391e-07
8.80469e-08
-2.16084e-07
8.91737e-08
-2.31875e-07
8.98901e-08
-2.47698e-07
9.0203e-08
-2.63485e-07
9.01205e-08
-2.79174e-07
8.96522e-08
-2.947e-07
8.88084e-08
-3.10002e-07
8.76008e-08
-3.25021e-07
8.60413e-08
-3.397e-07
8.41429e-08
-3.53983e-07
8.19188e-08
-3.67817e-07
7.9383e-08
-3.81152e-07
7.65496e-08
-3.9394e-07
7.34333e-08
-4.06133e-07
7.00488e-08
-4.1769e-07
6.64114e-08
-4.2857e-07
6.25363e-08
-4.38734e-07
5.84392e-08
-4.48147e-07
5.41358e-08
-4.56777e-07
4.96421e-08
-4.64594e-07
4.49741e-08
-4.7157e-07
4.01482e-08
-4.77681e-07
3.51808e-08
-4.82906e-07
3.00885e-08
-4.87227e-07
2.48883e-08
-4.90628e-07
1.9597e-08
-4.93097e-07
1.4232e-08
-4.94623e-07
8.81058e-09
-4.95201e-07
3.35037e-09
-4.94827e-07
-2.13083e-09
-4.935e-07
-7.61499e-09
-4.91223e-07
-1.30839e-08
-4.88003e-07
-1.85192e-08
-4.83849e-07
-2.39022e-08
-4.78772e-07
-2.92143e-08
-4.72788e-07
-3.44363e-08
-4.65917e-07
-3.95494e-08
-4.58179e-07
-4.45343e-08
-4.49601e-07
-4.93719e-08
-4.40212e-07
-5.40427e-08
-4.30042e-07
-5.85275e-08
-4.19128e-07
-6.28072e-08
-4.07507e-07
-6.68626e-08
-3.9522e-07
-7.06748e-08
-3.82314e-07
-7.42251e-08
-3.68834e-07
-7.74952e-08
-3.54832e-07
-8.04672e-08
-3.40362e-07
-8.31236e-08
-3.25478e-07
-8.54477e-08
-3.10241e-07
-8.74233e-08
-2.94711e-07
-8.90353e-08
-2.78952e-07
-9.02692e-08
-2.63029e-07
-9.1112e-08
-2.4701e-07
-9.15517e-08
-2.30963e-07
-9.15778e-08
-2.14959e-07
-9.11814e-08
-1.99069e-07
-9.03555e-08
-1.83365e-07
-8.90949e-08
-1.67918e-07
-8.7397e-08
-1.52799e-07
-8.52615e-08
-1.38081e-07
-8.26912e-08
-1.23831e-07
-7.9692e-08
-1.10118e-07
-7.62738e-08
-9.70072e-08
-7.24503e-08
-8.45595e-08
-6.82404e-08
-7.28332e-08
-6.36684e-08
-6.18813e-08
-5.8765e-08
-5.1751e-08
-5.35683e-08
-4.24834e-08
-4.81251e-08
-3.41119e-08
-4.24919e-08
-2.66615e-08
-3.67372e-08
-2.01484e-08
-3.09428e-08
-1.45786e-08
-2.52068e-08
-9.94779e-09
-1.96455e-08
-6.24098e-09
-1.43971e-08
-3.43244e-09
-9.62482e-09
-1.48653e-09
-5.52029e-09
-3.59033e-10
-2.3073e-09
-2.63783e-10
-4.81438e-10
9.32852e-10
-1.94211e-09
4.2515e-09
-4.40024e-09
8.69725e-09
-7.87113e-09
1.40083e-08
-1.23653e-08
1.99536e-08
-1.78866e-08
2.63319e-08
-2.44312e-08
3.29714e-08
-3.19872e-08
3.9727e-08
-4.05341e-08
4.64766e-08
-5.00436e-08
5.31179e-08
-6.04798e-08
5.95661e-08
-7.17999e-08
6.57509e-08
-8.3955e-08
7.16149e-08
-9.68909e-08
7.71117e-08
-1.10549e-07
8.22044e-08
-1.24865e-07
8.68641e-08
-1.39775e-07
9.10688e-08
-1.5521e-07
9.48024e-08
-1.711e-07
9.8054e-08
-1.87373e-07
1.00817e-07
-2.03957e-07
1.03089e-07
-2.2078e-07
1.04869e-07
-2.37768e-07
1.06162e-07
-2.54851e-07
1.06973e-07
-2.71958e-07
1.07309e-07
-2.89017e-07
1.0718e-07
-3.05961e-07
1.06596e-07
-3.22723e-07
1.0557e-07
-3.39237e-07
1.04115e-07
-3.55441e-07
1.02245e-07
-3.71273e-07
9.99746e-08
-3.86674e-07
9.73198e-08
-4.01588e-07
9.42967e-08
-4.1596e-07
9.09221e-08
-4.2974e-07
8.7213e-08
-4.42878e-07
8.31869e-08
-4.55328e-07
7.88616e-08
-4.67047e-07
7.42554e-08
-4.77994e-07
6.93865e-08
-4.88132e-07
6.42735e-08
-4.97425e-07
5.89353e-08
-5.05842e-07
5.3391e-08
-5.13354e-07
4.76599e-08
-5.19934e-07
4.17614e-08
-5.25561e-07
3.57153e-08
-5.30214e-07
2.95414e-08
-5.33877e-07
2.32599e-08
-5.36536e-07
1.68913e-08
-5.38182e-07
1.0456e-08
-5.38806e-07
3.97502e-09
-5.38407e-07
-2.53066e-09
-5.36982e-07
-9.03969e-09
-5.34535e-07
-1.55305e-08
-5.31073e-07
-2.19814e-08
-5.26605e-07
-2.83702e-08
-5.21145e-07
-3.46749e-08
-5.14708e-07
-4.0873e-08
-5.07315e-07
-4.69421e-08
-4.9899e-07
-5.28594e-08
-4.8976e-07
-5.86023e-08
-4.79654e-07
-6.4148e-08
-4.68708e-07
-6.94738e-08
-4.56958e-07
-7.45569e-08
-4.44446e-07
-7.93749e-08
-4.31215e-07
-8.39055e-08
-4.17313e-07
-8.81268e-08
-4.02791e-07
-9.20171e-08
-3.87703e-07
-9.55554e-08
-3.72106e-07
-9.87212e-08
-3.56058e-07
-1.01495e-07
-3.39624e-07
-1.03858e-07
-3.22868e-07
-1.05791e-07
-3.05858e-07
-1.0728e-07
-2.88662e-07
-1.08307e-07
-2.71354e-07
-1.0886e-07
-2.54006e-07
-1.08926e-07
-2.36693e-07
-1.08495e-07
-2.1949e-07
-1.07559e-07
-2.02473e-07
-1.06112e-07
-1.85719e-07
-1.04151e-07
-1.69303e-07
-1.01677e-07
-1.53301e-07
-9.86933e-08
-1.37786e-07
-9.52067e-08
-1.22831e-07
-9.12291e-08
-1.08504e-07
-8.67771e-08
-9.48718e-08
-8.18726e-08
-8.19961e-08
-7.65441e-08
-6.99343e-08
-7.08268e-08
-5.8738e-08
-6.47646e-08
-4.84529e-08
-5.84103e-08
-3.91171e-08
-5.18276e-08
-3.07614e-08
-4.50929e-08
-2.34079e-08
-3.82964e-08
-1.70698e-08
-3.15449e-08
-1.17512e-08
-2.49641e-08
-7.44703e-09
-1.87012e-08
-4.1436e-09
-1.29282e-08
-1.81966e-09
-7.84423e-09
-4.48274e-10
-3.67868e-09
-7.1206e-10
-5.70522e-10
1.50336e-09
-2.27674e-09
5.95773e-09
-5.11742e-09
1.15379e-08
-9.09072e-09
1.79816e-08
-1.41922e-08
2.50551e-08
-2.04128e-08
3.25525e-08
-2.77376e-08
4.02963e-08
-3.61452e-08
4.81346e-08
-4.5607e-08
5.59383e-08
-5.60874e-08
6.35984e-08
-6.75445e-08
7.10231e-08
-7.99297e-08
7.81361e-08
-9.31892e-08
8.48744e-08
-1.07264e-07
9.11865e-08
-1.22091e-07
9.70312e-08
-1.37603e-07
1.02376e-07
-1.53729e-07
1.07196e-07
-1.70399e-07
1.11472e-07
-1.87537e-07
1.15192e-07
-2.05068e-07
1.18348e-07
-2.22916e-07
1.20937e-07
-2.41005e-07
1.22958e-07
-2.59257e-07
1.24415e-07
-2.77599e-07
1.25314e-07
-2.95954e-07
1.25664e-07
-3.14248e-07
1.25475e-07
-3.3241e-07
1.24759e-07
-3.50369e-07
1.23529e-07
-3.68056e-07
1.21802e-07
-3.85405e-07
1.19593e-07
-4.0235e-07
1.16919e-07
-4.18829e-07
1.13799e-07
-4.34783e-07
1.10251e-07
-4.50155e-07
1.06294e-07
-4.6489e-07
1.01948e-07
-4.78936e-07
9.72334e-08
-4.92246e-07
9.21709e-08
-5.04772e-07
8.67814e-08
-5.16472e-07
8.10863e-08
-5.27305e-07
7.51072e-08
-5.37236e-07
6.8866e-08
-5.4623e-07
6.23849e-08
-5.54256e-07
5.56864e-08
-5.61288e-07
4.87932e-08
-5.67301e-07
4.17281e-08
-5.72274e-07
3.45144e-08
-5.76189e-07
2.71756e-08
-5.79034e-07
1.97353e-08
-5.80795e-07
1.22176e-08
-5.81467e-07
4.64681e-09
-5.81045e-07
-2.95259e-09
-5.79529e-07
-1.05558e-08
-5.76922e-07
-1.81376e-08
-5.7323e-07
-2.56728e-08
-5.68465e-07
-3.31358e-08
-5.62639e-07
-4.05006e-08
-5.55771e-07
-4.77414e-08
-5.47881e-07