/*--------------------------------*- C++ -*----------------------------------*\
| =========                 |                                                 |
| \\      /  F ield         | OpenFOAM: The Open Source CFD Toolbox           |
|  \\    /   O peration     | Version:  2212                                  |
|   \\  /    A nd           | Website:  www.openfoam.com                      |
|    \\/     M anipulation  |                                                 |
\*---------------------------------------------------------------------------*/
FoamFile
{
    version     2.0;
    format      ascii;
    arch        "LSB;label=32;scalar=64";
    class       surfaceScalarField;
    location    "0.0115";
    object      phi;
}
// * * * * * * * * * * * * * * * * * * * * * * * * * * * * * * * * * * * * * //

dimensions      [0 3 -1 0 0 0 0];

oriented        oriented;

internalField   nonuniform List<scalar> 
19800
(
6.59521e-11
-6.59296e-11
1.94878e-10
-1.28937e-10
2.64748e-10
-6.98573e-11
2.65618e-10
-8.74338e-13
1.81877e-10
8.3748e-11
1.15035e-11
1.70373e-10
-2.428e-10
2.54304e-10
-5.76005e-10
3.33201e-10
-9.81817e-10
4.0581e-10
-1.45328e-09
4.71453e-10
-1.98328e-09
5.29996e-10
-2.56483e-09
5.81559e-10
-3.19119e-09
6.26362e-10
-3.85585e-09
6.64658e-10
-4.55263e-09
6.96775e-10
-5.27568e-09
7.23047e-10
-6.01949e-09
7.43817e-10
-6.77894e-09
7.59451e-10
-7.54925e-09
7.70316e-10
-8.32603e-09
7.7678e-10
-9.10519e-09
7.79162e-10
-9.88295e-09
7.77758e-10
-1.06558e-08
7.72896e-10
-1.14208e-08
7.64913e-10
-1.21749e-08
7.54119e-10
-1.29156e-08
7.40751e-10
-1.36406e-08
7.25017e-10
-1.43477e-08
7.07116e-10
-1.50349e-08
6.8719e-10
-1.57003e-08
6.65401e-10
-1.63423e-08
6.41981e-10
-1.69594e-08
6.17093e-10
-1.75502e-08
5.90811e-10
-1.81135e-08
5.63247e-10
-1.8648e-08
5.3455e-10
-1.91528e-08
5.04803e-10
-1.96269e-08
4.74059e-10
-2.00693e-08
4.4243e-10
-2.04793e-08
4.10049e-10
-2.08563e-08
3.76996e-10
-2.11997e-08
3.43332e-10
-2.15088e-08
3.09153e-10
-2.17834e-08
2.74579e-10
-2.20231e-08
2.39682e-10
-2.22276e-08
2.04482e-10
-2.23966e-08
1.69001e-10
-2.25298e-08
1.33291e-10
-2.26273e-08
9.74086e-11
-2.26886e-08
6.13882e-11
-2.27139e-08
2.52529e-11
-2.27029e-08
-1.09594e-11
-2.26557e-08
-4.72055e-11
-2.25723e-08
-8.34557e-11
-2.24526e-08
-1.19693e-10
-2.22967e-08
-1.55897e-10
-2.21047e-08
-1.92016e-10
-2.18767e-08
-2.2797e-10
-2.1613e-08
-2.63684e-10
-2.1314e-08
-2.99095e-10
-2.09798e-08
-3.34161e-10
-2.06109e-08
-3.6884e-10
-2.02079e-08
-4.03046e-10
-1.97712e-08
-4.36662e-10
-1.93017e-08
-4.69565e-10
-1.88e-08
-5.01634e-10
-1.82673e-08
-5.32753e-10
-1.77045e-08
-5.62813e-10
-1.71128e-08
-5.91687e-10
-1.64936e-08
-6.19227e-10
-1.58483e-08
-6.45284e-10
-1.51786e-08
-6.6971e-10
-1.44862e-08
-6.92366e-10
-1.37731e-08
-7.13121e-10
-1.30413e-08
-7.31831e-10
-1.2293e-08
-7.4831e-10
-1.15306e-08
-7.6233e-10
-1.0757e-08
-7.73626e-10
-9.97509e-09
-7.8191e-10
-9.1882e-09
-7.86896e-10
-8.39989e-09
-7.88304e-10
-7.61405e-09
-7.85843e-10
-6.83486e-09
-7.7919e-10
-6.06686e-09
-7.67998e-10
-5.31495e-09
-7.51907e-10
-4.58442e-09
-7.30537e-10
-3.88092e-09
-7.03502e-10
-3.21048e-09
-6.70428e-10
-2.57951e-09
-6.30974e-10
-1.99466e-09
-5.84846e-10
-1.46285e-09
-5.31818e-10
-9.91086e-10
-4.71761e-10
-5.86402e-10
-4.04688e-10
-2.55558e-10
-3.30848e-10
-4.62612e-12
-2.50931e-10
1.61795e-10
-1.6642e-10
2.41993e-10
-8.02019e-11
2.39785e-10
2.20523e-12
1.6942e-10
7.03574e-11
6.58638e-11
1.03537e-10
6.5848e-11
7.5939e-11
-1.41881e-10
1.84789e-10
-2.37773e-10
2.03696e-10
-8.87746e-11
5.20034e-11
1.50815e-10
-2.99173e-10
4.34919e-10
-8.62515e-10
7.33723e-10
-1.63749e-09
1.02927e-09
-2.61557e-09
1.3113e-09
-3.78372e-09
1.57396e-09
-5.12631e-09
1.81405e-09
-6.62641e-09
2.03009e-09
-8.2666e-09
2.22175e-09
-1.00295e-08
2.38928e-09
-1.18982e-08
2.53332e-09
-1.38561e-08
2.65475e-09
-1.58877e-08
2.75463e-09
-1.7978e-08
2.83412e-09
-2.0113e-08
2.89445e-09
-2.22796e-08
2.93689e-09
-2.44655e-08
2.96266e-09
-2.66593e-08
2.97298e-09
-2.88506e-08
2.96902e-09
-3.10296e-08
2.95189e-09
-3.31873e-08
2.92272e-09
-3.53158e-08
2.88256e-09
-3.74074e-08
2.83238e-09
-3.94553e-08
2.77296e-09
-4.14533e-08
2.70507e-09
-4.33955e-08
2.62944e-09
-4.52769e-08
2.54675e-09
-4.70925e-08
2.45762e-09
-4.88381e-08
2.36264e-09
-5.05096e-08
2.26234e-09
-5.21035e-08
2.15717e-09
-5.36165e-08
2.04754e-09
-5.50456e-08
1.93387e-09
-5.6388e-08
1.81652e-09
-5.76415e-08
1.69587e-09
-5.88037e-08
1.57225e-09
-5.98726e-08
1.44598e-09
-6.08467e-08
1.31737e-09
-6.17243e-08
1.18675e-09
-6.25041e-08
1.0544e-09
-6.3185e-08
9.20559e-10
-6.37659e-08
7.8542e-10
-6.42461e-08
6.4916e-10
-6.46247e-08
5.11952e-10
-6.49013e-08
3.73962e-10
-6.50753e-08
2.35351e-10
-6.51463e-08
9.62778e-11
-6.51141e-08
-4.30983e-11
-6.49787e-08
-1.82615e-10
-6.47401e-08
-3.22136e-10
-6.43982e-08
-4.6152e-10
-6.39535e-08
-6.00601e-10
-6.34064e-08
-7.39177e-10
-6.27573e-08
-8.77018e-10
-6.20071e-08
-1.01389e-09
-6.11567e-08
-1.14955e-09
-6.02071e-08
-1.28377e-09
-5.91596e-08
-1.41628e-09
-5.80159e-08
-1.54679e-09
-5.67776e-08
-1.67492e-09
-5.54469e-08
-1.80029e-09
-5.40261e-08
-1.92247e-09
-5.25178e-08
-2.04104e-09
-5.09251e-08
-2.15554e-09
-4.92513e-08
-2.26548e-09
-4.75002e-08
-2.37034e-09
-4.56759e-08
-2.46959e-09
-4.37829e-08
-2.56264e-09
-4.18264e-08
-2.64894e-09
-3.98116e-08
-2.72786e-09
-3.77447e-08
-2.79876e-09
-3.56321e-08
-2.8609e-09
-3.3481e-08
-2.91343e-09
-3.12992e-08
-2.95541e-09
-2.90953e-08
-2.98585e-09
-2.68785e-08
-3.00371e-09
-2.46589e-08
-3.00791e-09
-2.24474e-08
-2.99735e-09
-2.02557e-08
-2.97087e-09
-1.80964e-08
-2.92726e-09
-1.59831e-08
-2.86526e-09
-1.393e-08
-2.7836e-09
-1.19524e-08
-2.68106e-09
-1.00664e-08
-2.55646e-09
-8.2886e-09
-2.40879e-09
-6.6362e-09
-2.23724e-09
-5.1267e-09
-2.04132e-09
-3.77743e-09
-1.82104e-09
-2.60506e-09
-1.57706e-09
-1.62475e-09
-1.31116e-09
-8.48829e-10
-1.02685e-09
-2.84798e-10
-7.30463e-10
6.79103e-11
-4.3291e-10
2.2282e-10
-1.52686e-10
2.13474e-10
7.97355e-11
1.02678e-10
2.14382e-10
1.68508e-10
6.79954e-11
-2.09863e-10
6.33934e-11
-2.3318e-10
-1.06813e-10
8.14447e-11
-5.23323e-10
5.67321e-10
-1.22826e-09
1.13986e-09
-2.24037e-09
1.74583e-09
-3.56163e-09
2.35053e-09
-5.18276e-09
2.93241e-09
-7.08723e-09
3.47843e-09
-9.25415e-09
3.98097e-09
-1.166e-08
4.43592e-09
-1.42798e-08
4.84158e-09
-1.70883e-08
5.19777e-09
-2.00602e-08
5.50525e-09
-2.3171e-08
5.76548e-09
-2.63967e-08
5.98036e-09
-2.97147e-08
6.15211e-09
-3.31033e-08
6.2831e-09
-3.65423e-08
6.37584e-09
-4.00124e-08
6.43284e-09
-4.34961e-08
6.45659e-09
-4.69765e-08
6.44949e-09
-5.04385e-08
6.41391e-09
-5.3868e-08
6.35214e-09
-5.72517e-08
6.26632e-09
-6.05778e-08
6.15842e-09
-6.38351e-08
6.0303e-09
-6.70137e-08
5.88366e-09
-7.01043e-08
5.72003e-09
-7.30984e-08
5.54092e-09
-7.59885e-08
5.34772e-09
-7.87676e-08
5.14171e-09
-8.14292e-08
4.92397e-09
-8.39676e-08
4.69556e-09
-8.63775e-08
4.45745e-09
-8.86542e-08
4.21053e-09
-9.07933e-08
3.95561e-09
-9.27909e-08
3.69348e-09
-9.46435e-08
3.42487e-09
-9.6348e-08
3.15046e-09
-9.79015e-08
2.8709e-09
-9.93015e-08
2.58678e-09
-1.00546e-07
2.29869e-09
-1.01632e-07
2.00714e-09
-1.0256e-07
1.71258e-09
-1.03326e-07
1.41543e-09
-1.0393e-07
1.11609e-09
-1.04371e-07
8.14953e-10
-1.04648e-07
5.12393e-10
-1.04761e-07
2.08791e-10
-1.04708e-07
-9.54901e-11
-1.04491e-07
-4.00082e-10
-1.04108e-07
-7.04621e-10
-1.03561e-07
-1.00874e-09
-1.0285e-07
-1.31201e-09
-1.01975e-07
-1.61401e-09
-1.00937e-07
-1.91426e-09
-9.97391e-08
-2.21225e-09
-9.83812e-08
-2.50748e-09
-9.68656e-08
-2.79939e-09
-9.51945e-08
-3.08738e-09
-9.33705e-08
-3.37079e-09
-9.13965e-08
-3.64888e-09
-8.9276e-08
-3.92086e-09
-8.70126e-08
-4.18585e-09
-8.46107e-08
-4.44296e-09
-8.2075e-08
-4.69122e-09
-7.94109e-08
-4.92957e-09
-7.66243e-08
-5.15691e-09
-7.37219e-08
-5.37207e-09
-7.07107e-08
-5.57379e-09
-6.75989e-08
-5.76077e-09
-6.43951e-08
-5.93162e-09
-6.11091e-08
-6.08482e-09
-5.77513e-08
-6.21873e-09
-5.43331e-08
-6.33153e-09
-5.08673e-08
-6.42128e-09
-4.73672e-08
-6.4859e-09
-4.38477e-08
-6.52321e-09
-4.03247e-08
-6.53096e-09
-3.68152e-08
-6.50681e-09
-3.33377e-08
-6.44835e-09
-2.99119e-08
-6.35309e-09
-2.65586e-08
-6.21856e-09
-2.32999e-08
-6.04227e-09
-2.01591e-08
-5.82189e-09
-1.71603e-08
-5.55527e-09
-1.43285e-08
-5.24061e-09
-1.16891e-08
-4.87666e-09
-9.26749e-09
-4.4629e-09
-7.08859e-09
-3.99994e-09
-5.17565e-09
-3.49e-09
-3.54915e-09
-2.93767e-09
-2.22485e-09
-2.35116e-09
-1.21121e-09
-1.74411e-09
-5.05636e-10
-1.13849e-09
-8.94794e-11
-5.68873e-10
7.84231e-11
-8.81802e-11
6.9264e-11
2.23559e-10
2.3777e-10
1.35958e-12
-2.11228e-10
-1.58602e-10
-7.32206e-11
-5.75568e-10
4.98412e-10
-1.3187e-09
1.31045e-09
-2.42897e-09
2.25013e-09
-3.92517e-09
3.24203e-09
-5.80913e-09
4.23449e-09
-8.07044e-09
5.19372e-09
-1.06902e-08
6.09818e-09
-1.36438e-08
6.93456e-09
-1.6903e-08
7.6951e-09
-2.04373e-08
8.37593e-09
-2.42154e-08
8.97584e-09
-2.82056e-08
9.49544e-09
-3.23767e-08
9.93657e-09
-3.66982e-08
1.03019e-08
-4.1141e-08
1.05949e-08
-4.5677e-08
1.08191e-08
-5.02797e-08
1.09785e-08
-5.4924e-08
1.10772e-08
-5.95866e-08
1.11192e-08
-6.42457e-08
1.11085e-08
-6.88807e-08
1.10489e-08
-7.34728e-08
1.09443e-08
-7.80047e-08
1.07982e-08
-8.24601e-08
1.06139e-08
-8.68244e-08
1.03946e-08
-9.10839e-08
1.01432e-08
-9.52262e-08
9.86238e-09
-9.92401e-08
9.55478e-09
-1.03115e-07
9.22269e-09
-1.06842e-07
8.8683e-09
-1.10411e-07
8.49361e-09
-1.13816e-07
8.10042e-09
-1.17049e-07
7.6904e-09
-1.20104e-07
7.2651e-09
-1.22974e-07
6.82595e-09
-1.25655e-07
6.37431e-09
-1.28141e-07
5.9114e-09
-1.30429e-07
5.43838e-09
-1.32515e-07
4.95634e-09
-1.34394e-07
4.46629e-09
-1.36065e-07
3.96918e-09
-1.37523e-07
3.46587e-09
-1.38768e-07
2.95719e-09
-1.39797e-07
2.44389e-09
-1.40607e-07
1.92669e-09
-1.41198e-07
1.40628e-09
-1.41569e-07
8.83352e-10
-1.41719e-07
3.58579e-10
-1.41647e-07
-1.67363e-10
-1.41354e-07
-6.93803e-10
-1.40838e-07
-1.22006e-09
-1.40101e-07
-1.74546e-09
-1.39144e-07
-2.26925e-09
-1.37968e-07
-2.79066e-09
-1.36573e-07
-3.30887e-09
-1.34962e-07
-3.82301e-09
-1.33137e-07
-4.33217e-09
-1.31101e-07
-4.83539e-09
-1.28857e-07
-5.33163e-09
-1.26408e-07
-5.81974e-09
-1.23759e-07
-6.2985e-09
-1.20913e-07
-6.76655e-09
-1.17876e-07
-7.22246e-09
-1.14655e-07
-7.66469e-09
-1.11254e-07
-8.09158e-09
-1.07682e-07
-8.50138e-09
-1.03947e-07
-8.89217e-09
-1.00057e-07
-9.26193e-09
-9.60226e-08
-9.60851e-09
-9.18538e-08
-9.9296e-09
-8.75626e-08
-1.02227e-08
-8.31622e-08
-1.04853e-08
-7.86665e-08
-1.07144e-08
-7.4091e-08
-1.0907e-08
-6.94525e-08
-1.10598e-08
-6.4769e-08
-1.11694e-08
-6.00602e-08
-1.1232e-08
-5.53472e-08
-1.1244e-08
-5.06526e-08
-1.12014e-08
-4.60007e-08
-1.11003e-08
-4.1417e-08
-1.09367e-08
-3.6929e-08
-1.07066e-08
-3.25651e-08
-1.04062e-08
-2.83551e-08
-1.00318e-08
-2.43301e-08
-9.5803e-09
-2.05215e-08
-9.04918e-09
-1.69613e-08
-8.43692e-09
-1.36809e-08
-7.74334e-09
-1.07106e-08
-6.97022e-09
-8.07847e-09
-6.1221e-09
-5.80869e-09
-5.20745e-09
-3.91947e-09
-4.24039e-09
-2.42038e-09
-3.24318e-09
-1.30895e-09
-2.24992e-09
-5.66191e-10
-1.31163e-09
-1.51759e-10
-5.02623e-10
1.86576e-12
6.99393e-11
2.3964e-10
-7.67063e-11
-1.34516e-10
-4.28541e-10
2.78604e-10
-1.13046e-09
1.20033e-09
-2.2379e-09
2.41789e-09
-3.7848e-09
3.79703e-09
-5.7861e-09
5.24334e-09
-8.24125e-09
6.68965e-09
-1.11377e-08
8.09014e-09
-1.44539e-08
9.41444e-09
-1.81623e-08
1.06429e-08
-2.22309e-08
1.17636e-08
-2.66249e-08
1.277e-08
-3.13082e-08
1.36592e-08
-3.62442e-08
1.44314e-08
-4.13963e-08
1.50886e-08
-4.67287e-08
1.56343e-08
-5.22067e-08
1.60729e-08
-5.7797e-08
1.64094e-08
-6.34678e-08
1.66493e-08
-6.9189e-08
1.67984e-08
-7.49324e-08
1.68625e-08
-8.06712e-08
1.68473e-08
-8.63808e-08
1.67585e-08
-9.20381e-08
1.66016e-08
-9.76218e-08
1.63818e-08
-1.03112e-07
1.61041e-08
-1.08491e-07
1.57732e-08
-1.13741e-07
1.53934e-08
-1.18847e-07
1.4969e-08
-1.23796e-07
1.45036e-08
-1.28575e-07
1.4001e-08
-1.33171e-07
1.34642e-08
-1.37573e-07
1.28965e-08
-1.41773e-07
1.23005e-08
-1.45762e-07
1.16788e-08
-1.49531e-07
1.10338e-08
-1.53072e-07
1.03677e-08
-1.56381e-07
9.68244e-09
-1.59449e-07
8.97994e-09
-1.62273e-07
8.26193e-09
-1.64846e-07
7.53007e-09
-1.67166e-07
6.78586e-09
-1.69227e-07
6.03071e-09
-1.71028e-07
5.26596e-09
-1.72563e-07
4.49286e-09
-1.73832e-07
3.7126e-09
-1.74832e-07
2.92629e-09
-1.7556e-07
2.13503e-09
-1.76017e-07
1.33989e-09
-1.762e-07
5.41921e-10
-1.7611e-07
-2.57812e-10
-1.75745e-07
-1.05826e-09
-1.75107e-07
-1.85834e-09
-1.74195e-07
-2.65695e-09
-1.73012e-07
-3.45296e-09
-1.71557e-07
-4.24518e-09
-1.69834e-07
-5.03234e-09
-1.67844e-07
-5.81311e-09
-1.6559e-07
-6.5861e-09
-1.63075e-07
-7.34983e-09
-1.60304e-07
-8.10268e-09
-1.57281e-07
-8.84296e-09
-1.54011e-07
-9.5688e-09
-1.50499e-07
-1.02782e-08
-1.46753e-07
-1.0969e-08
-1.42778e-07
-1.16389e-08
-1.38585e-07
-1.22854e-08
-1.3418e-07
-1.29058e-08
-1.29575e-07
-1.34974e-08
-1.2478e-07
-1.40569e-08
-1.19807e-07
-1.45812e-08
-1.1467e-07
-1.50666e-08
-1.09383e-07
-1.55096e-08
-1.03963e-07
-1.5906e-08
-9.84255e-08
-1.62515e-08
-9.27909e-08
-1.65416e-08
-8.70794e-08
-1.67714e-08
-8.13131e-08
-1.69357e-08
-7.55159e-08
-1.70292e-08
-6.97134e-08
-1.70464e-08
-6.39332e-08
-1.69816e-08
-5.82045e-08
-1.68291e-08
-5.25581e-08
-1.65831e-08
-4.70266e-08
-1.62381e-08
-4.16441e-08
-1.57887e-08
-3.6446e-08
-1.523e-08
-3.14684e-08
-1.45578e-08
-2.67485e-08
-1.37692e-08
-2.2323e-08
-1.28624e-08
-1.82282e-08
-1.18381e-08
-1.44988e-08
-1.06997e-08
-1.11663e-08
-9.45457e-09
-8.25802e-09
-8.11573e-09
-5.79464e-09
-6.70378e-09
-3.78791e-09
-5.24992e-09
-2.23775e-09
-3.80008e-09
-1.12897e-09
-2.42039e-09
-4.2791e-10
-1.20369e-09
-7.89869e-11
-2.78983e-10
1.60651e-10
-1.59536e-10
2.50221e-11
-7.16833e-10
8.35902e-10
-1.72202e-09
2.20552e-09
-3.21302e-09
3.90889e-09
-5.21267e-09
5.79667e-09
-7.72891e-09
7.75957e-09
-1.07566e-08
9.71737e-09
-1.42799e-08
1.16134e-08
-1.82742e-08
1.34088e-08
-2.27089e-08
1.50776e-08
-2.75486e-08
1.66034e-08
-3.27552e-08
1.79765e-08
-3.82886e-08
1.91926e-08
-4.4108e-08
2.02508e-08
-5.01726e-08
2.11532e-08
-5.64422e-08
2.19039e-08
-6.28774e-08
2.25082e-08
-6.94407e-08
2.29726e-08
-7.60956e-08
2.33043e-08
-8.28079e-08
2.35107e-08
-8.95448e-08
2.35995e-08
-9.62759e-08
2.35784e-08
-1.02972e-07
2.34551e-08
-1.09608e-07
2.32369e-08
-1.16157e-07
2.2931e-08
-1.22597e-07
2.25442e-08
-1.28907e-07
2.20828e-08
-1.35066e-07
2.15531e-08
-1.41058e-07
2.09607e-08
-1.46865e-07
2.03109e-08
-1.52473e-07
1.96086e-08
-1.57867e-07
1.88584e-08
-1.63035e-07
1.80646e-08
-1.67966e-07
1.7231e-08
-1.72648e-07
1.63612e-08
-1.77073e-07
1.54586e-08
-1.81231e-07
1.45262e-08
-1.85116e-07
1.35668e-08
-1.88719e-07
1.25831e-08
-1.92034e-07
1.15775e-08
-1.95057e-07
1.05522e-08
-1.9778e-07
9.5095e-09
-2.00201e-07
8.45125e-09
-2.02314e-07
7.37936e-09
-2.04117e-07
6.2956e-09
-2.05606e-07
5.20164e-09
-2.06779e-07
4.09911e-09
-2.07633e-07
2.98956e-09
-2.08168e-07
1.87454e-09
-2.08382e-07
7.55552e-10
-2.08274e-07
-3.65887e-10
-2.07844e-07
-1.48826e-09
-2.07092e-07
-2.61002e-09
-2.06019e-07
-3.72959e-09
-2.04627e-07
-4.84534e-09
-2.02916e-07
-5.95556e-09
-2.0089e-07
-7.05849e-09
-1.98551e-07
-8.15226e-09
-1.95902e-07
-9.23487e-09
-1.92948e-07
-1.03042e-08
-1.89693e-07
-1.13581e-08
-1.86141e-07
-1.23941e-08
-1.82301e-07
-1.34096e-08
-1.78177e-07
-1.44018e-08
-1.73778e-07
-1.53678e-08
-1.69113e-07
-1.63043e-08
-1.6419e-07
-1.72079e-08
-1.59021e-07
-1.80749e-08
-1.53617e-07
-1.89012e-08
-1.47992e-07
-1.96826e-08
-1.42158e-07
-2.04145e-08
-1.36133e-07
-2.1092e-08
-1.29933e-07
-2.17098e-08
-1.23576e-07
-2.22624e-08
-1.17084e-07
-2.27438e-08
-1.10478e-07
-2.31476e-08
-1.03782e-07
-2.34673e-08
-9.70223e-08
-2.36957e-08
-9.0226e-08
-2.38256e-08
-8.34228e-08
-2.38495e-08
-7.66445e-08
-2.37599e-08
-6.99244e-08
-2.35491e-08
-6.32981e-08
-2.32094e-08
-5.68026e-08
-2.27336e-08
-5.04765e-08
-2.21148e-08
-4.43597e-08
-2.13468e-08
-3.8493e-08
-2.04245e-08
-3.29176e-08
-1.93445e-08
-2.76746e-08
-1.81054e-08
-2.2804e-08
-1.67086e-08
-1.83441e-08
-1.51596e-08
-1.43297e-08
-1.3469e-08
-1.0791e-08
-1.16544e-08
-7.75175e-09
-9.74303e-09
-5.22716e-09
-7.77452e-09
-3.22177e-09
-5.80547e-09
-1.72728e-09
-3.91487e-09
-7.20754e-10
-2.21023e-09
-1.63337e-10
-8.36399e-10
-2.69007e-12
-2.41732e-10
2.66758e-10
-1.00651e-09
1.60067e-09
-2.31934e-09
3.51835e-09
-4.19909e-09
5.78865e-09
-6.65529e-09
8.25288e-09
-9.6867e-09
1.0791e-08
-1.32818e-08
1.33125e-08
-1.742e-08
1.57516e-08
-2.20732e-08
1.8062e-08
-2.72074e-08
2.02117e-08
-3.2784e-08
2.218e-08
-3.87616e-08
2.39541e-08
-4.50968e-08
2.55278e-08
-5.17455e-08
2.68994e-08
-5.8663e-08
2.80708e-08
-6.58055e-08
2.90464e-08
-7.31301e-08
2.98327e-08
-8.0595e-08
3.04375e-08
-8.81604e-08
3.08696e-08
-9.5788e-08
3.11383e-08
-1.03442e-07
3.12532e-08
-1.11088e-07
3.12242e-08
-1.18693e-07
3.10608e-08
-1.26229e-07
3.07726e-08
-1.33667e-07
3.03687e-08
-1.4098e-07
2.98581e-08
-1.48147e-07
2.92489e-08
-1.55143e-07
2.85492e-08
-1.61948e-07
2.77664e-08
-1.68545e-07
2.69074e-08
-1.74915e-07
2.59788e-08
-1.81043e-07
2.49866e-08
-1.86915e-07
2.39363e-08
-1.92517e-07
2.28331e-08
-1.97838e-07
2.16817e-08
-2.02866e-07
2.04866e-08
-2.07591e-07
1.92518e-08
-2.12005e-07
1.7981e-08
-2.161e-07
1.66778e-08
-2.19868e-07
1.53453e-08
-2.23302e-07
1.39866e-08
-2.26397e-07
1.26045e-08
-2.29148e-07
1.12017e-08
-2.31549e-07
9.78061e-09
-2.33597e-07
8.34362e-09
-2.35288e-07
6.89298e-09
-2.3662e-07
5.43087e-09
-2.3759e-07
3.9594e-09
-2.38196e-07
2.48063e-09
-2.38437e-07
9.96629e-10
-2.38312e-07
-4.90588e-10
-2.37822e-07
-1.97897e-09
-2.36965e-07
-3.46643e-09
-2.35744e-07
-4.95084e-09
-2.34159e-07
-6.43002e-09
-2.32213e-07
-7.90167e-09
-2.29908e-07
-9.36343e-09
-2.27248e-07
-1.08128e-08
-2.24235e-07
-1.22471e-08
-2.20876e-07
-1.36636e-08
-2.17175e-07
-1.50593e-08
-2.13138e-07
-1.6431e-08
-2.08772e-07
-1.77753e-08
-2.04086e-07
-1.90885e-08
-1.99087e-07
-2.03666e-08
-1.93786e-07
-2.16055e-08
-1.88193e-07
-2.28005e-08
-1.82321e-07
-2.39468e-08
-1.76183e-07
-2.50392e-08
-1.69794e-07
-2.60719e-08
-1.6317e-07
-2.70389e-08
-1.56328e-07
-2.79338e-08
-1.49288e-07
-2.87496e-08
-1.42071e-07
-2.9479e-08
-1.34701e-07
-3.01143e-08
-1.27201e-07
-3.06471e-08
-1.196e-07
-3.10688e-08
-1.11925e-07
-3.13703e-08
-1.04208e-07
-3.15424e-08
-9.64824e-08
-3.15755e-08
-8.87826e-08
-3.14597e-08
-8.11462e-08
-3.11855e-08
-7.36122e-08
-3.07434e-08
-6.62216e-08
-3.01242e-08
-5.90169e-08
-2.93195e-08
-5.20418e-08
-2.83219e-08
-4.53407e-08
-2.71256e-08
-3.89586e-08
-2.57266e-08
-3.294e-08
-2.4124e-08
-2.73284e-08
-2.23203e-08
-2.2165e-08
-2.0323e-08
-1.7488e-08
-1.8146e-08
-1.33308e-08
-1.58116e-08
-9.72103e-09
-1.33528e-08
-6.67856e-09
-1.0817e-08
-4.21433e-09
-8.26969e-09
-2.32914e-09
-5.80007e-09
-1.01305e-09
-3.52631e-09
-2.46001e-10
-1.60345e-09
-2.4869e-10
-3.20495e-10
5.87252e-10
-1.28779e-09
2.56797e-09
-2.90337e-09
5.13392e-09
-5.16715e-09
8.05242e-09
-8.07437e-09
1.11601e-08
-1.16134e-08
1.433e-08
-1.57649e-08
1.7464e-08
-2.05028e-08
2.04895e-08
-2.57944e-08
2.33536e-08
-3.16019e-08
2.60192e-08
-3.78836e-08
2.84617e-08
-4.45948e-08
3.06654e-08
-5.16892e-08
3.26222e-08
-5.91194e-08
3.43296e-08
-6.68377e-08
3.57891e-08
-7.47971e-08
3.70058e-08
-8.29514e-08
3.7987e-08
-9.12557e-08
3.87418e-08
-9.96668e-08
3.92807e-08
-1.08143e-07
3.96149e-08
-1.16646e-07
3.9756e-08
-1.25138e-07
3.9716e-08
-1.33584e-07
3.95067e-08
-1.41951e-07
3.91397e-08
-1.50209e-07
3.86266e-08
-1.58329e-07
3.79781e-08
-1.66285e-07
3.72047e-08
-1.74052e-07
3.63163e-08
-1.81608e-07
3.53223e-08
-1.88932e-07
3.42314e-08
-1.96004e-07
3.30517e-08
-2.02809e-07
3.17909e-08
-2.09329e-07
3.04561e-08
-2.15549e-07
2.90537e-08
-2.21457e-07
2.75899e-08
-2.27041e-07
2.60701e-08
-2.32289e-07
2.44995e-08
-2.37191e-07
2.2883e-08
-2.41738e-07
2.1225e-08
-2.45922e-07
1.95295e-08
-2.49736e-07
1.78004e-08
-2.53173e-07
1.60414e-08
-2.56227e-07
1.42558e-08
-2.58893e-07
1.24467e-08
-2.61167e-07
1.06173e-08
-2.63044e-07
8.77035e-09
-2.64522e-07
6.90873e-09
-2.65598e-07
5.03514e-09
-2.66269e-07
3.15225e-09
-2.66535e-07
1.26269e-09
-2.66395e-07
-6.30896e-10
-2.65848e-07
-2.52588e-09
-2.64895e-07
-4.41958e-09
-2.63536e-07
-6.30924e-09
-2.61774e-07
-8.19206e-09
-2.59611e-07
-1.00651e-08
-2.57049e-07
-1.19253e-08
-2.54092e-07
-1.37695e-08
-2.50745e-07
-1.55943e-08
-2.47013e-07
-1.73961e-08
-2.42901e-07
-1.91712e-08
-2.38416e-07
-2.09154e-08
-2.33567e-07
-2.26245e-08
-2.28362e-07
-2.42937e-08
-2.2281e-07
-2.5918e-08
-2.16924e-07
-2.74922e-08
-2.10714e-07
-2.90104e-08
-2.04194e-07
-3.04664e-08
-1.9738e-07
-3.18535e-08
-1.90287e-07
-3.31647e-08
-1.82934e-07
-3.43922e-08
-1.7534e-07
-3.55279e-08
-1.67526e-07
-3.65632e-08
-1.59516e-07
-3.74887e-08
-1.51336e-07
-3.82947e-08
-1.43012e-07
-3.89709e-08
-1.34575e-07
-3.95064e-08
-1.26055e-07
-3.98901e-08
-1.17487e-07
-4.01105e-08
-1.08907e-07
-4.01556e-08
-1.00353e-07
-4.00138e-08
-9.1865e-08
-3.96731e-08
-8.34864e-08
-3.9122e-08
-7.5261e-08
-3.83497e-08
-6.72343e-08
-3.73461e-08
-5.94535e-08
-3.61028e-08
-5.19662e-08
-3.46129e-08
-4.48206e-08
-3.28723e-08
-3.80641e-08
-3.08804e-08
-3.17434e-08
-2.8641e-08
-2.59029e-08
-2.61635e-08
-2.05841e-08
-2.34649e-08
-1.58242e-08
-2.05715e-08
-1.16552e-08
-1.75218e-08
-8.10293e-09
-1.43693e-08
-5.1859e-09
-1.11867e-08
-2.91528e-09
-8.0707e-09
-1.29521e-09
-5.14637e-09
-3.24496e-10
-2.57417e-09
-5.73181e-10
-3.94306e-10
9.81559e-10
-1.55521e-09
3.72887e-09
-3.46283e-09
7.04153e-09
-6.09921e-09
1.06888e-08
-9.44531e-09
1.45062e-08
-1.34784e-08
1.83631e-08
-1.8171e-08
2.21566e-08
-2.34901e-08
2.58086e-08
-2.93982e-08
2.92616e-08
-3.58533e-08
3.24743e-08
-4.28101e-08
3.54185e-08
-5.02208e-08
3.80761e-08
-5.8036e-08
4.04374e-08
-6.62053e-08
4.24989e-08
-7.46785e-08
4.42623e-08
-8.34054e-08
4.57328e-08
-9.23372e-08
4.69188e-08
-1.01426e-07
4.78308e-08
-1.10626e-07
4.84808e-08
-1.19894e-07
4.88821e-08
-1.29186e-07
4.90483e-08
-1.38463e-07
4.89936e-08
-1.47689e-07
4.8732e-08
-1.56827e-07
4.82776e-08
-1.65844e-07
4.76439e-08
-1.7471e-07
4.68441e-08
-1.83396e-07
4.58909e-08
-1.91876e-07
4.47962e-08
-2.00125e-07
4.35715e-08
-2.08121e-07
4.22272e-08
-2.15843e-07
4.07735e-08
-2.23272e-07
3.92197e-08
-2.3039e-07
3.75743e-08
-2.37182e-07
3.58454e-08
-2.43632e-07
3.40404e-08
-2.49728e-07
3.21662e-08
-2.55458e-07
3.02291e-08
-2.6081e-07
2.82351e-08
-2.65775e-07
2.61896e-08
-2.70343e-07
2.40978e-08
-2.74507e-07
2.19642e-08
-2.78259e-07
1.97935e-08
-2.81593e-07
1.75898e-08
-2.84503e-07
1.5357e-08
-2.86985e-07
1.30989e-08
-2.89034e-07
1.08192e-08
-2.90646e-07
8.5212e-09
-2.91819e-07
6.20841e-09
-2.92551e-07
3.88414e-09
-2.9284e-07
1.55165e-09
-2.92685e-07
-7.8575e-10
-2.92086e-07
-3.12478e-09
-2.91044e-07
-5.4621e-09
-2.89559e-07
-7.7943e-09
-2.87633e-07
-1.01179e-08
-2.85269e-07
-1.24292e-08
-2.8247e-07
-1.47244e-08
-2.7924e-07
-1.69996e-08
-2.75583e-07
-1.92507e-08
-2.71506e-07
-2.14731e-08
-2.67015e-07
-2.36621e-08
-2.62118e-07
-2.58129e-08
-2.56823e-07
-2.79199e-08
-2.51139e-07
-2.99776e-08
-2.45077e-07
-3.19796e-08
-2.3865e-07
-3.39195e-08
-2.3187e-07
-3.57901e-08
-2.24753e-07
-3.75838e-08
-2.17314e-07
-3.92924e-08
-2.09571e-07
-4.09073e-08
-2.01544e-07
-4.24189e-08
-1.93255e-07
-4.38174e-08
-1.84726e-07
-4.50922e-08
-1.75983e-07
-4.62319e-08
-1.67053e-07
-4.72246e-08
-1.57966e-07
-4.8058e-08
-1.48753e-07
-4.87189e-08
-1.39449e-07
-4.91938e-08
-1.30091e-07
-4.94689e-08
-1.20716e-07
-4.95302e-08
-1.11367e-07
-4.93634e-08
-1.02085e-07
-4.89545e-08
-9.29173e-08
-4.82902e-08
-8.39094e-08
-4.73575e-08
-7.51105e-08
-4.61451e-08
-6.65703e-08
-4.4643e-08
-5.83394e-08
-4.28437e-08
-5.04688e-08
-4.07429e-08
-4.3009e-08
-3.83403e-08
-3.60095e-08
-3.56405e-08
-2.9518e-08
-3.2655e-08
-2.35796e-08
-2.94033e-08
-1.82358e-08
-2.59153e-08
-1.35237e-08
-2.22338e-08
-9.4757e-09
-1.84173e-08
-6.11869e-09
-1.45437e-08
-3.47477e-09
-1.07146e-08
-1.56225e-09
-7.0589e-09
-3.97736e-10
-3.73868e-09
-9.70917e-10
-4.62613e-10
1.44416e-09
-1.80603e-09
5.0723e-09
-3.99155e-09
9.22706e-09
-6.98493e-09
1.36822e-08
-1.07534e-08
1.82746e-08
-1.52631e-08
2.28728e-08
-2.04778e-08
2.73713e-08
-2.63576e-08
3.16885e-08
-3.28593e-08
3.57633e-08
-3.99365e-08
3.95514e-08
-4.75398e-08
4.30218e-08
-5.56183e-08
4.61546e-08
-6.41194e-08
4.89385e-08
-7.29902e-08
5.13697e-08
-8.21774e-08
5.34495e-08
-9.16285e-08
5.51839e-08
-1.01292e-07
5.65823e-08
-1.11118e-07
5.76565e-08
-1.21057e-07
5.84204e-08
-1.31064e-07
5.88889e-08
-1.41094e-07
5.9078e-08
-1.51104e-07
5.9004e-08
-1.61056e-07
5.86834e-08
-1.7091e-07
5.81324e-08
-1.80634e-07
5.73672e-08
-1.90193e-07
5.64032e-08
-1.99557e-07
5.52552e-08
-2.08698e-07
5.39375e-08
-2.1759e-07
5.24635e-08
-2.26209e-07
5.08459e-08
-2.34532e-07
4.90966e-08
-2.42539e-07
4.72267e-08
-2.50211e-07
4.52465e-08
-2.57532e-07
4.31655e-08
-2.64484e-07
4.09928e-08
-2.71055e-07
3.87366e-08
-2.7723e-07
3.64045e-08
-2.82998e-07
3.40035e-08
-2.88349e-07
3.15404e-08
-2.93272e-07
2.90212e-08
-2.9776e-07
2.64516e-08
-3.01803e-07
2.38371e-08
-3.05396e-07
2.11826e-08
-3.08532e-07
1.8493e-08
-3.11206e-07
1.57728e-08
-3.13413e-07
1.30264e-08
-3.1515e-07
1.02581e-08
-3.16414e-07
7.4718e-09
-3.17201e-07
4.6717e-09
-3.17511e-07
1.86175e-09
-3.17343e-07
-9.54075e-10
-3.16696e-07
-3.77176e-09
-3.15571e-07
-6.58727e-09
-3.13969e-07
-9.39646e-09
-3.11891e-07
-1.21951e-08
-3.09342e-07
-1.49787e-08
-3.06324e-07
-1.77428e-08
-3.02841e-07
-2.04825e-08
-2.98898e-07
-2.31929e-08
-2.94503e-07
-2.58684e-08
-2.89662e-07
-2.85036e-08
-2.84382e-07
-3.10924e-08
-2.78674e-07
-3.36283e-08
-2.72547e-07
-3.61044e-08
-2.66013e-07
-3.85133e-08
-2.59085e-07
-4.08472e-08
-2.51778e-07
-4.30974e-08
-2.44107e-07
-4.52549e-08
-2.3609e-07
-4.731e-08
-2.27745e-07
-4.9252e-08
-2.19094e-07
-5.10699e-08
-2.10159e-07
-5.27518e-08
-2.00967e-07
-5.4285e-08
-1.91542e-07
-5.56561e-08
-1.81916e-07
-5.68509e-08
-1.72119e-07
-5.78549e-08
-1.62186e-07
-5.86525e-08
-1.52152e-07
-5.92278e-08
-1.42056e-07
-5.95647e-08
-1.31939e-07
-5.96467e-08
-1.21845e-07
-5.94572e-08
-1.1182e-07
-5.89801e-08
-1.0191e-07
-5.81999e-08
-9.21659e-08
-5.71018e-08
-8.26382e-08
-5.56727e-08
-7.33796e-08
-5.39016e-08
-6.44431e-08
-5.17801e-08
-5.58826e-08
-4.93035e-08
-4.77512e-08
-4.64716e-08
-4.01018e-08
-4.329e-08
-3.29853e-08
-3.97715e-08
-2.64507e-08
-3.59379e-08
-2.05441e-08
-3.18219e-08
-1.53084e-08
-2.74695e-08
-1.07827e-08
-2.2943e-08
-7.00295e-09
-1.83235e-08
-4.00209e-09
-1.37155e-08
-1.81193e-09
-9.24906e-09
-4.65394e-10
-5.08521e-09
-1.43632e-09
-5.2543e-10
1.96959e-09
-2.0394e-09
6.58627e-09
-4.48702e-09
1.16747e-08
-7.81941e-09
1.70146e-08
-1.1991e-08
2.24462e-08
-1.69574e-08
2.78392e-08
-2.26733e-08
3.30872e-08
-2.90918e-08
3.81069e-08
-3.61636e-08
4.28352e-08
-4.38375e-08
4.72253e-08
-5.20602e-08
5.12445e-08
-6.0777e-08
5.48714e-08
-6.99324e-08
5.80939e-08
-7.94705e-08
6.09077e-08
-8.93356e-08
6.33145e-08
-9.94726e-08
6.53209e-08
-1.09828e-07
6.69374e-08
-1.20348e-07
6.81772e-08
-1.30984e-07
6.90559e-08
-1.41686e-07
6.95906e-08
-1.52407e-07
6.97994e-08
-1.63104e-07
6.9701e-08
-1.73735e-07
6.93141e-08
-1.8426e-07
6.86576e-08
-1.94643e-07
6.77498e-08
-2.04848e-07
6.66087e-08
-2.14844e-07
6.52515e-08
-2.24602e-07
6.36948e-08
-2.34092e-07
6.1954e-08
-2.4329e-07
6.00441e-08
-2.52173e-07
5.79788e-08
-2.60717e-07
5.57712e-08
-2.68904e-07
5.34334e-08
-2.76715e-07
5.09767e-08
-2.84134e-07
4.84114e-08
-2.91144e-07
4.57473e-08
-2.97733e-07
4.29935e-08
-3.03888e-07
4.01582e-08
-3.09597e-07
3.72493e-08
-3.1485e-07
3.4274e-08
-3.19637e-07
3.12391e-08
-3.23951e-07
2.81509e-08
-3.27784e-07
2.50154e-08
-3.31129e-07
2.18383e-08
-3.33982e-07
1.8625e-08
-3.36336e-07
1.53807e-08
-3.38188e-07
1.21103e-08
-3.39535e-07
8.81879e-09
-3.40374e-07
5.51096e-09
-3.40704e-07
2.19152e-09
-3.40523e-07
-1.13478e-09
-3.39832e-07
-4.46319e-09
-3.3863e-07
-7.78891e-09
-3.3692e-07
-1.1107e-08
-3.34702e-07
-1.44125e-08
-3.31981e-07
-1.77001e-08
-3.28759e-07
-2.09644e-08
-3.25042e-07
-2.41997e-08
-3.20835e-07
-2.74e-08
-3.16144e-07
-3.05591e-08
-3.10978e-07
-3.36703e-08
-3.05344e-07
-3.67263e-08
-2.99252e-07
-3.97197e-08
-2.92715e-07
-4.26422e-08
-2.85743e-07
-4.54853e-08
-2.7835e-07
-4.82395e-08
-2.70553e-07
-5.08949e-08
-2.62367e-07
-5.34406e-08
-2.53812e-07
-5.58654e-08
-2.44907e-07
-5.81569e-08
-2.35675e-07
-6.03019e-08
-2.2614e-07
-6.22867e-08
-2.16329e-07
-6.40963e-08
-2.0627e-07
-6.57153e-08
-1.95993e-07
-6.71271e-08
-1.85533e-07
-6.83148e-08
-1.74926e-07
-6.92603e-08
-1.64208e-07
-6.99455e-08
-1.53421e-07
-7.03516e-08
-1.42608e-07
-7.04596e-08
-1.31814e-07
-7.02508e-08
-1.21088e-07
-6.97066e-08
-1.10479e-07
-6.88092e-08
-1.00038e-07
-6.75422e-08
-8.982e-08
-6.58908e-08
-7.98791e-08
-6.38425e-08
-7.02712e-08
-6.13881e-08
-6.10525e-08
-5.85222e-08
-5.22793e-08
-5.52448e-08
-4.40074e-08
-5.15619e-08
-3.62914e-08
-4.74874e-08
-2.91845e-08
-4.30448e-08
-2.27377e-08
-3.82687e-08
-1.69998e-08
-3.32075e-08
-1.20171e-08
-2.79256e-08
-7.83437e-09
-2.25063e-08
-4.4951e-09
-1.70547e-08
-2.04368e-09
-1.17005e-08
-5.27535e-10
-6.60135e-09
-1.96385e-09
-5.83079e-10
2.55267e-09
-2.25564e-09
8.25883e-09
-4.94901e-09
1.4368e-08
-8.60146e-09
2.0667e-08
-1.31558e-08
2.70006e-08
-1.85575e-08
3.32409e-08
-2.47527e-08
3.92824e-08
-3.16872e-08
4.50414e-08
-3.93057e-08
5.04537e-08
-4.75518e-08
5.54714e-08
-5.63679e-08
6.00606e-08
-6.56957e-08
6.41992e-08
-7.54765e-08
6.78747e-08
-8.56514e-08
7.10827e-08
-9.61622e-08
7.38253e-08
-1.06951e-07
7.61101e-08
-1.17963e-07
7.79487e-08
-1.29142e-07
7.93561e-08
-1.40436e-07
8.03497e-08
-1.51793e-07
8.09486e-08
-1.63167e-07
8.11731e-08
-1.74511e-07
8.10444e-08
-1.8578e-07
8.05836e-08
-1.96935e-07
7.98122e-08
-2.07936e-07
7.87509e-08
-2.18747e-07
7.74202e-08
-2.29336e-07
7.58398e-08
-2.39669e-07
7.40284e-08
-2.49719e-07
7.20041e-08
-2.59459e-07
6.97837e-08
-2.68863e-07
6.73832e-08
-2.7791e-07
6.48175e-08
-2.86577e-07
6.21007e-08
-2.94846e-07
5.92456e-08
-3.02699e-07
5.62644e-08
-3.1012e-07
5.31684e-08
-3.17094e-07
4.99679e-08
-3.23609e-07
4.66728e-08
-3.29651e-07
4.32919e-08
-3.35211e-07
3.98337e-08
-3.40278e-07
3.63061e-08
-3.44843e-07
3.27164e-08
-3.489e-07
2.90717e-08
-3.5244e-07
2.53785e-08
-3.55458e-07
2.16432e-08
-3.57949e-07
1.78717e-08
-3.59909e-07
1.407e-08
-3.61334e-07
1.02438e-08
-3.62221e-07
6.39852e-09
-3.6257e-07
2.53984e-09
-3.62378e-07
-1.32674e-09
-3.61645e-07
-5.1957e-09
-3.60373e-07
-9.06142e-09
-3.58562e-07
-1.29182e-08
-3.56214e-07
-1.67601e-08
-3.53333e-07
-2.0581e-08
-3.49923e-07
-2.43747e-08
-3.45988e-07