/*--------------------------------*- C++ -*----------------------------------*\
| =========                 |                                                 |
| \\      /  F ield         | OpenFOAM: The Open Source CFD Toolbox           |
|  \\    /   O peration     | Version:  2212                                  |
|   \\  /    A nd           | Website:  www.openfoam.com                      |
|    \\/     M anipulation  |                                                 |
\*---------------------------------------------------------------------------*/
FoamFile
{
    version     2.0;
    format      ascii;
    arch        "LSB;label=32;scalar=64";
    class       volScalarField;
    location    "0.0205";
    object      p;
}
// * * * * * * * * * * * * * * * * * * * * * * * * * * * * * * * * * * * * * //

dimensions      [0 2 -2 0 0 0 0];

internalField   nonuniform List<scalar> 
10000
(
2.57155e-07
-0.000222599
-0.000805079
-0.00161798
-0.00256502
-0.00362269
-0.00475569
-0.00592907
-0.00711074
-0.00827219
-0.00938895
-0.0104405
-0.0114095
-0.0122813
-0.0130435
-0.013686
-0.0142003
-0.0145796
-0.0148183
-0.0149119
-0.0148577
-0.0146542
-0.0143007
-0.0137971
-0.0131438
-0.0123421
-0.0113942
-0.0103028
-0.00907103
-0.00770224
-0.00620009
-0.00456886
-0.00281332
-0.000938713
0.00104943
0.00314558
0.00534419
0.00763932
0.0100247
0.0124937
0.01504
0.0176566
0.0203366
0.0230733
0.0258598
0.0286891
0.0315541
0.0344474
0.0373623
0.0402916
0.0432282
0.0461645
0.0490932
0.0520071
0.0548993
0.0577626
0.0605894
0.0633721
0.0661032
0.0687756
0.0713825
0.0739166
0.0763707
0.0787375
0.0810101
0.0831818
0.0852462
0.0871972
0.0890288
0.0907353
0.0923112
0.0937516
0.095052
0.0962086
0.0972182
0.0980781
0.0987863
0.0993411
0.0997422
0.0999899
0.100085
0.100032
0.0998321
0.0994917
0.0990171
0.0984161
0.0976987
0.0968768
0.0959642
0.0949776
0.0939365
0.0928641
0.0917877
0.0907394
0.0897567
0.0888829
0.0881665
0.08766
0.0874183
0.0874345
-0.000246325
-0.000448451
-0.000931506
-0.00160847
-0.0024143
-0.00331896
-0.00429264
-0.00530575
-0.00633062
-0.00734209
-0.00831772
-0.00923813
-0.0100868
-0.0108495
-0.0115141
-0.0120704
-0.0125099
-0.0128257
-0.0130121
-0.0130643
-0.0129791
-0.0127542
-0.0123885
-0.0118817
-0.011234
-0.0104463
-0.00952004
-0.00845762
-0.0072617
-0.00593525
-0.00448178
-0.00290508
-0.00120927
0.000600745
0.00251954
0.00454188
0.00666261
0.00887607
0.0111762
0.013557
0.0160124
0.0185356
0.0211199
0.0237588
0.0264456
0.0291738
0.0319365
0.0347265
0.0375373
0.040362
0.0431935
0.0460246
0.0488483
0.0516576
0.0544459
0.0572061
0.0599309
0.0626129
0.065245
0.0678206
0.0703329
0.0727751
0.0751402
0.0774214
0.0796121
0.081706
0.0836971
0.0855796
0.0873481
0.0889972
0.0905218
0.0919173
0.0931799
0.094306
0.0952929
0.0961384
0.0968406
0.0973986
0.0978123
0.0980824
0.0982109
0.0982007
0.0980557
0.0977814
0.0973842
0.0968723
0.0962555
0.0955455
0.0947558
0.0939022
0.0930032
0.0920803
0.0911579
0.0902644
0.0894313
0.0886939
0.0880885
0.0876531
0.0874352
0.0874516
-0.000334383
-0.000487469
-0.000881296
-0.00146208
-0.00216992
-0.00297105
-0.00383634
-0.0047384
-0.00565225
-0.00655537
-0.00742735
-0.00825013
-0.00900809
-0.00968777
-0.0102774
-0.010767
-0.0111481
-0.0114137
-0.0115584
-0.0115774
-0.0114669
-0.0112245
-0.0108486
-0.0103386
-0.00969479
-0.00891767
-0.00800825
-0.00696847
-0.0058008
-0.00450795
-0.00309308
-0.00155979
8.80693e-05
0.00184599
0.00370897
0.005672
0.00773003
0.00987757
0.0121089
0.0144183
0.0167999
0.0192473
0.021754
0.0243134
0.0269193
0.0295653
0.0322447
0.0349508
0.037677
0.0404166
0.0431626
0.0459083
0.0486466
0.0513711
0.0540752
0.0567519
0.0593941
0.0619947
0.0645471
0.0670446
0.0694808
0.0718491
0.0741428
0.0763553
0.0784804
0.0805119
0.0824444
0.0842725
0.0859907
0.0875941
0.089078
0.0904381
0.0916708
0.092773
0.0937421
0.0945762
0.095274
0.0958348
0.0962587
0.0965469
0.0967015
0.0967256
0.0966235
0.0964005
0.096063
0.0956193
0.0950789
0.0944531
0.0937548
0.0929988
0.0922022
0.0913846
0.0905682
0.0897773
0.0890393
0.0883835
0.0878392
0.0874369
0.0872194
0.0872129
-0.000125751
-0.000288167
-0.00065344
-0.00118456
-0.00183469
-0.00257123
-0.00336593
-0.00419305
-0.00502956
-0.00585488
-0.00665064
-0.00740022
-0.00808903
-0.00870449
-0.00923558
-0.00967262
-0.0100074
-0.0102329
-0.0103435
-0.010335
-0.0102035
-0.00994632
-0.00956171
-0.00904887
-0.00840768
-0.00763865
-0.00674277
-0.0057216
-0.00457707
-0.00331164
-0.00192847
-0.000431003
0.00117711
0.00289164
0.00470787
0.00662113
0.00862662
0.010719
0.0128926
0.0151419
0.0174614
0.0198449
0.022286
0.0247783
0.0273158
0.0298925
0.0325017
0.0351369
0.0377916
0.0404593
0.0431334
0.045807
0.0484736
0.0511268
0.0537599
0.0563665
0.0589394
0.061472
0.0639576
0.0663898
0.0687625
0.0710692
0.0733035
0.075459
0.0775295
0.0795094
0.0813933
0.0831761
0.0848529
0.0864188
0.0878693
0.0892004
0.0904086
0.0914912
0.0924459
0.0932708
0.093965
0.0945279
0.0949602
0.095263
0.0954387
0.0954905
0.0954226
0.0952402
0.0949496
0.0945587
0.0940769
0.0935149
0.0928846
0.0921999
0.0914765
0.0907319
0.0899858
0.0892596
0.0885767
0.0879619
0.0874403
0.0870379
0.0867879
0.086712
0.00036347
0.000119025
-0.000271761
-0.000792714
-0.00141613
-0.00211388
-0.00286061
-0.00363345
-0.00441154
-0.00517623
-0.00591098
-0.00660085
-0.00723237
-0.00779379
-0.00827489
-0.00866665
-0.00896121
-0.00915186
-0.00923291
-0.00919993
-0.00904951
-0.00877902
-0.00838646
-0.0078708
-0.00723185
-0.00646992
-0.00558592
-0.00458126
-0.00345761
-0.00221709
-0.000862617
0.000602452
0.00217458
0.00384968
0.00562328
0.00749101
0.00944831
0.01149
0.0136107
0.015805
0.0180675
0.0203922
0.0227727
0.0252032
0.0276779
0.0301907
0.0327353
0.0353052
0.037894
0.0404956
0.0431035
0.045711
0.0483117
0.0508993
0.0534674
0.0560097
0.0585193
0.0609897
0.0634143
0.0657869
0.0681016
0.0703522
0.0725325
0.0746361
0.0766572
0.0785902
0.0804301
0.082172
0.0838112
0.0853431
0.0867635
0.0880685
0.0892547
0.0903197
0.0912613
0.0920779
0.0927688
0.0933336
0.093773
0.0940886
0.0942827
0.0943585
0.0943201
0.0941724
0.0939217
0.0935755
0.0931427
0.0926332
0.0920582
0.0914302
0.0907635
0.0900736
0.0893778
0.0886946
0.0880439
0.0874464
0.0869235
0.0864972
0.0861866
0.0860019
0.001051
0.000688118
0.000236955
-0.000304452
-0.000928093
-0.00161075
-0.00233045
-0.0030678
-0.00380474
-0.00452467
-0.00521269
-0.00585557
-0.00644124
-0.0069587
-0.00739844
-0.00775222
-0.00801265
-0.00817339
-0.00822904
-0.00817514
-0.00800823
-0.00772585
-0.00732617
-0.006808
-0.00617098
-0.00541529
-0.00454168
-0.00355148
-0.00244623
-0.00122786
0.000100881
0.00153682
0.00307661
0.00471633
0.00645164
0.00827831
0.010192
0.0121878
0.0142606
0.0164049
0.0186156
0.0208868
0.0232124
0.0255867
0.0280041
0.0304589
0.0329447
0.0354551
0.037984
0.0405255
0.0430732
0.0456207
0.0481615
0.0506896
0.0531988
0.0556828
0.0581352
0.0605493
0.0629188
0.0652377
0.0675002
0.0697003
0.0718319
0.073889
0.0758656
0.0777567
0.0795572
0.0812626
0.0828683
0.08437
0.0857635
0.087045
0.0882116
0.0892608
0.0901908
0.0910001
0.0916879
0.0922543
0.0926999
0.0930264
0.093236
0.093332
0.0933182
0.0931994
0.0929817
0.0926722
0.092279
0.0918114
0.0912795
0.0906945
0.0900693
0.0894175
0.088754
0.0880948
0.0874565
0.0868562
0.0863123
0.0858427
0.0854506
0.0851325
0.00187809
0.00137706
0.000843405
0.000259213
-0.000386305
-0.00107441
-0.00178616
-0.0025055
-0.00321732
-0.00390732
-0.00456228
-0.00517035
-0.00572092
-0.00620422
-0.00661132
-0.00693448
-0.00716699
-0.00730295
-0.00733729
-0.00726576
-0.007085
-0.00679252
-0.00638658
-0.00586611
-0.00523072
-0.00448047
-0.00361589
-0.00263818
-0.0015488
-0.000349662
0.000956559
0.00236686
0.00387809
0.0054865
0.00718789
0.00897818
0.0108532
0.0128083
0.0148383
0.016938
0.0191024
0.0213258
0.0236023
0.0259264
0.0282927
0.0306955
0.0331286
0.0355858
0.0380612
0.0405488
0.0430427
0.0455365
0.0480239
0.0504989
0.0529556
0.0553878
0.0577892
0.0601532
0.0624738
0.064745
0.0669613
0.0691167
0.0712054
0.0732213
0.0751588
0.0770129
0.0787788
0.0804522
0.0820286
0.0835037
0.0848736
0.0861346
0.087284
0.0883195
0.0892393
0.0900422
0.0907274
0.091295
0.0917457
0.0920811
0.0923034
0.0924156
0.0924216
0.0923261
0.0921346
0.0918538
0.0914911
0.091055
0.0905544
0.0899996
0.0894016
0.0887726
0.0881254
0.0874733
0.0868303
0.0862102
0.0856288
0.0851009
0.0846131
0.0841482
0.0027972
0.0021483
0.00151846
0.000875864
0.00019219
-0.000517603
-0.00123722
-0.00195361
-0.00265439
-0.00332744
-0.00396142
-0.00454579
-0.0050711
-0.00552884
-0.00591108
-0.00621058
-0.00642107
-0.00653712
-0.00655409
-0.00646803
-0.00627577
-0.0059749
-0.00556372
-0.00504126
-0.00440719
-0.00366149
-0.00280459
-0.00183759
-0.000761872
0.00042071
0.00170753
0.00309564
0.004582
0.00616303
0.00783468
0.00959306
0.0114342
0.0133534
0.0153457
0.0174061
0.0195296
0.0217107
0.0239439
0.0262236
0.0285446
0.0309013
0.0332878
0.035698
0.0381259
0.040566
0.0430123
0.0454586
0.0478988
0.050327
0.0527373
0.0551239
0.0574803
0.0598003
0.0620777
0.0643071
0.0664828
0.0685991
0.0706502
0.0726302
0.0745336
0.0763555
0.0780914
0.079737
0.0812879
0.0827401
0.0840895
0.0853329
0.0864674
0.0874911
0.0884022
0.0891996
0.0898826
0.090451
0.0909058
0.0912481
0.0914803
0.0916054
0.0916268
0.0915492
0.0913777
0.0911183
0.0907778
0.0903636
0.0898839
0.0893476
0.0887646
0.0881452
0.0875005
0.0868416
0.0861798
0.0855265
0.084895
0.0842978
0.0837058
0.0830882
0.00376945
0.00296963
0.00223586
0.00152405
0.000790265
4.63087e-05
-0.000693961
-0.00141995
-0.00212162
-0.00278902
-0.00341248
-0.00398292
-0.00449198
-0.0049321
-0.00529636
-0.0055783
-0.00577216
-0.0058729
-0.00587625
-0.00577859
-0.005577
-0.0052693
-0.0048539
-0.00432986
-0.00369684
-0.00295484
-0.0021043
-0.00114627
-8.21105e-05
0.00108639
0.00235665
0.00372579
0.00519084
0.00674832
0.00839433
0.0101251
0.0119368
0.0138249
0.0157844
0.0178106
0.0198985
0.0220428
0.0242381
0.026479
0.0287605
0.0310771
0.033423
0.035792
0.0381785
0.0405771
0.0429818
0.0453868
0.0477859
0.0501733
0.0525433
0.0548901
0.0572075
0.0594892
0.0617293
0.0639224
0.066063
0.0681455
0.0701642
0.0721132
0.0739872
0.0757815
0.0774918
0.0791136
0.0806429
0.0820755
0.0834075
0.0846358
0.0857578
0.0867715
0.0876754
0.0884683
0.0891493
0.0897184
0.090176
0.0905237
0.0907633
0.0908979
0.0909309
0.0908663
0.0907091
0.0904645
0.0901385
0.0897379
0.0892697
0.0887419
0.088163
0.0875421
0.0868883
0.086211
0.0855193
0.0848222
0.0841315
0.0834577
0.0827567
0.081986
0.00476317
0.00381353
0.00297233
0.00218438
0.00139166
0.000603987
-0.000166925
-0.000912885
-0.00162558
-0.00229691
-0.00291892
-0.00348393
-0.00398465
-0.00441439
-0.00476703
-0.00503694
-0.00521899
-0.00530858
-0.00530178
-0.00519527
-0.00498645
-0.00467339
-0.00425466
-0.00372938
-0.00309723
-0.00235821
-0.0015128
-0.000562083
0.000492566
0.00164936
0.00290577
0.00425897
0.00570609
0.00724371
0.00886803
0.0105754
0.0123621
0.0142236
0.0161552
0.0181521
0.0202095
0.0223224
0.0244853
0.026693
0.0289407
0.0312229
0.0335339
0.0358677
0.0382188
0.0405818
0.0429511
0.0453208
0.0476847
0.0500373
0.052373
0.0546858
0.0569699
0.059219
0.0614273
0.0635896
0.0657005
0.0677544
0.0697456
0.0716684
0.0735178
0.075289
0.0769777
0.0785798
0.0800911
0.0815074
0.0828251
0.0840409
0.0851526
0.0861583
0.0870563
0.0878454
0.0885248
0.0890941
0.0895539
0.0899052
0.0901502
0.0902915
0.0903324
0.0902765
0.0901282
0.0898923
0.0895741
0.0891794
0.0887145
0.0881865
0.0876026
0.0869706
0.0862981
0.085593
0.0848626
0.0841138
0.0833573
0.0826022
0.0817907
0.0808693
0.0057527
0.0046567
0.00370739
0.0028393
0.0019815
0.00114277
0.000333449
-0.000440655
-0.00117288
-0.00185639
-0.00248476
-0.00305166
-0.00355088
-0.00397659
-0.0043234
-0.00458636
-0.00476097
-0.00484312
-0.00482928
-0.0047165
-0.00450244
-0.00418541
-0.00376415
-0.00323788
-0.00260638
-0.00186969
-0.00102831
-8.33876e-05
0.000963662
0.00211104
0.00335622
0.00469643
0.00612883
0.0076501
0.00925654
0.0109446
0.0127105
0.01455
0.0164583
0.0184308
0.0204628
0.0225494
0.0246852
0.0268653
0.0290848
0.0313383
0.0336202
0.0359246
0.0382462
0.0405797
0.0429195
0.0452598
0.0475946
0.0499182
0.0522253
0.05451
0.0567664
0.0589885
0.0611707
0.0633075
0.0653938
0.0674241
0.0693928
0.0712942
0.0731234
0.0748759
0.0765473
0.0781334
0.0796302
0.0810336
0.0823398
0.083546
0.0846496
0.085649
0.0865424
0.0873287
0.0880066
0.088576
0.0890371
0.089391
0.0896395
0.089785
0.0898305
0.0897793
0.0896352
0.0894025
0.0890859
0.0886905
0.0882219
0.087686
0.0870893
0.0864383
0.0857393
0.0849989
0.0842229
0.0834165
0.0825898
0.0817508
0.0808293
0.0797615
0.00671766
0.00547978
0.00442319
0.00347302
0.00254626
0.00165104
0.000797098
-1.15432e-05
-0.000770066
-0.00147278
-0.00211428
-0.00268941
-0.00319305
-0.00362022
-0.00396627
-0.00422685
-0.00439799
-0.00447608
-0.00445802
-0.00434129
-0.00412382
-0.0038041
-0.00338103
-0.002854
-0.00222289
-0.00148786
-0.000649487
0.000291052
0.00133231
0.00247244
0.00370892
0.00503895
0.00645977
0.00796811
0.00956033
0.011233
0.0129823
0.0148042
0.0166938
0.0186466
0.0206581
0.0227235
0.0248377
0.0269955
0.0291922
0.0314227
0.0336811
0.035962
0.03826
0.0405698
0.042886
0.0452028
0.0475142
0.0498147
0.0520989
0.0543611
0.0565956
0.0587963
0.0609577
0.0630745
0.0651414
0.0671531
0.069104
0.0709888
0.0728023
0.0745403
0.0761983
0.0777724
0.0792583
0.080652
0.0819498
0.0831488
0.0842467
0.0852415
0.0861318
0.0869159
0.087593
0.0881624
0.0886243
0.0889796
0.0892299
0.0893774
0.0894246
0.0893745
0.0892304
0.0889962
0.088676
0.0882742
0.0877957
0.0872457
0.0866296
0.0859529
0.0852212
0.0844395
0.0836126
0.0827446
0.0818449
0.0809208
0.0798908
0.0786818
0.00764164
0.0062667
0.00510448
0.00407155
0.00307356
0.0021181
0.00121473
0.000366295
-0.000423921
-0.00115149
-0.00181187
-0.00240075
-0.00291398
-0.00334743
-0.00369713
-0.00395931
-0.00413049
-0.00420758
-0.00418793
-0.00406933
-0.00385002
-0.00352871
-0.00310447
-0.00257687
-0.00194593
-0.00121191
-0.000375486
0.000562075
0.00159928
0.00273425
0.00396442
0.00528701
0.00669929
0.00819805
0.00977969
0.0114407
0.0131776
0.014986
0.0168614
0.0187992
0.0207952
0.0228445
0.0249421
0.027083
0.0292624
0.0314753
0.033716
0.035979
0.0382591
0.0405511
0.0428495
0.0451485
0.0474423
0.0497254
0.0519924
0.0542379
0.0564559
0.0586408
0.0607868
0.0628888
0.0649415
0.0669396
0.0688777
0.0707504
0.0725528
0.0742805
0.0759293
0.077495
0.0789736
0.0803608
0.0816533
0.0828478
0.0839421
0.0849342
0.0858226
0.0866057
0.0872823
0.0878519
0.0883143
0.0886702
0.0889209
0.0890682
0.0891146
0.0890625
0.0889149
0.0886751
0.0883467
0.0879337
0.0874401
0.0868706
0.0862297
0.0855222
0.0847525
0.0839251
0.0830436
0.0821111
0.0811366
0.0801273
0.0789911
0.0776463
0.00851095
0.00700409
0.00573834
0.00462259
0.00355211
0.00253394
0.0015776
0.000685097
-0.000141275
-0.000898254
-0.0015822
-0.00218956
-0.00271689
-0.00316082
-0.00351801
-0.00378523
-0.00395956
-0.00403841
-0.00401949
-0.00390088
-0.00368107
-0.00335906
-0.00293418
-0.00240613
-0.00177509
-0.00104141
-0.000205892
0.000730109
0.001765
0.00289684
0.00412306
0.00544091
0.00684767
0.00834014
0.00991473
0.011568
0.0132963
0.0150955
0.016961
0.0188886
0.0208738
0.022912
0.0249981
0.0271273
0.0292948
0.0314956
0.0337242
0.035975
0.0382429
0.0405227
0.042809
0.045096
0.0473778
0.0496492
0.0519047
0.0541389
0.0563462
0.0585207
0.0606567
0.0627491
0.0647926
0.0667822
0.0687123
0.0705776
0.0723734
0.0740951
0.0757387
0.0772999
0.0787747
0.0801588
0.0814488
0.0826415
0.0837345
0.0847258
0.0856138
0.0863969
0.0870739
0.0876437
0.0881063
0.0884621
0.0887119
0.0888575
0.0889008
0.0888441
0.08869
0.0884412
0.0881008
0.0876724
0.0871595
0.086566
0.0858959
0.0851531
0.0843417
0.0834651
0.0825261
0.081527
0.0804769
0.0793829
0.078143
0.0766677
0.00931391
0.00768043
0.00631363
0.00511537
0.00397169
0.00288923
0.00187734
0.00093747
7.12359e-05
-0.00071896
-0.00143036
-0.00206011
-0.00260538
-0.0030634
-0.0034314
-0.00370672
-0.00388695
-0.00396993
-0.00395369
-0.00383661
-0.00361747
-0.00329554
-0.00287037
-0.00234187
-0.00171033
-0.000976246
-0.000140536
0.000795316
0.00182963
0.00296041
0.00418509
0.00550091
0.00690514
0.00839459
0.00996563
0.0116148
0.0133385
0.0151327
0.0169929
0.0189147
0.020894
0.022926
0.0250058
0.0271284
0.0292893
0.0314834
0.0337054
0.0359496
0.0382109
0.0404841
0.0427639
0.0450445
0.04732
0.0495852
0.0518348
0.0540635
0.0562655
0.0584349
0.0605663
0.0626543
0.0646938
0.0666798
0.0686068
0.0704696
0.0722632
0.0739833
0.0756257
0.0771862
0.0786606
0.080045
0.0813355
0.082529
0.0836229
0.0846155
0.0855047
0.086289
0.0869669
0.0875374
0.0880001
0.088355
0.088603
0.0887454
0.0887839
0.0887205
0.0885572
0.0882964
0.087941
0.0874937
0.0869578
0.0863366
0.0856337
0.0848524
0.0839959
0.0830674
0.0820688
0.0810019
0.0798758
0.0786978
0.0773568
0.0757561
0.0100405
0.00828551
0.0068205
0.0055404
0.00432303
0.00317519
0.00210593
0.0011162
0.000207105
-0.000619515
-0.00136163
-0.00201704
-0.00258344
-0.00305858
-0.00344027
-0.00372637
-0.00391488
-0.00400396
-0.003992
-0.00387771
-0.00366018
-0.00333892
-0.00291367
-0.00238452
-0.00175193
-0.00101658
-0.000179524
0.000757656
0.00179319
0.00292505
0.00415065
0.00546722
0.00687196
0.00836162
0.0099326
0.0115814
0.0133046
0.015098
0.0169572
0.018878
0.0208561
0.0228868
0.0249652
0.0270865
0.029246
0.0314388
0.0336596
0.0359026
0.0381629
0.0404351
0.042714
0.0449936
0.0472685
0.0495331
0.0517824
0.054011
0.0562131
0.0583829
0.0605148
0.0626037
0.0646444
0.0666318
0.0685606
0.0704255
0.0722215
0.0739443
0.0755895
0.0771531
0.0786309
0.0800186
0.0813126
0.0825096
0.0836069
0.0846027
0.0854948
0.0862816
0.0869613
0.0875328
0.0879954
0.088349
0.0885944
0.0887326
0.0887649
0.0886928
0.0885183
0.0882432
0.0878699
0.0874009
0.086839
0.0861871
0.0854483
0.0846256
0.0837216
0.082739
0.0816793
0.0805436
0.0793414
0.0780802
0.0766406
0.074919
0.0106823
0.00881038
0.00724991
0.00588907
0.00459781
0.00338365
0.00225569
0.00121422
0.000259887
-0.00060582
-0.00138139
-0.00206517
-0.00265536
-0.00315023
-0.00354806
-0.00384718
-0.00404591
-0.00414271
-0.00413633
-0.00402584
-0.0038106
-0.00349034
-0.00306499
-0.00253483
-0.00190051
-0.00116289
-0.000323198
0.000616886
0.00165557
0.00279077
0.00401985
0.00533995
0.00674824
0.00824144
0.00981591
0.0114682
0.0131948
0.0149917
0.0168544
0.0187787
0.0207604
0.0227947
0.0248768
0.0270018
0.0291652
0.031362
0.0335869
0.0358342
0.0380988
0.0403755
0.0426589
0.0449433
0.047223
0.0494926
0.0517471
0.053981
0.0561887
0.0583642
0.0605019
0.0625968
0.0646438
0.0666378
0.0685733
0.070445
0.072248
0.0739776
0.0756298
0.0772003
0.0786849
0.0800794
0.0813799
0.082583
0.0836862
0.0846872
0.085584
0.0863744
0.0870568
0.0876297
0.0880924
0.0884447
0.088687
0.08882
0.0888449
0.0887628
0.0885752
0.0882837
0.0878903
0.0873972
0.0868068
0.0861217
0.0853446
0.0844781
0.0835245
0.082486
0.0813638
0.0801587
0.0788804
0.0775371
0.0760012
0.074163
0.0112328
0.00924734
0.00759366
0.0061533
0.00478838
0.00350715
0.00231932
0.00122459
0.00022318
-0.000683755
-0.00149504
-0.00220946
-0.00282572
-0.00334253
-0.00375856
-0.00407246
-0.00428292
-0.00438875
-0.004389
-0.00428304
-0.00407048
-0.00375128
-0.00332558
-0.00279386
-0.00215698
-0.001416
-0.000572238
0.000372538
0.00141645
0.00255735
0.00379253
0.00511904
0.00653399
0.00803406
0.00961563
0.0112752
0.0130094
0.014814
0.0166847
0.0186171
0.0206071
0.0226498
0.0247406
0.0268744
0.0290469
0.031253
0.0334873
0.0357443
0.0380187
0.0403053
0.0425987
0.0448933
0.0471833
0.0494635
0.0517286
0.0539733
0.0561919
0.0583784
0.0605273
0.0626334
0.0646918
0.0666973
0.0686445
0.0705278
0.0723422
0.0740831
0.0757464
0.0773276
0.0788226
0.0802271
0.0815371
0.0827492
0.0838607
0.0848691
0.0857721
0.0865676
0.0872536
0.0878287
0.0882919
0.0886429
0.0888818
0.0890091
0.0890257
0.0889323
0.0887302
0.0884206
0.0880052
0.087486
0.086865
0.0861446
0.0853271
0.0844147
0.0834097
0.0823139
0.0811282
0.0798531
0.078499
0.0770744
0.0754444
0.0734931
0.0116862
0.00958986
0.00784461
0.00632566
0.00488742
0.00353872
0.00228997
0.0011407
9.06884e-05
-0.000859204
-0.00170806
-0.00245506
-0.0030993
-0.00363986
-0.00407573
-0.00440583
-0.00462923
-0.00474507
-0.0047527
-0.00465173
-0.00444199
-0.00412365
-0.00369714
-0.00316314
-0.00252273
-0.00177707
-0.000927626
2.37627e-05
0.00107513
0.0022242
0.00346818
0.00480404
0.00622883
0.00773921
0.00933156
0.0110024
0.0127482
0.0145648
0.0164479
0.0183931
0.020396
0.0224522
0.0245565
0.0267044
0.028891
0.0311116
0.0333607
0.0356326
0.0379221
0.040224
0.0425329
0.0448432
0.0471491
0.0494453
0.0517266
0.0539875
0.0562223
0.0584252
0.0605905
0.0627132
0.0647882
0.0668103
0.0687739
0.0706735
0.072504
0.0742605
0.0759389
0.0775348
0.0790438
0.0804617
0.0817843
0.0830083
0.0841305
0.0851484
0.0860595
0.0868616
0.0875524
0.0881306
0.088595
0.088945
0.0891805
0.0893018
0.0893094
0.0892038
0.0889859
0.0886568
0.088218
0.087671
0.0870176
0.08626
0.0854001
0.0844402
0.0833822
0.0822279
0.0809777
0.0796323
0.0782025
0.0766976
0.0749753
0.072914
0.0120373
0.00983216
0.00799645
0.00639949
0.00488811
0.00347168
0.00216119
0.000956207
-0.000143712
-0.00113801
-0.00202603
-0.00280722
-0.00348101
-0.00404677
-0.00450377
-0.00485121
-0.00508848
-0.00521505
-0.0052305
-0.00513466
-0.00492762
-0.0046098
-0.00418184
-0.00364469
-0.00299956
-0.00224776
-0.00139083
-0.000430741
0.000630398
0.0017902
0.00304575
0.00439399
0.0058319
0.00735611
0.00896297
0.010649
0.0124105
0.0142435
0.0161434
0.0181059
0.0201267
0.022201
0.024324
0.0264908
0.0286969
0.0309371
0.0332061
0.0354983
0.0378083
0.0401309
0.0424608
0.0447923
0.0471196
0.0494374
0.0517403
0.054023
0.0562796
0.0585042
0.0606913
0.0628358
0.0649326
0.0669763
0.0689614
0.0708821
0.0727331
0.0745097
0.0762074
0.0778219
0.0793487
0.0807834
0.0821219
0.0833605
0.0844961
0.0855258
0.086447
0.0872574
0.0879546
0.0885371
0.0890036
0.0893532
0.0895855
0.0897006
0.0896987
0.0895801
0.0893457
0.0889961
0.0885325
0.0879562
0.0872689
0.0864723
0.0855686
0.0845597
0.0834473
0.0822332
0.0809179
0.0795018
0.0779965
0.0764119
0.0745989
0.0724301
0.012281
0.00996884
0.00804352
0.0063687
0.00478414
0.00329963
0.00192672
0.000664996
-0.000486023
-0.00152598
-0.00245451
-0.00327128
-0.00397591
-0.004568
-0.00504711
-0.00541279
-0.00566463
-0.00580234
-0.00582578
-0.005735
-0.00553035
-0.0052125
-0.00478234
-0.00424097
-0.00358976
-0.00283015
-0.00196379
-0.000992825
8.04972e-05
0.00125366
0.00252368
0.00388743
0.00534182
0.00688345
0.00850862
0.0102138
0.0119952
0.0138488
0.0157701
0.0177545
0.0197978
0.0218952
0.0240418
0.0262327
0.0284632
0.0307283
0.0330226
0.0353403
0.0376762
0.040025
0.0423814
0.0447396
0.0470939
0.0494388
0.051769
0.054079
0.0563629
0.0586148
0.0608292
0.0630009
0.0651246
0.0671951
0.0692065
0.0711531
0.0730294
0.0748305
0.0765519
0.0781891
0.0797375
0.0811928
0.0825504
0.0838068
0.0849584
0.0860024
0.086936
0.0877566
0.0884621
0.0890504
0.0895201
0.08987
0.0900996
0.0902086
0.0901971
0.0900653
0.0898136
0.0894426
0.0889532
0.0883464
0.0876237
0.0867868
0.0858378
0.0847785
0.0836106
0.0823358
0.0809545
0.0794674
0.0778866
0.0762228
0.0743201
0.0720454
0.0124125
0.00999469
0.0079804
0.00622766
0.00456959
0.00301646
0.00158044
0.000261087
-0.000942126
-0.00202893
-0.00299915
-0.0038526
-0.0045891
-0.00520847
-0.00571051
-0.00609503
-0.00636186
-0.00651091
-0.00654229
-0.00645631
-0.00625358
-0.00593502
-0.00550169
-0.00495486
-0.00429601
-0.00352676
-0.00264895
-0.00166483
-0.000576817
0.000612463
0.00189995
0.00328245
0.00475678
0.00631947
0.00796678
0.00969506
0.0115006
0.0133791
0.0153262
0.0173372
0.0194078
0.0215332
0.0237083
0.0259284
0.0281885
0.0304837
0.0328084
0.0351571
0.0375243
0.0399048
0.0422932
0.0446838
0.0470707
0.0494485
0.0518116
0.0541546
0.0564714
0.0587563
0.0610035
0.0632078
0.0653639
0.0674662
0.069509
0.0714864
0.0733927
0.0752229
0.0769724
0.0786366
0.0802107
0.0816902
0.0830706
0.0843479
0.0855186
0.0865796
0.0875281
0.0883614
0.089077
0.0896729
0.0901471
0.0904984
0.090726
0.0908293
0.0908084
0.0906632
0.0903939
0.0900009
0.0894847
0.0888464
0.0880872
0.087209
0.0862135
0.0851026
0.0838781
0.0825416
0.0810936
0.0795349
0.0778784
0.0761354
0.0741434
0.0717633
0.0124277
0.00990475
0.00780178
0.00597093
0.00423874
0.00261631
0.0011164
-0.000261481
-0.00151793
-0.00265267
-0.00366559
-0.00455668
-0.0053259
-0.00597329
-0.00649885
-0.00690261
-0.0071846
-0.00734498
-0.00738407
-0.00730247
-0.00710104
-0.00678088
-0.00634322
-0.00578947
-0.00512129
-0.00434047
-0.00344903
-0.00244937
-0.00134403
-0.000135738
0.00117235
0.00257694
0.00407475
0.00566222
0.00733555
0.00909101
0.0109248
0.0128327
0.01481
0.0168523
0.018955
0.0211133
0.023322
0.0255763
0.0278712
0.0302018
0.0325624
0.0349474
0.0373515
0.0397692
0.0421953
0.0446239
0.0470492
0.0494655
0.0518673
0.054249
0.0566045
0.058928
0.0612137
0.0634561
0.0656498
0.0677894
0.0698687
0.0718818
0.073823
0.0756871
0.0774692
0.0791647
0.0807688
0.0822765
0.0836833
0.084985
0.086178
0.0872591
0.0882253
0.0890738
0.0898019
0.0904071
0.0908875
0.0912415
0.0914679
0.0915664
0.0915365
0.0913781
0.091091
0.0906755
0.0901319
0.0894612
0.0886648
0.0877441
0.0867011
0.0855376
0.0842554
0.0828562
0.0813407
0.0797096
0.0779768
0.0761542
0.0740723
0.0715867
0.0123229
0.00969451
0.00750242
0.00559307
0.00378611
0.0020935
0.000528717
-0.000908664
-0.00221934
-0.00340301
-0.00445954
-0.00538906
-0.00619172
-0.0068677
-0.00741718
-0.00784036
-0.00813751
-0.00830901
-0.00835544
-0.00827763
-0.00807665
-0.00775377
-0.00731041
-0.00674813
-0.00606877
-0.0052743
-0.00436693
-0.00334918
-0.0022237
-0.000993361
0.000338586
0.00176874
0.00329368
0.00490974
0.00661305
0.0083998
0.0102661
0.0122078
0.01422
0.0162983
0.018438
0.020634
0.0228814
0.0251751
0.0275101
0.0298814
0.0322833
0.0347102
0.0371567
0.0396174
0.0420868
0.0445591
0.0470285
0.0494891
0.0519355
0.0543617
0.0567618
0.0591297
0.0614595
0.0637456
0.0659824
0.0681644
0.0702854
0.0723393
0.0743203
0.0762231
0.0780427
0.0797741
0.0814123
0.0829524
0.0843895
0.0857193
0.0869382
0.0880427
0.0890296
0.089896
0.0906389
0.0912557
0.091744
0.0921021
0.0923289
0.0924233
0.0923851
0.0922137
0.0919089
0.0914706
0.0908993
0.0901958
0.0893613
0.0883974
0.087306
0.0860888
0.0847478
0.0832848
0.0817005
0.0799961
0.0781858
0.0762823
0.0741095
0.0715174
0.0120947
0.00935972
0.00707754
0.00508878
0.0032062
0.0014424
-0.000188379
-0.00168636
-0.00305223
-0.00428572
-0.00538671
-0.00635539
-0.00719205
-0.00789702
-0.00847064
-0.00891327
-0.0092254
-0.00940767
-0.00946087
-0.00938607
-0.00918448
-0.00885756
-0.00840691
-0.00783429
-0.00714174
-0.0063314
-0.0054056
-0.00436702
-0.00321842
-0.00196282
-0.0006036
0.000855711
0.00241154
0.00406011
0.00579747
0.00761977
0.00952306
0.011503
0.0135549
0.0156739
0.0178554
0.0200943
0.0223855
0.0247238
0.0271042
0.0295216
0.0319704
0.0344449
0.0369394
0.0394488
0.0419673
0.0444892
0.0470085
0.0495193
0.0520161
0.0544927
0.0569432
0.0593613
0.0617409
0.0640763
0.0663618
0.0685916
0.0707596
0.0728595
0.0748854
0.0768318
0.0786935
0.0804655
0.0821424
0.0837192
0.0851908
0.0865527
0.0878012
0.0889325
0.0899434
0.0908305
0.0915908
0.0922213
0.0927197
0.0930838
0.0933121
0.0934038
0.093358
0.0931741
0.0928518
0.0923908
0.0917915
0.0910547
0.0901817
0.0891738
0.088033
0.0867611
0.08536
0.0838318
0.0821774
0.0803979
0.0785085
0.0765226
0.0742572
0.0715568
0.0117395
0.00889623
0.0065225
0.00445299
0.00249355
0.000657364
-0.0010406
-0.00260035
-0.00402242
-0.0053066
-0.00645282
-0.00746131
-0.00833243
-0.00906667
-0.0096645
-0.0101265
-0.0104533
-0.0106458
-0.010705
-0.0106322
-0.0104287
-0.0100962
-0.00963649
-0.00905157
-0.00834363
-0.00751496
-0.00656806
-0.00550571
-0.00433083
-0.00304661
-0.00165655
-0.00016435
0.00142625
0.00311138
0.00488703
0.00674927
0.00869404
0.0107169
0.0128132
0.0149779
0.0172062
0.019493
0.0218332
0.0242215
0.0266528
0.0291219
0.0316232
0.0341508
0.0366993
0.0392631
0.0418367
0.044414
0.0469892
0.0495562
0.0521091
0.0546421
0.0571489
0.0596229
0.0620581
0.0644485
0.0667884
0.0690716
0.0712919
0.0734431
0.075519
0.0775141
0.0794229
0.0812402
0.0829605
0.0845785
0.086089
0.0874873
0.0887692
0.089931
0.0909691
0.0918801
0.0926605
0.0933074
0.093818
0.09419
0.0944216
0.0945117
0.0944593
0.0942636
0.0939241
0.0934406
0.0928133
0.092043
0.0911308
0.0900782
0.088887
0.087559
0.0860964
0.0845014
0.082775
0.0809185
0.078948
0.0768776
0.0745175
0.0717064
0.0112536
0.00829988
0.00583272
0.00368074
0.00164281
-0.000267185
-0.0020336
-0.00365629
-0.00513564
-0.00647141
-0.00766361
-0.00871249
-0.00961847
-0.0103822
-0.0110042
-0.0114853
-0.0118263
-0.0120284
-0.0120927
-0.0120205
-0.0118136
-0.0114739
-0.0110032
-0.0104038
-0.00967808
-0.00882845
-0.00785756
-0.00676833
-0.00556386
-0.00424749
-0.00282292
-0.00129398
0.000335437
0.00206134
0.00387965
0.00578634
0.00777724
0.00984784
0.0119933
0.0142086
0.0164889
0.0188288
0.0212233
0.023667
0.0261547
0.0286812
0.0312407
0.0338274
0.0364357
0.0390599
0.0416944
0.0443332
0.0469702
0.0495993
0.0522145
0.0548098
0.0573786
0.0599146
0.0624113
0.0648626
0.0672624
0.0696047
0.071883
0.0740909
0.0762222
0.0782712
0.0802322
0.0820999
0.0838685
0.0855325
0.0870864
0.0885253
0.0898448
0.0910409
0.0921098
0.0930479
0.0938516
0.0945175
0.0950427
0.0954247
0.0956614
0.0957514
0.0956935
0.0954869
0.0951308
0.0946251
0.0939699
0.0931658
0.0922139
0.0911156
0.0898728
0.0884874
0.0869617
0.0852979
0.0834973
0.0815616
0.0795076
0.0773504
0.0748931
0.0719686
0.0106331
0.00756635
0.00500353
0.00276714
0.000648796
-0.00133665
-0.00317293
-0.00485981
-0.00639758
-0.00778592
-0.00902486
-0.0101147
-0.0110559
-0.0118492
-0.0124953
-0.0129952
-0.0133499
-0.0135606
-0.0136288
-0.013556
-0.0133441
-0.0129951
-0.0125114
-0.0118952
-0.0111491
-0.0102757
-0.00927781
-0.00815845
-0.00692093
-0.00556882
-0.00410593
-0.00253627
-0.000863881
0.000907139
0.00277262
0.00472839
0.00677015
0.00889331
0.0110929
0.0133639
0.0157013
0.0180997
0.0205539
0.0230585
0.0256082
0.0281978
0.0308214
0.0334731
0.0361472
0.0388378
0.0415394
0.0442457
0.0469506
0.0496478
0.0523314
0.0549949
0.0576319
0.0602358
0.0628
0.0653181
0.0677839
0.0701911
0.0725331
0.0748034
0.0769957
0.079104
0.0811227
0.0830459
0.0848679
0.0865828
0.0881849
0.089669