/*--------------------------------*- C++ -*----------------------------------*\
| =========                 |                                                 |
| \\      /  F ield         | OpenFOAM: The Open Source CFD Toolbox           |
|  \\    /   O peration     | Version:  2212                                  |
|   \\  /    A nd           | Website:  www.openfoam.com                      |
|    \\/     M anipulation  |                                                 |
\*---------------------------------------------------------------------------*/
FoamFile
{
    version     2.0;
    format      ascii;
    arch        "LSB;label=32;scalar=64";
    class       surfaceScalarField;
    location    "0.0205";
    object      phi;
}
// * * * * * * * * * * * * * * * * * * * * * * * * * * * * * * * * * * * * * //

dimensions      [0 3 -1 0 0 0 0];

oriented        oriented;

internalField   nonuniform List<scalar> 
19800
(
6.09615e-11
-6.10315e-11
1.89764e-10
-1.28793e-10
2.98123e-10
-1.0836e-10
3.55296e-10
-5.71692e-11
3.40439e-10
1.48573e-11
2.45155e-10
9.52925e-11
6.71936e-11
1.77961e-10
-1.92142e-10
2.59343e-10
-5.29525e-10
3.37384e-10
-9.40391e-10
4.10867e-10
-1.4195e-09
4.7911e-10
-1.96127e-09
5.41759e-10
-2.55992e-09
5.98656e-10
-3.20964e-09
6.49719e-10
-3.90463e-09
6.94987e-10
-4.63921e-09
7.34574e-10
-5.40784e-09
7.68629e-10
-6.20517e-09
7.97331e-10
-7.02601e-09
8.2084e-10
-7.86537e-09
8.39354e-10
-8.71847e-09
8.531e-10
-9.58078e-09
8.62309e-10
-1.0448e-08
8.67198e-10
-1.13159e-08
8.67972e-10
-1.21808e-08
8.64842e-10
-1.30388e-08
8.57997e-10
-1.38864e-08
8.47676e-10
-1.47206e-08
8.3412e-10
-1.55381e-08
8.17493e-10
-1.6336e-08
7.97944e-10
-1.71117e-08
7.75673e-10
-1.78625e-08
7.50838e-10
-1.85861e-08
7.2356e-10
-1.92801e-08
6.94023e-10
-1.99425e-08
6.62442e-10
-2.05715e-08
6.28961e-10
-2.11652e-08
5.93692e-10
-2.1722e-08
5.56784e-10
-2.22404e-08
5.184e-10
-2.2719e-08
4.78666e-10
-2.31567e-08
4.37684e-10
-2.35523e-08
3.9559e-10
-2.39049e-08
3.52533e-10
-2.42135e-08
3.08627e-10
-2.44774e-08
2.6396e-10
-2.46961e-08
2.18627e-10
-2.48688e-08
1.72744e-10
-2.49952e-08
1.26429e-10
-2.5075e-08
7.97683e-11
-2.51079e-08
3.28414e-11
-2.50936e-08
-1.42543e-11
-2.50322e-08
-6.14073e-11
-2.49237e-08
-1.08508e-10
-2.47682e-08
-1.55472e-10
-2.4566e-08
-2.02217e-10
-2.43174e-08
-2.48636e-10
-2.40228e-08
-2.94601e-10
-2.36828e-08
-3.39977e-10
-2.32982e-08
-3.84624e-10
-2.28698e-08
-4.28411e-10
-2.23985e-08
-4.71212e-10
-2.18857e-08
-5.12879e-10
-2.13324e-08
-5.53253e-10
-2.07402e-08
-5.92171e-10
-2.01108e-08
-6.29456e-10
-1.94459e-08
-6.64926e-10
-1.87475e-08
-6.98404e-10
-1.80177e-08
-7.29712e-10
-1.72591e-08
-7.58655e-10
-1.6474e-08
-7.85042e-10
-1.56654e-08
-8.08683e-10
-1.4836e-08
-8.2938e-10
-1.3989e-08
-8.46937e-10
-1.31279e-08
-8.61169e-10
-1.2256e-08
-8.71893e-10
-1.13771e-08
-8.78914e-10
-1.04951e-08
-8.82024e-10
-9.61405e-09
-8.81002e-10
-8.73844e-09
-8.75618e-10
-7.87279e-09
-8.65647e-10
-7.02191e-09
-8.50878e-10
-6.19079e-09
-8.31113e-10
-5.38463e-09
-8.06162e-10
-4.60878e-09
-7.75851e-10
-3.86875e-09
-7.40034e-10
-3.17016e-09
-6.98591e-10
-2.51873e-09
-6.5143e-10
-1.92023e-09
-5.98505e-10
-1.3804e-09
-5.39823e-10
-9.04923e-10
-4.75483e-10
-4.99202e-10
-4.05723e-10
-1.68199e-10
-3.31004e-10
8.39192e-11
-2.52118e-10
2.54302e-10
-1.70384e-10
3.42307e-10
-8.80038e-11
3.5103e-10
-8.72181e-12
2.89912e-10
6.11177e-11
1.79469e-10
1.10445e-10
6.01861e-11
1.1928e-10
6.01828e-11
1.08013e-10
-1.69035e-10
2.78616e-10
-2.99424e-10
3.96554e-10
-2.26284e-10
3.83122e-10
-4.37448e-11
1.95272e-10
2.02705e-10
-1.91197e-10
4.81752e-10
-7.86307e-10
7.73071e-10
-1.59073e-09
1.06376e-09
-2.59904e-09
1.3457e-09
-3.80191e-09
1.61373e-09
-5.18745e-09
1.86466e-09
-6.74222e-09
2.09653e-09
-8.45182e-09
2.30826e-09
-1.03013e-08
2.49925e-09
-1.22757e-08
2.66934e-09
-1.43598e-08
2.81868e-09
-1.65388e-08
2.9476e-09
-1.8798e-08
3.0566e-09
-2.11234e-08
3.14624e-09
-2.35012e-08
3.21717e-09
-2.59182e-08
3.2701e-09
-2.83617e-08
3.30582e-09
-3.08196e-08
3.32508e-09
-3.32803e-08
3.32863e-09
-3.57327e-08
3.31727e-09
-3.81665e-08
3.29176e-09
-4.05716e-08
3.25286e-09
-4.29389e-08
3.20135e-09
-4.52594e-08
3.13797e-09
-4.75248e-08
3.06342e-09
-4.97275e-08
2.97831e-09
-5.186e-08
2.88331e-09
-5.39154e-08
2.77904e-09
-5.58875e-08
2.66614e-09
-5.77703e-08
2.54523e-09
-5.95583e-08
2.41691e-09
-6.12463e-08
2.28175e-09
-6.28298e-08
2.14028e-09
-6.43045e-08
1.99303e-09
-6.56663e-08
1.8405e-09
-6.69118e-08
1.68316e-09
-6.80377e-08
1.5215e-09
-6.90412e-08
1.356e-09
-6.99196e-08
1.1871e-09
-7.06709e-08
1.0152e-09
-7.1293e-08
8.40731e-10
-7.17843e-08
6.6408e-10
-7.21435e-08
4.85646e-10
-7.23696e-08
3.05818e-10
-7.24617e-08
1.24979e-10
-7.24195e-08
-5.647e-11
-7.22428e-08
-2.3813e-10
-7.19317e-08
-4.19609e-10
-7.14867e-08
-6.00515e-10
-7.09084e-08
-7.80444e-10
-7.01981e-08
-9.58966e-10
-6.93571e-08
-1.13561e-09
-6.83872e-08
-1.30987e-09
-6.72905e-08
-1.48127e-09
-6.60697e-08
-1.64928e-09
-6.47275e-08
-1.81336e-09
-6.32675e-08
-1.97294e-09
-6.16933e-08
-2.12744e-09
-6.00092e-08
-2.27625e-09
-5.82199e-08
-2.41874e-09
-5.63306e-08
-2.55423e-09
-5.4347e-08
-2.68205e-09
-5.22752e-08
-2.8015e-09
-5.0122e-08
-2.91187e-09
-4.78946e-08
-3.01245e-09
-4.56008e-08
-3.1025e-09
-4.32489e-08
-3.18128e-09
-4.08477e-08
-3.24806e-09
-3.84068e-08
-3.3021e-09
-3.5936e-08
-3.34265e-09
-3.3446e-08
-3.36896e-09
-3.09478e-08
-3.38027e-09
-2.8453e-08
-3.37577e-09
-2.59739e-08
-3.35469e-09
-2.35233e-08
-3.31624e-09
-2.11145e-08
-3.2597e-09
-1.87612e-08
-3.18439e-09
-1.64777e-08
-3.08967e-09
-1.42785e-08
-2.97501e-09
-1.21786e-08
-2.83995e-09
-1.01931e-08
-2.68416e-09
-8.337e-09
-2.5075e-09
-6.62549e-09
-2.31003e-09
-5.07325e-09
-2.09207e-09
-3.69434e-09
-1.85439e-09
-2.50168e-09
-1.59838e-09
-1.5064e-09
-1.32629e-09
-7.16829e-10
-1.04169e-09
-1.3714e-10
-7.50068e-10
2.34768e-10
-4.59912e-10
4.10367e-10
-1.84328e-10
4.15007e-10
5.64756e-11
2.93926e-10
2.31523e-10
1.18989e-10
2.94208e-10
1.79179e-10
1.07005e-10
-2.76042e-10
2.15669e-10
-4.08077e-10
2.09049e-10
-2.19664e-10
-6.62342e-13
1.65977e-10
-4.69631e-10
6.71675e-10
-1.23105e-09
1.24318e-09
-2.30065e-09
1.84267e-09
-3.68159e-09
2.4447e-09
-5.36818e-09
3.03229e-09
-7.34862e-09
3.59416e-09
-9.60682e-09
4.12286e-09
-1.21239e-08
4.6136e-09
-1.4879e-08
5.06341e-09
-1.78504e-08
5.47058e-09
-2.10154e-08
5.83433e-09
-2.43513e-08
6.1546e-09
-2.78355e-08
6.43179e-09
-3.14456e-08
6.66667e-09
-3.51596e-08
6.86029e-09
-3.89563e-08
7.01388e-09
-4.28151e-08
7.12884e-09
-4.67159e-08
7.20665e-09
-5.06397e-08
7.24888e-09
-5.45682e-08
7.25712e-09
-5.84839e-08
7.23297e-09
-6.23702e-08
7.17804e-09
-6.62113e-08
7.09399e-09
-6.99923e-08
6.9824e-09
-7.36992e-08
6.84482e-09
-7.73185e-08
6.68275e-09
-8.08379e-08
6.49767e-09
-8.42456e-08
6.291e-09
-8.75306e-08
6.0641e-09
-9.06828e-08
5.81834e-09
-9.36926e-08
5.55506e-09
-9.65513e-08
5.27553e-09
-9.92505e-08
4.98097e-09
-1.01783e-07
4.67255e-09
-1.04141e-07
4.35144e-09
-1.06319e-07
4.01871e-09
-1.08312e-07
3.67541e-09
-1.10113e-07
3.32258e-09
-1.11718e-07
2.96123e-09
-1.13123e-07
2.59231e-09
-1.14325e-07
2.21677e-09
-1.1532e-07
1.8355e-09
-1.16105e-07
1.44941e-09
-1.16679e-07
1.05935e-09
-1.17039e-07
6.66217e-10
-1.17185e-07
2.70869e-10
-1.17115e-07
-1.25816e-10
-1.16831e-07
-5.22945e-10
-1.16331e-07
-9.19631e-10
-1.15616e-07
-1.31497e-09
-1.14689e-07
-1.70803e-09
-1.1355e-07
-2.09784e-09
-1.12202e-07
-2.48338e-09
-1.10648e-07
-2.8636e-09
-1.08892e-07
-3.2374e-09
-1.06938e-07
-3.60365e-09
-1.0479e-07
-3.96117e-09
-1.02454e-07
-4.30874e-09
-9.99365e-08
-4.64509e-09
-9.72438e-08
-4.9689e-09
-9.43838e-08
-5.2788e-09
-9.13646e-08
-5.57338e-09
-8.81955e-08
-5.85119e-09
-8.48863e-08
-6.11072e-09
-8.14477e-08
-6.35046e-09
-7.78913e-08
-6.56886e-09
-7.42294e-08
-6.76433e-09
-7.04754e-08
-6.93529e-09
-6.66434e-08
-7.08011e-09
-6.27483e-08
-7.1972e-09
-5.8806e-08
-7.28492e-09
-5.48333e-08
-7.34164e-09
-5.08479e-08
-7.36573e-09
-4.68681e-08
-7.35555e-09
-4.29133e-08
-7.3095e-09
-3.90035e-08
-7.22603e-09
-3.51595e-08
-7.10367e-09
-3.14028e-08
-6.94108e-09
-2.77554e-08
-6.73705e-09
-2.42399e-08
-6.49056e-09
-2.0879e-08
-6.20083e-09
-1.76958e-08
-5.8674e-09
-1.47131e-08
-5.49022e-09
-1.19534e-08
-5.06974e-09
-9.43829e-09
-4.60712e-09
-7.18816e-09
-4.10453e-09
-5.22111e-09
-3.56544e-09
-3.55215e-09
-2.99526e-09
-2.19177e-09
-2.40206e-09
-1.14406e-09
-1.79777e-09
-4.04126e-10
-1.19985e-09
4.53636e-11
-6.33819e-10
2.38671e-10
-1.36824e-10
2.32187e-10
2.38002e-10
1.10395e-10
4.16006e-10
2.89576e-10
5.73952e-11
-3.3343e-10
4.19749e-11
-3.92665e-10
-1.66179e-10
-1.15014e-11
-6.53069e-10
6.52862e-10
-1.47713e-09
1.49574e-09
-2.6743e-09
2.44035e-09
-4.26261e-09
3.43099e-09
-6.24642e-09
4.42852e-09
-8.61979e-09
5.40566e-09
-1.13692e-08
6.34359e-09
-1.44757e-08
7.22936e-09
-1.79164e-08
8.05426e-09
-2.16656e-08
8.8126e-09
-2.56959e-08
9.50092e-09
-2.99789e-08
1.01174e-08
-3.44856e-08
1.06613e-08
-3.91868e-08
1.1133e-08
-4.40535e-08
1.15334e-08
-4.90572e-08
1.1864e-08
-5.417e-08
1.21267e-08
-5.93647e-08
1.23236e-08
-6.46151e-08
1.2457e-08
-6.98958e-08
1.25296e-08
-7.51825e-08
1.25438e-08
-8.0452e-08
1.25024e-08
-8.56821e-08
1.24081e-08
-9.08516e-08
1.22635e-08
-9.59405e-08
1.20713e-08
-1.0093e-07
1.18343e-08
-1.05802e-07
1.15549e-08
-1.1054e-07
1.12356e-08
-1.15128e-07
1.0879e-08
-1.19551e-07
1.04873e-08
-1.23796e-07
1.00631e-08
-1.27849e-07
9.60837e-09
-1.31699e-07
9.12548e-09
-1.35335e-07
8.61648e-09
-1.38746e-07
8.08342e-09
-1.41922e-07
7.52825e-09
-1.44857e-07
6.95285e-09
-1.4754e-07
6.35907e-09
-1.49966e-07
5.74869e-09
-1.52129e-07
5.12342e-09
-1.54021e-07
4.48493e-09
-1.55639e-07
3.83486e-09
-1.56979e-07
3.17479e-09
-1.58035e-07
2.50629e-09
-1.58807e-07
1.83089e-09
-1.59291e-07
1.15013e-09
-1.59486e-07
4.65546e-10
-1.5939e-07
-2.2132e-10
-1.59004e-07
-9.08916e-10
-1.58328e-07
-1.59566e-09
-1.57363e-07
-2.27995e-09
-1.56111e-07
-2.96015e-09
-1.54574e-07
-3.63454e-09
-1.52756e-07
-4.30136e-09
-1.50661e-07
-4.9588e-09
-1.48294e-07
-5.60494e-09
-1.45659e-07
-6.23783e-09
-1.42765e-07
-6.85544e-09
-1.39618e-07
-7.45567e-09
-1.36227e-07
-8.03633e-09
-1.32601e-07
-8.59516e-09
-1.2875e-07
-9.12982e-09
-1.24685e-07
-9.63789e-09
-1.20419e-07
-1.01169e-08
-1.15966e-07
-1.05643e-08
-1.11339e-07
-1.09774e-08
-1.06554e-07
-1.13537e-08
-1.01628e-07
-1.16904e-08
-9.65785e-08
-1.19848e-08
-9.14245e-08
-1.22341e-08
-8.61861e-08
-1.24356e-08
-8.08845e-08
-1.25865e-08
-7.55421e-08
-1.2684e-08
-7.01823e-08
-1.27255e-08
-6.48298e-08
-1.2708e-08
-5.95101e-08
-1.26292e-08
-5.42497e-08
-1.24864e-08
-4.90761e-08
-1.22774e-08
-4.40173e-08
-1.19999e-08
-3.91022e-08
-1.16521e-08
-3.43601e-08
-1.12327e-08
-2.98206e-08
-1.07404e-08
-2.55131e-08
-1.01749e-08
-2.14669e-08
-9.53639e-09
-1.77105e-08
-8.82621e-09
-1.42708e-08
-8.04683e-09
-1.11728e-08
-7.20247e-09
-8.43861e-09
-6.29965e-09
-6.08587e-09
-5.34799e-09
-4.12654e-09
-4.36139e-09
-2.56473e-09
-3.35959e-09
-1.39414e-09
-2.37045e-09
-5.94877e-10
-1.43307e-09
-1.29647e-10
-6.02057e-10
6.06909e-11
4.76621e-11
6.21942e-11
4.14507e-10
3.51766e-10
-1.06353e-11
-3.22792e-10
-1.94471e-10
-2.08828e-10
-6.57054e-10
4.51083e-10
-1.47652e-09
1.47233e-09
-2.70753e-09
2.72674e-09
-4.38442e-09
4.11723e-09
-6.52461e-09
5.57119e-09
-9.13193e-09
7.03583e-09
-1.21995e-08
8.47319e-09
-1.5712e-08
9.85615e-09
-1.96482e-08
1.11655e-08
-2.39818e-08
1.23879e-08
-2.86835e-08
1.35143e-08
-3.37213e-08
1.45388e-08
-3.90621e-08
1.54581e-08
-4.46716e-08
1.62707e-08
-5.05151e-08
1.69765e-08
-5.65581e-08
1.75764e-08
-6.27665e-08
1.80723e-08
-6.91065e-08
1.84667e-08
-7.55454e-08
1.87625e-08
-8.20513e-08
1.89629e-08
-8.85933e-08
1.90716e-08
-9.51419e-08
1.90924e-08
-1.01668e-07
1.9029e-08
-1.08146e-07
1.88855e-08
-1.14548e-07
1.86658e-08
-1.20851e-07
1.8374e-08
-1.2703e-07
1.80138e-08
-1.33065e-07
1.75893e-08
-1.38933e-07
1.71041e-08
-1.44616e-07
1.6562e-08
-1.50096e-07
1.59666e-08
-1.55354e-07
1.53214e-08
-1.60375e-07
1.46298e-08
-1.65145e-07
1.38952e-08
-1.69649e-07
1.31207e-08
-1.73875e-07
1.23094e-08
-1.77811e-07
1.14643e-08
-1.81447e-07
1.05882e-08
-1.84772e-07
9.68406e-09
-1.87777e-07
8.75444e-09
-1.90456e-07
7.80202e-09
-1.928e-07
6.82934e-09
-1.94805e-07
5.83891e-09
-1.96463e-07
4.83317e-09
-1.97771e-07
3.8145e-09
-1.98726e-07
2.7853e-09
-1.99323e-07
1.74793e-09
-1.99563e-07
7.04745e-10
-1.99442e-07
-3.41867e-10
-1.98961e-07
-1.38951e-09
-1.98121e-07
-2.43576e-09
-1.96923e-07
-3.47814e-09
-1.95369e-07
-4.51409e-09
-1.93463e-07
-5.54102e-09
-1.91208e-07
-6.55622e-09
-1.8861e-07
-7.5569e-09
-1.85674e-07
-8.54019e-09
-1.82409e-07
-9.50309e-09
-1.78822e-07
-1.04425e-08
-1.74923e-07
-1.13553e-08
-1.70721e-07
-1.22381e-08
-1.66228e-07
-1.30875e-08
-1.61458e-07
-1.38999e-08
-1.56424e-07
-1.46718e-08
-1.51142e-07
-1.53993e-08
-1.45628e-07
-1.60787e-08
-1.39899e-07
-1.6706e-08
-1.33976e-07
-1.72772e-08
-1.27878e-07
-1.77882e-08
-1.21627e-07
-1.8235e-08
-1.15248e-07
-1.86134e-08
-1.08764e-07
-1.89193e-08
-1.02203e-07
-1.91485e-08
-9.55897e-08
-1.92968e-08
-8.89548e-08
-1.93604e-08
-8.23277e-08
-1.93351e-08
-7.57396e-08
-1.92173e-08
-6.92228e-08
-1.90033e-08
-6.28103e-08
-1.86898e-08
-5.65363e-08
-1.82739e-08
-5.04355e-08
-1.7753e-08
-4.45428e-08
-1.71253e-08
-3.88937e-08
-1.63896e-08
-3.3523e-08
-1.55455e-08
-2.84652e-08
-1.45942e-08
-2.37536e-08
-1.35378e-08
-1.94196e-08
-1.23809e-08
-1.54919e-08
-1.11302e-08
-1.19955e-08
-9.79605e-09
-8.95043e-09
-8.39305e-09
-6.37016e-09
-6.94167e-09
-4.25956e-09
-5.47019e-09
-2.6127e-09
-4.0173e-09
-1.41014e-09
-2.63563e-09
-6.15887e-10
-1.39632e-09
-1.74175e-10
-3.94045e-10
-5.68066e-12
2.46011e-10
3.46087e-10
-8.76831e-11
-2.351e-10
-4.63928e-10
1.67413e-10
-1.21341e-09
1.20058e-09
-2.40126e-09
2.66018e-09
-4.07395e-09
4.39944e-09
-6.26082e-09
6.30411e-09
-8.97617e-09
8.28654e-09
-1.22216e-08
1.02812e-08
-1.59882e-08
1.22398e-08
-2.02587e-08
1.41266e-08
-2.50092e-08
1.5916e-08
-3.02108e-08
1.75895e-08
-3.58308e-08
1.91342e-08
-4.18335e-08
2.05416e-08
-4.81817e-08
2.18063e-08
-5.48367e-08
2.29257e-08
-6.17593e-08
2.38991e-08
-6.89102e-08
2.47273e-08
-7.62503e-08
2.54124e-08
-8.37409e-08
2.59574e-08
-9.13444e-08
2.6366e-08
-9.90239e-08
2.66425e-08
-1.06744e-07
2.67915e-08
-1.1447e-07
2.68182e-08
-1.22168e-07
2.67277e-08
-1.29808e-07
2.65253e-08
-1.37359e-07
2.62165e-08
-1.44791e-07
2.58066e-08
-1.52079e-07
2.53011e-08
-1.59195e-07
2.47053e-08
-1.66115e-07
2.40245e-08
-1.72817e-07
2.32638e-08
-1.79279e-07
2.24282e-08
-1.8548e-07
2.15226e-08
-1.91402e-07
2.05518e-08
-1.97027e-07
1.95203e-08
-2.02339e-07
1.84327e-08
-2.07323e-07
1.72933e-08
-2.11965e-07
1.61062e-08
-2.16252e-07
1.48756e-08
-2.20173e-07
1.36052e-08
-2.23718e-07
1.2299e-08
-2.26876e-07
1.09605e-08
-2.2964e-07
9.59352e-09
-2.32003e-07
8.20147e-09
-2.33958e-07
6.78781e-09
-2.35499e-07
5.35596e-09
-2.36623e-07
3.90927e-09
-2.37326e-07
2.4511e-09
-2.37606e-07
9.84804e-10
-2.37462e-07
-4.86244e-10
-2.36893e-07
-1.95865e-09
-2.359e-07
-3.42897e-09
-2.34484e-07
-4.89368e-09
-2.32649e-07
-6.34919e-09
-2.30398e-07
-7.79181e-09
-2.27737e-07
-9.21773e-09
-2.24671e-07
-1.0623e-08
-2.21207e-07
-1.20037e-08
-2.17355e-07
-1.33554e-08
-2.13123e-07
-1.4674e-08
-2.08524e-07
-1.59549e-08
-2.03568e-07
-1.71935e-08
-1.9827e-07
-1.83851e-08
-1.92646e-07
-1.95246e-08
-1.86711e-07
-2.0607e-08
-1.80483e-07
-2.1627e-08
-1.73982e-07
-2.25795e-08
-1.67229e-07
-2.34588e-08
-1.60247e-07
-2.42594e-08
-1.5306e-07
-2.49757e-08
-1.45693e-07
-2.5602e-08
-1.38173e-07
-2.61327e-08
-1.30531e-07
-2.65618e-08
-1.22796e-07
-2.68838e-08
-1.14999e-07
-2.70931e-08
-1.07176e-07
-2.7184e-08
-9.93594e-08
-2.71514e-08
-9.15866e-08
-2.69901e-08
-8.38945e-08
-2.66954e-08
-7.63215e-08
-2.62628e-08
-6.89066e-08
-2.56887e-08
-6.16897e-08
-2.497e-08
-5.47107e-08
-2.41042e-08
-4.80098e-08
-2.30904e-08
-4.16268e-08
-2.19286e-08
-3.56004e-08
-2.06206e-08
-2.99678e-08
-1.91704e-08
-2.47642e-08
-1.75844e-08
-2.00215e-08
-1.58729e-08
-1.57675e-08
-1.40501e-08
-1.20245e-08
-1.21361e-08
-8.8078e-09
-1.01583e-08
-6.12423e-09
-8.15377e-09
-3.96993e-09
-6.1716e-09
-2.32847e-09
-4.2771e-09
-1.16858e-09
-2.5562e-09
-4.42199e-10
-1.12042e-09
-8.23752e-11
-1.13814e-10
2.63719e-10
-1.67783e-10
-6.73189e-11
-7.47735e-10
7.47371e-10
-1.80157e-09
2.25441e-09
-3.37844e-09
4.23705e-09
-5.51379e-09
6.53481e-09
-8.22943e-09
9.01974e-09
-1.15344e-08
1.15915e-08
-1.54265e-08
1.41734e-08
-1.98939e-08
1.67072e-08
-2.49166e-08
1.91493e-08
-3.0468e-08
2.14674e-08
-3.65163e-08
2.36379e-08
-4.30259e-08
2.56437e-08
-4.99577e-08
2.74734e-08
-5.72709e-08
2.91195e-08
-6.49231e-08
3.05779e-08
-7.28711e-08
3.18471e-08
-8.10714e-08
3.29276e-08
-8.94807e-08
3.38217e-08
-9.80562e-08
3.45328e-08
-1.06756e-07
3.50654e-08
-1.15538e-07
3.54247e-08
-1.24363e-07
3.56166e-08
-1.33192e-07
3.56475e-08
-1.41988e-07
3.55239e-08
-1.50716e-07
3.52527e-08
-1.5934e-07
3.48409e-08
-1.67829e-07
3.42954e-08
-1.76151e-07
3.36233e-08
-1.84277e-07
3.28316e-08
-1.9218e-07
3.19271e-08
-1.99833e-07
3.09165e-08
-2.07211e-07
2.98065e-08
-2.14292e-07
2.86034e-08
-2.21054e-07
2.73136e-08
-2.27476e-07
2.59432e-08
-2.33542e-07
2.44981e-08
-2.39232e-07
2.29839e-08
-2.44532e-07
2.14063e-08
-2.49428e-07
1.97706e-08
-2.53904e-07
1.8082e-08
-2.57951e-07
1.63455e-08
-2.61557e-07
1.45662e-08
-2.64712e-07
1.27488e-08
-2.67408e-07
1.08979e-08
-2.69639e-07
9.01834e-09
-2.71397e-07
7.1145e-09
-2.72679e-07
5.19095e-09
-2.7348e-07
3.25215e-09
-2.73798e-07
1.30261e-09
-2.73631e-07
-6.53178e-10
-2.72979e-07
-2.61066e-09
-2.71843e-07
-4.56521e-09
-2.70224e-07
-6.51214e-09
-2.68127e-07
-8.44666e-09
-2.65555e-07
-1.03638e-08
-2.62514e-07
-1.22586e-08
-2.59011e-07
-1.41257e-08
-2.55055e-07
-1.59598e-08
-2.50655e-07
-1.77553e-08
-2.45823e-07
-1.95064e-08
-2.40571e-07
-2.12073e-08
-2.34912e-07
-2.28518e-08
-2.28864e-07
-2.44336e-08
-2.22442e-07
-2.59461e-08
-2.15667e-07
-2.73826e-08
-2.08557e-07
-2.87364e-08
-2.01137e-07
-3.00002e-08
-1.93428e-07
-3.1167e-08
-1.85458e-07
-3.22295e-08
-1.77254e-07
-3.31802e-08
-1.68844e-07
-3.40118e-08
-1.6026e-07
-3.47166e-08
-1.51534e-07
-3.52874e-08
-1.42702e-07
-3.57165e-08
-1.33798e-07
-3.59969e-08
-1.24861e-07
-3.61213e-08
-1.15929e-07
-3.6083e-08
-1.07044e-07
-3.58755e-08
-9.82462e-08
-3.54928e-08
-8.95794e-08
-3.49296e-08
-8.1087e-08
-3.41812e-08
-7.2813e-08
-3.32439e-08
-6.4802e-08
-3.21153e-08
-5.70982e-08
-3.07942e-08
-4.97454e-08
-2.92814e-08
-4.27862e-08
-2.75799e-08
-3.62613e-08
-2.56952e-08
-3.02092e-08
-2.36365e-08
-2.46648e-08
-2.14173e-08
-1.96585e-08
-1.90564e-08
-1.52153e-08
-1.65793e-08
-1.13531e-08
-1.40205e-08
-8.08169e-09
-1.14252e-08
-5.40088e-09
-8.85241e-09
-3.29928e-09
-6.3787e-09
-1.7529e-09
-4.10256e-09
-7.24267e-10
-2.14905e-09
-1.61867e-10
-6.76209e-10
1.01855e-10
-2.47488e-10
1.80174e-10
-1.03427e-09
1.53415e-09
-2.39926e-09
3.6194e-09
-4.37449e-09
6.21229e-09
-6.98273e-09
9.14304e-09
-1.02365e-08
1.22735e-08
-1.41381e-08
1.54931e-08
-1.86801e-08
1.87154e-08
-2.38468e-08
2.18738e-08
-2.96147e-08
2.49172e-08
-3.59541e-08
2.78069e-08
-4.28304e-08
3.05142e-08
-5.02048e-08
3.30181e-08
-5.80352e-08
3.53038e-08
-6.62775e-08
3.73618e-08
-7.48859e-08
3.91863e-08
-8.38136e-08
4.07749e-08
-9.30136e-08
4.21276e-08
-1.02439e-07
4.32469e-08
-1.12042e-07
4.41364e-08
-1.21778e-07
4.48014e-08
-1.31602e-07
4.52483e-08
-1.41469e-07
4.54839e-08
-1.51338e-07
4.5516e-08
-1.61167e-07
4.53527e-08
-1.70916e-07
4.50024e-08
-1.80549e-07
4.44738e-08
-1.90029e-07
4.37755e-08
-1.99322e-07
4.29163e-08
-2.08396e-07
4.19048e-08
-2.17218e-07
4.07499e-08
-2.25762e-07
3.94598e-08
-2.33998e-07
3.8043e-08
-2.41903e-07
3.65077e-08
-2.49451e-07
3.48616e-08
-2.5662e-07
3.31126e-08
-2.6339e-07
3.12681e-08
-2.69742e-07
2.93355e-08
-2.75657e-07
2.73218e-08
-2.8112e-07
2.52338e-08
-2.86116e-07
2.30782e-08
-2.90632e-07
2.08614e-08
-2.94656e-07
1.85898e-08
-2.98177e-07
1.62695e-08
-3.01185e-07
1.39064e-08
-3.03673e-07
1.15066e-08
-3.05635e-07
9.07583e-09
-3.07064e-07
6.6199e-09
-3.07956e-07
4.14455e-09
-3.08309e-07
1.65555e-09
-3.08121e-07
-8.41326e-10
-3.07391e-07
-3.34024e-09
-3.06121e-07
-5.83527e-09
-3.04313e-07
-8.32039e-09
-3.0197e-07
-1.07895e-08
-2.99098e-07
-1.32362e-08
-2.95702e-07
-1.56541e-08
-2.91792e-07
-1.80364e-08
-2.87375e-07
-2.03764e-08
-2.82463e-07
-2.2667e-08
-2.77069e-07
-2.49007e-08
-2.71206e-07
-2.70701e-08
-2.64891e-07
-2.91674e-08
-2.5814e-07
-3.11845e-08
-2.50973e-07
-3.31131e-08
-2.43411e-07
-3.49448e-08
-2.35476e-07
-3.66708e-08
-2.27194e-07
-3.82823e-08
-2.18591e-07
-3.97701e-08
-2.09695e-07
-4.11251e-08
-2.00538e-07
-4.2338e-08
-1.9115e-07
-4.33993e-08
-1.81567e-07
-4.42997e-08
-1.71825e-07
-4.50298e-08
-1.61961e-07
-4.55804e-08
-1.52015e-07
-4.59424e-08
-1.42029e-07
-4.61071e-08
-1.32046e-07
-4.60661e-08
-1.2211e-07
-4.58114e-08
-1.12267e-07
-4.53359e-08
-1.02564e-07
-4.4633e-08
-9.30478e-08
-4.36973e-08
-8.3767e-08
-4.25247e-08
-7.47698e-08
-4.11125e-08
-6.61043e-08
-3.94598e-08
-5.78177e-08
-3.7568e-08
-4.99561e-08
-3.54415e-08
-4.25635e-08
-3.30877e-08
-3.56815e-08
-3.05186e-08
-2.93478e-08
-2.7751e-08
-2.3596e-08
-2.48082e-08
-1.84539e-08
-2.17214e-08
-1.39429e-08
-1.85315e-08
-1.00767e-08
-1.52914e-08
-6.86e-09
-1.20691e-08
-4.28816e-09
-8.95054e-09
-2.34611e-09
-6.0446e-09
-1.0086e-09
-3.48657e-09
-2.40802e-10
-1.444e-09
-1.38952e-10
-3.24922e-10
5.05096e-10
-1.31646e-09
2.52569e-09
-2.99213e-09
5.29508e-09
-5.36689e-09
8.58705e-09
-8.4501e-09
1.22262e-08
-1.2244e-08
1.60674e-08
-1.67429e-08
1.9992e-08
-2.19334e-08
2.3906e-08
-2.77948e-08
2.77352e-08
-3.42995e-08
3.14219e-08
-4.14144e-08
3.49219e-08
-4.91016e-08
3.82013e-08
-5.7319e-08
4.12355e-08
-6.60217e-08
4.40065e-08
-7.51623e-08
4.65024e-08
-8.4692e-08
4.87159e-08
-9.45606e-08
5.06435e-08
-1.04718e-07
5.22849e-08
-1.15113e-07
5.36422e-08
-1.25697e-07
5.47198e-08
-1.36419e-07
5.55234e-08
-1.47231e-07
5.60604e-08
-1.58086e-07
5.6339e-08
-1.68938e-07
5.63683e-08
-1.79743e-07
5.61578e-08
-1.90458e-07
5.57176e-08
-2.01043e-07
5.50582e-08
-2.11457e-07
5.419e-08
-2.21665e-07
5.31236e-08
-2.3163e-07
5.18697e-08
-2.41318e-07
5.04386e-08
-2.50699e-07
4.88409e-08
-2.59743e-07
4.70866e-08
-2.68421e-07
4.51857e-08
-2.76707e-07
4.3148e-08
-2.84578e-07
4.0983e-08
-2.92009e-07
3.86998e-08
-2.98981e-07
3.63076e-08
-3.05474e-07
3.38149e-08
-3.11471e-07
3.12302e-08
-3.16954e-07
2.85618e-08
-3.21911e-07
2.58176e-08
-3.26326e-07
2.30054e-08
-3.3019e-07
2.01329e-08
-3.33491e-07
1.72075e-08
-3.36221e-07
1.42366e-08
-3.38372e-07
1.12274e-08
-3.39939e-07
8.187e-09
-3.40918e-07
5.12267e-09
-3.41304e-07
2.04151e-09
-3.41096e-07
-1.04928e-09
-3.40293e-07
-4.14246e-09
-3.38898e-07
-7.23068e-09
-3.36912e-07
-1.03065e-08
-3.34339e-07
-1.33622e-08
-3.31185e-07
-1.63901e-08
-3.27457e-07
-1.9382e-08
-3.23164e-07
-2.23298e-08
-3.18315e-07
-2.5225e-08
-3.12924e-07
-2.80588e-08
-3.07002e-07
-3.08221e-08
-3.00567e-07
-3.35056e-08
-2.93634e-07
-3.60998e-08
-2.86224e-07
-3.85946e-08
-2.78357e-07
-4.09801e-08
-2.70056e-07
-4.32456e-08
-2.61347e-07
-4.53805e-08
-2.52255e-07
-4.73739e-08
-2.42811e-07
-4.92146e-08
-2.33044e-07
-5.08915e-08
-2.22989e-07
-5.23931e-08
-2.12681e-07
-5.37079e-08
-2.02156e-07
-5.48246e-08
-1.91454e-07
-5.57317e-08
-1.80616e-07
-5.64182e-08
-1.69685e-07
-5.6873e-08
-1.58707e-07
-5.70856e-08
-1.47727e-07
-5.7046e-08
-1.36793e-07
-5.67448e-08
-1.25956e-07
-5.61735e-08
-1.15264e-07
-5.53244e-08
-1.0477e-07
-5.41915e-08
-9.4525e-08
-5.277e-08
-8.45804e-08
-5.1057e-08
-7.4988e-08
-4.90522e-08
-6.57982e-08
-4.67578e-08
-5.70603e-08
-4.41793e-08
-4.88216e-08
-4.13265e-08
-4.11265e-08
-3.82137e-08
-3.4016e-08
-3.48614e-08
-2.75269e-08
-3.12973e-08
-2.16905e-08
-2.75578e-08
-1.65322e-08
-2.36898e-08
-1.20705e-08
-1.97532e-08
-8.31623e-09
-1.58233e-08
-5.27234e-09
-1.19944e-08
-2.93378e-09
-8.38317e-09
-1.28818e-09
-5.13217e-09
-3.1739e-10
-2.41479e-09
-4.56344e-10
-3.99126e-10
9.04224e-10
-1.5902e-09
3.71676e-09
-3.5713e-09
7.27618e-09
-6.34105e-09
1.13568e-08
-9.89538e-09
1.57806e-08
-1.42257e-08
2.03977e-08
-1.9318e-08
2.50842e-08
-2.51517e-08
2.97397e-08
-3.17005e-08
3.4284e-08
-3.89324e-08
3.86538e-08
-4.68102e-08
4.27996e-08
-5.52923e-08
4.66834e-08
-6.43334e-08
5.02766e-08
-7.38854e-08
5.35585e-08
-8.38978e-08
5.65149e-08
-9.43188e-08
5.91369e-08
-1.05095e-07
6.14199e-08
-1.16174e-07
6.33633e-08
-1.275e-07
6.4969e-08
-1.39022e-07
6.62417e-08
-1.50687e-07
6.7188e-08
-1.62442e-07
6.7816e-08
-1.74239e-07
6.81354e-08
-1.86027e-07
6.81564e-08
-1.97759e-07
6.78904e-08
-2.09391e-07
6.73491e-08
-2.20877e-07
6.65448e-08
-2.32177e-07
6.54897e-08
-2.4325e-07
6.41965e-08
-2.54058e-07
6.26777e-08
-2.64565e-07
6.09458e-08
-2.74738e-07
5.90132e-08
-2.84543e-07
5.68919e-08
-2.93951e-07
5.45939e-08
-3.02934e-07
5.2131e-08
-3.11466e-07
4.95144e-08
-3.19521e-07
4.67552e-08
-3.27078e-07
4.38643e-08
-3.34115e-07
4.08521e-08
-3.40614e-07
3.77289e-08
-3.46556e-07
3.45044e-08
-3.51927e-07
3.11884e-08
-3.56712e-07
2.77902e-08
-3.60898e-07
2.43192e-08
-3.64475e-07
2.07842e-08
-3.67433e-07
1.71943e-08
-3.69763e-07
1.35581e-08
-3.71461e-07
9.88435e-09
-3.7252e-07
6.18172e-09
-3.72937e-07
2.45885e-09
-3.72711e-07
-1.27554e-09
-3.71841e-07
-5.01268e-09
-3.70328e-07
-8.74369e-09
-3.68175e-07
-1.24595e-08
-3.65386e-07
-1.61509e-08
-3.61967e-07
-1.98085e-08
-3.57927e-07
-2.34225e-08
-3.53274e-07
-2.69831e-08
-3.48019e-07
-3.04798e-08
-3.42175e-07
-3.39023e-08
-3.35758e-07
-3.72395e-08
-3.28783e-07
-4.04803e-08
-3.2127e-07
-4.36131e-08
-3.13238e-07
-4.6626e-08
-3.04711e-07
-4.95068e-08
-2.95714e-07
-5.2243e-08
-2.86273e-07
-5.48216e-08
-2.76417e-07
-5.72297e-08
-2.66178e-07
-5.9454e-08
-2.55588e-07
-6.14809e-08
-2.44684e-07
-6.3297e-08
-2.33504e-07
-6.48885e-08
-2.22086e-07
-6.62419e-08
-2.10475e-07
-6.73437e-08
-1.98712e-07
-6.81806e-08
-1.86845e-07
-6.87399e-08
-1.74922e-07
-6.9009e-08
-1.62992e-07
-6.89762e-08
-1.51106e-07
-6.86307e-08
-1.39317e-07
-6.79624e-08
-1.27678e-07
-6.69629e-08
-1.16245e-07
-6.56251e-08
-1.05071e-07
-6.39438e-08
-9.42118e-08
-6.19162e-08
-8.3722e-08
-5.95421e-08
-7.36551e-08
-5.68247e-08
-6.40636e-08
-5.37709e-08
-5.49978e-08
-5.03923e-08
-4.65053e-08
-4.67061e-08
-3.86306e-08
-4.27362e-08
-3.14137e-08
-3.85142e-08
-2.48902e-08
-3.40813e-08
-1.909e-08
-2.949e-08
-1.40371e-08
-2.48061e-08
-9.74914e-09
-2.01113e-08
-6.23735e-09
-1.55062e-08
-3.50712e-09
-1.11134e-08
-1.559e-09
-7.08028e-09
-3.90724e-10
-3.58307e-09
-8.47063e-10
-4.69724e-10
1.37395e-09
-1.85336e-09
5.10039e-09
-4.1317e-09
9.55452e-09
-7.28814e-09
1.45132e-08
-1.13057e-08
1.97981e-08
-1.61649e-08
2.5257e-08
-2.18428e-08
3.07621e-08
-2.83115e-08
3.62085e-08
-3.55387e-08
4.15112e-08
-4.3487e-08
4.66021e-08
-5.21149e-08
5.14275e-08
-6.13768e-08
5.59453e-08
-7.12241e-08
6.01238e-08
-8.16052e-08
6.39396e-08
-9.24666e-08
6.73763e-08
-1.03753e-07
7.04236e-08
-1.15409e-07
7.3076e-08
-1.27378e-07
7.53321e-08
-1.39603e-07
7.71942e-08
-1.52029e-07
7.86671e-08
-1.64599e-07
7.97581e-08
-1.7726e-07
8.04766e-08
-1.89957e-07
8.08331e-08
-2.0264e-07
8.08396e-08
-2.15259e-07
8.05089e-08
-2.27765e-07
7.98547e-08
-2.40111e-07
7.8891e-08
-2.52253e-07
7.76321e-08
-2.64149e-07
7.60926e-08
-2.75759e-07
7.42872e-08
-2.87043e-07
7.22303e-08
-2.97966e-07
6.99364e-08
-3.08494e-07
6.74198e-08
-3.18595e-07
6.46944e-08
-3.28238e-07
6.1774e-08
-3.37395e-07
5.86719e-08
-3.46041e-07
5.54012e-08
-3.54151e-07
5.19746e-08
-3.61704e-07
4.84044e-08
-3.68678e-07
4.47027e-08
-3.75055e-07
4.08813e-08
-3.80818e-07
3.69514e-08
-3.85952e-07
3.29243e-08
-3.90443e-07
2.88108e-08
-3.94281e-07
2.46217e-08
-3.97454e-07
2.03675e-08
-3.99954e-07
1.60586e-08
-4.01775e-07
1.17052e-08
-4.02911e-07
7.31772e-09
-4.03359e-07
2.90637e-09
-4.03116e-07
-1.51853e-09
-4.02182e-07
-5.94657e-09
-4.00558e-07
-1.03672e-08
-3.98248e-07
-1.47697e-08
-3.95256e-07
-1.91432e-08
-3.91588e-07
-2.34764e-08
-3.87253e-07
-2.77578e-08
-3.8226e-07
-3.19758e-08
-3.76622e-07
-3.61182e-08
-3.70352e-07
-4.01724e-08
-3.63465e-07
-4.41257e-08
-3.55981e-07
-4.79648e-08
-3.47918e-07
-5.16759e-08
-3.39299e-07
-5.52452e-08
-3.30148e-07
-5.86582e-08
-3.2049e-07
-6.19002e-08
-3.10356e-07
-6.49561e-08
-2.99775e-07
-6.78105e-08
-2.88781e-07
-7.04477e-08
-2.7741e-07
-7.28522e-08
-2.65699e-07
-7.50078e-08
-2.53689e-07
-7.68988e-08
-2.41422e-07
-7.85092e-08
-2.28942e-07
-7.98233e-08
-2.16297e-07
-8.08258e-08
-2.03535e-07
-8.15017e-08
-1.90708e-07
-8.18367e-08
-1.77867e-07
-8.18172e-08
-1.65066e-07
-8.14309e-08
-1.52362e-07
-8.06663e-08
-1.39811e-07
-7.95139e-08
-1.27471e-07
-7.79657e-08
-1.15398e-07
-7.60162e-08
-1.03652e-07
-7.36623e-08
-9.22901e-08
-7.09044e-08
-8.13685e-08
-6.77463e-08
-7.0943e-08
-6.41963e-08
-6.10672e-08
-6.02681e-08
-5.17921e-08
-5.59813e-08
-4.31655e-08
-5.13628e-08
-3.52315e-08
-4.64481e-08
-2.80301e-08
-4.12828e-08
-2.15962e-08
-3.59238e-08
-1.596e-08
-3.04423e-08
-1.11461e-08
-2.49252e-08
-7.17457e-09
-1.94777e-08
-4.06119e-09
-1.42268e-08
-1.81902e-09
-9.32245e-09
-4.60421e-10
-4.94166e-09
-1.30748e-09
-5.3668e-10
1.91063e-09
-2.10509e-09
6.66881e-09
-4.67085e-09
1.21203e-08
-8.20346e-09
1.80459e-08
-1.26737e-08
2.42683e-08
-1.80516e-08
3.06349e-08
-2.43049e-08
3.70154e-08
-3.13985e-08
4.33021e-08
-3.92934e-08
4.9406e-08
-4.79466e-08
5.52554e-08
-5.7312e-08
6.07928e-08
-6.73397e-08
6.59731e-08
-7.79773e-08
7.07614e-08
-8.91697e-08
7.51321e-08
-1.0086e-07
7.9067e-08
-1.12991e-07
8.25543e-08
-1.25503e-07
8.55877e-08
-1.38336e-07
8.81656e-08
-1.51432e-07
9.02901e-08
-1.64732e-07
9.19665e-08
-1.78176e-07
9.32029e-08
-1.91709e-07
9.40096e-08
-2.05275e-07
9.43986e-08
-2.18818e-07
9.43832e-08
-2.32288e-07
9.3978e-08
-2.45631e-07
9.31985e-08
-2.58801e-07
9.20607e-08
-2.7175e-07
9.05808e-08
-2.84433e-07
8.87757e-08
-2.96808e-07
8.6662e-08
-3.08834e-07
8.42565e-08
-3.20473e-07
8.15758e-08
-3.3169e-07
7.86364e-08
-3.4245e-07
7.54543e-08
-3.52721e-07
7.20454e-08
-3.62475e-07
6.84253e-08
-3.71682e-07
6.46089e-08
-3.80319e-07
6.06112e-08
-3.88361e-07
5.64463e-08
-3.95786e-07
5.21283e-08
-4.02576e-07
4.76709e-08
-4.08712e-07
4.30872e-08
-4.14178e-07
3.83903e-08
-4.1896e-07
3.35928e-08
-4.23045e-07
2.87072e-08
-4.26424e-07
2.37458e-08
-4.29086e-07
1.87207e-08
-4.31025e-07
1.36439e-08
-4.32234e-07
8.52747e-09
-4.32711e-07
3.38328e-09
-4.32453e-07
-1.77659e-09
-4.3146e-07
-6.94e-09
-4.29732e-07
-1.20947e-08
-4.27274e-07
-1.72281e-08
-4.24089e-07
-2.23275e-08
-4.20186e-07
-2.738e-08
-4.15572e-07
-3.23721e-08
-4.10257e-07