/*--------------------------------*- C++ -*----------------------------------*\
| =========                 |                                                 |
| \\      /  F ield         | OpenFOAM: The Open Source CFD Toolbox           |
|  \\    /   O peration     | Version:  2212                                  |
|   \\  /    A nd           | Website:  www.openfoam.com                      |
|    \\/     M anipulation  |                                                 |
\*---------------------------------------------------------------------------*/
FoamFile
{
    version     2.0;
    format      ascii;
    arch        "LSB;label=32;scalar=64";
    class       volVectorField;
    location    "0.0415";
    object      U;
}
// * * * * * * * * * * * * * * * * * * * * * * * * * * * * * * * * * * * * * //

dimensions      [0 1 -1 0 0 0 0];

internalField   nonuniform List<vector> 
10000
(
(2.37744e-06 -3.14974e-06 0)
(1.32677e-05 -7.22391e-06 0)
(2.92789e-05 -7.67776e-06 0)
(4.40039e-05 -6.3543e-06 0)
(5.26523e-05 -4.0046e-06 0)
(5.35618e-05 -1.181e-06 0)
(4.57368e-05 1.8215e-06 0)
(2.87692e-05 4.83578e-06 0)
(2.62607e-06 7.76757e-06 0)
(-3.24824e-05 1.0567e-05 0)
(-7.62001e-05 1.32052e-05 0)
(-0.000128073 1.5665e-05 0)
(-0.000187577 1.79332e-05 0)
(-0.00025415 2.00037e-05 0)
(-0.000327203 2.18775e-05 0)
(-0.000406135 2.35588e-05 0)
(-0.000490339 2.50511e-05 0)
(-0.000579206 2.63556e-05 0)
(-0.000672135 2.74764e-05 0)
(-0.000768534 2.84183e-05 0)
(-0.000867819 2.91866e-05 0)
(-0.000969423 2.97883e-05 0)
(-0.00107279 3.02272e-05 0)
(-0.00117739 3.05078e-05 0)
(-0.00128269 3.06373e-05 0)
(-0.00138819 3.0621e-05 0)
(-0.0014934 3.04646e-05 0)
(-0.00159786 3.01753e-05 0)
(-0.00170111 2.97584e-05 0)
(-0.00180273 2.92183e-05 0)
(-0.0019023 2.85613e-05 0)
(-0.00199944 2.77941e-05 0)
(-0.00209376 2.69219e-05 0)
(-0.00218491 2.59502e-05 0)
(-0.00227256 2.48849e-05 0)
(-0.00235638 2.37304e-05 0)
(-0.00243609 2.24917e-05 0)
(-0.0025114 2.11753e-05 0)
(-0.00258204 1.97877e-05 0)
(-0.00264778 1.83334e-05 0)
(-0.00270839 1.68161e-05 0)
(-0.00276366 1.52417e-05 0)
(-0.00281341 1.36164e-05 0)
(-0.00285746 1.19454e-05 0)
(-0.00289567 1.02327e-05 0)
(-0.0029279 8.48301e-06 0)
(-0.00295403 6.7029e-06 0)
(-0.00297397 4.89898e-06 0)
(-0.00298765 3.07616e-06 0)
(-0.002995 1.23881e-06 0)
(-0.00299599 -6.08156e-07 0)
(-0.0029906 -2.45857e-06 0)
(-0.00297884 -4.30538e-06 0)
(-0.00296072 -6.14239e-06 0)
(-0.00293628 -7.96425e-06 0)
(-0.0029056 -9.76539e-06 0)
(-0.00286876 -1.15399e-05 0)
(-0.00282586 -1.32811e-05 0)
(-0.00277704 -1.4982e-05 0)
(-0.00272244 -1.66361e-05 0)
(-0.00266225 -1.82374e-05 0)
(-0.00259665 -1.97795e-05 0)
(-0.00252587 -2.12557e-05 0)
(-0.00245014 -2.26591e-05 0)
(-0.00236975 -2.39826e-05 0)
(-0.00228496 -2.52189e-05 0)
(-0.00219611 -2.63616e-05 0)
(-0.00210352 -2.74039e-05 0)
(-0.00200755 -2.83389e-05 0)
(-0.00190859 -2.91594e-05 0)
(-0.00180704 -2.98585e-05 0)
(-0.00170334 -3.0429e-05 0)
(-0.00159792 -3.08639e-05 0)
(-0.00149127 -3.11571e-05 0)
(-0.00138388 -3.13027e-05 0)
(-0.00127625 -3.12949e-05 0)
(-0.00116892 -3.11281e-05 0)
(-0.00106243 -3.07972e-05 0)
(-0.000957344 -3.0297e-05 0)
(-0.000854235 -2.96225e-05 0)
(-0.000753694 -2.87689e-05 0)
(-0.000656318 -2.77327e-05 0)
(-0.000562714 -2.65114e-05 0)
(-0.000473491 -2.51023e-05 0)
(-0.000389261 -2.35036e-05 0)
(-0.000310631 -2.17145e-05 0)
(-0.000238203 -1.97354e-05 0)
(-0.000172562 -1.75684e-05 0)
(-0.000114271 -1.52177e-05 0)
(-6.38562e-05 -1.26909e-05 0)
(-2.17946e-05 -1.0001e-05 0)
(1.15131e-05 -7.16888e-06 0)
(3.57757e-05 -4.22874e-06 0)
(5.08663e-05 -1.23868e-06 0)
(5.69087e-05 1.70043e-06 0)
(5.44155e-05 4.41197e-06 0)
(4.44832e-05 6.58539e-06 0)
(2.92068e-05 7.65945e-06 0)
(1.28958e-05 6.66042e-06 0)
(2.61231e-06 2.61265e-06 0)
(6.20381e-06 -1.30339e-05 0)
(2.60102e-05 -2.71598e-05 0)
(5.19495e-05 -2.76045e-05 0)
(7.11468e-05 -1.97349e-05 0)
(7.55709e-05 -6.76237e-06 0)
(6.07751e-05 9.07152e-06 0)
(2.40605e-05 2.633e-05 0)
(-3.59847e-05 4.40866e-05 0)
(-0.000119814 6.17409e-05 0)
(-0.000227218 7.8901e-05 0)
(-0.00035752 9.53096e-05 0)
(-0.000509715 0.000110796 0)
(-0.00068257 0.000125246 0)
(-0.000874692 0.000138581 0)
(-0.00108458 0.000150757 0)
(-0.00131067 0.000161752 0)
(-0.00155135 0.00017156 0)
(-0.001805 0.000180183 0)
(-0.00206997 0.000187629 0)
(-0.00234464 0.000193918 0)
(-0.00262742 0.000199073 0)
(-0.00291672 0.000203119 0)
(-0.003211 0.000206087 0)
(-0.00350875 0.000208007 0)
(-0.0038085 0.00020891 0)
(-0.00410884 0.000208831 0)
(-0.00440839 0.000207807 0)
(-0.00470582 0.000205875 0)
(-0.00499986 0.000203069 0)
(-0.00528928 0.000199428 0)
(-0.00557291 0.000194988 0)
(-0.00584962 0.000189789 0)
(-0.00611835 0.000183867 0)
(-0.00637809 0.000177258 0)
(-0.00662786 0.000170002 0)
(-0.00686677 0.000162133 0)
(-0.00709394 0.000153688 0)
(-0.00730858 0.000144704 0)
(-0.00750994 0.000135219 0)
(-0.00769731 0.00012527 0)
(-0.00787005 0.000114892 0)
(-0.00802758 0.000104121 0)
(-0.00816933 9.29957e-05 0)
(-0.00829484 8.15508e-05 0)
(-0.00840366 6.98224e-05 0)
(-0.00849542 5.78473e-05 0)
(-0.00856978 4.56642e-05 0)
(-0.00862649 3.33117e-05 0)
(-0.00866531 2.0827e-05 0)
(-0.00868608 8.24755e-06 0)
(-0.00868871 -4.38753e-06 0)
(-0.00867314 -1.70384e-05 0)
(-0.00863938 -2.96639e-05 0)
(-0.00858751 -4.22228e-05 0)
(-0.00851764 -5.46746e-05 0)
(-0.00842998 -6.69773e-05 0)
(-0.00832476 -7.90877e-05 0)
(-0.0082023 -9.09624e-05 0)
(-0.00806298 -0.000102558 0)
(-0.00790723 -0.000113829 0)
(-0.00773555 -0.000124732 0)
(-0.00754852 -0.000135222 0)
(-0.00734676 -0.000145252 0)
(-0.00713097 -0.000154776 0)
(-0.00690193 -0.000163747 0)
(-0.00666045 -0.00017212 0)
(-0.00640743 -0.000179849 0)
(-0.00614385 -0.000186887 0)
(-0.00587072 -0.000193189 0)
(-0.00558913 -0.000198709 0)
(-0.00530025 -0.000203401 0)
(-0.00500528 -0.000207222 0)
(-0.00470551 -0.000210129 0)
(-0.00440226 -0.000212082 0)
(-0.00409692 -0.000213043 0)
(-0.00379093 -0.000212975 0)
(-0.00348579 -0.000211844 0)
(-0.00318301 -0.000209618 0)
(-0.00288417 -0.000206269 0)
(-0.00259088 -0.000201771 0)
(-0.00230476 -0.000196103 0)
(-0.00202746 -0.000189248 0)
(-0.00176065 -0.000181198 0)
(-0.00150601 -0.000171946 0)
(-0.00126517 -0.000161499 0)
(-0.00103978 -0.000149868 0)
(-0.000831425 -0.000137081 0)
(-0.000641627 -0.000123178 0)
(-0.000471816 -0.000108223 0)
(-0.000323291 -9.23094e-05 0)
(-0.000197165 -7.55706e-05 0)
(-9.42963e-05 -5.81998e-05 0)
(-1.51906e-05 -4.04779e-05 0)
(4.01382e-05 -2.28206e-05 0)
(7.23683e-05 -5.85267e-06 0)
(8.3149e-05 9.47441e-06 0)
(7.5423e-05 2.17069e-05 0)
(5.39457e-05 2.86166e-05 0)
(2.68987e-05 2.68982e-05 0)
(6.65144e-06 1.28835e-05 0)
(7.3932e-06 -2.89959e-05 0)
(2.73775e-05 -5.2565e-05 0)
(4.87316e-05 -4.88514e-05 0)
(5.68725e-05 -2.65888e-05 0)
(4.20285e-05 7.71892e-06 0)
(-1.68716e-06 4.93942e-05 0)
(-7.80679e-05 9.51338e-05 0)
(-0.000189276 0.000142638 0)
(-0.000336185 0.000190305 0)
(-0.000518694 0.000237016 0)
(-0.000735994 0.000281996 0)
(-0.000986748 0.000324698 0)
(-0.00126923 0.000364745 0)
(-0.00158143 0.000401875 0)
(-0.00192114 0.000435915 0)
(-0.00228602 0.000466759 0)
(-0.00267365 0.00049435 0)
(-0.00308152 0.000518669 0)
(-0.00350714 0.000539722 0)
(-0.00394799 0.000557538 0)
(-0.00440156 0.000572168 0)
(-0.0048654 0.000583673 0)
(-0.00533707 0.000592123 0)
(-0.00581421 0.000597597 0)
(-0.00629449 0.000600183 0)
(-0.00677566 0.00059997 0)
(-0.00725555 0.000597054 0)
(-0.00773203 0.000591535 0)
(-0.00820309 0.000583515 0)
(-0.00866675 0.000573095 0)
(-0.00912114 0.000560381 0)
(-0.00956448 0.000545478 0)
(-0.00999504 0.000528492 0)
(-0.0104112 0.000509528 0)
(-0.0108114 0.000488692 0)
(-0.0111942 0.00046609 0)
(-0.0115582 0.000441826 0)
(-0.0119021 0.000416006 0)
(-0.0122248 0.000388737 0)
(-0.012525 0.000360123 0)
(-0.0128018 0.000330272 0)
(-0.0130541 0.000299288 0)
(-0.0132812 0.000267276 0)
(-0.0134822 0.000234344 0)
(-0.0136565 0.000200596 0)
(-0.0138034 0.000166141 0)
(-0.0139224 0.000131087 0)
(-0.0140131 9.55442e-05 0)
(-0.0140751 5.96226e-05 0)
(-0.0141082 2.34334e-05 0)
(-0.0141122 -1.29097e-05 0)
(-0.014087 -4.92914e-05 0)
(-0.0140327 -8.55956e-05 0)
(-0.0139494 -0.000121704 0)
(-0.0138372 -0.000157497 0)
(-0.0136965 -0.000192852 0)
(-0.0135277 -0.000227647 0)
(-0.0133313 -0.000261756 0)
(-0.0131079 -0.000295052 0)
(-0.0128582 -0.00032741 0)
(-0.0125831 -0.000358698 0)
(-0.0122833 -0.000388788 0)
(-0.0119601 -0.000417548 0)
(-0.0116144 -0.000444845 0)
(-0.0112475 -0.000470548 0)
(-0.0108608 -0.000494524 0)
(-0.0104557 -0.000516643 0)
(-0.0100336 -0.000536773 0)
(-0.00959639 -0.000554786 0)
(-0.00914565 -0.000570552 0)
(-0.00868328 -0.000583948 0)
(-0.0082112 -0.000594852 0)
(-0.00773144 -0.000603145 0)
(-0.00724613 -0.000608715 0)
(-0.00675747 -0.000611458 0)
(-0.00626773 -0.000611273 0)
(-0.00577927 -0.000608067 0)
(-0.00529451 -0.000601758 0)
(-0.00481591 -0.000592271 0)
(-0.004346 -0.000579544 0)
(-0.00388733 -0.000563527 0)
(-0.00344248 -0.000544187 0)
(-0.00301404 -0.000521509 0)
(-0.00260458 -0.000495499 0)
(-0.00221665 -0.00046619 0)
(-0.00185273 -0.000433645 0)
(-0.00151524 -0.00039797 0)
(-0.00120644 -0.000359318 0)
(-0.000928446 -0.000317914 0)
(-0.000683111 -0.000274066 0)
(-0.000471988 -0.000228208 0)
(-0.000296201 -0.000180937 0)
(-0.000156312 -0.000133085 0)
(-5.21349e-05 -8.58196e-05 0)
(1.75098e-05 -4.07857e-05 0)
(5.51094e-05 -3.17242e-07 0)
(6.47758e-05 3.22878e-05 0)
(5.26865e-05 5.24413e-05 0)
(2.87276e-05 5.39693e-05 0)
(7.66704e-06 2.91928e-05 0)
(6.2838e-06 -4.33212e-05 0)
(2.00705e-05 -7.17649e-05 0)
(2.74376e-05 -5.7068e-05 0)
(1.37687e-05 -1.25958e-05 0)
(-3.10651e-05 5.19282e-05 0)
(-0.000113579 0.000129248 0)
(-0.000238101 0.000213997 0)
(-0.000407202 0.000302257 0)
(-0.000622008 0.000391182 0)
(-0.0008825 0.000478702 0)
(-0.00118778 0.000563316 0)
(-0.00153628 0.000643939 0)
(-0.0019259 0.000719797 0)
(-0.00235417 0.000790335 0)
(-0.00281833 0.000855171 0)
(-0.00331541 0.000914055 0)
(-0.00384229 0.000966831 0)
(-0.00439577 0.00101343 0)
(-0.00497259 0.00105382 0)
(-0.00556946 0.00108806 0)
(-0.0061831 0.00111619 0)
(-0.00681027 0.00113833 0)
(-0.00744776 0.00115458 0)
(-0.00809242 0.00116511 0)
(-0.00874117 0.00117005 0)
(-0.009391 0.00116957 0)
(-0.010039 0.00116386 0)
(-0.0106824 0.00115309 0)
(-0.0113183 0.00113747 0)
(-0.0119443 0.00111717 0)
(-0.0125577 0.00109241 0)
(-0.0131562 0.00106339 0)
(-0.0137374 0.0010303 0)
(-0.0142992 0.000993346 0)
(-0.0148395 0.00095274 0)
(-0.0153562 0.000908683 0)
(-0.0158476 0.000861382 0)
(-0.0163118 0.000811042 0)
(-0.0167473 0.000757867 0)
(-0.0171526 0.000702065 0)
(-0.0175261 0.000643842 0)
(-0.0178667 0.000583405 0)
(-0.0181731 0.000520961 0)
(-0.0184444 0.000456717 0)
(-0.0186795 0.000390884 0)
(-0.0188776 0.000323672 0)
(-0.0190381 0.000255294 0)
(-0.0191603 0.000185963 0)
(-0.0192438 0.000115897 0)
(-0.0192882 4.53161e-05 0)
(-0.0192934 -2.55588e-05 0)
(-0.0192592 -9.65021e-05 0)
(-0.0191856 -0.000167286 0)
(-0.0190728 -0.00023768 0)
(-0.0189212 -0.000307449 0)
(-0.0187311 -0.000376355 0)
(-0.018503 -0.000444158 0)
(-0.0182377 -0.000510613 0)
(-0.0179361 -0.000575474 0)
(-0.0175989 -0.000638492 0)
(-0.0172275 -0.000699416 0)
(-0.0168229 -0.000757993 0)
(-0.0163866 -0.000813968 0)
(-0.0159201 -0.000867083 0)
(-0.0154251 -0.000917084 0)
(-0.0149033 -0.000963715 0)
(-0.0143567 -0.00100672 0)
(-0.0137874 -0.00104586 0)
(-0.0131975 -0.00108086 0)
(-0.0125895 -0.0011115 0)
(-0.0119659 -0.00113754 0)
(-0.0113291 -0.00115873 0)
(-0.0106819 -0.00117487 0)
(-0.0100272 -0.00118573 0)
(-0.00936792 -0.00119112 0)
(-0.00870707 -0.00119084 0)
(-0.0080478 -0.00118474 0)
(-0.00739332 -0.00117266 0)
(-0.0067469 -0.00115447 0)
(-0.00611189 -0.00113005 0)
(-0.00549166 -0.00109933 0)
(-0.00488959 -0.00106227 0)
(-0.00430907 -0.00101885 0)
(-0.00375347 -0.000969107 0)
(-0.0032261 -0.000913137 0)
(-0.00273015 -0.000851096 0)
(-0.00226872 -0.000783221 0)
(-0.00184467 -0.000709856 0)
(-0.00146066 -0.000631473 0)
(-0.00111897 -0.00054872 0)
(-0.000821478 -0.000462471 0)
(-0.000569486 -0.000373903 0)
(-0.00036358 -0.000284605 0)
(-0.000203431 -0.000196725 0)
(-8.75431e-05 -0.000113176 0)
(-1.2957e-05 -3.79104e-05 0)
(2.50351e-05 2.3736e-05 0)
(3.32694e-05 6.46797e-05 0)
(2.21276e-05 7.57117e-05 0)
(6.65308e-06 4.45705e-05 0)
(4.11585e-06 -5.24165e-05 0)
(7.67574e-06 -7.6874e-05 0)
(-5.7302e-06 -4.29044e-05 0)
(-4.90322e-05 3.19737e-05 0)
(-0.000131802 0.00013502 0)
(-0.000260624 0.000256512 0)
(-0.000439935 0.000389039 0)
(-0.0006724 0.00052702 0)
(-0.000959205 0.000666268 0)
(-0.00130032 0.000803645 0)
(-0.00169474 0.00093681 0)
(-0.00214069 0.00106402 0)
(-0.00263579 0.00118399 0)
(-0.00317716 0.0012958 0)
(-0.0037616 0.00139877 0)
(-0.00438561 0.00149245 0)
(-0.0050455 0.00157654 0)
(-0.00573747 0.00165088 0)
(-0.0064576 0.0017154 0)
(-0.00720195 0.00177011 0)
(-0.00796656 0.0018151 0)
(-0.00874749 0.00185049 0)
(-0.00954084 0.00187645 0)
(-0.0103428 0.00189321 0)
(-0.0111495 0.00190097 0)
(-0.0119574 0.00190002 0)
(-0.0127628 0.00189061 0)
(-0.0135623 0.00187303 0)
(-0.0143526 0.00184759 0)
(-0.0151303 0.00181459 0)
(-0.0158924 0.00177436 0)
(-0.0166359 0.0017272 0)
(-0.0173579 0.00167345 0)
(-0.0180557 0.00161343 0)
(-0.0187267 0.00154747 0)
(-0.0193685 0.0014759 0)
(-0.0199788 0.00139906 0)
(-0.0205553 0.00131728 0)
(-0.0210962 0.00123089 0)
(-0.0215994 0.00114022 0)
(-0.0220632 0.00104562 0)
(-0.0224861 0.000947411 0)
(-0.0228666 0.000845942 0)
(-0.0232033 0.000741549 0)
(-0.0234951 0.000634574 0)
(-0.023741 0.000525361 0)
(-0.0239401 0.000414255 0)
(-0.0240916 0.000301607 0)
(-0.0241951 0.000187772 0)
(-0.02425 7.3107e-05 0)
(-0.0242562 -4.20266e-05 0)
(-0.0242135 -0.000157263 0)
(-0.0241219 -0.000272229 0)
(-0.0239816 -0.000386549 0)
(-0.0237931 -0.000499841 0)
(-0.0235568 -0.00061172 0)
(-0.0232734 -0.000721793 0)
(-0.0229438 -0.000829665 0)
(-0.0225691 -0.000934935 0)
(-0.0221504 -0.0010372 0)
(-0.021689 -0.00113605 0)
(-0.0211867 -0.00123108 0)
(-0.0206449 -0.00132188 0)
(-0.0200657 -0.00140802 0)
(-0.0194511 -0.0014891 0)
(-0.0188033 -0.00156471 0)
(-0.0181248 -0.00163444 0)
(-0.0174181 -0.00169789 0)
(-0.0166859 -0.00175465 0)
(-0.0159311 -0.00180434 0)
(-0.0151568 -0.00184657 0)
(-0.0143663 -0.00188098 0)
(-0.0135627 -0.00190722 0)
(-0.0127497 -0.00192495 0)
(-0.0119309 -0.00193386 0)
(-0.0111099 -0.00193365 0)
(-0.0102906 -0.00192407 0)
(-0.00947692 -0.00190488 0)
(-0.0086729 -0.00187588 0)
(-0.00788258 -0.00183693 0)
(-0.00711005 -0.00178792 0)
(-0.00635941 -0.00172879 0)
(-0.00563476 -0.00165955 0)
(-0.00494014 -0.00158031 0)
(-0.00427951 -0.00149124 0)
(-0.00365669 -0.00139263 0)
(-0.00307532 -0.00128492 0)
(-0.00253879 -0.0011687 0)
(-0.00205018 -0.00104478 0)
(-0.00161214 -0.000914244 0)
(-0.0012268 -0.000778511 0)
(-0.000895637 -0.000639464 0)
(-0.000619292 -0.000499573 0)
(-0.000397403 -0.000362089 0)
(-0.000228363 -0.000231286 0)
(-0.000109064 -0.000112782 0)
(-3.46421e-05 -1.39336e-05 0)
(1.86199e-06 5.57667e-05 0)
(1.04101e-05 8.41839e-05 0)
(4.5864e-06 5.48248e-05 0)
(1.45395e-06 -5.4028e-05 0)
(-7.5898e-06 -6.33227e-05 0)
(-4.62609e-05 -4.95188e-07 0)
(-0.000124657 0.000113588 0)
(-0.000251099 0.00026354 0)
(-0.000431816 0.000437387 0)
(-0.000671005 0.000625794 0)
(-0.000971155 0.000821557 0)
(-0.00133332 0.00101914 0)
(-0.00175735 0.00121428 0)
(-0.00224207 0.00140373 0)
(-0.00278548 0.00158503 0)
(-0.00338491 0.00175632 0)
(-0.00403717 0.0019162 0)
(-0.00473865 0.00206367 0)
(-0.00548541 0.00219801 0)
(-0.00627326 0.00231875 0)
(-0.00709788 0.00242557 0)
(-0.00795479 0.00251835 0)
(-0.00883947 0.00259706 0)
(-0.00974736 0.00266178 0)
(-0.0106739 0.00271265 0)
(-0.0116146 0.00274991 0)
(-0.012565 0.00277382 0)
(-0.0135207 0.00278471 0)
(-0.0144774 0.00278293 0)
(-0.015431 0.00276885 0)
(-0.0163773 0.00274289 0)
(-0.0173125 0.00270547 0)
(-0.0182328 0.00265703 0)
(-0.0191344 0.00259802 0)
(-0.0200139 0.0025289 0)
(-0.0208679 0.00245014 0)
(-0.0216932 0.00236221 0)
(-0.0224868 0.0022656 0)
(-0.0232458 0.00216078 0)
(-0.0239675 0.00204824 0)
(-0.0246492 0.00192846 0)
(-0.0252887 0.00180193 0)
(-0.0258836 0.00166914 0)
(-0.026432 0.00153059 0)
(-0.0269319 0.00138676 0)
(-0.0273816 0.00123815 0)
(-0.0277796 0.00108526 0)
(-0.0281245 0.000928598 0)
(-0.028415 0.000768656 0)
(-0.0286502 0.000605951 0)
(-0.0288292 0.000440995 0)
(-0.0289513 0.000274309 0)
(-0.029016 0.000106418 0)
(-0.0290231 -6.2148e-05 0)
(-0.0289723 -0.000230851 0)
(-0.0288638 -0.000399146 0)
(-0.0286978 -0.000566481 0)
(-0.0284747 -0.000732296 0)
(-0.0281952 -0.000896027 0)
(-0.0278601 -0.0010571 0)
(-0.0274703 -0.00121494 0)
(-0.0270272 -0.00136895 0)
(-0.0265322 -0.00151856 0)
(-0.0259868 -0.00166315 0)
(-0.0253928 -0.00180214 0)
(-0.0247524 -0.00193493 0)
(-0.0240678 -0.00206091 0)
(-0.0233413 -0.00217948 0)
(-0.0225756 -0.00229005 0)
(-0.0217735 -0.00239203 0)
(-0.0209381 -0.00248482 0)
(-0.0200725 -0.00256786 0)
(-0.0191802 -0.00264057 0)
(-0.0182648 -0.00270243 0)
(-0.0173299 -0.00275289 0)
(-0.0163796 -0.00279146 0)
(-0.0154179 -0.00281765 0)
(-0.014449 -0.00283102 0)
(-0.0134773 -0.00283117 0)
(-0.0125073 -0.00281773 0)
(-0.0115435 -0.00279038 0)
(-0.0105906 -0.00274885 0)
(-0.00965319 -0.00269295 0)
(-0.00873614 -0.00262255 0)
(-0.00784415 -0.0025376 0)
(-0.00698191 -0.00243817 0)
(-0.00615408 -0.00232441 0)
(-0.00536516 -0.00219665 0)
(-0.00461953 -0.00205534 0)
(-0.0039213 -0.00190117 0)
(-0.00327431 -0.00173504 0)
(-0.00268201 -0.00155817 0)
(-0.00214738 -0.00137214 0)
(-0.0016728 -0.00117901 0)
(-0.00125992 -0.000981439 0)
(-0.000909534 -0.000782855 0)
(-0.000621361 -0.000587659 0)
(-0.000393884 -0.0004015 0)
(-0.000224123 -0.000231624 0)
(-0.000107402 -8.72971e-05 0)
(-3.70581e-05 1.97712e-05 0)
(-4.23517e-06 7.48365e-05 0)
(2.02158e-06 5.79678e-05 0)
(-1.39722e-06 -4.71963e-05 0)
(-2.4335e-05 -2.83812e-05 0)
(-9.10374e-05 7.40536e-05 0)
(-0.000208118 0.000236765 0)
(-0.000382198 0.000442197 0)
(-0.00061881 0.000676423 0)
(-0.000921636 0.000928375 0)
(-0.00129276 0.00118933 0)
(-0.00173294 0.00145245 0)
(-0.00224176 0.00171236 0)
(-0.00281779 0.00196489 0)
(-0.00345879 0.00220681 0)
(-0.0041618 0.00243563 0)
(-0.0049233 0.00264947 0)
(-0.0057393 0.00284692 0)
(-0.00660549 0.00302698 0)
(-0.00751724 0.00318892 0)
(-0.00846974 0.0033323 0)
(-0.00945804 0.00345688 0)
(-0.0104771 0.00356256 0)
(-0.0115218 0.00364942 0)
(-0.0125871 0.00371761 0)
(-0.013668 0.00376742 0)
(-0.0147593 0.00379916 0)
(-0.0158562 0.00381326 0)
(-0.0169538 0.00381016 0)
(-0.0180475 0.00379037 0)
(-0.0191326 0.00375442 0)
(-0.0202046 0.00370287 0)
(-0.0212592 0.00363631 0)
(-0.0222924 0.00355534 0)
(-0.0233001 0.00346059 0)
(-0.0242784 0.00335267 0)
(-0.0252238 0.00323224 0)
(-0.0261327 0.00309994 0)
(-0.0270019 0.00295643 0)
(-0.0278283 0.00280236 0)
(-0.028609 0.0026384 0)
(-0.0293411 0.0024652 0)
(-0.0300223 0.00228345 0)
(-0.0306501 0.00209381 0)
(-0.0312223 0.00189696 0)
(-0.0317371 0.00169357 0)
(-0.0321926 0.00148433 0)
(-0.0325872 0.00126993 0)
(-0.0329197 0.00105105 0)
(-0.0331888 0.000828403 0)
(-0.0333935 0.000602686 0)
(-0.0335332 0.000374613 0)
(-0.0336071 0.000144903 0)
(-0.033615 -8.5716e-05 0)
(-0.0335567 -0.000316507 0)
(-0.0334324 -0.000546724 0)
(-0.0332422 -0.000775612 0)
(-0.0329867 -0.00100241 0)
(-0.0326666 -0.00122633 0)
(-0.0322829 -0.00144661 0)
(-0.0318367 -0.00166245 0)
(-0.0313295 -0.00187304 0)
(-0.0307627 -0.00207759 0)
(-0.0301384 -0.00227529 0)
(-0.0294586 -0.00246531 0)
(-0.0287255 -0.00264685 0)
(-0.0279418 -0.00281908 0)
(-0.0271102 -0.00298119 0)
(-0.0262336 -0.00313237 0)
(-0.0253154 -0.00327182 0)
(-0.024359 -0.00339875 0)
(-0.0233679 -0.00351238 0)
(-0.0223462 -0.00361194 0)
(-0.0212978 -0.00369672 0)
(-0.0202269 -0.00376599 0)
(-0.0191382 -0.00381909 0)
(-0.0180361 -0.00385538 0)
(-0.0169254 -0.00387428 0)
(-0.0158112 -0.00387523 0)
(-0.0146983 -0.00385778 0)
(-0.0135919 -0.0038215 0)
(-0.0124974 -0.00376606 0)
(-0.0114199 -0.00369122 0)
(-0.0103648 -0.00359684 0)
(-0.00933744 -0.0034829 0)
(-0.00834298 -0.00334952 0)
(-0.00738662 -0.00319696 0)
(-0.0064734 -0.0030257 0)
(-0.00560814 -0.00283642 0)
(-0.00479541 -0.00263007 0)
(-0.00403944 -0.00240793 0)
(-0.00334403 -0.00217166 0)
(-0.00271247 -0.00192342 0)
(-0.00214741 -0.00166594 0)
(-0.00165074 -0.0014027 0)
(-0.00122347 -0.00113812 0)
(-0.000865553 -0.000877726 0)
(-0.000575723 -0.000628519 0)
(-0.000351364 -0.000399269 0)
(-0.000188264 -0.000200976 0)
(-8.03782e-05 -4.72954e-05 0)
(-2.04237e-05 4.48559e-05 0)
(-7.43298e-07 5.29791e-05 0)
(-4.28092e-06 -3.14784e-05 0)
(-4.17015e-05 2.95063e-05 0)
(-0.000137968 0.000183177 0)
(-0.000295931 0.000404494 0)
(-0.000520224 0.000674232 0)
(-0.000815454 0.00097684 0)
(-0.00118457 0.00129975 0)
(-0.00162906 0.00163287 0)
(-0.00214923 0.00196815 0)
(-0.00274428 0.00229915 0)
(-0.00341247 0.00262079 0)
(-0.00415122 0.00292907 0)
(-0.00495726 0.00322085 0)
(-0.00582674 0.00349373 0)
(-0.00675532 0.00374589 0)
(-0.0077383 0.00397597 0)
(-0.00877067 0.00418302 0)
(-0.00984718 0.0043664 0)
(-0.0109624 0.00452574 0)
(-0.012111 0.00466088 0)
(-0.0132872 0.00477184 0)
(-0.0144855 0.00485881 0)
(-0.0157003 0.00492209 0)
(-0.0169262 0.00496208 0)
(-0.0181577 0.00497927 0)
(-0.0193895 0.00497423 0)
(-0.0206163 0.00494758 0)
(-0.0218331 0.00489998 0)
(-0.0230349 0.00483216 0)
(-0.024217 0.00474486 0)
(-0.0253747 0.00463884 0)
(-0.0265037 0.0045149 0)
(-0.0275996 0.00437386 0)
(-0.0286585 0.00421654 0)
(-0.0296764 0.00404377 0)
(-0.0306498 0.0038564 0)
(-0.0315751 0.00365528 0)
(-0.0324491 0.00344128 0)
(-0.0332687 0.00321526 0)
(-0.0340312 0.00297808 0)
(-0.0347339 0.00273063 0)
(-0.0353744 0.00247378 0)
(-0.0359505 0.00220842 0)
(-0.0364603 0.00193544 0)
(-0.0369019 0.00165574 0)
(-0.0372739 0.00137021 0)
(-0.037575 0.00107978 0)
(-0.037804 0.000785356 0)
(-0.0379602 0.000487875 0)
(-0.0380428 0.000188275 0)
(-0.0380516 -0.000112494 0)
(-0.0379863 -0.000413471 0)
(-0.037847 -0.000713683 0)
(-0.0376342 -0.00101215 0)
(-0.0373482 -0.00130786 0)
(-0.03699 -0.00159983 0)
(-0.0365605 -0.00188702 0)
(-0.0360612 -0.0021684 0)
(-0.0354935 -0.00244295 0)
(-0.0348593 -0.00270961 0)
(-0.0341607 -0.00296733 0)
(-0.0333999 -0.00321505 0)
(-0.0325795 -0.00345171 0)
(-0.0317024 -0.00367626 0)
(-0.0307716 -0.00388764 0)
(-0.0297905 -0.00408479 0)
(-0.0287627 -0.0042667 0)
(-0.0276919 -0.00443232 0)
(-0.0265822 -0.00458067 0)
(-0.025438 -0.00471077 0)
(-0.0242638 -0.00482167 0)
(-0.0230641 -0.00491248 0)
(-0.0218441 -0.00498232 0)
(-0.0206087 -0.00503041 0)
(-0.0193633 -0.00505598 0)
(-0.0181133 -0.00505836 0)
(-0.0168643 -0.00503696 0)
(-0.0156219 -0.00499127 0)
(-0.0143919 -0.00492089 0)
(-0.01318 -0.00482553 0)
(-0.0119923 -0.00470507 0)
(-0.0108343 -0.00455949 0)
(-0.00971197 -0.00438901 0)
(-0.00863087 -0.00419402 0)
(-0.00759649 -0.00397516 0)
(-0.00661409 -0.00373336 0)
(-0.00568865 -0.0034699 0)
(-0.00482478 -0.00318645 0)
(-0.00402662 -0.00288516 0)
(-0.00329778 -0.00256878 0)
(-0.00264123 -0.00224075 0)
(-0.00205915 -0.00190538 0)
(-0.00155286 -0.00156805 0)
(-0.00112265 -0.00123541 0)
(-0.000767685 -0.000915694 0)
(-0.000485887 -0.000619073 0)
(-0.000273724 -0.000358067 0)
(-0.000126001 -0.000147961 0)
(-3.72928e-05 -7.38425e-06 0)
(-3.54702e-06 3.93812e-05 0)
(-7.11107e-06 -6.76763e-06 0)
(-5.91765e-05 0.000111059 0)
(-0.000185702 0.000328198 0)
(-0.000385712 0.000618563 0)
(-0.000661736 0.000961707 0)
(-0.0010173 0.00134079 0)
(-0.00145444 0.00174198 0)
(-0.00197394 0.002154 0)
(-0.0025755 0.00256768 0)
(-0.00325783 0.00297562 0)
(-0.00401878 0.00337185 0)
(-0.0048554 0.00375163 0)
(-0.00576406 0.00411118 0)
(-0.00674055 0.00444756 0)
(-0.00778018 0.00475852 0)
(-0.00887787 0.00504236 0)
(-0.0100282 0.00529783 0)
(-0.0112256 0.00552412 0)
(-0.0124642 0.00572069 0)
(-0.0137382 0.00588731 0)
(-0.0150414 0.00602395 0)
(-0.0163679 0.0061308 0)
(-0.0177116 0.00620819 0)
(-0.0190667 0.00625658 0)
(-0.0204272 0.00627655 0)
(-0.0217873 0.00626878 0)
(-0.0231414 0.00623401 0)
(-0.0244839 0.00617306 0)
(-0.0258095 0.00608681 0)
(-0.027113 0.00597616 0)
(-0.0283893 0.00584206 0)
(-0.0296336 0.00568551 0)
(-0.0308413 0.0055075 0)
(-0.032008 0.00530906 0)
(-0.0331294 0.00509124 0)
(-0.0342016 0.00485509 0)
(-0.0352207 0.00460167 0)
(-0.0361832 0.00433207 0)
(-0.0370858 0.00404736 0)
(-0.0379253 0.00374864 0)
(-0.038699 0.00343701 0)
(-0.0394041 0.00311357 0)
(-0.0400383 0.00277944 0)
(-0.0405995 0.00243573 0)
(-0.0410856 0.00208358 0)
(-0.0414951 0.00172412 0)
(-0.0418265 0.0013585 0)
(-0.0420786 0.000987881 0)
(-0.0422504 0.000613428 0)
(-0.0423414 0.000236325 0)
(-0.0423511 -0.000142231 0)
(-0.0422792 -0.000521031 0)
(-0.042126 -0.000898853 0)
(-0.0418918 -0.00127446 0)
(-0.0415771 -0.00164659 0)
(-0.0411829 -0.00201399 0)
(-0.0407103 -0.00237538 0)
(-0.0401608 -0.00272945 0)
(-0.0395361 -0.00307492 0)
(-0.0388381 -0.00341047 0)
(-0.0380692 -0.00373477 0)
(-0.0372318 -0.00404651 0)
(-0.0363288 -0.00434436 0)
(-0.0353633 -0.00462699 0)
(-0.0343386 -0.00489308 0)
(-0.0332584 -0.00514134 0)
(-0.0321266 -0.00537046 0)
(-0.0309473 -0.00557918 0)
(-0.029725 -0.00576625 0)
(-0.0284644 -0.00593046 0)
(-0.0271704 -0.00607065 0)
(-0.0258481 -0.00618569 0)
(-0.0245029 -0.00627453 0)
(-0.0231403 -0.00633618 0)
(-0.0217661 -0.00636971 0)
(-0.0203862 -0.00637431 0)
(-0.0190066 -0.00634926 0)
(-0.0176335 -0.00629395 0)
(-0.0162731 -0.00620792 0)
(-0.0149317 -0.00609085 0)
(-0.0136156 -0.0059426 0)
(-0.012331 -0.00576322 0)
(-0.0110843 -0.005553 0)
(-0.00988144 -0.00531248 0)
(-0.00872838 -0.00504251 0)
(-0.00763077 -0.00474428 0)
(-0.00659398 -0.00441941 0)
(-0.00562299 -0.00406999 0)
(-0.00472231 -0.00369868 0)
(-0.00389591 -0.00330882 0)
(-0.00314708 -0.00290458 0)
(-0.00247838 -0.00249108 0)
(-0.00189152 -0.00207462 0)
(-0.00138725 -0.0016629 0)
(-0.000965276 -0.0012653 0)
(-0.000624216 -0.00089321 0)
(-0.000361371 -0.000560457 0)
(-0.000172548 -0.00028364 0)
(-5.43168e-05 -8.26653e-05 0)
(-6.30556e-06 1.70355e-05 0)
(-9.84926e-06 2.6855e-05 0)
(-7.64556e-05 0.000216439 0)
(-0.000233377 0.000509668 0)
(-0.000475878 0.000879877 0)
(-0.000804361 0.00130579 0)
(-0.00122119 0.00176958 0)
(-0.0017274 0.00225639 0)
(-0.00232291 0.00275392 0)
(-0.00300675 0.00325204 0)
(-0.00377706 0.00374245 0)
(-0.00463118 0.00421838 0)
(-0.00556572 0.00467436 0)
(-0.00657666 0.00510601 0)
(-0.00765939 0.00550987 0)
(-0.00880886 0.00588323 0)
(-0.0100196 0.00622404 0)
(-0.0112859 0.00653079 0)
(-0.0126016 0.00680243 0)
(-0.0139606 0.00703829 0)
(-0.0153567 0.00723803 0)
(-0.0167832 0.00740157 0)
(-0.018234 0.00752909 0)
(-0.0197024 0.00762094 0)
(-0.0211821 0.00767766 0)
(-0.0226669 0.0076999 0)
(-0.0241505 0.00768846 0)
(-0.0256269 0.00764421 0)
(-0.02709 0.00756812 0)
(-0.0285343 0.00746124 0)
(-0.0299539 0.00732465 0)
(-0.0313437 0.00715949 0)
(-0.0326983 0.00696695 0)
(-0.0340127 0.00674825 0)
(-0.0352823 0.00650462 0)
(-0.0365024 0.00623733 0)
(-0.0376687 0.00594766 0)
(-0.0387772 0.00563691 0)
(-0.039824 0.00530638 0)
(-0.0408056 0.00495741 0)
(-0.0417185 0.00459132 0)
(-0.0425597 0.00420945 0)
(-0.0433264 0.00381315 0)
(-0.0440159 0.00340379 0)
(-0.044626 0.00298273 0)
(-0.0451545 0.00255136 0)
(-0.0455997 0.00211106 0)
(-0.0459599 0.00166324 0)
(-0.046234 0.00120932 0)
(-0.0464209 0.000750731 0)
(-0.0465199 0.000288917 0)
(-0.0465306 -0.000174659 0)
(-0.0464527 -0.000638516 0)
(-0.0462863 -0.00110116 0)
(-0.0460319 -0.00156108 0)
(-0.0456901 -0.00201674 0)
(-0.0452619 -0.00246659 0)
(-0.0447485 -0.00290908 0)
(-0.0441515 -0.00334263 0)
(-0.0434727 -0.00376564 0)
(-0.0427142 -0.00417652 0)
(-0.0418786 -0.00457366 0)
(-0.0409685 -0.00495544 0)
(-0.039987 -0.00532026 0)
(-0.0389374 -0.00566649 0)
(-0.0378234 -0.00599255 0)
(-0.0366488 -0.00629684 0)
(-0.0354179 -0.00657779 0)
(-0.0341352 -0.00683387 0)
(-0.0328054 -0.00706356 0)
(-0.0314336 -0.00726541 0)
(-0.0300251 -0.00743801 0)
(-0.0285853 -0.00758001 0)
(-0.0271201 -0.00769013 0)
(-0.0256354 -0.00776719 0)
(-0.0241375 -0.0078101 0)
(-0.0226325 -0.00781788 0)
(-0.021127 -0.00778969 0)
(-0.0196276 -0.00772481 0)
(-0.018141 -0.00762272 0)
(-0.0166738 -0.00748307 0)
(-0.0152329 -0.00730571 0)
(-0.013825 -0.00709077 0)
(-0.0124566 -0.00683862 0)
(-0.0111344 -0.00654996 0)
(-0.00986452 -0.00622585 0)
(-0.00865316 -0.00586778 0)
(-0.00750603 -0.0054777 0)
(-0.00642851 -0.00505813 0)
(-0.00542546 -0.00461226 0)
(-0.00450125 -0.00414402 0)
(-0.00365956 -0.00365828 0)
(-0.0029034 -0.00316094 0)
(-0.00223492 -0.00265918 0)
(-0.00165544 -0.00216165 0)
(-0.00116531 -0.00167875 0)
(-0.000763946 -0.00122295 0)
(-0.00044959 -0.000809144 0)
(-0.000219137 -0.000454963 0)
(-7.11841e-05 -0.000181215 0)
(-8.97794e-06 -1.39999e-05 0)
(-1.24783e-05 6.92014e-05 0)
(-9.33728e-05 0.000345482 0)
(-0.00028046 0.000727616 0)
(-0.000565408 0.00118872 0)
(-0.00094652 0.00170698 0)
(-0.00142496 0.00226386 0)
(-0.00200072 0.0028437 0)
(-0.00267278 0.00343334 0)
(-0.00343939 0.00402182 0)
(-0.00429805 0.00460005 0)
(-0.00524555 0.00516053 0)
(-0.006278 0.00569712 0)
(-0.00739091 0.00620486 0)
(-0.00857927 0.00667978 0)
(-0.00983762 0.00711875 0)
(-0.0111601 0.00751938 0)
(-0.0125406 0.00787986 0)
(-0.0139727 0.00819893 0)
(-0.0154498 0.00847576 0)
(-0.0169653 0.00870991 0)
(-0.0185122 0.00890126 0)
(-0.0200839 0.00904995 0)
(-0.0216735 0.00915638 0)
(-0.0232742 0.00922113 0)
(-0.0248794 0.00924496 0)
(-0.0264824 0.00922876 0)
(-0.0280768 0.00917355 0)
(-0.0296564 0.00908047 0)
(-0.0312148 0.00895071 0)
(-0.0327463 0.00878557 0)
(-0.0342451 0.00858639 0)
(-0.0357056 0.00835456 0)
(-0.0371225 0.00809151 0)
(-0.0384907 0.00779872 0)
(-0.0398054 0.00747769 0)
(-0.041062 0.00712993 0)
(-0.0422561 0.006757 0)
(-0.0433836 0.00636045 0)
(-0.0444407 0.00594185 0)
(-0.0454238 0.00550281 0)
(-0.0463297 0.00504491 0)
(-0.0471552 0.00456978 0)
(-0.0478976 0.00407903 0)
(-0.0485545 0.0035743 0)
(-0.0491235 0.00305726 0)
(-0.0496029 0.00252955 0)
(-0.0499908 0.00199287 0)
(-0.0502861 0.0014489 0)
(-0.0504875 0.000899359 0)
(-0.0505943 0.000345979 0)
(-0.0506061 -0.000209492 0)
(-0.0505226 -0.000765285 0)
(-0.0503439 -0.00131961 0)
(-0.0500704 -0.00187066 0)
(-0.049703 -0.00241661 0)
(-0.0492425 -0.00295561 0)
(-0.0486903 -0.00348579 0)
(-0.0480481 -0.00400527 0)
(-0.0473179 -0.00451216 0)
(-0.0465019 -0.00500454 0)