/*--------------------------------*- C++ -*----------------------------------*\
| =========                 |                                                 |
| \\      /  F ield         | OpenFOAM: The Open Source CFD Toolbox           |
|  \\    /   O peration     | Version:  2212                                  |
|   \\  /    A nd           | Website:  www.openfoam.com                      |
|    \\/     M anipulation  |                                                 |
\*---------------------------------------------------------------------------*/
FoamFile
{
    version     2.0;
    format      ascii;
    arch        "LSB;label=32;scalar=64";
    class       surfaceScalarField;
    location    "0.015";
    object      phi_0;
}
// * * * * * * * * * * * * * * * * * * * * * * * * * * * * * * * * * * * * * //

dimensions      [0 3 -1 0 0 0 0];

oriented        oriented;

internalField   nonuniform List<scalar> 
19800
(
6.24676e-11
-6.24295e-11
1.51394e-10
-8.89201e-11
1.99078e-10
-4.76895e-11
1.91028e-10
8.04429e-12
1.17016e-10
7.40168e-11
-3.06904e-11
1.47709e-10
-2.54878e-10
2.24181e-10
-5.54805e-10
2.99935e-10
-9.27169e-10
3.72363e-10
-1.36712e-09
4.39954e-10
-1.86901e-09
5.01896e-10
-2.42682e-09
5.57821e-10
-3.03446e-09
6.07643e-10
-3.68576e-09
6.51306e-10
-4.3747e-09
6.88937e-10
-5.09553e-09
7.20835e-10
-5.84272e-09
7.47198e-10
-6.61111e-09
7.684e-10
-7.39576e-09
7.84655e-10
-8.19192e-09
7.96152e-10
-8.99511e-09
8.03172e-10
-9.80122e-09
8.06103e-10
-1.06064e-08
8.05189e-10
-1.14072e-08
8.00745e-10
-1.22002e-08
7.93036e-10
-1.29824e-08
7.82242e-10
-1.3751e-08
7.68558e-10
-1.45033e-08
7.52253e-10
-1.52368e-08
7.33543e-10
-1.59494e-08
7.12558e-10
-1.66389e-08
6.89485e-10
-1.73034e-08
6.64519e-10
-1.79412e-08
6.37833e-10
-1.85508e-08
6.09543e-10
-1.91305e-08
5.79775e-10
-1.96792e-08
5.48714e-10
-2.01957e-08
5.16464e-10
-2.06788e-08
4.83104e-10
-2.11275e-08
4.48722e-10
-2.15409e-08
4.13413e-10
-2.19182e-08
3.77283e-10
-2.22586e-08
3.40391e-10
-2.25614e-08
3.02824e-10
-2.28262e-08
2.64709e-10
-2.30523e-08
2.26105e-10
-2.32393e-08
1.8704e-10
-2.33869e-08
1.47563e-10
-2.34946e-08
1.07759e-10
-2.35623e-08
6.77174e-11
-2.35899e-08
2.75123e-11
-2.35771e-08
-1.27965e-11
-2.35239e-08
-5.31671e-11
-2.34303e-08
-9.35466e-11
-2.32965e-08
-1.3384e-10
-2.31225e-08
-1.73967e-10
-2.29087e-08
-2.13881e-10
-2.26551e-08
-2.5352e-10
-2.23624e-08
-2.92793e-10
-2.20308e-08
-3.31593e-10
-2.1661e-08
-3.6981e-10
-2.12536e-08
-4.07372e-10
-2.08094e-08
-4.44207e-10
-2.03292e-08
-4.80185e-10
-1.9814e-08
-5.15164e-10
-1.9265e-08
-5.49043e-10
-1.86833e-08
-5.81716e-10
-1.80702e-08
-6.13037e-10
-1.74274e-08
-6.42852e-10
-1.67564e-08
-6.71008e-10
-1.60591e-08
-6.97335e-10
-1.53374e-08
-7.21658e-10
-1.45936e-08
-7.43819e-10
-1.38299e-08
-7.63649e-10
-1.3049e-08
-7.80911e-10
-1.22537e-08
-7.95337e-10
-1.1447e-08
-8.06713e-10
-1.06321e-08
-8.14871e-10
-9.81248e-09
-8.19607e-10
-8.99185e-09
-8.20636e-10
-8.1742e-09
-8.17659e-10
-7.3638e-09
-8.10397e-10
-6.56524e-09
-7.98567e-10
-5.78337e-09
-7.81871e-10
-5.02334e-09
-7.60033e-10
-4.29051e-09
-7.32814e-10
-3.59053e-09
-6.99983e-10
-2.92925e-09
-6.61284e-10
-2.31277e-09
-6.16482e-10
-1.74735e-09
-5.65425e-10
-1.23932e-09
-5.08034e-10
-7.95018e-10
-4.44303e-10
-4.20624e-10
-3.74394e-10
-1.21846e-10
-2.98777e-10
9.65842e-11
-2.18429e-10
2.31733e-10
-1.3515e-10
2.83851e-10
-5.21211e-11
2.58905e-10
2.49463e-11
1.73377e-10
8.55392e-11
6.39033e-11
1.09488e-10
6.3915e-11
1.25391e-10
-1.87813e-10
2.57891e-10
-2.2143e-10
2.79705e-10
-6.94823e-11
1.46389e-10
1.41349e-10
-1.67994e-10
3.88402e-10
-6.78296e-10
6.58002e-10
-1.38972e-09
9.3561e-10
-2.29981e-09
1.21002e-09
-3.40075e-09
1.47331e-09
-4.68118e-09
1.72039e-09
-6.12727e-09
1.94799e-09
-7.72402e-09
2.15458e-09
-9.45577e-09
2.3394e-09
-1.13067e-08
2.50222e-09
-1.32611e-08
2.6434e-09
-1.53038e-08
2.76348e-09
-1.74198e-08
2.86318e-09
-1.95949e-08
2.94352e-09
-2.18155e-08
3.0053e-09
-2.40688e-08
3.04944e-09
-2.63426e-08
3.07699e-09
-2.86255e-08
3.08895e-09
-3.09066e-08
3.0863e-09
-3.31759e-08
3.07011e-09
-3.54242e-08
3.04128e-09
-3.76425e-08
3.0006e-09
-3.98229e-08
2.94891e-09
-4.19577e-08
2.88709e-09
-4.404e-08
2.81587e-09
-4.60634e-08
2.73593e-09
-4.80219e-08
2.64798e-09
-4.99101e-08
2.55267e-09
-5.17228e-08
2.45058e-09
-5.34556e-08
2.34228e-09
-5.51041e-08
2.22829e-09
-5.66645e-08
2.10914e-09
-5.81333e-08
1.98528e-09
-5.95073e-08
1.8571e-09
-6.07836e-08
1.72499e-09
-6.19595e-08
1.58932e-09
-6.30327e-08
1.45045e-09
-6.4001e-08
1.3087e-09
-6.48625e-08
1.1644e-09
-6.56157e-08
1.01786e-09
-6.62589e-08
8.69367e-10
-6.67911e-08
7.19167e-10
-6.7211e-08
5.67484e-10
-6.75178e-08
4.14575e-10
-6.77109e-08
2.60758e-10
-6.77896e-08
1.06289e-10
-6.77538e-08
-4.86411e-11
-6.76032e-08
-2.03788e-10
-6.73378e-08
-3.58873e-10
-6.6958e-08
-5.13633e-10
-6.64642e-08
-6.67792e-10
-6.5857e-08
-8.21073e-10
-6.51374e-08
-9.7319e-10
-6.43063e-08
-1.12383e-09
-6.33653e-08
-1.27266e-09
-6.23158e-08
-1.41929e-09
-6.11598e-08
-1.56339e-09
-5.98994e-08
-1.70458e-09
-5.85372e-08
-1.84243e-09
-5.70759e-08
-1.97647e-09
-5.55187e-08
-2.10623e-09
-5.38691e-08
-2.23126e-09
-5.21312e-08
-2.35102e-09
-5.03091e-08
-2.4649e-09
-4.84078e-08
-2.57232e-09
-4.64325e-08
-2.67266e-09
-4.43889e-08
-2.76527e-09
-4.22832e-08
-2.84948e-09
-4.01223e-08
-2.92454e-09
-3.79135e-08
-2.9897e-09
-3.56648e-08
-3.04412e-09
-3.33845e-08
-3.08697e-09
-3.1082e-08
-3.11739e-09
-2.87671e-08
-3.13449e-09
-2.64504e-08
-3.13737e-09
-2.4143e-08
-3.12504e-09
-2.18569e-08
-3.09647e-09
-1.96048e-08
-3.05066e-09
-1.74e-08
-2.98667e-09
-1.52565e-08
-2.90357e-09
-1.31888e-08
-2.80048e-09
-1.12123e-08
-2.67655e-09
-9.34248e-09
-2.53106e-09
-7.5955e-09
-2.36347e-09
-5.98746e-09
-2.17347e-09
-4.53439e-09
-1.96111e-09
-3.25178e-09
-1.72691e-09
-2.15399e-09
-1.47219e-09
-1.25329e-09
-1.19949e-09
-5.58581e-10
-9.13132e-10
-7.34074e-11
-6.20315e-10
2.07203e-10
-3.3273e-10
3.01427e-10
-6.92809e-11
2.47141e-10
1.39805e-10
1.10028e-10
2.46566e-10
1.73961e-10
1.19854e-10
-3.07673e-10
1.98848e-10
-3.00401e-10
9.70881e-11
3.22755e-11
-2.48521e-10
4.86963e-10
-8.74073e-10
1.01395e-09
-1.79802e-09
1.58195e-09
-3.026e-09
2.16359e-09
-4.55375e-09
2.73778e-09
-6.36997e-09
3.28955e-09
-8.45824e-09
3.80867e-09
-1.07989e-08
4.28863e-09
-1.337e-08
4.72571e-09
-1.61486e-08
5.11794e-09
-1.9111e-08
5.46467e-09
-2.22338e-08
5.7662e-09
-2.54938e-08
6.02345e-09
-2.88683e-08
6.23776e-09
-3.23356e-08
6.41076e-09
-3.58746e-08
6.54427e-09
-3.94652e-08
6.64011e-09
-4.30886e-08
6.70035e-09
-4.67267e-08
6.727e-09
-5.03625e-08
6.72215e-09
-5.39802e-08
6.68781e-09
-5.75649e-08
6.62592e-09
-6.11026e-08
6.53829e-09
-6.45804e-08
6.42674e-09
-6.79863e-08
6.29299e-09
-7.13091e-08
6.13867e-09
-7.45385e-08
5.96531e-09
-7.76649e-08
5.77438e-09
-8.06795e-08
5.5673e-09
-8.35743e-08
5.34533e-09
-8.63417e-08
5.10968e-09
-8.89749e-08
4.86154e-09
-9.14678e-08
4.60198e-09
-9.38145e-08
4.33201e-09
-9.60099e-08
4.05253e-09
-9.80494e-08
3.76441e-09
-9.99285e-08
3.46849e-09
-1.01644e-07
3.16553e-09
-1.03191e-07
2.85624e-09
-1.04568e-07
2.54136e-09
-1.05772e-07
2.22156e-09
-1.068e-07
1.89745e-09
-1.0765e-07
1.56957e-09
-1.08321e-07
1.23853e-09
-1.08812e-07
9.04879e-10
-1.0912e-07
5.69185e-10
-1.09246e-07
2.3202e-10
-1.09188e-07
-1.06082e-10
-1.08948e-07
-4.44596e-10
-1.08523e-07
-7.82954e-10
-1.07917e-07
-1.12055e-09
-1.07128e-07
-1.45678e-09
-1.06158e-07
-1.79105e-09
-1.05008e-07
-2.12273e-09
-1.03681e-07
-2.45109e-09
-1.02178e-07
-2.77539e-09
-1.00503e-07
-3.0949e-09
-9.86571e-08
-3.40883e-09
-9.66454e-08
-3.71629e-09
-9.44714e-08
-4.01635e-09
-9.21398e-08
-4.30808e-09
-8.96557e-08
-4.59043e-09
-8.70246e-08
-4.86231e-09
-8.42531e-08
-5.12255e-09
-8.1348e-08
-5.36995e-09
-7.83171e-08
-5.60321e-09
-7.51688e-08
-5.82094e-09
-7.19124e-08
-6.02172e-09
-6.85578e-08
-6.20408e-09
-6.51159e-08
-6.36647e-09
-6.15984e-08
-6.5072e-09
-5.8018e-08
-6.6245e-09
-5.43883e-08
-6.7166e-09
-5.07241e-08
-6.78167e-09
-4.70407e-08
-6.81781e-09
-4.33551e-08
-6.82303e-09
-3.96848e-08
-6.79531e-09
-3.60486e-08
-6.73265e-09
-3.24663e-08
-6.63304e-09
-2.89584e-08
-6.49452e-09
-2.55467e-08
-6.31524e-09
-2.22537e-08
-6.09348e-09
-1.91026e-08
-5.82771e-09
-1.6117e-08
-5.51668e-09
-1.33209e-08
-5.15956e-09
-1.07382e-08
-4.75613e-09
-8.39227e-09
-4.30704e-09
-6.3051e-09
-3.81408e-09
-4.49652e-09
-3.28079e-09
-2.98279e-09
-2.7132e-09
-1.77485e-09
-2.12108e-09
-8.75603e-10
-1.51957e-09
-2.76429e-10
-9.31897e-10
4.76124e-11
-3.93297e-10
1.43511e-10
4.39132e-11
8.71367e-11
3.02936e-10
2.61097e-10
5.59797e-11
-3.63661e-10
-4.42873e-12
-2.40004e-10
-3.15634e-10
3.43487e-10
-9.48901e-10
1.12021e-09
-1.94435e-09
2.0094e-09
-3.32245e-09
2.96005e-09
-5.08883e-09
3.92996e-09
-7.23788e-09
4.88683e-09
-9.75564e-09
5.80731e-09
-1.26222e-08
6.67519e-09
-1.58132e-08
7.47967e-09
-1.93017e-08
8.21422e-09
-2.30589e-08
8.87517e-09
-2.70552e-08
9.46098e-09
-3.12607e-08
9.97169e-09
-3.56457e-08
1.04084e-08
-4.01809e-08
1.0773e-08
-4.4838e-08
1.10679e-08
-4.95898e-08
1.1296e-08
-5.441e-08
1.14603e-08
-5.92736e-08
1.1564e-08
-6.4157e-08
1.16103e-08
-6.90375e-08
1.16027e-08
-7.38941e-08
1.15444e-08
-7.87069e-08
1.14387e-08
-8.34572e-08
1.12886e-08
-8.81278e-08
1.10974e-08
-9.27025e-08
1.08677e-08
-9.71663e-08
1.06024e-08
-1.01505e-07
1.03042e-08
-1.05706e-07
9.97555e-09
-1.09758e-07
9.61881e-09
-1.13649e-07
9.23622e-09
-1.17369e-07
8.82988e-09
-1.20909e-07
8.40181e-09
-1.24261e-07
7.95383e-09
-1.27417e-07
7.48766e-09
-1.30369e-07
7.00496e-09
-1.33112e-07
6.50723e-09
-1.35639e-07
5.99588e-09
-1.37946e-07
5.47229e-09
-1.40028e-07
4.93772e-09
-1.4188e-07
4.39339e-09
-1.43499e-07
3.84044e-09
-1.44881e-07
3.27998e-09
-1.46025e-07
2.71303e-09
-1.46927e-07
2.14057e-09
-1.47585e-07
1.56361e-09
-1.47999e-07
9.8317e-10
-1.48167e-07
4.00156e-10
-1.48089e-07
-1.84501e-10
-1.47764e-07
-7.69779e-10
-1.47192e-07
-1.35466e-09
-1.46375e-07
-1.9382e-09
-1.45312e-07
-2.51934e-09
-1.44006e-07
-3.09696e-09
-1.42459e-07
-3.66994e-09
-1.40673e-07
-4.23712e-09
-1.38651e-07
-4.79722e-09
-1.36397e-07
-5.34888e-09
-1.33915e-07
-5.89072e-09
-1.3121e-07
-6.42131e-09
-1.28287e-07
-6.93901e-09
-1.25153e-07
-7.44212e-09
-1.21815e-07
-7.9289e-09
-1.1828e-07
-8.39748e-09
-1.14556e-07
-8.84586e-09
-1.10654e-07
-9.27192e-09
-1.06584e-07
-9.67341e-09
-1.02357e-07
-1.0048e-08
-9.79857e-08
-1.03933e-08
-9.34831e-08
-1.07067e-08
-8.88642e-08
-1.09854e-08
-8.41447e-08
-1.12267e-08
-7.93415e-08
-1.14276e-08
-7.4473e-08
-1.15852e-08
-6.95585e-08
-1.16961e-08
-6.46191e-08
-1.17573e-08
-5.96767e-08
-1.17654e-08
-5.47548e-08
-1.17172e-08
-4.98781e-08
-1.16094e-08
-4.50725e-08
-1.14386e-08
-4.03652e-08
-1.12019e-08
-3.57842e-08
-1.08962e-08
-3.13587e-08
-1.05189e-08
-2.71186e-08
-1.00678e-08
-2.30941e-08
-9.54117e-09
-1.93156e-08
-8.9381e-09
-1.58129e-08
-8.25882e-09
-1.26149e-08
-7.50506e-09
-9.74842e-09
-6.68055e-09
-7.23725e-09
-5.79195e-09
-5.10043e-09
-4.85002e-09
-3.35029e-09
-3.87122e-09
-1.98985e-09
-2.88002e-09
-1.00944e-09
-1.91231e-09
-3.82654e-10
-1.02008e-09
-6.17993e-11
-2.76928e-10
2.78135e-11
2.13322e-10
2.88902e-10
-3.02484e-11
-3.33411e-10
-2.78625e-10
8.37062e-12
-8.5611e-10
9.20968e-10
-1.82985e-09
2.09394e-09
-3.23878e-09
3.41833e-09
-5.1022e-09
4.82346e-09
-7.42436e-09
6.25213e-09
-1.0198e-08
7.66043e-09
-1.34068e-08
9.01611e-09
-1.70278e-08
1.02963e-08
-2.10335e-08
1.14854e-08
-2.53926e-08
1.25733e-08
-3.00719e-08
1.35544e-08
-3.50367e-08
1.44258e-08
-4.0252e-08
1.5187e-08
-4.56828e-08
1.58391e-08
-5.12943e-08
1.63845e-08
-5.70529e-08
1.68264e-08
-6.29255e-08
1.71687e-08
-6.88808e-08
1.74156e-08
-7.48884e-08
1.75716e-08
-8.09197e-08
1.76416e-08
-8.69473e-08
1.76303e-08
-9.29453e-08
1.75424e-08
-9.88895e-08
1.73828e-08
-1.04757e-07
1.71561e-08
-1.10526e-07
1.68668e-08
-1.16178e-07
1.65192e-08
-1.21693e-07
1.61175e-08
-1.27054e-07
1.56656e-08
-1.32246e-07
1.51673e-08
-1.37253e-07
1.46261e-08
-1.42063e-07
1.40455e-08
-1.46661e-07
1.34286e-08
-1.51038e-07
1.27784e-08
-1.55182e-07
1.20979e-08
-1.59084e-07
1.13894e-08
-1.62735e-07
1.06557e-08
-1.66126e-07
9.89888e-09
-1.69252e-07
9.12126e-09
-1.72104e-07
8.32487e-09
-1.74678e-07
7.51166e-09
-1.76968e-07
6.68352e-09
-1.7897e-07
5.84218e-09
-1.80679e-07
4.98926e-09
-1.82093e-07
4.12641e-09
-1.83207e-07
3.25522e-09
-1.84021e-07
2.37717e-09
-1.84531e-07
1.49376e-09
-1.84738e-07
6.06494e-10
-1.84639e-07
-2.83172e-10
-1.84235e-07
-1.17377e-09
-1.83526e-07
-2.06373e-09
-1.82513e-07
-2.95148e-09
-1.81197e-07
-3.83544e-09
-1.7958e-07
-4.71398e-09
-1.77664e-07
-5.58535e-09
-1.75454e-07
-6.44766e-09
-1.72952e-07
-7.29902e-09
-1.70163e-07
-8.13744e-09
-1.67093e-07
-8.9608e-09
-1.63748e-07
-9.76677e-09
-1.60134e-07
-1.05529e-08
-1.56259e-07
-1.13168e-08
-1.52132e-07
-1.20557e-08
-1.47763e-07
-1.27667e-08
-1.43162e-07
-1.34468e-08
-1.38341e-07
-1.40929e-08
-1.33313e-07
-1.47015e-08
-1.28092e-07
-1.52691e-08
-1.22693e-07
-1.5792e-08
-1.17134e-07
-1.62664e-08
-1.11431e-07
-1.66881e-08
-1.05605e-07
-1.70529e-08
-9.9676e-08
-1.73565e-08
-9.3667e-08
-1.75942e-08
-8.76016e-08
-1.77615e-08
-8.15052e-08
-1.78536e-08
-7.54049e-08
-1.78657e-08
-6.93291e-08
-1.7793e-08
-6.33077e-08
-1.76307e-08
-5.73721e-08
-1.73743e-08
-5.15548e-08
-1.70192e-08
-4.58896e-08
-1.65614e-08
-4.04111e-08
-1.59974e-08
-3.51546e-08
-1.53243e-08
-3.01559e-08
-1.45399e-08
-2.54504e-08
-1.36436e-08
-2.10727e-08
-1.26365e-08
-1.70561e-08
-1.15217e-08
-1.34312e-08
-1.03055e-08
-1.02248e-08
-8.99835e-09
-7.45842e-09
-7.61643e-09
-5.14614e-09
-6.1835e-09
-3.29241e-09
-4.73374e-09
-1.88917e-09
-3.31555e-09
-9.12738e-10
-1.99653e-09
-3.20586e-10
-8.69067e-10
-4.77222e-11
-5.95488e-11
2.41181e-10
-1.20269e-10
-2.13142e-10
-5.77454e-10
4.6554e-10
-1.45167e-09
1.79518e-09
-2.79761e-09
3.43987e-09
-4.6476e-09
5.26831e-09
-7.01661e-09
7.19248e-09
-9.90571e-09
9.14123e-09
-1.33049e-08
1.10596e-08
-1.71952e-08
1.29065e-08
-2.15511e-08
1.46522e-08
-2.63417e-08
1.6276e-08
-3.15325e-08
1.77641e-08
-3.70864e-08
1.91083e-08
-4.29648e-08
2.03042e-08
-4.91283e-08
2.13505e-08
-5.55373e-08
2.22482e-08
-6.21528e-08
2.3e-08
-6.89361e-08
2.36098e-08
-7.585e-08
2.40825e-08
-8.2858e-08
2.44236e-08
-8.99256e-08
2.46392e-08
-9.70194e-08
2.47354e-08
-1.04108e-07
2.47188e-08
-1.11161e-07
2.45957e-08
-1.18151e-07
2.43725e-08
-1.2505e-07
2.40557e-08
-1.31835e-07
2.36513e-08
-1.38481e-07
2.31654e-08
-1.44967e-07
2.26035e-08
-1.51273e-07
2.19712e-08
-1.57379e-07
2.12738e-08
-1.63269e-07
2.05162e-08
-1.68927e-07
1.9703e-08
-1.74337e-07
1.88388e-08
-1.79486e-07
1.79277e-08
-1.84362e-07
1.69737e-08
-1.88953e-07
1.59804e-08
-1.93249e-07
1.49514e-08
-1.9724e-07
1.38899e-08
-2.00918e-07
1.2799e-08
-2.04274e-07
1.16816e-08
-2.07303e-07
1.05405e-08
-2.09998e-07
9.3782e-09
-2.12353e-07
8.19729e-09
-2.14364e-07
7.00009e-09
-2.16026e-07
5.78886e-09
-2.17337e-07
4.56584e-09
-2.18293e-07
3.33322e-09
-2.18892e-07
2.09311e-09
-2.19133e-07
8.47547e-10
-2.19015e-07
-4.01348e-10
-2.18538e-07
-1.65137e-09
-2.17701e-07
-2.90039e-09
-2.16506e-07
-4.14628e-09
-2.14955e-07
-5.38674e-09
-2.1305e-07
-6.61934e-09
-2.10793e-07
-7.84165e-09
-2.0819e-07
-9.05115e-09
-2.05244e-07
-1.02451e-08
-2.0196e-07
-1.14207e-08
-1.98346e-07
-1.25748e-08
-1.94409e-07
-1.37044e-08
-1.90156e-07
-1.4806e-08
-1.85596e-07
-1.58761e-08
-1.80741e-07
-1.69109e-08
-1.75601e-07
-1.79065e-08
-1.7019e-07
-1.88585e-08
-1.6452e-07
-1.97626e-08
-1.58607e-07
-2.0614e-08
-1.52469e-07
-2.14079e-08
-1.46122e-07
-2.2139e-08
-1.39586e-07
-2.2802e-08
-1.32883e-07
-2.33912e-08
-1.26035e-07
-2.39008e-08
-1.19067e-07
-2.43246e-08
-1.12005e-07
-2.46566e-08
-1.04876e-07
-2.48903e-08
-9.77101e-08
-2.50193e-08
-9.05388e-08
-2.50371e-08
-8.33946e-08
-2.49372e-08
-7.63121e-08
-2.47132e-08
-6.93273e-08
-2.43591e-08
-6.24774e-08
-2.38691e-08
-5.5801e-08
-2.32379e-08
-4.93373e-08
-2.24611e-08
-4.31264e-08
-2.15352e-08
-3.72084e-08
-2.0458e-08
-3.16228e-08
-1.92292e-08
-2.64084e-08
-1.78509e-08
-2.16019e-08
-1.63281e-08
-1.72372e-08
-1.46702e-08
-1.3344e-08
-1.28916e-08
-9.9463e-09
-1.10141e-08
-7.06078e-09
-9.06902e-09
-4.69478e-09
-7.09974e-09
-2.84419e-09
-5.16615e-09
-1.49132e-09
-3.3494e-09
-6.02997e-10
-1.75738e-09
-1.29018e-10
-5.33531e-10
1.1217e-10
-2.07762e-10
-5.38859e-12
-8.78467e-10
1.13624e-09
-2.06143e-09
2.97814e-09
-3.79437e-09
5.17281e-09
-6.09915e-09
7.5731e-09
-8.98362e-09
1.00769e-08
-1.24438e-08
1.26014e-08
-1.64657e-08
1.50815e-08
-2.10273e-08
1.7468e-08
-2.60997e-08
1.97246e-08
-3.16492e-08
2.18255e-08
-3.76382e-08
2.37531e-08
-4.40262e-08
2.54964e-08
-5.07712e-08
2.70492e-08
-5.78302e-08
2.84094e-08
-6.51597e-08
2.95777e-08
-7.27167e-08
3.0557e-08
-8.04587e-08
3.13518e-08
-8.83444e-08
3.19681e-08
-9.63335e-08
3.24127e-08
-1.04387e-07
3.2693e-08
-1.12469e-07
3.28169e-08
-1.20543e-07
3.27925e-08
-1.28575e-07
3.26281e-08
-1.36534e-07
3.23318e-08
-1.44391e-07
3.1912e-08
-1.52116e-07
3.13764e-08
-1.59683e-07
3.07328e-08
-1.67068e-07
2.99887e-08
-1.74248e-07
2.91513e-08
-1.81202e-07
2.82273e-08
-1.87909e-07
2.72234e-08
-1.94352e-07
2.61457e-08
-2.00513e-07
2.50001e-08
-2.06377e-07
2.3792e-08
-2.1193e-07
2.25268e-08
-2.17159e-07
2.12093e-08
-2.22052e-07
1.98441e-08
-2.26598e-07
1.84356e-08
-2.30787e-07
1.69879e-08
-2.3461e-07
1.55048e-08
-2.38059e-07
1.39901e-08
-2.41128e-07
1.24471e-08
-2.4381e-07
1.08793e-08
-2.461e-07
9.28967e-09
-2.47993e-07
7.68144e-09
-2.49484e-07
6.05755e-09
-2.50572e-07
4.4208e-09
-2.51253e-07
2.77406e-09
-2.51525e-07
1.12022e-09
-2.51389e-07
-5.37926e-10
-2.50843e-07
-2.19758e-09
-2.49887e-07
-3.85581e-09
-2.48524e-07
-5.50967e-09
-2.46755e-07
-7.15611e-09
-2.44582e-07
-8.79202e-09
-2.42009e-07
-1.04141e-08
-2.39042e-07
-1.20189e-08
-2.35684e-07
-1.36028e-08
-2.31943e-07
-1.51621e-08
-2.27825e-07
-1.66927e-08
-2.23339e-07
-1.81905e-08
-2.18494e-07
-1.96509e-08
-2.13301e-07
-2.10692e-08
-2.07771e-07
-2.24406e-08
-2.01918e-07
-2.37596e-08
-1.95756e-07
-2.50206e-08
-1.893e-07
-2.62179e-08
-1.82569e-07
-2.73452e-08
-1.75581e-07
-2.83961e-08
-1.68356e-07
-2.93637e-08
-1.60917e-07
-3.0241e-08
-1.53288e-07
-3.10206e-08
-1.45494e-07
-3.16948e-08
-1.37563e-07
-3.22557e-08
-1.29524e-07
-3.26953e-08
-1.21409e-07
-3.30054e-08
-1.13251e-07
-3.31776e-08
-1.05084e-07
-3.32036e-08
-9.69463e-08
-3.30751e-08
-8.88754e-08
-3.27841e-08
-8.09114e-08
-3.2323e-08
-7.30959e-08
-3.16846e-08
-6.54712e-08
-3.08626e-08
-5.80808e-08
-2.98515e-08
-5.09685e-08
-2.86475e-08
-4.41781e-08
-2.72483e-08
-3.7753e-08
-2.56543e-08
-3.17352e-08
-2.38687e-08
-2.61647e-08
-2.18987e-08
-2.10783e-08
-1.97566e-08
-1.65087e-08
-1.74612e-08
-1.24829e-08
-1.50399e-08
-9.02108e-09
-1.25308e-08
-6.13486e-09
-9.98596e-09
-3.82598e-09
-7.47503e-09
-2.08507e-09
-5.0903e-09
-8.90899e-10
-2.95155e-09
-2.10512e-10
-1.21391e-09
-9.83431e-11
-2.90313e-10
2.8493e-10
-1.17088e-09
2.0168e-09
-2.66291e-09
4.47015e-09
-4.78548e-09
7.29539e-09
-7.5478e-09
1.03354e-08
-1.09487e-08
1.34778e-08
-1.49775e-08
1.66302e-08
-1.96153e-08
1.97193e-08
-2.48358e-08
2.26886e-08
-3.06069e-08
2.54957e-08
-3.68914e-08
2.81101e-08
-4.36488e-08
3.05104e-08
-5.08355e-08
3.26831e-08
-5.84064e-08
3.46201e-08
-6.63152e-08
3.63182e-08
-7.45151e-08
3.77777e-08
-8.29598e-08
3.90016e-08
-9.16032e-08
3.99953e-08
-1.00401e-07
4.07655e-08
-1.09308e-07
4.13204e-08
-1.18284e-07
4.16688e-08
-1.27287e-07
4.18204e-08
-1.3628e-07
4.17849e-08
-1.45225e-07
4.15727e-08
-1.54086e-07
4.11937e-08
-1.62833e-07
4.06581e-08
-1.71432e-07
3.99758e-08
-1.79856e-07
3.91564e-08
-1.88076e-07
3.82092e-08
-1.96068e-07
3.71433e-08
-2.03808e-07
3.59672e-08
-2.11274e-07
3.46892e-08
-2.18445e-07
3.33171e-08
-2.25304e-07
3.18583e-08
-2.31831e-07
3.03198e-08
-2.38013e-07
2.87083e-08
-2.43833e-07
2.70299e-08
-2.4928e-07
2.52906e-08
-2.5434e-07
2.34957e-08
-2.59003e-07
2.16508e-08
-2.63259e-07
1.97606e-08
-2.67098e-07
1.78298e-08
-2.70514e-07
1.58629e-08
-2.73499e-07
1.38642e-08
-2.76047e-07
1.18377e-08
-2.78153e-07
9.78727e-09
-2.79812e-07
7.71681e-09
-2.81021e-07
5.63002e-09
-2.81778e-07
3.53055e-09
-2.8208e-07
1.42198e-09
-2.81925e-07
-6.92016e-10
-2.81315e-07
-2.80775e-09
-2.8025e-07
-4.92155e-09
-2.7873e-07
-7.02967e-09
-2.76758e-07
-9.12817e-09
-2.74337e-07
-1.1213e-08
-2.71471e-07
-1.32799e-08
-2.68165e-07
-1.53247e-08
-2.64425e-07
-1.73425e-08
-2.60258e-07
-1.93288e-08
-2.55673e-07
-2.12782e-08
-2.50678e-07
-2.31855e-08
-2.45284e-07
-2.50449e-08
-2.39503e-07
-2.68505e-08
-2.33347e-07
-2.8596e-08
-2.26832e-07
-3.02745e-08
-2.19974e-07
-3.18791e-08
-2.12789e-07
-3.34023e-08
-2.05298e-07
-3.48363e-08
-1.97521e-07
-3.61729e-08
-1.89482e-07
-3.74035e-08
-1.81204e-07
-3.85191e-08
-1.72714e-07
-3.95106e-08
-1.6404e-07
-4.03683e-08
-1.55213e-07
-4.10823e-08
-1.46266e-07
-4.16427e-08
-1.37232e-07
-4.2039e-08
-1.28149e-07
-4.22611e-08
-1.19054e-07
-4.22987e-08
-1.09987e-07
-4.21417e-08
-1.00991e-07
-4.17803e-08
-9.21087e-08
-4.12052e-08
-8.33853e-08
-4.0408e-08
-7.48667e-08
-3.93811e-08
-6.65999e-08
-3.81183e-08
-5.86321e-08
-3.66153e-08
-5.10104e-08
-3.487e-08
-4.37813e-08
-3.28834e-08
-3.699e-08
-3.066e-08
-3.06795e-08
-2.82092e-08
-2.48897e-08
-2.55463e-08
-1.96565e-08
-2.26944e-08
-1.50106e-08
-1.96859e-08
-1.09762e-08
-1.65651e-08
-7.5707e-09
-1.33915e-08
-4.80287e-09
-1.02429e-08
-2.67316e-09
-7.22001e-09
-1.17364e-09
-4.45107e-09
-2.89205e-10
-2.09835e-09
-3.87556e-10
-3.67461e-10
6.52387e-10
-1.4499e-09
3.09924e-09
-3.24392e-09
6.26418e-09
-5.75047e-09
9.80193e-09
-8.96507e-09
1.355e-08
-1.28764e-08
1.73891e-08
-1.74659e-08
2.12198e-08
-2.27088e-08
2.49622e-08
-2.85741e-08
2.85538e-08
-3.50254e-08
3.1947e-08
-4.20224e-08
3.5107e-08
-4.95211e-08
3.80091e-08
-5.7475e-08
4.0637e-08
-6.58359e-08
4.2981e-08
-7.45546e-08
4.50369e-08
-8.35815e-08
4.68045e-08
-9.28669e-08
4.8287e-08
-1.02362e-07
4.94904e-08
-1.12019e-07
5.04223e-08
-1.21791e-07
5.10922e-08
-1.31632e-07
5.15105e-08
-1.415e-07
5.16885e-08
-1.51353e-07
5.16379e-08
-1.61151e-07
5.13707e-08
-1.70857e-07
5.08992e-08
-1.80434e-07
5.02354e-08
-1.8985e-07
4.93913e-08
-1.99072e-07
4.83785e-08
-2.08071e-07
4.72084e-08
-2.1682e-07
4.58919e-08
-2.25292e-07
4.44396e-08
-2.33464e-07
4.28613e-08
-2.41314e-07
4.11669e-08
-2.48821e-07
3.93652e-08
-2.55966e-07
3.7465e-08
-2.62732e-07
3.54743e-08
-2.69103e-07
3.34008e-08
-2.75064e-07
3.12519e-08
-2.80603e-07
2.90342e-08
-2.85706e-07
2.67543e-08
-2.90364e-07
2.44184e-08
-2.94566e-07
2.20322e-08
-2.98305e-07
1.96012e-08
-3.01571e-07
1.71306e-08
-3.04359e-07
1.46257e-08
-3.06663e-07
1.20912e-08
-3.08478e-07
9.53182e-09
-3.098e-07
6.95223e-09
-3.10627e-07
4.35697e-09
-3.10955e-07
1.7506e-09
-3.10785e-07
-8.62396e-10
-3.10115e-07
-3.47749e-09
-3.08947e-07
-6.09007e-09
-3.07281e-07
-8.69543e-09
-3.0512e-07
-1.12887e-08
-3.02468e-07
-1.38648e-08
-2.9933e-07
-1.64187e-08
-2.95709e-07
-1.89449e-08
-2.91614e-07
-2.14376e-08
-2.87052e-07
-2.38909e-08
-2.82032e-07
-2.62986e-08
-2.76563e-07
-2.86539e-08
-2.70658e-07
-3.09498e-08
-2.6433e-07
-3.3179e-08
-2.57592e-07
-3.53336e-08
-2.50461e-07
-3.74055e-08
-2.42955e-07
-3.93858e-08
-2.35092e-07
-4.12655e-08
-2.26893e-07
-4.3035e-08
-2.18382e-07
-4.46842e-08
-2.09582e-07
-4.62027e-08
-2.00522e-07
-4.75795e-08
-1.91229e-07
-4.88034e-08
-1.81735e-07
-4.98626e-08
-1.72072e-07
-5.07453e-08
-1.62276e-07
-5.14392e-08
-1.52383e-07
-5.1932e-08
-1.42432e-07
-5.22113e-08
-1.32466e-07
-5.22649e-08
-1.22527e-07
-5.20806e-08
-1.12661e-07
-5.1647e-08
-1.02913e-07
-5.09532e-08
-9.33314e-08
-4.99892e-08
-8.39661e-08
-4.87463e-08
-7.48667e-08
-4.72177e-08
-6.60833e-08
-4.53986e-08
-5.76663e-08
-4.32871e-08
-4.9665e-08
-4.08847e-08
-4.21277e-08
-3.81973e-08
-3.51003e-08
-3.52366e-08
-2.8626e-08
-3.20206e-08
-2.27443e-08
-2.85762e-08
-1.74899e-08
-2.49402e-08
-1.28923e-08
-2.11627e-08
-8.97497e-09
-1.73089e-08
-5.75494e-09
-1.34629e-08
-3.24315e-09
-9.73181e-09
-1.4453e-09
-6.24892e-09
-3.63609e-10
-3.18004e-09
-7.51165e-10
-4.39167e-10
1.09155e-09
-1.71336e-09
4.37343e-09
-3.79833e-09
8.34915e-09
-6.67784e-09
1.26814e-08
-1.03339e-08
1.72061e-08
-1.47444e-08
2.17996e-08
-1.98827e-08
2.6358e-08
-2.57169e-08
3.07964e-08
-3.22108e-08
3.50477e-08
-3.93237e-08
3.90599e-08
-4.70112e-08
4.27946e-08
-5.5226e-08
4.6224e-08
-6.39186e-08
4.93296e-08
-7.30378e-08
5.21002e-08
-8.25314e-08
5.45305e-08
-9.23471e-08
5.66201e-08
-1.02433e-07
5.83724e-08
-1.12736e-07
5.97938e-08
-1.23207e-07
6.08931e-08
-1.33796e-07
6.1681e-08
-1.44454e-07
6.21694e-08
-1.55137e-07
6.23713e-08
-1.658e-07
6.23004e-08
-1.764e-07
6.19708e-08
-1.86897e-07
6.13966e-08
-1.97254e-07
6.05922e-08
-2.07434e-07
5.95715e-08
-2.17404e-07
5.83485e-08
-2.27132e-07
5.69364e-08
-2.36589e-07
5.53483e-08
-2.45746e-07
5.35967e-08
-2.54578e-07
5.16935e-08
-2.63061e-07
4.96503e-08
-2.71174e-07
4.74778e-08
-2.78895e-07
4.51864e-08
-2.86207e-07
4.27858e-08
-2.93092e-07
4.02853e-08
-2.99533e-07
3.76935e-08
-3.05518e-07
3.50188e-08
-3.11032e-07
3.22689e-08
-3.16065e-07
2.94512e-08
-3.20606e-07
2.65726e-08
-3.24644e-07
2.36399e-08
-3.28173e-07
2.06595e-08
-3.31185e-07
1.76375e-08
-3.33674e-07
1.45797e-08
-3.35634e-07
1.14919e-08
-3.37061e-07
8.37973e-09
-3.37953e-07
5.24871e-09
-3.38307e-07
2.10431e-09
-3.38121e-07
-1.04802e-09
-3.37396e-07
-4.20275e-09
-3.36131e-07
-7.35429e-09
-3.3433e-07
-1.0497e-08
-3.31994e-07
-1.36249e-08
-3.29127e-07
-1.67319e-08
-3.25734e-07
-1.98119e-08
-3.2182e-07
-2.28582e-08
-3.17394e-07
-2.58639e-08
-3.12463e-07
-2.88219e-08
-3.07037e-07
-3.17245e-08
-3.01127e-07
-3.45638e-08
-2.94746e-07
-3.73313e-08
-2.87906e-07
-4.00181e-08
-2.80625e-07
-4.26148e-08
-2.72919e-07
-4.51115e-08
-2.64807e-07
-4.74978e-08
-2.5631e-07
-4.97628e-08
-2.4745e-07
-5.1895e-08
-2.38252e-07
-5.38823e-08
-2.28742e-07
-5.57124e-08
-2.1895e-07
-5.73721e-08
-2.08905e-07
-5.8848e-08
-1.98641e-07
-6.01263e-08
-1.88194e-07
-6.11929e-08
-1.776e-07
-6.20332e-08
-1.66899e-07
-6.26328e-08
-1.56133e-07
-6.29772e-08
-1.45346e-07
-6.30519e-08
-1.34584e-07
-6.2843e-08
-1.23894e-07
-6.2337e-08
-1.13325e-07
-6.15214e-08
-1.0293e-07
-6.03848e-08
-9.27586e-08
-5.89175e-08
-8.28646e-08
-5.71117e-08
-7.33009e-08
-5.49623e-08
-6.41205e-08
-5.24675e-08
-5.53758e-08
-4.96294e-08
-4.71178e-08
-4.64553e-08
-3.93959e-08
-4.29586e-08
-3.22565e-08
-3.916e-08
-2.57431e-08
-3.50895e-08
-1.98952e-08
-3.07882e-08
-1.47476e-08
-2.63103e-08
-1.03308e-08
-2.17256e-08
-6.67047e-09
-1.71233e-08
-3.78818e-09
-1.26141e-08
-1.70296e-09
-8.33412e-09
-4.3324e-10
-4.44976e-09
-1.1844e-09
-5.05646e-10
1.5972e-09
-1.96086e-09
5.82864e-09
-4.32345e-09
1.07117e-08
-7.56178e-09
1.59198e-08
-1.16449e-08
2.12892e-08
-1.65401e-08
2.66948e-08
-2.22119e-08
3.20298e-08
-2.86215e-08
3.72061e-08
-3.57267e-08
4.21529e-08
-4.34819e-08
4.68152e-08
-5.18387e-08
5.11514e-08
-6.07462e-08
5.51315e-08
-7.01515e-08
5.87349e-08
-8.00004e-08
6.19491e-08
-9.02381e-08
6.47682e-08
-1.00809e-07
6.71913e-08
-1.11659e-07
6.92223e-08
-1.22733e-07
7.08681e-08
-1.33979e-07
7.21386e-08
-1.45344e-07
7.30457e-08
-1.56777e-07
7.36031e-08
-1.68232e-07
7.38255e-08
-1.7966e-07
7.37285e-08
-1.91017e-07
7.33282e-08
-2.02262e-07
7.26411e-08
-2.13353e-07
7.16835e-08
-2.24253e-07
7.04718e-08
-2.34927e-07
6.90219e-08
-2.4534e-07
6.73493e-08
-2.55461e-07
6.54694e-08
-2.65261e-07
6.33967e-08
-2.74712e-07
6.11451e-08
-2.8379e-07
5.8728e-08
-2.9247e-07
5.61583e-08
-3.00732e-07
5.3448e-08
-3.08555e-07
5.06085e-08
-3.1592e-07
4.76507e-08
-3.22811e-07
4.4585e-08
-3.29214e-07
4.14211e-08
-3.35113e-07
3.81681e-08
-3.40497e-07
3.48348e-08
-3.45353e-07
3.14294e-08
-3.49673e-07
2.796e-08
-3.53448e-07
2.4434e-08
-3.56669e-07
2.08586e-08
-3.5933e-07
1.7241e-08
-3.61426e-07
1.35879e-08
-3.62952e-07
9.90588e-09
-3.63905e-07
6.20163e-09
-3.64283e-07
2.48163e-09
-3.64083e-07
-1.24765e-09
-3.63306e-07
-4.97968e-09
-3.61953e-07
-8.70781e-09
-3.60024e-07
-1.24253e-08
-3.57524e-07
-1.61251e-08
-3.54456e-07
-1.98001e-08
-3.50825e-07
-2.34428e-08
-3.46638e-07
-2.70455e-08
-3.41902e-07
-3.06e-08
-3.36626e-07
-3.40978e-08
-3.3082e-07
-3.75299e-08
-3.24497e-07
-4.08869e-08
-3.1767e-07
-4.41589e-08
-3.10352e-07
-4.73353e-08
-3.02562e-07
-5.0405e-08
-2.94317e-07
-5.33565e-08
-2.85638e-07
-5.61774e-08
-2.76546e-07
-5.8855e-08
-2.67065e-07
-6.13757e-08
-2.57222e-07
-6.37255e-08
-2.47044e-07
-6.58897e-08
-2.36563e-07
-6.78532e-08
-2.25811e-07
-6.96002e-08
-2.14823e-07
-7.11147e-08
-2.03635e-07
-7.23801e-08
-1.92289e-07
-7.33798e-08
-1.80825e-07
-7.40969e-08
-1.69287e-07
-7.45147e-08
-1.57722e-07
-7.46166e-08
-1.46179e-07
-7.43866e-08
-1.34707e-07
-7.38093e-08
-1.23357e-07
-7.28706e-08
-1.12185e-07
-7.15575e-08
-1.01243e-07
-6.98592e-08
-9.05877e-08
-6.7767e-08
-8.02745e-08
-6.52755e-08
-7.03593e-08
-6.23827e-08
-6.08972e-08
-5.90915e-08
-5.19424e-08
-5.54101e-08
-4.35475e-08
-5.13535e-08
-3.57628e-08
-4.69447e-08
-2.86358e-08
-4.22165e-08
-2.22112e-08
-3.72129e-08
-1.65297e-08
-3.19917e-08
-1.1629e-08
-2.66264e-08
-7.54334e-09
-2.12089e-08
-4.30504e-09
-1.58524e-08
-1.94561e-09
-1.06936e-08
-4.98174e-10
-5.8972e-09
-1.68257e-09
-5.67288e-10
2.16449e-09
-2.19257e-09
7.45391e-09
-4.81868e-09
1.33379e-08
-8.40014e-09
1.95012e-08
-1.2894e-08
2.5783e-08
-1.82572e-08
3.2058e-08
-2.44456e-08
3.82182e-08
-3.14131e-08
4.41736e-08
-3.91115e-08
4.98513e-08
-4.749e-08
5.51937e-08
-5.64957e-08
6.0157e-08
-6.60737e-08
6.47095e-08
-7.6168e-08
6.88291e-08
-8.67211e-08
7.25023e-08
-9.76754e-08
7.57225e-08
-1.08973e-07
7.8489e-08
-1.20556e-07
8.08058e-08
-1.32369e-07
8.26807e-08
-1.44355e-07
8.41247e-08
-1.56461e-07
8.51511e-08
-1.68633e-07
8.57752e-08
-1.80821e-07
8.60137e-08
-1.92976e-07
8.5884e-08
-2.05053e-07
8.54045e-08
-2.17005e-07
8.45938e-08
-2.28792e-07
8.34705e-08
-2.40373e-07
8.20531e-08
-2.51712e-07
8.03601e-08
-2.62772e-07
7.84093e-08
-2.7352e-07
7.62179e-08
-2.83926e-07
7.38029e-08
-2.93962e-07
7.11804e-08
-3.03599e-07
6.83656e-08
-3.12814e-07
6.53734e-08
-3.21584e-07
6.22178e-08
-3.29888e-07
5.8912e-08
-3.37706e-07
5.54685e-08
-3.4502e-07
5.18994e-08
-3.51815e-07
4.8216e-08
-3.58076e-07
4.44288e-08
-3.63789e-07
4.05482e-08
-3.68943e-07
3.65836e-08
-3.73527e-07
3.25443e-08
-3.77533e-07
2.84391e-08
-3.80951e-07
2.42766e-08
-3.83774e-07
2.00647e-08
-3.85998e-07
1.58116e-08
-3.87617e-07
1.15249e-08
-3.88628e-07
7.21234e-09
-3.89028e-07
2.88148e-09
-3.88815e-07
-1.46009e-09
-3.8799e-07
-5.80474e-09
-3.86553e-07
-1.01447e-08
-3.84506e-07
-1.44721e-08
-3.81853e-07
-1.87789e-08
-3.78596e-07
-2.30565e-08
-3.74742e-07
-2.72965e-08