/*--------------------------------*- C++ -*----------------------------------*\
| =========                 |                                                 |
| \\      /  F ield         | OpenFOAM: The Open Source CFD Toolbox           |
|  \\    /   O peration     | Version:  2212                                  |
|   \\  /    A nd           | Website:  www.openfoam.com                      |
|    \\/     M anipulation  |                                                 |
\*---------------------------------------------------------------------------*/
FoamFile
{
    version     2.0;
    format      ascii;
    arch        "LSB;label=32;scalar=64";
    class       volVectorField;
    location    "0.015";
    object      U;
}
// * * * * * * * * * * * * * * * * * * * * * * * * * * * * * * * * * * * * * //

dimensions      [0 1 -1 0 0 0 0];

internalField   nonuniform List<vector> 
10000
(
(-1.44714e-06 -7.61346e-06 0)
(1.31625e-05 -1.14394e-05 0)
(2.3799e-05 -6.64511e-06 0)
(3.30489e-05 -3.72649e-06 0)
(3.14516e-05 -6.19393e-07 0)
(2.18916e-05 2.40244e-06 0)
(4.0193e-06 5.269e-06 0)
(-2.1975e-05 7.92844e-06 0)
(-5.56809e-05 1.03612e-05 0)
(-9.65683e-05 1.2565e-05 0)
(-0.000144042 1.45318e-05 0)
(-0.000197484 1.62755e-05 0)
(-0.000256264 1.78228e-05 0)
(-0.000319771 1.9187e-05 0)
(-0.000387392 2.03602e-05 0)
(-0.000458528 2.13391e-05 0)
(-0.000532614 2.21392e-05 0)
(-0.000609114 2.27776e-05 0)
(-0.000687516 2.32617e-05 0)
(-0.000767334 2.36001e-05 0)
(-0.000848118 2.38058e-05 0)
(-0.000929449 2.38968e-05 0)
(-0.00101094 2.38881e-05 0)
(-0.00109221 2.37767e-05 0)
(-0.00117292 2.35591e-05 0)
(-0.00125273 2.32402e-05 0)
(-0.00133134 2.28274e-05 0)
(-0.00140846 2.23364e-05 0)
(-0.00148383 2.17819e-05 0)
(-0.00155722 2.11652e-05 0)
(-0.0016284 2.04854e-05 0)
(-0.00169716 1.97481e-05 0)
(-0.00176333 1.89572e-05 0)
(-0.00182672 1.81143e-05 0)
(-0.00188717 1.72245e-05 0)
(-0.00194454 1.6294e-05 0)
(-0.00199869 1.53281e-05 0)
(-0.0020495 1.43335e-05 0)
(-0.00209686 1.33152e-05 0)
(-0.00214069 1.22718e-05 0)
(-0.00218089 1.12006e-05 0)
(-0.00221739 1.01046e-05 0)
(-0.00225012 8.99285e-06 0)
(-0.00227901 7.87078e-06 0)
(-0.00230401 6.73687e-06 0)
(-0.00232508 5.58879e-06 0)
(-0.00234217 4.42784e-06 0)
(-0.00235525 3.25729e-06 0)
(-0.00236429 2.07971e-06 0)
(-0.00236927 8.95941e-07 0)
(-0.00237016 -2.93279e-07 0)
(-0.00236697 -1.48603e-06 0)
(-0.00235968 -2.68052e-06 0)
(-0.00234829 -3.87527e-06 0)
(-0.00233281 -5.06809e-06 0)
(-0.00231326 -6.25538e-06 0)
(-0.00228968 -7.43283e-06 0)
(-0.00226209 -8.59789e-06 0)
(-0.00223053 -9.7506e-06 0)
(-0.00219505 -1.0891e-05 0)
(-0.00215571 -1.20168e-05 0)
(-0.00211259 -1.31237e-05 0)
(-0.00206576 -1.42052e-05 0)
(-0.00201531 -1.52556e-05 0)
(-0.00196136 -1.62708e-05 0)
(-0.00190403 -1.72483e-05 0)
(-0.00184346 -1.8184e-05 0)
(-0.0017798 -1.90723e-05 0)
(-0.00171322 -1.99067e-05 0)
(-0.0016439 -2.06811e-05 0)
(-0.00157206 -2.13915e-05 0)
(-0.0014979 -2.20363e-05 0)
(-0.00142166 -2.26127e-05 0)
(-0.00134361 -2.31151e-05 0)
(-0.00126401 -2.35353e-05 0)
(-0.00118315 -2.38644e-05 0)
(-0.00110135 -2.40944e-05 0)
(-0.00101897 -2.42182e-05 0)
(-0.00093636 -2.42287e-05 0)
(-0.000853927 -2.41186e-05 0)
(-0.000772086 -2.38807e-05 0)
(-0.000691282 -2.35071e-05 0)
(-0.000611986 -2.29886e-05 0)
(-0.000534694 -2.23155e-05 0)
(-0.000459932 -2.14779e-05 0)
(-0.000388249 -2.04664e-05 0)
(-0.00032022 -1.92709e-05 0)
(-0.000256444 -1.78797e-05 0)
(-0.000197537 -1.62828e-05 0)
(-0.000144125 -1.44745e-05 0)
(-9.68362e-05 -1.2454e-05 0)
(-5.62856e-05 -1.02224e-05 0)
(-2.3056e-05 -7.78301e-06 0)
(2.33401e-06 -5.14943e-06 0)
(1.94933e-05 -2.36527e-06 0)
(2.82672e-05 4.65543e-07 0)
(2.89063e-05 3.12166e-06 0)
(2.24502e-05 5.14559e-06 0)
(1.18981e-05 5.61525e-06 0)
(3.07571e-06 3.07098e-06 0)
(-2.60578e-07 -1.05233e-05 0)
(1.19552e-05 -2.54751e-05 0)
(2.65085e-05 -1.5922e-05 0)
(2.78159e-05 -3.23686e-06 0)
(1.03737e-05 1.19644e-05 0)
(-2.71235e-05 2.80237e-05 0)
(-8.55028e-05 4.40349e-05 0)
(-0.000164691 5.94825e-05 0)
(-0.000263955 7.40393e-05 0)
(-0.000382202 8.75443e-05 0)
(-0.000518071 9.98808e-05 0)
(-0.000670054 0.000111002 0)
(-0.000836597 0.000120908 0)
(-0.0010161 0.000129626 0)
(-0.00120697 0.00013718 0)
(-0.00140763 0.000143595 0)
(-0.00161657 0.000148915 0)
(-0.00183233 0.000153201 0)
(-0.00205351 0.00015651 0)
(-0.00227877 0.000158896 0)
(-0.00250685 0.000160417 0)
(-0.00273658 0.000161127 0)
(-0.00296682 0.00016108 0)
(-0.00319653 0.000160326 0)
(-0.00342471 0.000158898 0)
(-0.00365043 0.000156834 0)
(-0.00387285 0.000154182 0)
(-0.00409114 0.000150991 0)
(-0.00430457 0.000147305 0)
(-0.00451245 0.000143163 0)
(-0.00471414 0.000138599 0)
(-0.00490906 0.000133646 0)
(-0.00509665 0.000128331 0)
(-0.00527643 0.00012268 0)
(-0.00544793 0.000116721 0)
(-0.00561074 0.000110484 0)
(-0.00576445 0.000103996 0)
(-0.00590874 9.72832e-05 0)
(-0.00604329 9.0371e-05 0)
(-0.00616781 8.32775e-05 0)
(-0.00628204 7.60168e-05 0)
(-0.00638575 6.86046e-05 0)
(-0.00647874 6.10601e-05 0)
(-0.00656081 5.34015e-05 0)
(-0.00663182 4.56432e-05 0)
(-0.00669161 3.77974e-05 0)
(-0.00674008 2.98771e-05 0)
(-0.00677712 2.18941e-05 0)
(-0.00680264 1.38584e-05 0)
(-0.00681658 5.78101e-06 0)
(-0.0068189 -2.3252e-06 0)
(-0.00680957 -1.04456e-05 0)
(-0.00678859 -1.85666e-05 0)
(-0.00675596 -2.66751e-05 0)
(-0.00671172 -3.47564e-05 0)
(-0.00665593 -4.2794e-05 0)
(-0.00658867 -5.07702e-05 0)
(-0.00651005 -5.86682e-05 0)
(-0.00642018 -6.64733e-05 0)
(-0.00631922 -7.41702e-05 0)
(-0.00620735 -8.17394e-05 0)
(-0.00608478 -8.91578e-05 0)
(-0.00595176 -9.63994e-05 0)
(-0.00580855 -0.000103437 0)
(-0.00565548 -0.000110244 0)
(-0.00549288 -0.000116793 0)
(-0.00532116 -0.000123055 0)
(-0.00514075 -0.000128999 0)
(-0.00495212 -0.000134592 0)
(-0.0047558 -0.000139798 0)
(-0.00455236 -0.000144585 0)
(-0.00434241 -0.00014892 0)
(-0.00412663 -0.000152771 0)
(-0.00390576 -0.000156102 0)
(-0.00368057 -0.00015887 0)
(-0.00345191 -0.000161027 0)
(-0.00322067 -0.000162525 0)
(-0.00298784 -0.000163315 0)
(-0.00275445 -0.000163349 0)
(-0.0025216 -0.000162579 0)
(-0.00229048 -0.000160955 0)
(-0.00206232 -0.000158427 0)
(-0.00183843 -0.000154944 0)
(-0.00162018 -0.000150454 0)
(-0.001409 -0.000144905 0)
(-0.0012064 -0.000138252 0)
(-0.0010139 -0.000130451 0)
(-0.000833087 -0.000121467 0)
(-0.00066557 -0.000111275 0)
(-0.000512945 -9.98681e-05 0)
(-0.000376775 -8.72666e-05 0)
(-0.000258537 -7.35277e-05 0)
(-0.00015955 -5.87651e-05 0)
(-8.08721e-05 -4.3187e-05 0)
(-2.31334e-05 -2.71651e-05 0)
(1.37168e-05 -1.1352e-05 0)
(3.07418e-05 3.11937e-06 0)
(3.0586e-05 1.43058e-05 0)
(1.89571e-05 1.89237e-05 0)
(5.62475e-06 1.19047e-05 0)
(3.53412e-06 -2.07117e-05 0)
(1.20617e-05 -3.34351e-05 0)
(1.21574e-05 -1.62969e-05 0)
(-6.26565e-06 1.50028e-05 0)
(-5.08887e-05 5.33822e-05 0)
(-0.000124756 9.48599e-05 0)
(-0.000229235 0.000136969 0)
(-0.00036443 0.000178151 0)
(-0.000529554 0.000217431 0)
(-0.000723192 0.000254192 0)
(-0.000943509 0.000288067 0)
(-0.00118839 0.000318828 0)
(-0.00145558 0.000346385 0)
(-0.00174273 0.000370737 0)
(-0.00204749 0.00039192 0)
(-0.0023675 0.000410005 0)
(-0.00270045 0.000425095 0)
(-0.00304409 0.000437314 0)
(-0.0033963 0.000446804 0)
(-0.00375498 0.000453702 0)
(-0.00411816 0.000458147 0)
(-0.00448397 0.000460286 0)
(-0.00485064 0.000460252 0)
(-0.00521651 0.000458173 0)
(-0.00558002 0.000454184 0)
(-0.00593968 0.000448404 0)
(-0.00629413 0.00044095 0)
(-0.0066421 0.000431949 0)
(-0.0069824 0.000421519 0)
(-0.00731392 0.000409762 0)
(-0.00763563 0.000396781 0)
(-0.0079466 0.000382674 0)
(-0.00824594 0.000367524 0)
(-0.00853286 0.000351414 0)
(-0.00880663 0.000334425 0)
(-0.00906656 0.000316632 0)
(-0.00931202 0.000298106 0)
(-0.00954248 0.000278918 0)
(-0.0097574 0.000259133 0)
(-0.00995631 0.00023881 0)
(-0.0101388 0.000218 0)
(-0.0103045 0.000196751 0)
(-0.0104531 0.000175112 0)
(-0.0105842 0.000153129 0)
(-0.0106976 0.000130845 0)
(-0.0107931 0.000108304 0)
(-0.0108704 8.55435e-05 0)
(-0.0109295 6.26011e-05 0)
(-0.0109701 3.95117e-05 0)
(-0.0109922 1.63109e-05 0)
(-0.0109958 -6.96389e-06 0)
(-0.0109807 -3.02729e-05 0)
(-0.0109469 -5.35754e-05 0)
(-0.0108946 -7.68308e-05 0)
(-0.0108237 -9.9996e-05 0)
(-0.0107344 -0.000123025 0)
(-0.0106268 -0.000145872 0)
(-0.010501 -0.000168491 0)
(-0.0103573 -0.000190831 0)
(-0.0101959 -0.000212842 0)
(-0.0100171 -0.000234464 0)
(-0.00982136 -0.000255637 0)
(-0.00960894 -0.000276292 0)
(-0.00938033 -0.000296359 0)
(-0.00913604 -0.000315763 0)
(-0.00887662 -0.000334424 0)
(-0.00860272 -0.000352262 0)
(-0.00831502 -0.000369189 0)
(-0.00801428 -0.000385114 0)
(-0.00770133 -0.000399942 0)
(-0.00737709 -0.000413576 0)
(-0.00704254 -0.000425914 0)
(-0.00669877 -0.000436854 0)
(-0.00634693 -0.000446288 0)
(-0.00598828 -0.000454097 0)
(-0.00562417 -0.000460158 0)
(-0.00525603 -0.000464339 0)
(-0.0048854 -0.000466508 0)
(-0.00451393 -0.00046653 0)
(-0.00414337 -0.00046427 0)
(-0.00377555 -0.000459595 0)
(-0.00341242 -0.00045237 0)
(-0.00305603 -0.000442461 0)
(-0.00270849 -0.000429739 0)
(-0.00237203 -0.000414083 0)
(-0.00204894 -0.000395382 0)
(-0.00174156 -0.000373546 0)
(-0.00145226 -0.000348512 0)
(-0.00118343 -0.000320257 0)
(-0.000937413 -0.000288815 0)
(-0.00071647 -0.000254298 0)
(-0.000522673 -0.000216939 0)
(-0.000357812 -0.000177145 0)
(-0.000223237 -0.000135585 0)
(-0.000119635 -9.33382e-05 0)
(-4.67333e-05 -5.21176e-05 0)
(-2.92217e-06 -1.4614e-05 0)
(1.52759e-05 1.5033e-05 0)
(1.44329e-05 3.05724e-05 0)
(5.16369e-06 2.24839e-05 0)
(2.42339e-06 -2.40438e-05 0)
(2.44857e-06 -3.16296e-05 0)
(-1.56686e-05 2.94865e-06 0)
(-6.04499e-05 6.0668e-05 0)
(-0.000138891 0.000130625 0)
(-0.000254504 0.00020635 0)
(-0.000408832 0.000283645 0)
(-0.00060203 0.000359708 0)
(-0.000833185 0.000432678 0)
(-0.00110067 0.000501338 0)
(-0.00140231 0.000564911 0)
(-0.00173554 0.000622918 0)
(-0.00209757 0.000675097 0)
(-0.00248549 0.00072136 0)
(-0.00289632 0.000761735 0)
(-0.00332706 0.000796324 0)
(-0.00377475 0.000825281 0)
(-0.00423651 0.0008488 0)
(-0.00470953 0.000867115 0)
(-0.00519112 0.000880479 0)
(-0.00567868 0.000889142 0)
(-0.00616974 0.000893352 0)
(-0.00666196 0.000893367 0)
(-0.00715311 0.000889433 0)
(-0.00764113 0.000881793 0)
(-0.00812405 0.00087069 0)
(-0.00860005 0.000856357 0)
(-0.0090674 0.000839015 0)
(-0.00952451 0.000818882 0)
(-0.0099699 0.000796166 0)
(-0.0104022 0.000771058 0)
(-0.0108201 0.000743742 0)
(-0.0112224 0.00071439 0)
(-0.0116081 0.000683166 0)
(-0.0119762 0.000650222 0)
(-0.0123257 0.000615705 0)
(-0.0126558 0.000579754 0)
(-0.0129657 0.000542499 0)
(-0.0132547 0.00050406 0)
(-0.0135223 0.00046455 0)
(-0.0137678 0.000424078 0)
(-0.0139906 0.000382744 0)
(-0.0141904 0.000340639 0)
(-0.0143668 0.000297853 0)
(-0.0145193 0.000254472 0)
(-0.0146477 0.000210578 0)
(-0.0147516 0.000166251 0)
(-0.014831 0.000121568 0)
(-0.0148855 7.66016e-05 0)
(-0.0149151 3.14264e-05 0)
(-0.0149197 -1.38827e-05 0)
(-0.0148992 -5.92499e-05 0)
(-0.0148536 -0.000104596 0)
(-0.014783 -0.000149839 0)
(-0.0146875 -0.000194893 0)
(-0.0145671 -0.000239672 0)
(-0.0144221 -0.000284085 0)
(-0.0142528 -0.000328042 0)
(-0.0140593 -0.000371442 0)
(-0.0138421 -0.000414182 0)
(-0.0136016 -0.000456147 0)
(-0.0133382 -0.00049722 0)
(-0.0130525 -0.000537271 0)
(-0.0127451 -0.000576169 0)
(-0.0124167 -0.000613771 0)
(-0.0120681 -0.000649924 0)
(-0.0117 -0.000684469 0)
(-0.0113135 -0.000717241 0)
(-0.0109095 -0.000748066 0)
(-0.0104892 -0.000776763 0)
(-0.0100538 -0.00080314 0)
(-0.0096046 -0.000827001 0)
(-0.00914313 -0.000848138 0)
(-0.0086709 -0.000866338 0)
(-0.0081896 -0.000881375 0)
(-0.00770103 -0.000893017 0)
(-0.00720712 -0.000901018 0)
(-0.00670992 -0.000905132 0)
(-0.00621161 -0.000905107 0)
(-0.0057145 -0.000900692 0)
(-0.00522103 -0.000891637 0)
(-0.00473376 -0.000877696 0)
(-0.00425537 -0.00085863 0)
(-0.00378863 -0.000834213 0)
(-0.00333643 -0.00080424 0)
(-0.00290172 -0.000768534 0)
(-0.0024875 -0.000726958 0)
(-0.0020968 -0.000679441 0)
(-0.00173262 -0.000625993 0)
(-0.00139788 -0.000566739 0)
(-0.00109536 -0.000501966 0)
(-0.000827551 -0.000432186 0)
(-0.000596583 -0.000358238 0)
(-0.000404001 -0.000281431 0)
(-0.000250552 -0.000203755 0)
(-0.000135896 -0.000128191 0)
(-5.82432e-05 -5.91586e-05 0)
(-1.38942e-05 -3.06334e-06 0)
(3.44745e-06 3.09351e-05 0)
(3.17819e-06 2.90491e-05 0)
(2.61238e-07 -2.41192e-05 0)
(-1.1026e-05 -1.4412e-05 0)
(-5.16904e-05 4.69365e-05 0)
(-0.000127557 0.000138942 0)
(-0.000244337 0.000247948 0)
(-0.000405391 0.00036528 0)
(-0.00061216 0.000485047 0)
(-0.000864672 0.000603204 0)
(-0.00116186 0.000716915 0)
(-0.00150183 0.000824264 0)
(-0.00188215 0.000923983 0)
(-0.00229991 0.00101526 0)
(-0.00275191 0.00109763 0)
(-0.00323476 0.00117087 0)
(-0.00374498 0.00123495 0)
(-0.00427907 0.00128997 0)
(-0.00483353 0.00133615 0)
(-0.00540492 0.00137374 0)
(-0.00598988 0.00140308 0)
(-0.00658516 0.00142452 0)
(-0.00718766 0.00143846 0)
(-0.00779438 0.00144526 0)
(-0.00840247 0.00144533 0)
(-0.00900923 0.00143905 0)
(-0.00961212 0.00142681 0)
(-0.0102087 0.00140897 0)
(-0.0107968 0.00138592 0)
(-0.0113743 0.00135801 0)
(-0.0119392 0.00132557 0)
(-0.0124896 0.00128894 0)
(-0.0130239 0.00124843 0)
(-0.0135405 0.00120433 0)
(-0.0140379 0.00115692 0)
(-0.0145147 0.00110646 0)
(-0.0149698 0.0010532 0)
(-0.015402 0.000997374 0)
(-0.0158102 0.000939211 0)
(-0.0161935 0.000878916 0)
(-0.016551 0.000816685 0)
(-0.0168819 0.000752699 0)
(-0.0171855 0.000687133 0)
(-0.0174611 0.000620151 0)
(-0.0177083 0.000551908 0)
(-0.0179264 0.000482551 0)
(-0.0181149 0.000412221 0)
(-0.0182737 0.00034105 0)
(-0.0184022 0.000269169 0)
(-0.0185002 0.000196708 0)
(-0.0185675 0.00012379 0)
(-0.0186039 5.05411e-05 0)
(-0.0186094 -2.29167e-05 0)
(-0.0185839 -9.64577e-05 0)
(-0.0185273 -0.000169953 0)
(-0.0184397 -0.00024327 0)
(-0.0183213 -0.000316268 0)
(-0.0181722 -0.000388807 0)
(-0.0179927 -0.000460739 0)
(-0.017783 -0.000531912 0)
(-0.0175435 -0.000602165 0)
(-0.0172747 -0.000671327 0)
(-0.0169771 -0.000739214 0)
(-0.0166513 -0.000805634 0)
(-0.0162979 -0.000870384 0)
(-0.0159177 -0.000933248 0)
(-0.0155116 -0.000993998 0)
(-0.0150806 -0.00105239 0)
(-0.0146256 -0.00110817 0)
(-0.0141478 -0.00116108 0)
(-0.0136486 -0.00121082 0)
(-0.0131293 -0.00125712 0)
(-0.0125914 -0.00129966 0)
(-0.0120366 -0.00133812 0)
(-0.0114667 -0.00137217 0)
(-0.0108835 -0.00140147 0)
(-0.0102892 -0.00142565 0)
(-0.009686 -0.00144434 0)
(-0.0090762 -0.00145717 0)
(-0.00846234 -0.00146375 0)
(-0.00784709 -0.00146368 0)
(-0.00723326 -0.00145657 0)
(-0.00662381 -0.00144205 0)
(-0.00602182 -0.00141972 0)
(-0.00543054 -0.00138925 0)
(-0.00485328 -0.00135029 0)
(-0.0042935 -0.00130255 0)
(-0.0037547 -0.0012458 0)
(-0.00324044 -0.00117988 0)
(-0.00275426 -0.00110471 0)
(-0.00229966 -0.00102039 0)
(-0.00188003 -0.000927171 0)
(-0.00149852 -0.000825597 0)
(-0.00115798 -0.00071654 0)
(-0.000860803 -0.000601364 0)
(-0.000608728 -0.000482108 0)
(-0.00040265 -0.000361746 0)
(-0.000242354 -0.000244556 0)
(-0.000126196 -0.000136619 0)
(-5.0727e-05 -4.64011e-05 0)
(-1.0729e-05 1.44178e-05 0)
(5.86524e-07 2.86512e-05 0)
(-2.31438e-06 -1.6062e-05 0)
(-2.62279e-05 2.20451e-05 0)
(-9.18124e-05 0.000119415 0)
(-0.000201597 0.000253546 0)
(-0.000359506 0.000408717 0)
(-0.000568347 0.000574352 0)
(-0.000829163 0.000743024 0)
(-0.00114171 0.000909471 0)
(-0.00150466 0.00106993 0)
(-0.00191586 0.00122173 0)
(-0.00237259 0.00136306 0)
(-0.00287163 0.00149272 0)
(-0.00340945 0.00160999 0)
(-0.00398227 0.00171449 0)
(-0.00458621 0.0018061 0)
(-0.00521733 0.00188491 0)
(-0.00587167 0.00195116 0)
(-0.00654534 0.00200519 0)
(-0.00723451 0.00204742 0)
(-0.00793548 0.00207831 0)
(-0.00864465 0.00209839 0)
(-0.0093586 0.00210819 0)
(-0.010074 0.00210825 0)
(-0.0107878 0.00209912 0)
(-0.011497 0.00208133 0)
(-0.0121988 0.00205544 0)
(-0.0128906 0.00202195 0)
(-0.0135699 0.00198138 0)
(-0.0142343 0.00193421 0)
(-0.0148819 0.00188092 0)
(-0.0155105 0.00182195 0)
(-0.0161183 0.00175773 0)
(-0.0167036 0.00168866 0)
(-0.0172647 0.00161513 0)
(-0.0178002 0.00153749 0)
(-0.0183089 0.00145609 0)
(-0.0187893 0.00137126 0)
(-0.0192404 0.00128328 0)
(-0.0196612 0.00119246 0)
(-0.0200506 0.00109906 0)
(-0.020408 0.00100333 0)
(-0.0207324 0.000905518 0)
(-0.0210233 0.000805845 0)
(-0.0212799 0.00070453 0)
(-0.0215019 0.000601781 0)
(-0.0216886 0.000497798 0)
(-0.0218397 0.000392776 0)
(-0.021955 0.000286901 0)
(-0.0220341 0.000180361 0)
(-0.0220768 7.33391e-05 0)
(-0.0220831 -3.3979e-05 0)
(-0.0220528 -0.000141407 0)
(-0.0219859 -0.000248753 0)
(-0.0218826 -0.000355824 0)
(-0.021743 -0.000462416 0)
(-0.0215672 -0.000568322 0)
(-0.0213557 -0.000673326 0)
(-0.0211086 -0.0007772 0)
(-0.0208265 -0.000879707 0)
(-0.02051 -0.000980596 0)
(-0.0201595 -0.0010796 0)
(-0.0197759 -0.00117644 0)
(-0.0193599 -0.00127083 0)
(-0.0189124 -0.00136243 0)
(-0.0184345 -0.00145094 0)
(-0.0179272 -0.00153599 0)
(-0.0173919 -0.00161721 0)
(-0.0168298 -0.00169423 0)
(-0.0162426 -0.00176662 0)
(-0.0156318 -0.00183398 0)
(-0.0149992 -0.00189585 0)
(-0.0143468 -0.00195177 0)
(-0.0136767 -0.00200126 0)
(-0.012991 -0.00204382 0)
(-0.0122923 -0.00207893 0)
(-0.0115831 -0.00210608 0)
(-0.0108661 -0.0021247 0)
(-0.0101444 -0.00213427 0)
(-0.0094209 -0.00213422 0)
(-0.00869894 -0.00212401 0)
(-0.00798193 -0.00210312 0)
(-0.00727341 -0.00207101 0)
(-0.00657709 -0.00202722 0)
(-0.00589679 -0.00197129 0)
(-0.00523642 -0.00190286 0)
(-0.00459995 -0.00182164 0)
(-0.00399139 -0.00172745 0)
(-0.00341472 -0.00162027 0)
(-0.00287386 -0.00150028 0)
(-0.00237256 -0.00136793 0)
(-0.00191431 -0.00122405 0)
(-0.00150227 -0.00106994 0)
(-0.00113907 -0.000907522 0)
(-0.000826702 -0.000739606 0)
(-0.000566318 -0.000570142 0)
(-0.000358024 -0.000404632 0)
(-0.000200597 -0.000250645 0)
(-9.11926e-05 -0.000118395 0)
(-2.61931e-05 -2.15595e-05 0)
(-2.1625e-06 2.02946e-05 0)
(-4.92732e-06 2.16848e-07 0)
(-4.18517e-05 7.89488e-05 0)
(-0.000133312 0.000222162 0)
(-0.000278301 0.000406509 0)
(-0.000478712 0.000614831 0)
(-0.000736508 0.000835076 0)
(-0.00105212 0.00105848 0)
(-0.00142483 0.00127868 0)
(-0.00185296 0.00149105 0)
(-0.00233408 0.00169219 0)
(-0.00286514 0.00187974 0)
(-0.00344261 0.00205209 0)
(-0.00406268 0.00220822 0)
(-0.00472122 0.00234758 0)
(-0.005414 0.00246994 0)
(-0.00613671 0.00257535 0)
(-0.00688501 0.00266406 0)
(-0.00765461 0.00273648 0)
(-0.0084413 0.00279312 0)
(-0.00924095 0.00283457 0)
(-0.0100496 0.00286148 0)
(-0.0108634 0.00287453 0)
(-0.0116787 0.00287444 0)
(-0.0124919 0.00286192 0)
(-0.0132998 0.00283768 0)
(-0.0140992 0.00280243 0)
(-0.0148872 0.00275687 0)
(-0.0156609 0.00270168 0)
(-0.0164177 0.00263751 0)
(-0.0171553 0.00256499 0)
(-0.0178713 0.00248473 0)
(-0.0185636 0.00239729 0)
(-0.0192303 0.00230322 0)
(-0.0198695 0.00220305 0)
(-0.0204796 0.00209727 0)
(-0.021059 0.00198633 0)
(-0.0216063 0.00187068 0)
(-0.0221203 0.00175072 0)
(-0.0225997 0.00162686 0)
(-0.0230434 0.00149945 0)
(-0.0234505 0.00136885 0)
(-0.0238201 0.00123538 0)
(-0.0241514 0.00109936 0)
(-0.0244438 0.000961087 0)
(-0.0246966 0.000820842 0)
(-0.0249092 0.000678906 0)
(-0.0250814 0.000535546 0)
(-0.0252125 0.000391022 0)
(-0.0253025 0.00024559 0)
(-0.025351 9.95055e-05 0)
(-0.0253579 -4.69759e-05 0)
(-0.0253232 -0.000193595 0)
(-0.0252468 -0.00034009 0)
(-0.0251288 -0.000486192 0)
(-0.0249695 -0.000631624 0)
(-0.024769 -0.000776102 0)
(-0.0245277 -0.000919328 0)
(-0.024246 -0.00106099 0)
(-0.0239245 -0.00120076 0)
(-0.0235636 -0.0013383 0)
(-0.0231641 -0.00147324 0)
(-0.0227269 -0.00160521 0)
(-0.0222529 -0.0017338 0)
(-0.021743 -0.00185858 0)
(-0.0211985 -0.0019791 0)
(-0.0206207 -0.0020949 0)
(-0.0200109 -0.00220546 0)
(-0.0193708 -0.00231027 0)
(-0.018702 -0.00240878 0)
(-0.0180064 -0.0025004 0)
(-0.0172861 -0.00258454 0)
(-0.0165433 -0.00266058 0)
(-0.0157802 -0.00272786 0)
(-0.0149996 -0.00278572 0)
(-0.014204 -0.00283346 0)
(-0.0133965 -0.00287038 0)
(-0.0125802 -0.00289576 0)
(-0.0117582 -0.00290888 0)
(-0.0109341 -0.00290901 0)
(-0.0101115 -0.00289544 0)
(-0.00929425 -0.00286747 0)
(-0.0084863 -0.00282446 0)
(-0.00769174 -0.00276577 0)
(-0.00691482 -0.00269088 0)
(-0.00615985 -0.00259931 0)
(-0.0054312 -0.00249075 0)
(-0.00473326 -0.00236502 0)
(-0.0040704 -0.00222216 0)
(-0.00344686 -0.00206249 0)
(-0.00286673 -0.00188667 0)
(-0.00233382 -0.00169584 0)
(-0.00185156 -0.00149174 0)
(-0.00142288 -0.00127689 0)
(-0.00105009 -0.00105482 0)
(-0.000734694 -0.000830407 0)
(-0.000477297 -0.000610237 0)
(-0.000277312 -0.000403135 0)
(-0.000132746 -0.000220698 0)
(-4.18635e-05 -7.80564e-05 0)
(-4.85854e-06 3.75159e-06 0)
(-7.43734e-06 2.45986e-05 0)
(-5.71783e-05 0.000156502 0)
(-0.000174521 0.000355716 0)
(-0.000354889 0.000598542 0)
(-0.000598064 0.000866972 0)
(-0.000905025 0.00114788 0)
(-0.00127542 0.00143145 0)
(-0.00170789 0.00171037 0)
(-0.00220033 0.00197921 0)
(-0.00274993 0.00223393 0)
(-0.00335332 0.00247164 0)
(-0.00400666 0.0026903 0)
(-0.0047058 0.00288862 0)
(-0.00544635 0.00306584 0)
(-0.00622375 0.00322162 0)
(-0.00703335 0.00335595 0)
(-0.0078705 0.00346909 0)
(-0.00873054 0.0035615 0)
(-0.00960893 0.00363377 0)
(-0.0105012 0.00368662 0)
(-0.011403 0.00372084 0)
(-0.0123102 0.00373726 0)
(-0.0132187 0.00373677 0)
(-0.0141248 0.00372027 0)
(-0.0150247 0.00368865 0)
(-0.015915 0.0036428 0)
(-0.0167925 0.00358362 0)
(-0.0176541 0.00351195 0)
(-0.0184969 0.00342864 0)
(-0.0193182 0.00333449 0)
(-0.0201154 0.00323027 0)
(-0.0208863 0.00311673 0)
(-0.0216286 0.00299456 0)
(-0.0223403 0.00286443 0)
(-0.0230197 0.00272699 0)
(-0.0236648 0.00258283 0)
(-0.0242743 0.00243252 0)
(-0.0248465 0.00227659 0)
(-0.0253803 0.00211555 0)
(-0.0258744 0.00194989 0)
(-0.0263277 0.00178005 0)
(-0.0267392 0.00160646 0)
(-0.0271081 0.00142953 0)
(-0.0274336 0.00124966 0)
(-0.027715 0.00106721 0)
(-0.0279517 0.000882559 0)
(-0.0281433 0.000696046 0)
(-0.0282892 0.000508016 0)
(-0.0283892 0.000318808 0)
(-0.028443 0.000128756 0)
(-0.0284505 -6.18021e-05 0)
(-0.0284117 -0.000252529 0)
(-0.0283264 -0.00044308 0)
(-0.0281948 -0.000633103 0)
(-0.0280172 -0.000822237 0)
(-0.0277937 -0.00101011 0)
(-0.0275248 -0.00119633 0)
(-0.0272109 -0.00138049 0)
(-0.0268526 -0.00156217 0)
(-0.0264506 -0.00174091 0)
(-0.0260057 -0.00191626 0)
(-0.0255187 -0.00208771 0)
(-0.0249907 -0.00225473 0)
(-0.0244229 -0.00241679 0)
(-0.0238166 -0.00257329 0)
(-0.0231732 -0.00272362 0)
(-0.0224943 -0.00286713 0)
(-0.0217816 -0.00300315 0)
(-0.021037 -0.00313098 0)
(-0.0202627 -0.00324985 0)
(-0.0194609 -0.00335901 0)
(-0.018634 -0.00345765 0)
(-0.0177846 -0.00354494 0)
(-0.0169155 -0.00362001 0)
(-0.0160299 -0.00368199 0)
(-0.0151308 -0.00372998 0)
(-0.0142218 -0.00376307 0)
(-0.0133063 -0.00378035 0)
(-0.0123882 -0.00378091 0)
(-0.0114716 -0.00376386 0)
(-0.0105605 -0.00372834 0)
(-0.00965921 -0.00367354 0)
(-0.0087723 -0.00359871 0)
(-0.0079043 -0.00350321 0)
(-0.0070599 -0.00338651 0)
(-0.0062438 -0.00324825 0)
(-0.00546074 -0.00308827 0)
(-0.00471541 -0.00290668 0)
(-0.00401236 -0.00270396 0)
(-0.003356 -0.00248099 0)
(-0.00275042 -0.00223924 0)
(-0.00219937 -0.00198088 0)
(-0.00170613 -0.00170899 0)
(-0.00127336 -0.00142778 0)
(-0.00090305 -0.00114294 0)
(-0.000596426 -0.00086197 0)
(-0.000353687 -0.000594705 0)
(-0.000173843 -0.000353755 0)
(-5.71488e-05 -0.0001552 0)
(-7.40903e-06 -2.08312e-05 0)
(-9.79748e-06 5.67571e-05 0)
(-7.1872e-05 0.000254322 0)
(-0.000214473 0.000519751 0)
(-0.000429647 0.000829452 0)
(-0.000715074 0.00116496 0)
(-0.00107065 0.00151247 0)
(-0.00149517 0.0018614 0)
(-0.00198654 0.00220366 0)
(-0.00254212 0.00253313 0)
(-0.00315865 0.00284521 0)
(-0.0038324 0.0031365 0)
(-0.00455921 0.00340462 0)
(-0.00533459 0.00364796 0)
(-0.00615387 0.00386556 0)
(-0.00701219 0.00405697 0)
(-0.0079046 0.00422213 0)
(-0.00882614 0.00436129 0)
(-0.00977187 0.00447495 0)
(-0.0107369 0.0045638 0)
(-0.0117165 0.00462867 0)
(-0.012706 0.00467049 0)
(-0.013701 0.00469027 0)
(-0.014697 0.00468905 0)
(-0.0156901 0.00466792 0)
(-0.0166762 0.00462797 0)
(-0.0176516 0.00457029 0)
(-0.0186128 0.00449597 0)
(-0.0195564 0.00440605 0)
(-0.0204794 0.00430157 0)
(-0.0213788 0.00418351 0)
(-0.0222518 0.00405285 0)
(-0.0230959 0.00391048 0)
(-0.0239087 0.0037573 0)
(-0.024688 0.00359413 0)
(-0.0254318 0.00342176 0)
(-0.0261382 0.00324094 0)
(-0.0268055 0.00305239 0)
(-0.0274321 0.00285677 0)
(-0.0280165 0.00265471 0)
(-0.0285575 0.00244683 0)
(-0.0290537 0.00223369 0)
(-0.0295043 0.00201582 0)
(-0.0299081 0.00179375 0)
(-0.0302645 0.00156797 0)
(-0.0305725 0.00133895 0)
(-0.0308315 0.00110714 0)
(-0.0310411 0.000873 0)
(-0.0312008 0.000636953 0)
(-0.0313101 0.00039943 0)
(-0.0313689 0.000160854 0)
(-0.031377 -7.83479e-05 0)
(-0.0313342 -0.000317749 0)
(-0.0312407 -0.000556916 0)
(-0.0310964 -0.000795403 0)
(-0.0309017 -0.00103276 0)
(-0.0306569 -0.0012685 0)
(-0.0303622 -0.00150215 0)
(-0.0300184 -0.00173319 0)
(-0.0296259 -0.00196108 0)
(-0.0291856 -0.00218528 0)
(-0.0286983 -0.00240517 0)
(-0.028165 -0.00262015 0)
(-0.0275868 -0.00282956 0)
(-0.0269651 -0.0030327 0)
(-0.0263012 -0.00322885 0)
(-0.0255967 -0.00341725 0)
(-0.0248533 -0.00359708 0)
(-0.024073 -0.00376751 0)
(-0.0232579 -0.00392765 0)
(-0.0224102 -0.00407658 0)
(-0.0215323 -0.00421333 0)
(-0.0206269 -0.00433691 0)
(-0.0196969 -0.0044463 0)
(-0.0187453 -0.00454042 0)
(-0.0177754 -0.0046182 0)
(-0.0167907 -0.00467854 0)
(-0.0157949 -0.00472031 0)
(-0.0147918 -0.00474242 0)
(-0.0137856 -0.00474376 0)
(-0.0127805 -0.00472325 0)
(-0.011781 -0.00467987 0)
(-0.0107918 -0.00461265 0)
(-0.00981759 -0.00452071 0)
(-0.00886331 -0.00440331 0)
(-0.00793394 -0.00425985 0)
(-0.0070345 -0.00408994 0)
(-0.00617004 -0.00389344 0)
(-0.00534552 -0.00367057 0)
(-0.00456583 -0.00342192 0)
(-0.00383565 -0.00314863 0)
(-0.00315939 -0.00285248 0)
(-0.00254115 -0.00253604 0)
(-0.00198456 -0.0022029 0)
(-0.00149274 -0.00185788 0)
(-0.00106824 -0.00150735 0)
(-0.000712998 -0.00115955 0)
(-0.000428087 -0.000825063 0)
(-0.000213593 -0.000517186 0)
(-7.17449e-05 -0.000252532 0)
(-9.77959e-06 -5.31066e-05 0)
(-1.19916e-05 9.62574e-05 0)
(-8.57575e-05 0.000371627 0)
(-0.000252653 0.000713405 0)
(-0.000501577 0.00109838 0)
(-0.000828217 0.00150797 0)
(-0.00123135 0.00192799 0)
(-0.00170887 0.00234735 0)
(-0.00225791 0.00275736 0)
(-0.0028752 0.00315136 0)
(-0.003557 0.00352424 0)
(-0.00429916 0.00387221 0)
(-0.00509715 0.00419252 0)
(-0.00594618 0.00448333 0)
(-0.00684126 0.00474346 0)
(-0.00777722 0.00497236 0)
(-0.00874887 0.00516992 0)
(-0.00975094 0.00533639 0)
(-0.0107782 0.0054723 0)
(-0.0118256 0.00557844 0)
(-0.0128879 0.00565574 0)
(-0.0139604 0.0057053 0)
(-0.0150382 0.00572826 0)
(-0.0161168 0.00572588 0)
(-0.0171917 0.00569941 0)
(-0.0182588 0.00565016 0)
(-0.0193142 0.00557942 0)
(-0.0203539 0.00548847 0)
(-0.0213746 0.00537859 0)
(-0.0223727 0.00525099 0)
(-0.0233452 0.00510687 0)
(-0.0242892 0.00494739 0)
(-0.0252018 0.00477365 0)
(-0.0260806 0.00458671 0)
(-0.0269231 0.00438758 0)
(-0.0277272 0.00417722 0)
(-0.0284909 0.00395653 0)
(-0.0292122 0.00372638 0)
(-0.0298895 0.00348758 0)
(-0.0305212 0.00324092 0)
(-0.0311059 0.00298712 0)
(-0.0316423 0.00272688 0)
(-0.0321293 0.00246086 0)
(-0.0325658 0.00218969 0)
(-0.0329508 0.00191398 0)
(-0.0332837 0.0016343 0)
(-0.0335636 0.00135122 0)
(-0.0337901 0.00106528 0)
(-0.0339625 0.000777015 0)
(-0.0340806 0.000486948 0)
(-0.034144 0.000195603 0)
(-0.0341526 -9.64986e-05 0)
(-0.0341062 -0.000388831 0)
(-0.0340049 -0.000680861 0)
(-0.0338489 -0.000972045 0)
(-0.0336383 -0.00126182 0)
(-0.0333734 -0.00154962 0)
(-0.0330548 -0.00183483 0)
(-0.032683 -0.00211683 0)
(-0.0322586 -0.00239497 0)
(-0.0317825 -0.00266855 0)
(-0.0312557 -0.00293687 0)
(-0.0306791 -0.00319917 0)
(-0.0300541 -0.00345463 0)
(-0.029382 -0.00370243 0)
(-0.0286643 -0.00394169 0)
(-0.0279027 -0.00417146 0)
(-0.0270991 -0.00439077 0)
(-0.0262556 -0.0045986 0)
(-0.0253744 -0.00479388 0)
(-0.0244579 -0.0049755 0)
(-0.0235089 -0.00514229 0)
(-0.02253 -0.00529305 0)
(-0.0215244 -0.00542654 0)
(-0.0204954 -0.00554148 0)
(-0.0194464 -0.00563659 0)
(-0.0183812 -0.00571054 0)
(-0.0173037 -0.00576201 0)
(-0.0162181 -0.00578968 0)
(-0.0151287 -0.00579224 0)
(-0.0140401 -0.00576844 0)
(-0.0129571 -0.00571706 0)
(-0.0118845 -0.00563699 0)
(-0.0108274 -0.00552721 0)
(-0.00979094 -0.00538689 0)
(-0.00878048 -0.00521534 0)
(-0.00780129 -0.00501217 0)
(-0.00685868 -0.00477726 0)
(-0.00595794 -0.0045109 0)
(-0.00510421 -0.00421385 0)
(-0.0043025 -0.00388744 0)
(-0.00355755 -0.00353375 0)
(-0.00287382 -0.00315572 0)
(-0.00225535 -0.00275739 0)
(-0.00170579 -0.00234407 0)
(-0.00122828 -0.0019227 0)
(-0.000825542 -0.00150208 0)
(-0.000499563 -0.00109331 0)
(-0.000251518 -0.000710092 0)
(-8.55138e-05 -0.000369254 0)
(-1.19646e-05 -9.26365e-05 0)
(-1.40317e-05 0.000142637 0)
(-9.88003e-05 0.00050748 0)
(-0.000288826 0.000935509 0)
(-0.000570157 0.00140407 0)
(-0.000936644 0.00189475 0)
(-0.00138593 0.00239317 0)
(-0.001915 0.00288794 0)
(-0.00252022 0.00337001 0)
(-0.00319762 0.00383226 0)
(-0.00394293 0.00426919 0)
(-0.00475155 0.00467667 0)
(-0.00561856 0.00505166 0)
(-0.00653884 0.00539209 0)
(-0.00750707 0.00569662 0)
(-0.00851779 0.0059646 0)
(-0.00956552 0.00619586 0)
(-0.0106448 0.00639066 0)
(-0.01175 0.00654959 0)
(-0.0128758 0.00667352 0)
(-0.014017 0.0067635 0)
(-0.0151683 0.00682077 0)
(-0.0163247 0.00684665 0)
(-0.0174815 0.00684258 0)
(-0.0186339 0.00681001 0)
(-0.0197777 0.00675045 0)
(-0.0209084 0.0066654 0)
(-0.0220223 0.00655638 0)
(-0.0231155 0.00642484 0)
(-0.0241844 0.00627225 0)
(-0.0252258 0.0061 0)
(-0.0262364 0.00590944 0)
(-0.0272135 0.00570189 0)
(-0.0281542 0.0054786 0)
(-0.029056 0.00524076 0)
(-0.0299167 0.0049895 0)
(-0.030734 0.00472591 0)
(-0.031506 0.00445101 0)
(-0.0322309 0.00416578 0)
(-0.0329069 0.00387114 0)
(-0.0335326 0.00356796 0)
(-0.0341067 0.00325707 0)
(-0.0346277 0.00293927 0)
(-0.0350948 0.00261531 0)
(-0.0355068 0.0022859 0)
(-0.0358629 0.00195175 0)
(-0.0361624 0.00161353 0)
(-0.0364047 0.0012719 0)
(-0.0365891 0.000927484 0)
(-0.0367154 0.000580923 0)
(-0.0367831 0.000232841 0)
(-0.0367922 -0.000116135 0)
(-0.0367425 -0.000465374 0)
(-0.036634 -0.000814238 0)
(-0.0364669 -0.00116207 0)
(-0.0362414 -0.00150821 0)
(-0.0359579 -0.00185196 0)
(-0.0356169 -0.0021926 0)
(-0.0352189 -0.00252938 0)