/*--------------------------------*- C++ -*----------------------------------*\
| =========                 |                                                 |
| \\      /  F ield         | OpenFOAM: The Open Source CFD Toolbox           |
|  \\    /   O peration     | Version:  2212                                  |
|   \\  /    A nd           | Website:  www.openfoam.com                      |
|    \\/     M anipulation  |                                                 |
\*---------------------------------------------------------------------------*/
FoamFile
{
    version     2.0;
    format      ascii;
    arch        "LSB;label=32;scalar=64";
    class       volVectorField;
    location    "0.035";
    object      U_0;
}
// * * * * * * * * * * * * * * * * * * * * * * * * * * * * * * * * * * * * * //

dimensions      [0 1 -1 0 0 0 0];

internalField   nonuniform List<vector> 
10000
(
(1.85214e-06 -3.61888e-06 0)
(1.29331e-05 -7.59184e-06 0)
(2.79275e-05 -7.41658e-06 0)
(4.16466e-05 -5.92155e-06 0)
(4.88376e-05 -3.51853e-06 0)
(4.84228e-05 -7.2431e-07 0)
(3.95257e-05 2.19886e-06 0)
(2.18309e-05 5.10376e-06 0)
(-4.63699e-06 7.90695e-06 0)
(-3.9623e-05 1.05684e-05 0)
(-8.27505e-05 1.30648e-05 0)
(-0.00013356 1.53807e-05 0)
(-0.000191524 1.75048e-05 0)
(-0.000256089 1.94335e-05 0)
(-0.000326683 2.11698e-05 0)
(-0.000402725 2.27207e-05 0)
(-0.000483631 2.40921e-05 0)
(-0.000568818 2.52854e-05 0)
(-0.000657711 2.63055e-05 0)
(-0.000749748 2.71566e-05 0)
(-0.000844374 2.7842e-05 0)
(-0.000941052 2.8368e-05 0)
(-0.00103926 2.87391e-05 0)
(-0.00113848 2.89617e-05 0)
(-0.00123824 2.90449e-05 0)
(-0.00133805 2.89936e-05 0)
(-0.00143748 2.88112e-05 0)
(-0.00153608 2.85052e-05 0)
(-0.00163344 2.80808e-05 0)
(-0.00172915 2.75421e-05 0)
(-0.00182285 2.68963e-05 0)
(-0.00191417 2.61503e-05 0)
(-0.00200277 2.53082e-05 0)
(-0.00208831 2.43749e-05 0)
(-0.00217051 2.3356e-05 0)
(-0.00224906 2.22557e-05 0)
(-0.0023237 2.10791e-05 0)
(-0.00239418 1.98334e-05 0)
(-0.00246025 1.85245e-05 0)
(-0.00252171 1.71547e-05 0)
(-0.00257834 1.57266e-05 0)
(-0.00262996 1.42463e-05 0)
(-0.00267641 1.27216e-05 0)
(-0.00271752 1.11575e-05 0)
(-0.00275317 9.5565e-06 0)
(-0.00278324 7.92173e-06 0)
(-0.00280762 6.25848e-06 0)
(-0.00282623 4.57347e-06 0)
(-0.00283899 2.87202e-06 0)
(-0.00284587 1.15807e-06 0)
(-0.00284682 -5.63958e-07 0)
(-0.00284183 -2.28882e-06 0)
(-0.0028309 -4.0105e-06 0)
(-0.00281405 -5.72331e-06 0)
(-0.00279132 -7.42273e-06 0)
(-0.00276277 -9.10422e-06 0)
(-0.00272847 -1.07623e-05 0)
(-0.00268851 -1.23907e-05 0)
(-0.00264302 -1.39829e-05 0)
(-0.00259212 -1.55327e-05 0)
(-0.00253598 -1.7035e-05 0)
(-0.00247476 -1.84847e-05 0)
(-0.00240867 -1.98756e-05 0)
(-0.00233792 -2.12009e-05 0)
(-0.00226276 -2.24536e-05 0)
(-0.00218343 -2.3627e-05 0)
(-0.00210024 -2.47151e-05 0)
(-0.00201348 -2.57126e-05 0)
(-0.00192348 -2.66131e-05 0)
(-0.00183058 -2.74093e-05 0)
(-0.00173516 -2.80946e-05 0)
(-0.00163761 -2.86625e-05 0)
(-0.00153834 -2.91071e-05 0)
(-0.00143779 -2.94222e-05 0)
(-0.0013364 -2.96018e-05 0)
(-0.00123464 -2.96396e-05 0)
(-0.00113302 -2.95288e-05 0)
(-0.00103203 -2.92638e-05 0)
(-0.000932213 -2.88394e-05 0)
(-0.000834101 -2.82507e-05 0)
(-0.000738253 -2.7493e-05 0)
(-0.000645232 -2.65623e-05 0)
(-0.000555614 -2.54552e-05 0)
(-0.000469983 -2.41687e-05 0)
(-0.000388925 -2.27001e-05 0)
(-0.000313026 -2.10478e-05 0)
(-0.000242868 -1.9211e-05 0)
(-0.000179025 -1.71904e-05 0)
(-0.000122049 -1.49887e-05 0)
(-7.24671e-05 -1.26117e-05 0)
(-3.07599e-05 -1.00699e-05 0)
(2.65582e-06 -7.38076e-06 0)
(2.74613e-05 -4.57422e-06 0)
(4.34855e-05 -1.70181e-06 0)
(5.0787e-05 1.14515e-06 0)
(4.97829e-05 3.8042e-06 0)
(4.14353e-05 5.98506e-06 0)
(2.76519e-05 7.155e-06 0)
(1.24646e-05 6.37153e-06 0)
(2.61214e-06 2.61265e-06 0)
(5.21664e-06 -1.23832e-05 0)
(2.35767e-05 -2.62851e-05 0)
(4.7453e-05 -2.55376e-05 0)
(6.39563e-05 -1.7243e-05 0)
(6.55522e-05 -4.27886e-06 0)
(4.82913e-05 1.12197e-05 0)
(9.77936e-06 2.79126e-05 0)
(-5.11703e-05 4.49486e-05 0)
(-0.000134845 6.17801e-05 0)
(-0.000240934 7.8058e-05 0)
(-0.000368697 9.35502e-05 0)
(-0.000517094 0.000108112 0)
(-0.000684887 0.000121643 0)
(-0.000870696 0.000134081 0)
(-0.00107305 0.000145391 0)
(-0.00129044 0.000155561 0)
(-0.0015213 0.000164591 0)
(-0.00176407 0.000172486 0)
(-0.00201718 0.000179259 0)
(-0.00227909 0.000184933 0)
(-0.00254827 0.000189532 0)
(-0.00282323 0.000193079 0)
(-0.00310251 0.000195609 0)
(-0.0033847 0.000197155 0)
(-0.00366841 0.000197749 0)
(-0.00395233 0.000197429 0)
(-0.00423517 0.000196233 0)
(-0.00451569 0.000194195 0)
(-0.00479272 0.000191349 0)
(-0.00506513 0.00018773 0)
(-0.00533183 0.000183376 0)
(-0.00559179 0.000178325 0)
(-0.00584404 0.000172612 0)
(-0.00608764 0.000166274 0)
(-0.00632172 0.000159347 0)
(-0.00654545 0.000151863 0)
(-0.00675805 0.000143858 0)
(-0.0069588 0.000135367 0)
(-0.00714702 0.000126425 0)
(-0.00732208 0.000117064 0)
(-0.00748339 0.000107317 0)
(-0.00763042 9.72158e-05 0)
(-0.0077627 8.67977e-05 0)
(-0.00787978 7.60954e-05 0)
(-0.00798127 6.51406e-05 0)
(-0.00806683 5.39655e-05 0)
(-0.00813619 4.26033e-05 0)
(-0.00818908 3.10885e-05 0)
(-0.00822532 1.94556e-05 0)
(-0.00824475 7.73861e-06 0)
(-0.0082473 -4.02712e-06 0)
(-0.00823291 -1.5806e-05 0)
(-0.0082016 -2.75628e-05 0)
(-0.00815341 -3.92615e-05 0)
(-0.00808848 -5.08657e-05 0)
(-0.00800695 -6.23384e-05 0)
(-0.00790906 -7.36409e-05 0)
(-0.00779508 -8.47338e-05 0)
(-0.00766534 -9.55776e-05 0)
(-0.00752023 -0.000106132 0)
(-0.00736021 -0.000116357 0)
(-0.00718578 -0.000126211 0)
(-0.0069975 -0.000135654 0)
(-0.00679601 -0.000144642 0)
(-0.006582 -0.000153131 0)
(-0.0063562 -0.00016108 0)
(-0.00611944 -0.000168444 0)
(-0.00587258 -0.000175183 0)
(-0.00561656 -0.000181253 0)
(-0.00535238 -0.00018661 0)
(-0.00508107 -0.000191212 0)
(-0.00480376 -0.000195018 0)
(-0.00452162 -0.000197986 0)
(-0.00423586 -0.000200078 0)
(-0.00394778 -0.000201254 0)
(-0.0036587 -0.000201477 0)
(-0.00337001 -0.000200709 0)
(-0.00308313 -0.000198916 0)
(-0.00279954 -0.000196069 0)
(-0.00252073 -0.000192139 0)
(-0.00224825 -0.000187105 0)
(-0.00198366 -0.000180945 0)
(-0.00172855 -0.000173646 0)
(-0.0014845 -0.000165198 0)
(-0.0012531 -0.000155599 0)
(-0.00103593 -0.000144856 0)
(-0.000834543 -0.000132986 0)
(-0.000650417 -0.000120022 0)
(-0.00048497 -0.000106014 0)
(-0.000339502 -9.10426e-05 0)
(-0.000215151 -7.5223e-05 0)
(-0.000112829 -5.87269e-05 0)
(-3.31286e-05 -4.18074e-05 0)
(2.38105e-05 -2.48433e-05 0)
(5.84884e-05 -8.41134e-06 0)
(7.23143e-05 6.60004e-06 0)
(6.79213e-05 1.88159e-05 0)
(4.96789e-05 2.61038e-05 0)
(2.52464e-05 2.52432e-05 0)
(6.36428e-06 1.24544e-05 0)
(6.65786e-06 -2.71598e-05 0)
(2.46807e-05 -4.88548e-05 0)
(4.28426e-05 -4.36512e-05 0)
(4.74738e-05 -2.07957e-05 0)
(2.92964e-05 1.32105e-05 0)
(-1.70764e-05 5.3856e-05 0)
(-9.50343e-05 9.80159e-05 0)
(-0.000206427 0.000143551 0)
(-0.000351904 0.000188984 0)
(-0.000531206 0.000233289 0)
(-0.000743426 0.000275767 0)
(-0.000987177 0.000315932 0)
(-0.00126072 0.000353451 0)
(-0.00156205 0.000388103 0)
(-0.00188902 0.000419744 0)
(-0.00223934 0.000448291 0)
(-0.00261066 0.000473706 0)
(-0.0030006 0.000495983 0)
(-0.00340673 0.000515142 0)
(-0.00382667 0.00053122 0)
(-0.00425805 0.000544278 0)
(-0.00469852 0.00055438 0)
(-0.0051458 0.000561601 0)
(-0.00559766 0.000566027 0)
(-0.00605192 0.000567749 0)
(-0.00650648 0.000566861 0)
(-0.00695931 0.000563461 0)
(-0.00740844 0.00055765 0)
(-0.00785198 0.000549524 0)
(-0.00828814 0.000539182 0)
(-0.00871518 0.000526729 0)
(-0.00913146 0.000512266 0)
(-0.0095354 0.000495897 0)
(-0.00992551 0.000477723 0)
(-0.0103004 0.000457847 0)
(-0.0106587 0.000436367 0)
(-0.0109992 0.000413381 0)
(-0.0113208 0.000388991 0)
(-0.0116222 0.000363294 0)
(-0.0119026 0.000336388 0)
(-0.0121609 0.000308368 0)
(-0.0123964 0.00027933 0)
(-0.0126082 0.000249372 0)
(-0.0127957 0.00021859 0)
(-0.0129581 0.000187082 0)
(-0.0130951 0.000154942 0)
(-0.0132061 0.000122267 0)
(-0.0132906 8.91537e-05 0)
(-0.0133485 5.57017e-05 0)
(-0.0133795 2.20111e-05 0)
(-0.0133834 -1.18165e-05 0)
(-0.0133602 -4.56786e-05 0)
(-0.0133098 -7.94728e-05 0)
(-0.0132324 -0.000113095 0)
(-0.0131282 -0.00014644 0)
(-0.0129975 -0.000179397 0)
(-0.0128405 -0.000211858 0)
(-0.0126578 -0.000243708 0)
(-0.0124499 -0.000274835 0)
(-0.0122174 -0.000305124 0)
(-0.011961 -0.000334457 0)
(-0.0116816 -0.000362716 0)
(-0.0113801 -0.000389783 0)
(-0.0110575 -0.000415534 0)
(-0.0107148 -0.000439849 0)
(-0.0103534 -0.000462604 0)
(-0.00997442 -0.000483678 0)
(-0.00957936 -0.000502947 0)
(-0.0091697 -0.000520292 0)
(-0.00874701 -0.000535591 0)
(-0.00831297 -0.000548724 0)
(-0.00786937 -0.000559575 0)
(-0.00741806 -0.000568029 0)
(-0.006961 -0.000573978 0)
(-0.00650022 -0.000577312 0)
(-0.00603784 -0.000577932 0)
(-0.00557603 -0.000575738 0)
(-0.00511705 -0.000570644 0)
(-0.00466322 -0.000562568 0)
(-0.0042169 -0.000551443 0)
(-0.0037805 -0.00053721 0)
(-0.00335646 -0.000519826 0)
(-0.00294724 -0.000499261 0)
(-0.0025553 -0.000475506 0)
(-0.00218308 -0.000448574 0)
(-0.00183298 -0.000418511 0)
(-0.00150735 -0.000385395 0)
(-0.00120842 -0.000349353 0)
(-0.000938264 -0.000310573 0)
(-0.00069876 -0.000269323 0)
(-0.000491501 -0.000225987 0)
(-0.0003177 -0.000181101 0)
(-0.000178052 -0.000135424 0)
(-7.25658e-05 -9.00311e-05 0)
(-3.20167e-07 -4.64523e-05 0)
(4.08354e-05 -6.88259e-06 0)
(5.45982e-05 2.55428e-05 0)
(4.66528e-05 4.64137e-05 0)
(2.62154e-05 4.97009e-05 0)
(7.16436e-06 2.76442e-05 0)
(5.57997e-06 -3.96963e-05 0)
(1.73e-05 -6.49315e-05 0)
(2.1334e-05 -4.82566e-05 0)
(4.17838e-06 -3.23243e-06 0)
(-4.36631e-05 6.04033e-05 0)
(-0.000128175 0.000135619 0)
(-0.000253229 0.000217328 0)
(-0.000421028 0.00030186 0)
(-0.000632421 0.000386576 0)
(-0.000887198 0.000469571 0)
(-0.00118433 0.000549474 0)
(-0.00152218 0.000625308 0)
(-0.00189863 0.000696385 0)
(-0.00231123 0.000762223 0)
(-0.00275725 0.000822496 0)
(-0.00323381 0.000877001 0)
(-0.0037379 0.000925621 0)
(-0.00426642 0.000968309 0)
(-0.00481626 0.00100508 0)
(-0.00538428 0.00103598 0)
(-0.00596737 0.0010611 0)
(-0.00656245 0.00108054 0)
(-0.00716651 0.00109445 0)
(-0.00777657 0.00110297 0)
(-0.00838975 0.00110627 0)
(-0.00900324 0.00110451 0)
(-0.00961433 0.00109788 0)
(-0.0102204 0.00108657 0)
(-0.0108189 0.00107076 0)
(-0.0114074 0.00105064 0)
(-0.0119836 0.00102641 0)
(-0.0125453 0.000998264 0)
(-0.0130903 0.000966401 0)
(-0.0136167 0.000931015 0)
(-0.0141225 0.000892302 0)
(-0.014606 0.000850455 0)
(-0.0150655 0.00080567 0)
(-0.0154993 0.000758137 0)
(-0.0159061 0.000708048 0)
(-0.0162843 0.000655594 0)
(-0.0166329 0.000600964 0)
(-0.0169506 0.000544348 0)
(-0.0172363 0.000485933 0)
(-0.0174892 0.000425909 0)
(-0.0177083 0.000364464 0)
(-0.0178929 0.000301788 0)
(-0.0180425 0.000238071 0)
(-0.0181565 0.000173503 0)
(-0.0182344 0.000108277 0)
(-0.018276 4.25915e-05 0)
(-0.018281 -2.33573e-05 0)
(-0.0182495 -8.93693e-05 0)
(-0.0181813 -0.000155243 0)
(-0.0180767 -0.000220773 0)
(-0.0179359 -0.000285752 0)
(-0.0177592 -0.000349967 0)
(-0.0175473 -0.000413202 0)
(-0.0173006 -0.000475239 0)
(-0.0170199 -0.000535856 0)
(-0.0167061 -0.00059483 0)
(-0.0163602 -0.000651931 0)
(-0.0159832 -0.00070693 0)
(-0.0155764 -0.000759593 0)
(-0.0151412 -0.000809686 0)
(-0.014679 -0.000856973 0)
(-0.0141916 -0.000901216 0)
(-0.0136805 -0.00094218 0)
(-0.0131478 -0.000979627 0)
(-0.0125954 -0.00101332 0)
(-0.0120255 -0.00104304 0)
(-0.0114404 -0.00106854 0)
(-0.0108423 -0.00108962 0)
(-0.0102338 -0.00110604 0)
(-0.00961761 -0.0011176 0)
(-0.00899631 -0.00112411 0)
(-0.00837277 -0.00112536 0)
(-0.00774989 -0.00112118 0)
(-0.00713068 -0.00111142 0)
(-0.0065182 -0.00109592 0)
(-0.00591557 -0.00107457 0)
(-0.00532599 -0.00104727 0)
(-0.00475266 -0.00101395 0)
(-0.0041988 -0.000974566 0)
(-0.00366761 -0.000929135 0)
(-0.00316229 -0.000877707 0)
(-0.00268592 -0.000820398 0)
(-0.00224149 -0.000757398 0)
(-0.00183184 -0.000688993 0)
(-0.00145958 -0.000615588 0)
(-0.00112703 -0.000537753 0)
(-0.000836112 -0.000456266 0)
(-0.000588246 -0.000372195 0)
(-0.00038419 -0.000286994 0)
(-0.000223853 -0.000202651 0)
(-0.000106051 -0.000121889 0)
(-2.82228e-05 -4.84336e-05 0)
(1.38601e-05 1.26337e-05 0)
(2.64721e-05 5.45002e-05 0)
(1.92173e-05 6.81969e-05 0)
(6.05037e-06 4.15281e-05 0)
(3.4896e-06 -4.73998e-05 0)
(5.14366e-06 -6.71473e-05 0)
(-1.12388e-05 -3.07988e-05 0)
(-5.7401e-05 4.43371e-05 0)
(-0.000142204 0.00014559 0)
(-0.000271683 0.000263548 0)
(-0.000449786 0.000391172 0)
(-0.000678788 0.000523227 0)
(-0.000959573 0.000655815 0)
(-0.00129189 0.000786045 0)
(-0.0016746 0.00091177 0)
(-0.00210582 0.00103141 0)
(-0.00258316 0.00114382 0)
(-0.00310376 0.00124817 0)
(-0.00366445 0.00134389 0)
(-0.00426185 0.0014306 0)
(-0.00489239 0.00150807 0)
(-0.00555239 0.00157618 0)
(-0.00623811 0.0016349 0)
(-0.00694579 0.0016843 0)
(-0.00767168 0.00172447 0)
(-0.00841203 0.00175556 0)
(-0.00916317 0.00177779 0)
(-0.0099215 0.00179135 0)
(-0.0106835 0.00179651 0)
(-0.0114457 0.00179353 0)
(-0.0122047 0.00178268 0)
(-0.0129574 0.00176426 0)
(-0.0137007 0.00173855 0)
(-0.0144315 0.00170588 0)
(-0.0151469 0.00166655 0)
(-0.0158443 0.00162086 0)
(-0.016521 0.00156914 0)
(-0.0171746 0.0015117 0)
(-0.0178026 0.00144885 0)
(-0.0184028 0.00138091 0)
(-0.0189732 0.00130819 0)
(-0.0195118 0.001231 0)
(-0.0200167 0.00114965 0)
(-0.0204863 0.00106446 0)
(-0.0209189 0.000975726 0)
(-0.0213132 0.00088376 0)
(-0.0216678 0.000788871 0)
(-0.0219816 0.000691367 0)
(-0.0222535 0.000591554 0)
(-0.0224826 0.00048974 0)
(-0.0226681 0.000386237 0)
(-0.0228094 0.000281357 0)
(-0.0229059 0.000175416 0)
(-0.0229573 6.87336e-05 0)
(-0.0229634 -3.83698e-05 0)
(-0.022924 -0.000145569 0)
(-0.0228391 -0.000252535 0)
(-0.022709 -0.000358931 0)
(-0.0225341 -0.000464419 0)
(-0.0223146 -0.000568654 0)
(-0.0220513 -0.000671286 0)
(-0.0217449 -0.000771961 0)
(-0.0213964 -0.000870318 0)
(-0.0210068 -0.000965993 0)
(-0.0205773 -0.00105862 0)
(-0.0201094 -0.00114782 0)
(-0.0196045 -0.00123321 0)
(-0.0190643 -0.00131443 0)
(-0.0184908 -0.00139109 0)
(-0.0178859 -0.0014628 0)
(-0.0172518 -0.00152919 0)
(-0.0165908 -0.00158988 0)
(-0.0159054 -0.00164448 0)
(-0.0151983 -0.00169264 0)
(-0.0144722 -0.00173398 0)
(-0.0137301 -0.00176815 0)
(-0.012975 -0.00179481 0)
(-0.0122102 -0.00181363 0)
(-0.011439 -0.00182428 0)
(-0.0106649 -0.00182648 0)
(-0.00989134 -0.00181995 0)
(-0.00912211 -0.00180445 0)
(-0.00836091 -0.00177975 0)
(-0.00761154 -0.00174569 0)
(-0.00687788 -0.00170211 0)
(-0.00616381 -0.00164895 0)
(-0.0054732 -0.00158615 0)
(-0.00480993 -0.00151378 0)
(-0.00417779 -0.00143194 0)
(-0.00358047 -0.00134086 0)
(-0.00302151 -0.0012409 0)
(-0.00250425 -0.00113255 0)
(-0.00203172 -0.00101653 0)
(-0.00160661 -0.000893781 0)
(-0.00123112 -0.000765588 0)
(-0.000906836 -0.00063366 0)
(-0.000634613 -0.000500268 0)
(-0.000414349 -0.000368429 0)
(-0.000244782 -0.000242144 0)
(-0.00012324 -0.000126715 0)
(-4.53764e-05 -2.91479e-05 0)
(-4.84225e-06 4.14434e-05 0)
(7.47736e-06 7.32917e-05 0)
(3.96721e-06 5.01807e-05 0)
(9.28796e-07 -4.7774e-05 0)
(-9.66568e-06 -5.11531e-05 0)
(-5.05795e-05 1.41643e-05 0)
(-0.000130746 0.000127859 0)
(-0.000257732 0.000274736 0)
(-0.000437207 0.000443229 0)
(-0.000672881 0.00062447 0)
(-0.000966843 0.000811683 0)
(-0.00131984 0.000999714 0)
(-0.00173148 0.00118463 0)
(-0.00220044 0.00136344 0)
(-0.00272464 0.00153392 0)
(-0.00330138 0.00169437 0)
(-0.00392748 0.00184357 0)
(-0.00459939 0.00198065 0)
(-0.00531329 0.00210499 0)
(-0.00606513 0.00221621 0)
(-0.00685073 0.00231408 0)
(-0.00766582 0.00239853 0)
(-0.00850608 0.00246959 0)
(-0.00936718 0.00252738 0)
(-0.0102448 0.00257209 0)
(-0.0111348 0.00260396 0)
(-0.0120328 0.00262331 0)
(-0.0129348 0.00263047 0)
(-0.0138368 0.00262581 0)
(-0.0147349 0.0026097 0)
(-0.0156253 0.00258257 0)
(-0.0165043 0.00254483 0)
(-0.0173685 0.00249693 0)
(-0.0182145 0.0024393 0)
(-0.0190391 0.0023724 0)
(-0.0198391 0.00229667 0)
(-0.0206117 0.00221257 0)
(-0.0213541 0.00212057 0)
(-0.0220636 0.00202111 0)
(-0.0227378 0.00191465 0)
(-0.0233743 0.00180165 0)
(-0.0239711 0.00168256 0)
(-0.024526 0.00155783 0)
(-0.0250373 0.00142792 0)
(-0.0255032 0.00129327 0)
(-0.0259223 0.00115435 0)
(-0.026293 0.00101159 0)
(-0.0266142 0.000865453 0)
(-0.0268848 0.00071639 0)
(-0.0271038 0.000564858 0)
(-0.0272706 0.000411317 0)
(-0.0273845 0.000256231 0)
(-0.0274451 0.000100066 0)
(-0.0274521 -5.67062e-05 0)
(-0.0274053 -0.000213608 0)
(-0.0273048 -0.000370154 0)
(-0.0271509 -0.000525855 0)
(-0.0269439 -0.000680211 0)
(-0.0266844 -0.00083272 0)
(-0.0263731 -0.000982868 0)
(-0.026011 -0.00113014 0)
(-0.025599 -0.001274 0)
(-0.0251385 -0.00141393 0)
(-0.024631 -0.00154937 0)
(-0.024078 -0.0016798 0)
(-0.0234814 -0.00180466 0)
(-0.0228431 -0.00192339 0)
(-0.0221654 -0.00203545 0)
(-0.0214507 -0.00214028 0)
(-0.0207015 -0.00223732 0)
(-0.0199205 -0.00232603 0)
(-0.0191106 -0.00240587 0)
(-0.018275 -0.0024763 0)
(-0.017417 -0.00253679 0)
(-0.0165399 -0.00258684 0)
(-0.0156475 -0.00262595 0)
(-0.0147433 -0.00265364 0)
(-0.0138314 -0.00266949 0)
(-0.0129158 -0.00267306 0)
(-0.0120006 -0.00266398 0)
(-0.0110902 -0.0026419 0)
(-0.0101887 -0.00260653 0)
(-0.0093007 -0.00255764 0)
(-0.00843063 -0.00249506 0)
(-0.00758295 -0.00241868 0)
(-0.00676215 -0.00232849 0)
(-0.00597266 -0.0022246 0)
(-0.00521881 -0.00210722 0)
(-0.0045048 -0.00197672 0)
(-0.00383465 -0.00183367 0)
(-0.00321213 -0.00167883 0)
(-0.00264063 -0.00151327 0)
(-0.00212317 -0.0013384 0)
(-0.00166219 -0.00115608 0)
(-0.0012595 -0.000968726 0)
(-0.000916076 -0.0007795 0)
(-0.000631933 -0.000592489 0)
(-0.00040591 -0.000412987 0)
(-0.000235482 -0.000247833 0)
(-0.000116515 -0.000105838 0)
(-4.29827e-05 1.78431e-06 0)
(-6.90676e-06 6.08035e-05 0)
(1.44206e-06 5.1791e-05 0)
(-1.80209e-06 -3.99781e-05 0)
(-2.5795e-05 -1.4473e-05 0)
(-9.37179e-05 9.01717e-05 0)
(-0.000211102 0.000251429 0)
(-0.000383816 0.000452083 0)
(-0.000616832 0.000678713 0)
(-0.000913362 0.000920812 0)
(-0.0012751 0.00117018 0)
(-0.00170248 0.00142044 0)
(-0.00219487 0.00166662 0)
(-0.0027507 0.00190489 0)
(-0.00336763 0.00213229 0)
(-0.00404268 0.00234659 0)
(-0.00477235 0.00254611 0)
(-0.00555275 0.00272962 0)
(-0.00637965 0.00289625 0)
(-0.00724859 0.00304541 0)
(-0.00815496 0.00317676 0)
(-0.00909401 0.00329014 0)
(-0.0100609 0.00338555 0)
(-0.0110509 0.00346311 0)
(-0.0120591 0.00352303 0)
(-0.0130807 0.00356562 0)
(-0.0141111 0.00359127 0)
(-0.0151457 0.00360039 0)
(-0.0161798 0.00359347 0)
(-0.0172091 0.00357101 0)
(-0.0182294 0.00353356 0)
(-0.0192364 0.00348168 0)
(-0.0202263 0.00341595 0)
(-0.0211952 0.00333697 0)
(-0.0221394 0.00324533 0)
(-0.0230554 0.00314164 0)
(-0.0239399 0.00302653 0)
(-0.0247897 0.00290062 0)
(-0.0256019 0.00276451 0)
(-0.0263736 0.00261884 0)
(-0.0271022 0.00246422 0)
(-0.0277852 0.00230127 0)
(-0.0284203 0.00213062 0)
(-0.0290054 0.00195287 0)
(-0.0295385 0.00176864 0)
(-0.0300179 0.00157856 0)
(-0.0304421 0.00138324 0)
(-0.0308096 0.0011833 0)
(-0.0311191 0.00097937 0)
(-0.0313696 0.000772066 0)
(-0.0315603 0.000562021 0)
(-0.0316905 0.00034987 0)
(-0.0317597 0.000136255 0)
(-0.0317675 -7.81796e-05 0)
(-0.0317138 -0.000292777 0)
(-0.0315987 -0.000506875 0)
(-0.0314225 -0.0007198 0)
(-0.0311855 -0.000930873 0)
(-0.0308884 -0.0011394 0)
(-0.0305321 -0.00134469 0)
(-0.0301176 -0.00154602 0)
(-0.0296462 -0.00174269 0)
(-0.0291193 -0.00193396 0)
(-0.0285385 -0.00211909 0)
(-0.0279057 -0.00229735 0)
(-0.027223 -0.00246799 0)
(-0.0264928 -0.00263026 0)
(-0.0257173 -0.0027834 0)
(-0.0248995 -0.00292667 0)
(-0.0240422 -0.00305932 0)
(-0.0231484 -0.0031806 0)
(-0.0222216 -0.00328977 0)
(-0.0212653 -0.00338612 0)
(-0.0202832 -0.00346895 0)
(-0.0192791 -0.00353755 0)
(-0.0182572 -0.00359129 0)
(-0.0172217 -0.00362952 0)
(-0.016177 -0.00365166 0)
(-0.0151278 -0.00365715 0)
(-0.0140786 -0.0036455 0)
(-0.0130343 -0.00361627 0)
(-0.0119997 -0.00356908 0)
(-0.0109799 -0.00350364 0)
(-0.00997984 -0.00341975 0)
(-0.00900451 -0.00331731 0)
(-0.00805891 -0.00319634 0)
(-0.00714798 -0.00305703 0)
(-0.00627654 -0.00289971 0)
(-0.00544924 -0.00272494 0)
(-0.00467051 -0.00253351 0)
(-0.00394451 -0.00232652 0)
(-0.00327498 -0.00210544 0)
(-0.00266523 -0.00187218 0)
(-0.00211799 -0.00162922 0)
(-0.00163528 -0.00137975 0)
(-0.00121832 -0.00112782 0)
(-0.000867345 -0.000878582 0)
(-0.000581458 -0.000638589 0)
(-0.000358499 -0.000416112 0)
(-0.000194808 -0.000221592 0)
(-8.49861e-05 -6.80634e-05 0)
(-2.26234e-05 2.82187e-05 0)
(-1.24563e-06 4.54672e-05 0)
(-4.54962e-06 -2.36467e-05 0)
(-4.24273e-05 4.4239e-05 0)
(-0.000138667 0.000199362 0)
(-0.000295161 0.000417686 0)
(-0.000515831 0.000680477 0)
(-0.000804738 0.000972798 0)
(-0.00116438 0.00128273 0)
(-0.00159587 0.00160081 0)
(-0.00209922 0.00191951 0)
(-0.00267342 0.00223287 0)
(-0.00331659 0.00253623 0)
(-0.00402607 0.00282592 0)
(-0.00479858 0.00309911 0)
(-0.00563031 0.00335367 0)
(-0.00651701 0.00358797 0)
(-0.00745411 0.00380086 0)
(-0.00843676 0.00399154 0)
(-0.00945994 0.00415951 0)
(-0.0105185 0.00430452 0)
(-0.0116071 0.0044265 0)
(-0.0127206 0.00452556 0)
(-0.0138537 0.00460195 0)
(-0.0150011 0.00465603 0)
(-0.0161576 0.00468825 0)
(-0.0173182 0.00469913 0)
(-0.0184779 0.00468927 0)
(-0.0196317 0.00465929 0)
(-0.0207751 0.00460989 0)
(-0.0219034 0.00454178 0)
(-0.0230122 0.00445568 0)
(-0.0240973 0.00435238 0)
(-0.0251546 0.00423262 0)
(-0.0261802 0.00409721 0)
(-0.0271704 0.00394694 0)
(-0.0281217 0.0037826 0)
(-0.0290307 0.00360499 0)
(-0.0298944 0.00341493 0)
(-0.0307097 0.00321321 0)
(-0.031474 0.00300064 0)
(-0.0321846 0.00277802 0)
(-0.0328392 0.00254617 0)
(-0.0334357 0.00230587 0)
(-0.0339721 0.00205795 0)
(-0.0344466 0.0018032 0)
(-0.0348576 0.00154244 0)
(-0.0352038 0.00127647 0)
(-0.035484 0.00100612 0)
(-0.0356973 0.000732211 0)
(-0.0358428 0.000455565 0)
(-0.0359201 0.00017702 0)
(-0.0359287 -0.000102577 0)
(-0.0358686 -0.000382372 0)
(-0.0357397 -0.000661501 0)
(-0.0355425 -0.000939086 0)
(-0.0352774 -0.00121424 0)
(-0.034945 -0.00148606 0)
(-0.0345464 -0.00175365 0)
(-0.0340827 -0.00201606 0)
(-0.0335553 -0.00227238 0)
(-0.0329659 -0.00252166 0)
(-0.0323162 -0.00276293 0)
(-0.0316083 -0.00299524 0)
(-0.0308446 -0.00321763 0)
(-0.0300276 -0.00342911 0)
(-0.0291601 -0.00362871 0)
(-0.0282451 -0.00381546 0)
(-0.0272858 -0.0039884 0)
(-0.0262857 -0.00414656 0)
(-0.0252485 -0.004289 0)
(-0.0241781 -0.00441479 0)
(-0.0230787 -0.00452303 0)
(-0.0219544 -0.00461282 0)
(-0.02081 -0.00468335 0)
(-0.01965 -0.0047338 0)
(-0.0184794 -0.00476342 0)
(-0.0173031 -0.00477153 0)
(-0.0161264 -0.00475749 0)
(-0.0149546 -0.00472077 0)
(-0.013793 -0.00466091 0)
(-0.0126471 -0.00457756 0)
(-0.0115223 -0.00447049 0)
(-0.0104242 -0.00433963 0)
(-0.0093582 -0.00418504 0)
(-0.00832971 -0.00400699 0)
(-0.00734399 -0.00380599 0)
(-0.00640608 -0.00358277 0)
(-0.00552082 -0.00333842 0)
(-0.00469271 -0.00307439 0)
(-0.00392585 -0.00279257 0)
(-0.00322385 -0.00249541 0)
(-0.00258972 -0.00218604 0)
(-0.0020258 -0.0018684 0)
(-0.0015336 -0.00154744 0)
(-0.00111368 -0.00122935 0)
(-0.000765577 -0.00092184 0)
(-0.000487663 -0.000634472 0)
(-0.000276947 -0.00037911 0)
(-0.000128876 -0.000170299 0)
(-3.88655e-05 -2.58608e-05 0)
(-3.94892e-06 3.08215e-05 0)
(-7.23817e-06 1.27193e-06 0)
(-5.9081e-05 0.000125557 0)
(-0.000184151 0.000342821 0)
(-0.000380677 0.000628124 0)
(-0.000650539 0.000961651 0)
(-0.000996735 0.00132729 0)
(-0.00142089 0.00171194 0)
(-0.00192343 0.00210503 0)
(-0.0025038 0.00249801 0)
(-0.00316053 0.00288401 0)
(-0.00389132 0.00325756 0)
(-0.00469318 0.00361431 0)
(-0.00556247 0.00395086 0)
(-0.00649504 0.00426457 0)
(-0.00748631 0.00455345 0)
(-0.00853135 0.00481602 0)
(-0.00962494 0.00505127 0)
(-0.0107617 0.0052585 0)
(-0.0119361 0.00543737 0)
(-0.0131424 0.00558773 0)
(-0.014375 0.00570969 0)
(-0.0156281 0.0058035 0)
(-0.0168962 0.00586957 0)
(-0.0181736 0.00590842 0)
(-0.0194548 0.00592068 0)
(-0.0207344 0.00590705 0)
(-0.0220072 0.0058683 0)
(-0.0232679 0.00580527 0)
(-0.0245116 0.00571883 0)
(-0.0257336 0.00560988 0)
(-0.0269291 0.00547936 0)
(-0.0280938 0.00532823 0)
(-0.0292234 0.00515746 0)
(-0.0303138 0.00496804 0)
(-0.0313613 0.00476096 0)
(-0.0323621 0.00453723 0)
(-0.0333129 0.00429785 0)
(-0.0342104 0.00404383 0)
(-0.0350516 0.00377617 0)
(-0.0358337 0.00349589 0)
(-0.0365542 0.003204 0)
(-0.0372106 0.0029015 0)
(-0.0378008 0.00258942 0)
(-0.0383229 0.00226876 0)
(-0.0387752 0.00194054 0)
(-0.0391561 0.00160579 0)
(-0.0394644 0.00126554 0)
(-0.039699 0.000920823 0)
(-0.0398592 0.000572676 0)
(-0.0399442 0.000222157 0)
(-0.0399537 -0.000129673 0)
(-0.0398875 -0.000481735 0)
(-0.0397458 -0.000832944 0)
(-0.0395288 -0.0011822 0)
(-0.0392371 -0.00152838 0)
(-0.0388715 -0.00187035 0)
(-0.038433 -0.00220698 0)
(-0.0379229 -0.00253711 0)
(-0.0373427 -0.00285955 0)
(-0.0366942 -0.00317313 0)
(-0.0359794 -0.00347665 0)
(-0.0352006 -0.00376891 0)
(-0.0343603 -0.00404868 0)
(-0.0334613 -0.00431477 0)
(-0.0325067 -0.00456594 0)
(-0.0314997 -0.00480099 0)
(-0.0304438 -0.00501871 0)
(-0.0293429 -0.0052179 0)
(-0.028201 -0.00539739 0)
(-0.0270223 -0.00555602 0)
(-0.0258114 -0.00569267 0)
(-0.0245729 -0.00580626 0)
(-0.0233117 -0.00589575 0)
(-0.0220331 -0.00596016 0)
(-0.0207423 -0.00599856 0)
(-0.0194447 -0.00601011 0)
(-0.018146 -0.00599406 0)
(-0.0168519 -0.00594976 0)
(-0.0155682 -0.00587666 0)
(-0.0143008 -0.00577438 0)
(-0.0130558 -0.00564265 0)
(-0.0118389 -0.00548143 0)
(-0.0106561 -0.00529084 0)
(-0.00951315 -0.00507127 0)
(-0.00841577 -0.00482337 0)
(-0.00736939 -0.00454813 0)
(-0.00637919 -0.00424691 0)
(-0.00545004 -0.00392152 0)
(-0.00458638 -0.00357433 0)
(-0.00379215 -0.00320833 0)
(-0.00307072 -0.00282728 0)
(-0.00242474 -0.00243588 0)
(-0.00185613 -0.00203994 0)
(-0.00136588 -0.0016466 0)
(-0.000954066 -0.00126462 0)
(-0.000619726 -0.000904722 0)
(-0.000360686 -0.000579954 0)
(-0.000173378 -0.00030607 0)
(-5.51502e-05 -0.000102036 0)
(-6.58885e-06 7.78097e-06 0)
(-9.82947e-06 3.46695e-05 0)
(-7.5473e-05 0.000229528 0)
(-0.000229379 0.000520917 0)
(-0.000466183 0.000883414 0)
(-0.000785727 0.0012965 0)
(-0.00118989 0.00174319 0)
(-0.00167932 0.00220944 0)
(-0.00225364 0.00268372 0)
(-0.00291162 0.00315661 0)
(-0.00365127 0.00362041 0)
(-0.00446982 0.00406889 0)
(-0.00536384 0.00449708 0)
(-0.00632932 0.00490099 0)
(-0.00736175 0.00527752 0)
(-0.00845618 0.00562429 0)
(-0.00960734 0.00593951 0)
(-0.0108097 0.00622191 0)
(-0.0120574 0.00647064 0)
(-0.0133446 0.00668521 0)
(-0.0146652 0.00686542 0)
(-0.0160132 0.00701133 0)
(-0.0173826 0.00712322 0)
(-0.0187671 0.00720154 0)
(-0.020161 0.00724688 0)
(-0.0215582 0.00725996 0)
(-0.022953 0.00724162 0)
(-0.0243398 0.00719276 0)
(-0.0257129 0.00711436 0)
(-0.0270671 0.00700748 0)
(-0.0283972 0.00687319 0)
(-0.0296983 0.00671262 0)
(-0.0309655 0.00652692 0)
(-0.0321943 0.00631727 0)
(-0.0333803 0.00608486 0)
(-0.0345194 0.00583091 0)
(-0.0356076 0.00555662 0)
(-0.0366413 0.00526321 0)
(-0.037617 0.00495192 0)
(-0.0385314 0.00462397 0)
(-0.0393815 0.0042806 0)
(-0.0401645 0.00392304 0)
(-0.0408779 0.00355252 0)
(-0.0415194 0.00317028 0)
(-0.0420867 0.00277757 0)
(-0.0425782 0.00237562 0)
(-0.0429922 0.0019657 0)
(-0.0433272 0.00154906 0)
(-0.0435822 0.00112696 0)
(-0.0437563 0.000700685 0)
(-0.0438487 0.000271523 0)
(-0.0438591 -0.000159226 0)
(-0.0437874 -0.000590246 0)
(-0.0436336 -0.00102021 0)
(-0.043398 -0.00144776 0)
(-0.0430812 -0.00187154 0)
(-0.0426842 -0.00229017 0)
(-0.042208 -0.00270225 0)
(-0.0416539 -0.00310636 0)
(-0.0410237 -0.00350108 0)
(-0.0403193 -0.00388495 0)
(-0.0395428 -0.00425653 0)
(-0.0386966 -0.00461434 0)
(-0.0377836 -0.0049569 0)
(-0.0368068 -0.00528274 0)
(-0.0357693 -0.00559038 0)
(-0.0346748 -0.00587835 0)
(-0.033527 -0.00614517 0)
(-0.0323301 -0.0063894 0)
(-0.0310883 -0.00660962 0)
(-0.0298063 -0.00680443 0)
(-0.0284889 -0.00697248 0)
(-0.0271412 -0.00711246 0)
(-0.0257684 -0.00722312 0)
(-0.024376 -0.00730329 0)
(-0.0229698 -0.00735186 0)
(-0.0215556 -0.00736784 0)
(-0.0201394 -0.00735034 0)
(-0.0187274 -0.00729858 0)
(-0.0173257 -0.00721195 0)
(-0.0159408 -0.00709001 0)
(-0.014579 -0.00693248 0)
(-0.0132465 -0.00673934 0)
(-0.0119498 -0.00651078 0)
(-0.0106949 -0.00624731 0)
(-0.00948793 -0.00594977 0)
(-0.00833472 -0.00561937 0)
(-0.00724083 -0.00525779 0)
(-0.00621146 -0.00486722 0)
(-0.00525143 -0.00445047 0)
(-0.00436504 -0.00401109 0)
(-0.00355603 -0.00355346 0)
(-0.00282748 -0.00308299 0)
(-0.00218174 -0.0026063 0)
(-0.00162034 -0.00213141 0)
(-0.00114398 -0.00166802 0)
(-0.000752467 -0.00122783 0)
(-0.000444538 -0.000824857 0)
(-0.000217682 -0.000475792 0)
(-7.11964e-05 -0.00020039 0)
(-9.13226e-06 -2.3546e-05 0)
(-1.23071e-05 7.63285e-05 0)
(-9.14591e-05 0.000355897 0)
(-0.000273862 0.000733534 0)
(-0.000550749 0.00118365 0)
(-0.000919957 0.00168531 0)
(-0.00138222 0.00222091 0)
(-0.00193717 0.00277568 0)
(-0.00258354 0.00333733 0)
(-0.0033194 0.00389564 0)
(-0.0041421 0.00444221 0)
(-0.00504837 0.00497014 0)
(-0.0060343 0.00547383 0)
(-0.00709546 0.00594879 0)
(-0.00822693 0.00639145 0)
(-0.00942341 0.00679906 0)
(-0.0106792 0.00716952 0)
(-0.0119885 0.00750132 0)
(-0.0133451 0.00779342 0)
(-0.0147427 0.0080452 0)
(-0.0161749 0.00825641 0)
(-0.0176354 0.00842706 0)
(-0.0191177 0.00855744 0)
(-0.0206153 0.00864804 0)
(-0.022122 0.00869953 0)
(-0.0236314 0.00871273 0)
(-0.0251374 0.00868859 0)
(-0.0266341 0.00862818 0)
(-0.0281155 0.00853263 0)
(-0.029576 0.00840316 0)
(-0.03101 0.00824105 0)
(-0.0324124 0.00804762 0)
(-0.0337779 0.00782423 0)
(-0.0351018 0.00757227 0)
(-0.0363794 0.00729315 0)
(-0.0376062 0.0069883 0)
(-0.0387781 0.00665918 0)
(-0.0398911 0.00630723 0)
(-0.0409415 0.00593391 0)
(-0.0419259 0.00554069 0)
(-0.042841 0.00512904 0)
(-0.0436838 0.00470043 0)
(-0.0444516 0.00425633 0)
(-0.045142 0.00379824 0)
(-0.0457526 0.00332762 0)
(-0.0462816 0.00284597 0)
(-0.0467272 0.0023548 0)
(-0.0470878 0.00185559 0)
(-0.0473624 0.00134988 0)
(-0.0475498 0.000839179 0)
(-0.0476495 0.000325041 0)
(-0.047661 -0.000190982 0)
(-0.0475841 -0.000707315 0)
(-0.0474189 -0.00122237 0)
(-0.0471657 -0.00173453 0)
(-0.0468252 -0.00224216 0)
(-0.0463984 -0.00274363 0)
(-0.0458864 -0.00323725 0)
(-0.0452906 -0.00372135 0)
(-0.0446128 -0.0041942 0)
(-0.0438552 -0.00465409 0)