/*--------------------------------*- C++ -*----------------------------------*\
| =========                 |                                                 |
| \\      /  F ield         | OpenFOAM: The Open Source CFD Toolbox           |
|  \\    /   O peration     | Version:  2212                                  |
|   \\  /    A nd           | Website:  www.openfoam.com                      |
|    \\/     M anipulation  |                                                 |
\*---------------------------------------------------------------------------*/
FoamFile
{
    version     2.0;
    format      ascii;
    arch        "LSB;label=32;scalar=64";
    class       volVectorField;
    location    "0.067";
    object      U;
}
// * * * * * * * * * * * * * * * * * * * * * * * * * * * * * * * * * * * * * //

dimensions      [0 1 -1 0 0 0 0];

internalField   nonuniform List<vector> 
10000
(
(2.95963e-06 -2.90201e-06 0)
(1.44133e-05 -7.23786e-06 0)
(3.23366e-05 -8.23427e-06 0)
(4.90309e-05 -7.09753e-06 0)
(5.9832e-05 -4.76412e-06 0)
(6.24489e-05 -1.81185e-06 0)
(5.56252e-05 1.41985e-06 0)
(3.877e-05 4.71499e-06 0)
(1.17466e-05 7.95929e-06 0)
(-2.52898e-05 1.10848e-05 0)
(-7.20006e-05 1.40439e-05 0)
(-0.000127912 1.68171e-05 0)
(-0.000192478 1.93907e-05 0)
(-0.000265099 2.17535e-05 0)
(-0.000345131 2.3904e-05 0)
(-0.000431919 2.58426e-05 0)
(-0.000524797 2.75684e-05 0)
(-0.000623089 2.90865e-05 0)
(-0.000726126 3.04015e-05 0)
(-0.000833249 3.15168e-05 0)
(-0.000943804 3.24375e-05 0)
(-0.00105715 3.31684e-05 0)
(-0.00117266 3.37158e-05 0)
(-0.00128973 3.40847e-05 0)
(-0.00140777 3.42811e-05 0)
(-0.00152619 3.43121e-05 0)
(-0.00164445 3.41834e-05 0)
(-0.00176201 3.39006e-05 0)
(-0.00187835 3.34702e-05 0)
(-0.00199297 3.28997e-05 0)
(-0.00210541 3.21958e-05 0)
(-0.0022152 3.13636e-05 0)
(-0.0023219 3.04084e-05 0)
(-0.00242512 2.93362e-05 0)
(-0.00252445 2.81537e-05 0)
(-0.00261951 2.68672e-05 0)
(-0.00270997 2.54825e-05 0)
(-0.00279548 2.40066e-05 0)
(-0.00287575 2.24454e-05 0)
(-0.00295047 2.0804e-05 0)
(-0.00301938 1.90882e-05 0)
(-0.00308224 1.73042e-05 0)
(-0.00313883 1.54586e-05 0)
(-0.00318893 1.35587e-05 0)
(-0.00323237 1.16103e-05 0)
(-0.00326899 9.61875e-06 0)
(-0.00329865 7.59022e-06 0)
(-0.00332125 5.53153e-06 0)
(-0.00333667 3.44968e-06 0)
(-0.00334487 1.35137e-06 0)
(-0.0033458 -7.56643e-07 0)
(-0.00333942 -2.86785e-06 0)
(-0.00332576 -4.97591e-06 0)
(-0.00330483 -7.07326e-06 0)
(-0.00327668 -9.15179e-06 0)
(-0.00324141 -1.12045e-05 0)
(-0.00319911 -1.32243e-05 0)
(-0.0031499 -1.52035e-05 0)
(-0.00309396 -1.71347e-05 0)
(-0.00303146 -1.90107e-05 0)
(-0.0029626 -2.0823e-05 0)
(-0.00288764 -2.25634e-05 0)
(-0.00280682 -2.42242e-05 0)
(-0.00272044 -2.57975e-05 0)
(-0.00262883 -2.72748e-05 0)
(-0.00253232 -2.86486e-05 0)
(-0.00243128 -2.99117e-05 0)
(-0.00232612 -3.10565e-05 0)
(-0.00221726 -3.20749e-05 0)
(-0.00210514 -3.29587e-05 0)
(-0.00199025 -3.37e-05 0)
(-0.00187308 -3.42915e-05 0)
(-0.00175415 -3.47272e-05 0)
(-0.00163402 -3.50008e-05 0)
(-0.00151324 -3.51056e-05 0)
(-0.0013924 -3.50347e-05 0)
(-0.00127211 -3.4782e-05 0)
(-0.00115299 -3.43424e-05 0)
(-0.00103567 -3.37108e-05 0)
(-0.000920818 -3.28823e-05 0)
(-0.000809082 -3.18532e-05 0)
(-0.000701138 -3.06203e-05 0)
(-0.000597661 -2.9181e-05 0)
(-0.000499327 -2.75335e-05 0)
(-0.000406811 -2.56772e-05 0)
(-0.000320779 -2.3613e-05 0)
(-0.000241884 -2.13425e-05 0)
(-0.000170759 -1.88692e-05 0)
(-0.000108003 -1.61996e-05 0)
(-5.41709e-05 -1.33447e-05 0)
(-9.75172e-06 -1.03221e-05 0)
(2.48584e-05 -7.1589e-06 0)
(4.93965e-05 -3.8979e-06 0)
(6.37943e-05 -6.09254e-07 0)
(6.82767e-05 2.58867e-06 0)
(6.35168e-05 5.49216e-06 0)
(5.08526e-05 7.74848e-06 0)
(3.27394e-05 8.72973e-06 0)
(1.40805e-05 7.37135e-06 0)
(2.72271e-06 2.72294e-06 0)
(7.71549e-06 -1.45459e-05 0)
(3.05554e-05 -2.98992e-05 0)
(6.07416e-05 -3.14237e-05 0)
(8.44418e-05 -2.37124e-05 0)
(9.26952e-05 -1.02082e-05 0)
(8.03338e-05 6.76171e-06 0)
(4.40986e-05 2.55754e-05 0)
(-1.78258e-05 4.51594e-05 0)
(-0.000106146 6.47973e-05 0)
(-0.000220806 8.40078e-05 0)
(-0.000361181 0.00010248 0)
(-0.000526257 0.000119994 0)
(-0.000714755 0.000136405 0)
(-0.000925182 0.00015162 0)
(-0.00115592 0.000165578 0)
(-0.00140527 0.000178241 0)
(-0.00167145 0.000189593 0)
(-0.00195267 0.00019963 0)
(-0.00224711 0.000208359 0)
(-0.00255297 0.000215793 0)
(-0.00286844 0.000221954 0)
(-0.00319175 0.000226866 0)
(-0.00352116 0.000230558 0)
(-0.00385497 0.00023306 0)
(-0.00419151 0.000234408 0)
(-0.00452915 0.000234638 0)
(-0.00486634 0.000233787 0)
(-0.00520155 0.000231891 0)
(-0.0055333 0.00022899 0)
(-0.0058602 0.000225126 0)
(-0.00618088 0.000220339 0)
(-0.00649404 0.000214667 0)
(-0.00679843 0.000208154 0)
(-0.00709288 0.00020084 0)
(-0.00737626 0.000192765 0)
(-0.00764749 0.000183969 0)
(-0.00790557 0.000174497 0)
(-0.00814955 0.000164389 0)
(-0.00837855 0.000153688 0)
(-0.00859173 0.000142435 0)
(-0.00878833 0.000130672 0)
(-0.00896763 0.000118441 0)
(-0.00912901 0.000105787 0)
(-0.00927188 9.27512e-05 0)
(-0.00939571 7.93782e-05 0)
(-0.00950006 6.57118e-05 0)
(-0.00958454 5.17969e-05 0)
(-0.00964881 3.76784e-05 0)
(-0.00969263 2.34022e-05 0)
(-0.0097158 9.01504e-06 0)
(-0.0097182 -5.43657e-06 0)
(-0.00969977 -1.99046e-05 0)
(-0.00966052 -3.43406e-05 0)
(-0.00960055 -4.86955e-05 0)
(-0.00952002 -6.29189e-05 0)
(-0.00941914 -7.69599e-05 0)
(-0.00929823 -9.07675e-05 0)
(-0.00915767 -0.00010429 0)
(-0.0089979 -0.000117474 0)
(-0.00881946 -0.000130269 0)
(-0.00862295 -0.000142621 0)
(-0.00840905 -0.000154475 0)
(-0.00817853 -0.000165778 0)
(-0.00793221 -0.000176476 0)
(-0.00767101 -0.000186515 0)
(-0.00739591 -0.000195843 0)
(-0.00710798 -0.000204408 0)
(-0.00680836 -0.000212158 0)
(-0.00649826 -0.000219042 0)
(-0.00617894 -0.000225009 0)
(-0.00585178 -0.000230009 0)
(-0.00551817 -0.000233995 0)
(-0.00517961 -0.000236925 0)
(-0.00483763 -0.000238754 0)
(-0.00449384 -0.000239443 0)
(-0.00414989 -0.000238953 0)
(-0.00380748 -0.00023725 0)
(-0.00346834 -0.000234301 0)
(-0.00313428 -0.000230078 0)
(-0.00280709 -0.000224559 0)
(-0.00248862 -0.000217726 0)
(-0.00218072 -0.000209568 0)
(-0.00188523 -0.000200079 0)
(-0.00160401 -0.000189262 0)
(-0.00133889 -0.000177131 0)
(-0.00109164 -0.000163709 0)
(-0.000863988 -0.000149035 0)
(-0.000657577 -0.000133165 0)
(-0.000473923 -0.000116183 0)
(-0.000314379 -9.82068e-05 0)
(-0.00018007 -7.94008e-05 0)
(-7.18199e-05 -5.99997e-05 0)
(9.96662e-06 -4.03379e-05 0)
(6.54555e-05 -2.09018e-05 0)
(9.56088e-05 -2.41182e-06 0)
(0.000102492 1.40496e-05 0)
(8.96229e-05 2.68503e-05 0)
(6.25196e-05 3.35221e-05 0)
(3.04867e-05 3.04836e-05 0)
(7.36376e-06 1.40685e-05 0)
(8.98926e-06 -3.32857e-05 0)
(3.30238e-05 -6.0542e-05 0)
(6.01172e-05 -5.80185e-05 0)
(7.35452e-05 -3.52901e-05 0)
(6.24107e-05 1.06606e-06 0)
(1.99808e-05 4.61109e-05 0)
(-5.82539e-05 9.62038e-05 0)
(-0.000174964 0.000148721 0)
(-0.000331389 0.000201796 0)
(-0.00052763 0.000254122 0)
(-0.000762972 0.000304763 0)
(-0.00103609 0.000353058 0)
(-0.00134516 0.000398547 0)
(-0.00168808 0.000440903 0)
(-0.00206245 0.000479905 0)
(-0.00246573 0.00051541 0)
(-0.00289525 0.000547333 0)
(-0.00334825 0.000575628 0)
(-0.00382196 0.000600289 0)
(-0.00431356 0.000621336 0)
(-0.00482027 0.000638804 0)
(-0.00533931 0.000652752 0)
(-0.00586794 0.000663248 0)
(-0.00640348 0.000670368 0)
(-0.00694329 0.000674204 0)
(-0.00748481 0.000674849 0)
(-0.00802554 0.000672403 0)
(-0.00856307 0.000666968 0)
(-0.00909505 0.000658652 0)
(-0.00961923 0.000647567 0)
(-0.0101334 0.000633823 0)
(-0.0106356 0.000617537 0)
(-0.0111237 0.000598823 0)
(-0.0115958 0.000577798 0)
(-0.0120502 0.000554581 0)
(-0.0124852 0.000529287 0)
(-0.012899 0.000502037 0)
(-0.0132902 0.000472951 0)
(-0.0136574 0.00044215 0)
(-0.0139992 0.000409755 0)
(-0.0143144 0.000375889 0)
(-0.0146018 0.000340674 0)
(-0.0148605 0.000304236 0)
(-0.0150894 0.000266699 0)
(-0.0152879 0.000228189 0)
(-0.015455 0.000188835 0)
(-0.0155903 0.000148767 0)
(-0.0156931 0.000108117 0)
(-0.0157631 6.70161e-05 0)
(-0.0158 2.56e-05 0)
(-0.0158036 -1.59947e-05 0)
(-0.0157737 -5.76302e-05 0)
(-0.0157105 -9.91654e-05 0)
(-0.0156141 -0.000140458 0)
(-0.0154847 -0.000181363 0)
(-0.0153227 -0.000221736 0)
(-0.0151286 -0.000261427 0)
(-0.014903 -0.000300287 0)
(-0.0146467 -0.000338166 0)
(-0.0143605 -0.000374913 0)
(-0.0140453 -0.000410374 0)
(-0.0137024 -0.000444397 0)
(-0.0133328 -0.000476826 0)
(-0.0129379 -0.000507509 0)
(-0.0125193 -0.000536294 0)
(-0.0120785 -0.000563029 0)
(-0.0116171 -0.000587567 0)
(-0.0111371 -0.000609759 0)
(-0.0106403 -0.000629462 0)
(-0.0101288 -0.000646533 0)
(-0.0096048 -0.000660836 0)
(-0.00907047 -0.000672239 0)
(-0.00852821 -0.000680618 0)
(-0.00798046 -0.000685855 0)
(-0.00742977 -0.000687839 0)
(-0.00687876 -0.000686467 0)
(-0.00633011 -0.000681646 0)
(-0.00578659 -0.000673294 0)
(-0.005251 -0.000661342 0)
(-0.00472618 -0.000645734 0)
(-0.00421502 -0.000626432 0)
(-0.0037204 -0.000603417 0)
(-0.00324519 -0.000576693 0)
(-0.00279227 -0.000546287 0)
(-0.00236442 -0.000512258 0)
(-0.00196437 -0.000474703 0)
(-0.00159472 -0.000433765 0)
(-0.00125792 -0.000389648 0)
(-0.000956193 -0.000342632 0)
(-0.000691466 -0.000293101 0)
(-0.000465295 -0.000241577 0)
(-0.000278735 -0.000188771 0)
(-0.000132181 -0.00013566 0)
(-2.51685e-05 -8.35938e-05 0)
(4.39016e-05 -3.4454e-05 0)
(7.81068e-05 9.12223e-06 0)
(8.2336e-05 4.34528e-05 0)
(6.375e-05 6.34832e-05 0)
(3.36441e-05 6.25435e-05 0)
(8.74019e-06 3.27283e-05 0)
(7.77246e-06 -5.10394e-05 0)
(2.55072e-05 -8.53894e-05 0)
(3.8242e-05 -7.1846e-05 0)
(2.89163e-05 -2.55313e-05 0)
(-1.40161e-05 4.34946e-05 0)
(-9.80346e-05 0.000127518 0)
(-0.00022826 0.00022062 0)
(-0.00040788 0.000318368 0)
(-0.000638411 0.000417494 0)
(-0.000920103 0.000515591 0)
(-0.00125218 0.000610886 0)
(-0.00163308 0.000702095 0)
(-0.00206063 0.000788274 0)
(-0.00253219 0.000868746 0)
(-0.0030448 0.000943033 0)
(-0.00359521 0.00101081 0)
(-0.00418001 0.00107186 0)
(-0.00479566 0.00112607 0)
(-0.00543854 0.00117338 0)
(-0.00610499 0.0012138 0)
(-0.00679134 0.00124738 0)
(-0.00749394 0.0012742 0)
(-0.00820916 0.00129438 0)
(-0.00893345 0.00130806 0)
(-0.0096633 0.00131538 0)
(-0.0103953 0.00131653 0)
(-0.0111261 0.00131169 0)
(-0.0118525 0.00130104 0)
(-0.0125713 0.0012848 0)
(-0.0132795 0.00126317 0)
(-0.0139742 0.00123636 0)
(-0.0146526 0.00120459 0)
(-0.0153119 0.00116809 0)
(-0.0159497 0.00112708 0)
(-0.0165635 0.00108179 0)
(-0.017151 0.00103244 0)
(-0.01771 0.000979277 0)
(-0.0182383 0.000922522 0)
(-0.0187342 0.000862416 0)
(-0.0191958 0.000799194 0)
(-0.0196214 0.000733096 0)
(-0.0200095 0.000664366 0)
(-0.0203588 0.000593245 0)
(-0.0206678 0.000519979 0)
(-0.0209356 0.000444817 0)
(-0.0211611 0.00036801 0)
(-0.0213435 0.000289811 0)
(-0.0214822 0.00021048 0)
(-0.0215764 0.000130278 0)
(-0.021626 4.94657e-05 0)
(-0.0216305 -3.16871e-05 0)
(-0.0215899 -0.000112909 0)
(-0.0215042 -0.000193924 0)
(-0.0213736 -0.000274455 0)
(-0.0211986 -0.000354218 0)
(-0.0209795 -0.000432931 0)
(-0.0207171 -0.000510302 0)
(-0.0204123 -0.000586041 0)
(-0.0200659 -0.000659854 0)
(-0.0196792 -0.000731446 0)
(-0.0192535 -0.000800521 0)
(-0.0187903 -0.000866779 0)
(-0.0182913 -0.000929924 0)
(-0.0177581 -0.000989658 0)
(-0.0171929 -0.00104569 0)
(-0.0165978 -0.00109772 0)
(-0.015975 -0.00114546 0)
(-0.0153271 -0.00118864 0)
(-0.0146565 -0.00122697 0)
(-0.0139661 -0.00126018 0)
(-0.0132588 -0.00128802 0)
(-0.0125375 -0.00131023 0)
(-0.0118055 -0.00132657 0)
(-0.011066 -0.00133682 0)
(-0.0103225 -0.00134078 0)
(-0.00957831 -0.00133825 0)
(-0.00883715 -0.00132906 0)
(-0.00810264 -0.00131307 0)
(-0.00737851 -0.00129015 0)
(-0.00666854 -0.00126021 0)
(-0.0059765 -0.0012232 0)
(-0.0053062 -0.0011791 0)
(-0.00466142 -0.00112793 0)
(-0.00404587 -0.00106979 0)
(-0.00346321 -0.00100481 0)
(-0.00291692 -0.000933213 0)
(-0.00241036 -0.000855323 0)
(-0.0019466 -0.000771575 0)
(-0.00152844 -0.00068256 0)
(-0.00115825 -0.000589063 0)
(-0.000837892 -0.000492131 0)
(-0.000568578 -0.000393152 0)
(-0.000350681 -0.000293977 0)
(-0.00018352 -0.000197078 0)
(-6.50906e-05 -0.000105773 0)
(8.26365e-06 -2.45141e-05 0)
(4.21456e-05 4.07529e-05 0)
(4.45032e-05 8.22282e-05 0)
(2.72992e-05 8.99311e-05 0)
(7.8216e-06 5.09509e-05 0)
(5.32399e-06 -6.28843e-05 0)
(1.20039e-05 -9.52176e-05 0)
(2.41732e-06 -6.18655e-05 0)
(-3.88528e-05 1.69855e-05 0)
(-0.000122912 0.000127886 0)
(-0.000257378 0.000260394 0)
(-0.000447554 0.000406313 0)
(-0.000696729 0.000559355 0)
(-0.00100654 0.000714733 0)
(-0.00137723 0.000868807 0)
(-0.00180794 0.00101885 0)
(-0.00229689 0.0011628 0)
(-0.00284161 0.00129913 0)
(-0.00343907 0.00142671 0)
(-0.00408578 0.0015447 0)
(-0.00477795 0.00165253 0)
(-0.00551153 0.00174981 0)
(-0.00628232 0.00183629 0)
(-0.00708597 0.00191184 0)
(-0.00791809 0.00197643 0)
(-0.00877424 0.00203011 0)
(-0.00964999 0.00207298 0)
(-0.0105409 0.0021052 0)
(-0.0114428 0.00212698 0)
(-0.0123511 0.00213853 0)
(-0.0132619 0.00214013 0)
(-0.014171 0.00213205 0)
(-0.0150743 0.0021146 0)
(-0.0159681 0.00208809 0)
(-0.0168487 0.00205285 0)
(-0.0177123 0.00200922 0)
(-0.0185555 0.00195755 0)
(-0.0193751 0.0018982 0)
(-0.0201678 0.00183152 0)
(-0.0209306 0.00175788 0)
(-0.0216606 0.00167766 0)
(-0.0223552 0.00159122 0)
(-0.0230117 0.00149896 0)
(-0.0236278 0.00140124 0)
(-0.0242013 0.00129846 0)
(-0.02473 0.001191 0)
(-0.0252121 0.00107926 0)
(-0.0256458 0.000963633 0)
(-0.0260296 0.000844523 0)
(-0.0263621 0.000722334 0)
(-0.026642 0.000597475 0)
(-0.0268684 0.000470362 0)
(-0.0270403 0.000341415 0)
(-0.0271572 0.00021106 0)
(-0.0272184 7.97256e-05 0)
(-0.0272236 -5.21508e-05 0)
(-0.0271728 -0.000184127 0)
(-0.0270661 -0.000315754 0)
(-0.0269036 -0.000446579 0)
(-0.0266858 -0.000576143 0)
(-0.0264133 -0.000703983 0)
(-0.0260871 -0.000829629 0)
(-0.0257082 -0.000952608 0)
(-0.0252777 -0.00107244 0)
(-0.0247972 -0.00118866 0)
(-0.0242683 -0.00130077 0)
(-0.0236928 -0.0014083 0)
(-0.0230728 -0.00151077 0)
(-0.0224105 -0.00160769 0)
(-0.0217085 -0.00169859 0)
(-0.0209693 -0.001783 0)
(-0.0201958 -0.00186047 0)
(-0.019391 -0.00193052 0)
(-0.0185581 -0.00199272 0)
(-0.0177006 -0.00204663 0)
(-0.0168219 -0.00209185 0)
(-0.0159259 -0.00212797 0)
(-0.0150164 -0.00215461 0)
(-0.0140975 -0.00217143 0)
(-0.0131733 -0.0021781 0)
(-0.0122481 -0.00217432 0)
(-0.0113262 -0.00215983 0)
(-0.0104123 -0.00213441 0)
(-0.00951076 -0.00209789 0)
(-0.00862623 -0.00205014 0)
(-0.0077633 -0.00199108 0)
(-0.00692658 -0.00192073 0)
(-0.00612062 -0.00183915 0)
(-0.00534991 -0.00174652 0)
(-0.00461878 -0.0016431 0)
(-0.00393144 -0.00152931 0)
(-0.00329181 -0.00140569 0)
(-0.00270354 -0.001273 0)
(-0.00216987 -0.00113224 0)
(-0.00169354 -0.000984709 0)
(-0.00127669 -0.000832103 0)
(-0.000920657 -0.000676627 0)
(-0.000625858 -0.000521146 0)
(-0.000391535 -0.00036939 0)
(-0.000215519 -0.000226217 0)
(-9.39503e-05 -9.7948e-05 0)
(-2.10063e-05 7.21842e-06 0)
(1.14526e-05 7.88084e-05 0)
(1.50442e-05 0.000103598 0)
(5.67694e-06 6.39557e-05 0)
(2.32434e-06 -6.65042e-05 0)
(-4.83588e-06 -8.46938e-05 0)
(-4.20825e-05 -2.11439e-05 0)
(-0.000121773 9.99152e-05 0)
(-0.000253778 0.000262013 0)
(-0.00044539 0.000452143 0)
(-0.000701654 0.00065997 0)
(-0.00102571 0.000877374 0)
(-0.00141907 0.00109803 0)
(-0.00188184 0.00131703 0)
(-0.00241299 0.00153059 0)
(-0.00301052 0.00173582 0)
(-0.00367166 0.0019305 0)
(-0.00439302 0.00211297 0)
(-0.00517069 0.00228197 0)
(-0.00600038 0.00243662 0)
(-0.00687751 0.00257629 0)
(-0.00779729 0.00270056 0)
(-0.00875476 0.0028092 0)
(-0.00974486 0.00290212 0)
(-0.0107625 0.00297933 0)
(-0.0118026 0.00304096 0)
(-0.01286 0.0030872 0)
(-0.0139296 0.0031183 0)
(-0.0150066 0.00313459 0)
(-0.016086 0.00313641 0)
(-0.017163 0.00312416 0)
(-0.018233 0.00309826 0)
(-0.0192914 0.00305917 0)
(-0.0203339 0.00300734 0)
(-0.0213562 0.00294326 0)
(-0.0223543 0.00286744 0)
(-0.0233242 0.00278038 0)
(-0.0242622 0.00268262 0)
(-0.0251648 0.00257467 0)
(-0.0260285 0.00245709 0)
(-0.0268502 0.00233041 0)
(-0.0276269 0.0021952 0)
(-0.0283556 0.002052 0)
(-0.0290339 0.00190139 0)
(-0.0296592 0.00174393 0)
(-0.0302292 0.0015802 0)
(-0.0307421 0.00141079 0)
(-0.0311958 0.00123627 0)
(-0.0315888 0.00105725 0)
(-0.0319197 0.000874334 0)
(-0.0321871 0.000688122 0)
(-0.0323902 0.000499234 0)
(-0.032528 0.000308294 0)
(-0.0326001 0.000115936 0)
(-0.032606 -7.72009e-05 0)
(-0.0325456 -0.000270467 0)
(-0.0324191 -0.000463206 0)
(-0.0322266 -0.000654753 0)
(-0.0319687 -0.000844436 0)
(-0.0316463 -0.00103158 0)
(-0.0312603 -0.00121549 0)
(-0.030812 -0.00139548 0)
(-0.0303027 -0.00157085 0)
(-0.0297344 -0.00174091 0)
(-0.0291088 -0.00190496 0)
(-0.0284281 -0.00206228 0)
(-0.0276949 -0.00221219 0)
(-0.0269117 -0.00235399 0)
(-0.0260815 -0.00248698 0)
(-0.0252073 -0.00261048 0)
(-0.0242925 -0.00272383 0)
(-0.0233407 -0.00282635 0)
(-0.0223557 -0.00291742 0)
(-0.0213414 -0.0029964 0)
(-0.020302 -0.00306271 0)
(-0.0192419 -0.00311577 0)
(-0.0181656 -0.00315504 0)
(-0.0170779 -0.00318002 0)
(-0.0159837 -0.00319026 0)
(-0.0148879 -0.00318533 0)
(-0.0137956 -0.00316488 0)
(-0.0127121 -0.0031286 0)
(-0.0116427 -0.00307627 0)
(-0.0105925 -0.00300773 0)
(-0.00956712 -0.0029229 0)
(-0.00857168 -0.00282184 0)
(-0.00761148 -0.00270467 0)
(-0.00669165 -0.00257169 0)
(-0.00581718 -0.00242333 0)
(-0.00499282 -0.00226024 0)
(-0.00422305 -0.00208328 0)
(-0.00351199 -0.00189357 0)
(-0.00286327 -0.00169261 0)
(-0.00227998 -0.00148229 0)
(-0.00176449 -0.00126505 0)
(-0.00131836 -0.00104401 0)
(-0.000942107 -0.000823115 0)
(-0.000635049 -0.000607419 0)
(-0.000395088 -0.000403335 0)
(-0.000218473 -0.000219018 0)
(-9.95516e-05 -6.48082e-05 0)
(-3.04565e-05 4.63342e-05 0)
(-6.89521e-07 9.825e-05 0)
(2.92798e-06 6.94031e-05 0)
(-8.79826e-07 -6.07622e-05 0)
(-2.34327e-05 -5.05735e-05 0)
(-9.16694e-05 5.4957e-05 0)
(-0.000214131 0.000228666 0)
(-0.000398884 0.000451507 0)
(-0.000652498 0.000708272 0)
(-0.000979477 0.00098663 0)
(-0.00138252 0.00127675 0)
(-0.00186282 0.00157083 0)
(-0.00242021 0.00186269 0)
(-0.00305339 0.00214749 0)
(-0.0037601 0.00242143 0)
(-0.00453724 0.00268157 0)
(-0.00538106 0.00292565 0)
(-0.00628727 0.00315197 0)
(-0.00725114 0.00335926 0)
(-0.0082676 0.00354661 0)
(-0.00933136 0.00371341 0)
(-0.0104369 0.00385928 0)
(-0.0115786 0.00398404 0)
(-0.0127507 0.00408767 0)
(-0.0139476 0.00417029 0)
(-0.0151635 0.00423211 0)
(-0.0163928 0.00427346 0)
(-0.0176297 0.00429472 0)
(-0.0188689 0.00429636 0)
(-0.0201049 0.00427889 0)
(-0.0213325 0.00424286 0)
(-0.0225465 0.00418885 0)
(-0.0237419 0.0041175 0)
(-0.024914 0.00402946 0)
(-0.026058 0.0039254 0)
(-0.0271696 0.003806 0)
(-0.0282446 0.00367198 0)
(-0.0292787 0.00352406 0)
(-0.0302683 0.00336296 0)
(-0.0312096 0.00318944 0)
(-0.0320992 0.00300424 0)
(-0.0329338 0.00280813 0)
(-0.0337106 0.00260188 0)
(-0.0344266 0.00238627 0)
(-0.0350794 0.00216209 0)
(-0.0356665 0.00193013 0)
(-0.0361859 0.00169121 0)
(-0.0366358 0.00144613 0)
(-0.0370144 0.00119573 0)
(-0.0373204 0.000940834 0)
(-0.0375527 0.000682292 0)
(-0.0377103 0.000420959 0)
(-0.0377925 0.000157703 0)
(-0.037799 -0.0001066 0)
(-0.0377296 -0.000371061 0)
(-0.0375845 -0.000634781 0)
(-0.0373638 -0.00089685 0)
(-0.0370684 -0.00115635 0)
(-0.036699 -0.00141235 0)
(-0.0362569 -0.00166392 0)
(-0.0357434 -0.00191011 0)
(-0.0351602 -0.00214997 0)
(-0.0345093 -0.00238255 0)
(-0.0337929 -0.00260689 0)
(-0.0330136 -0.00282205 0)
(-0.032174 -0.00302706 0)
(-0.0312772 -0.00322098 0)
(-0.0303264 -0.00340288 0)
(-0.0293253 -0.00357182 0)
(-0.0282777 -0.00372691 0)
(-0.0271876 -0.00386723 0)
(-0.0260593 -0.00399194 0)
(-0.0248973 -0.0041002 0)
(-0.0237063 -0.00419119 0)
(-0.0224914 -0.00426416 0)
(-0.0212578 -0.00431838 0)
(-0.0200106 -0.0043532 0)
(-0.0187555 -0.00436799 0)
(-0.0174981 -0.00436223 0)
(-0.0162441 -0.00433543 0)
(-0.0149995 -0.00428723 0)
(-0.0137701 -0.00421732 0)
(-0.012562 -0.00412553 0)
(-0.011381 -0.00401181 0)
(-0.0102333 -0.00387624 0)
(-0.00912451 -0.00371906 0)
(-0.00806049 -0.00354071 0)
(-0.00704673 -0.00334183 0)
(-0.00608853 -0.00312334 0)
(-0.00519083 -0.00288644 0)
(-0.00435817 -0.00263272 0)
(-0.00359458 -0.00236419 0)
(-0.00290348 -0.00208344 0)
(-0.00228753 -0.00179368 0)
(-0.00174851 -0.00149899 0)
(-0.00128717 -0.00120444 0)
(-0.000903075 -0.000916397 0)
(-0.000594386 -0.000642785 0)
(-0.000357723 -0.000393493 0)
(-0.000187915 -0.000180823 0)
(-7.77332e-05 -1.99398e-05 0)
(-1.83395e-05 7.05158e-05 0)
(-8.45018e-08 6.60404e-05 0)
(-4.12352e-06 -4.51247e-05 0)
(-4.28155e-05 9.03582e-06 0)
(-0.000143968 0.000169439 0)
(-0.00031194 0.000406886 0)
(-0.000552639 0.000700362 0)
(-0.000871642 0.00103275 0)
(-0.00127266 0.00139 0)
(-0.00175774 0.00176073 0)
(-0.00232757 0.00213573 0)
(-0.00298157 0.00250762 0)
(-0.00371809 0.00287051 0)
(-0.00453451 0.00321969 0)
(-0.00542738 0.00355149 0)
(-0.0063926 0.00386303 0)
(-0.00742548 0.00415208 0)
(-0.00852087 0.00441699 0)
(-0.00967328 0.00465654 0)
(-0.0108769 0.00486987 0)
(-0.0121258 0.00505645 0)
(-0.0134137 0.00521598 0)
(-0.0147345 0.00534839 0)
(-0.0160819 0.00545377 0)
(-0.0174496 0.00553236 0)
(-0.0188314 0.00558454 0)
(-0.020221 0.00561078 0)
(-0.0216124 0.00561164 0)
(-0.0229997 0.00558776 0)
(-0.024377 0.00553982 0)
(-0.0257387 0.00546858 0)
(-0.0270791 0.00537482 0)
(-0.0283931 0.00525939 0)
(-0.0296753 0.00512313 0)
(-0.0309211 0.00496693 0)
(-0.0321254 0.00479172 0)
(-0.033284 0.00459841 0)
(-0.0343924 0.00438795 0)
(-0.0354467 0.00416131 0)
(-0.0364429 0.00391947 0)
(-0.0373775 0.00366342 0)
(-0.0382472 0.00339416 0)
(-0.0390488 0.00311271 0)
(-0.0397795 0.0028201 0)
(-0.0404367 0.00251736 0)
(-0.0410181 0.00220555 0)
(-0.0415215 0.00188573 0)
(-0.0419452 0.00155899 0)
(-0.0422875 0.0012264 0)
(-0.0425473 0.000889074 0)
(-0.0427235 0.00054813 0)
(-0.0428154 0.000204699 0)
(-0.0428225 -0.000140076 0)
(-0.0427447 -0.000485035 0)
(-0.042582 -0.000829006 0)
(-0.0423349 -0.0011708 0)
(-0.0420041 -0.00150923 0)
(-0.0415906 -0.00184308 0)
(-0.0410956 -0.00217113 0)
(-0.0405208 -0.00249215 0)
(-0.039868 -0.00280492 0)
(-0.0391394 -0.00310819 0)
(-0.0383375 -0.00340072 0)
(-0.037465 -0.00368127 0)
(-0.0365252 -0.00394862 0)
(-0.0355212 -0.00420153 0)
(-0.0344568 -0.00443879 0)
(-0.033336 -0.0046592 0)
(-0.0321629 -0.0048616 0)
(-0.030942 -0.00504482 0)
(-0.0296783 -0.00520776 0)
(-0.0283765 -0.00534934 0)
(-0.0270421 -0.00546853 0)
(-0.0256805 -0.00556436 0)
(-0.0242975 -0.00563589 0)
(-0.0228989 -0.0056823 0)
(-0.0214908 -0.0057028 0)
(-0.0200794 -0.00569673 0)
(-0.0186712 -0.00566349 0)
(-0.0172725 -0.00560263 0)
(-0.01589 -0.0055138 0)
(-0.0145301 -0.00539681 0)
(-0.0131995 -0.00525163 0)
(-0.0119047 -0.0050784 0)
(-0.010652 -0.00487748 0)
(-0.00944772 -0.0046495 0)
(-0.00829791 -0.00439532 0)
(-0.00720833 -0.00411617 0)
(-0.00618437 -0.00381366 0)
(-0.00523097 -0.00348984 0)
(-0.00435255 -0.00314732 0)
(-0.00355287 -0.00278936 0)
(-0.00283492 -0.00242004 0)
(-0.00220081 -0.00204437 0)
(-0.00165162 -0.00166855 0)
(-0.00118726 -0.0013002 0)
(-0.000806367 -0.000948689 0)
(-0.000506134 -0.000625478 0)
(-0.000282116 -0.00034461 0)
(-0.000127989 -0.000123121 0)
(-3.69156e-05 1.8365e-05 0)
(-3.17243e-06 5.32366e-05 0)
(-7.31235e-06 -1.94282e-05 0)
(-6.23989e-05 9.50814e-05 0)
(-0.000197429 0.000323995 0)
(-0.000412457 0.000636872 0)
(-0.00071107 0.00101119 0)
(-0.00109767 0.00142831 0)
(-0.00157498 0.00187272 0)
(-0.00214423 0.00233166 0)
(-0.00280546 0.00279468 0)
(-0.00355756 0.00325324 0)
(-0.0043984 0.00370045 0)
(-0.00532495 0.00413074 0)
(-0.00633337 0.00453969 0)
(-0.00741916 0.00492378 0)
(-0.00857723 0.00528028 0)
(-0.00980203 0.0056071 0)
(-0.0110876 0.00590269 0)
(-0.0124278 0.00616594 0)
(-0.0138161 0.00639613 0)
(-0.0152459 0.00659283 0)
(-0.0167105 0.00675589 0)
(-0.018203 0.00688539 0)
(-0.0197168 0.00698158 0)
(-0.0212451 0.00704488 0)
(-0.0227811 0.00707585 0)
(-0.0243183 0.00707513 0)
(-0.0258503 0.00704351 0)
(-0.0273705 0.00698181 0)
(-0.028873 0.00689096 0)
(-0.0303516 0.00677193 0)
(-0.0318006 0.00662572 0)
(-0.0332144 0.00645342 0)
(-0.0345875 0.00625611 0)
(-0.0359148 0.00603494 0)
(-0.0371914 0.00579106 0)
(-0.0384126 0.00552566 0)
(-0.039574 0.00523993 0)
(-0.0406713 0.00493512 0)
(-0.0417006 0.00461245 0)
(-0.0426583 0.00427319 0)
(-0.043541 0.00391861 0)
(-0.0443455 0.00355002 0)
(-0.0450691 0.0031687 0)
(-0.045709 0.002776 0)
(-0.0462632 0.00237324 0)
(-0.0467295 0.00196178 0)
(-0.0471063 0.001543 0)
(-0.0473922 0.00111828 0)
(-0.0475861 0.000689037 0)
(-0.0476871 0.000256684 0)
(-0.0476949 -0.000177337 0)
(-0.0476091 -0.000611566 0)
(-0.04743 -0.00104453 0)
(-0.047158 -0.00147474 0)
(-0.0467939 -0.00190069 0)
(-0.0463387 -0.00232087 0)
(-0.0457939 -0.00273373 0)
(-0.0451611 -0.00313775 0)
(-0.0444426 -0.00353138 0)
(-0.0436406 -0.00391306 0)
(-0.0427578 -0.00428125 0)
(-0.0417974 -0.00463438 0)
(-0.0407626 -0.00497093 0)
(-0.0396573 -0.00528935 0)
(-0.0384852 -0.00558813 0)
(-0.0372509 -0.00586578 0)
(-0.0359589 -0.00612084 0)
(-0.034614 -0.00635187 0)
(-0.0332216 -0.00655749 0)
(-0.0317871 -0.00673636 0)
(-0.0303162 -0.00688721 0)
(-0.0288149 -0.00700883 0)
(-0.0272894 -0.00710009 0)
(-0.0257461 -0.00715995 0)
(-0.0241918 -0.00718748 0)
(-0.022633 -0.00718184 0)
(-0.0210768 -0.00714235 0)
(-0.0195301 -0.00706844 0)
(-0.0180001 -0.00695974 0)
(-0.0164938 -0.00681603 0)
(-0.0150183 -0.00663731 0)
(-0.0135806 -0.00642382 0)
(-0.0121877 -0.00617606 0)
(-0.0108464 -0.00589482 0)
(-0.0095631 -0.00558126 0)
(-0.00834405 -0.00523692 0)
(-0.00719509 -0.00486383 0)
(-0.00612156 -0.00446456 0)
(-0.00512828 -0.00404232 0)
(-0.00421938 -0.00360109 0)
(-0.00339824 -0.00314576 0)
(-0.00266737 -0.0026823 0)
(-0.00202826 -0.00221799 0)
(-0.00148135 -0.00176164 0)
(-0.00102584 -0.00132392 0)
(-0.000659699 -0.000917721 0)
(-0.000379372 -0.000558572 0)
(-0.000179624 -0.000265041 0)
(-5.58025e-05 -5.92633e-05 0)
(-6.23513e-06 3.07569e-05 0)
(-1.04021e-05 1.62771e-05 0)
(-8.18419e-05 0.000207868 0)
(-0.000251037 0.00051944 0)
(-0.000513824 0.000919863 0)
(-0.000871406 0.00138555 0)
(-0.00132689 0.00189668 0)
(-0.00188188 0.00243655 0)
(-0.00253669 0.0029912 0)
(-0.00329056 0.00354906 0)
(-0.00414176 0.00410058 0)
(-0.00508761 0.00463791 0)
(-0.00612456 0.00515468 0)
(-0.00724835 0.00564572 0)
(-0.00845403 0.0061069 0)
(-0.0097361 0.00653498 0)
(-0.0110886 0.00692742 0)
(-0.0125052 0.00728235 0)
(-0.0139792 0.00759837 0)
(-0.0155037 0.00787456 0)
(-0.0170717 0.00811037 0)
(-0.018676 0.00830555 0)
(-0.0203093 0.00846015 0)
(-0.0219644 0.00857443 0)
(-0.0236341 0.00864886 0)
(-0.0253112 0.00868405 0)
(-0.0269886 0.00868078 0)
(-0.0286595 0.00863995 0)
(-0.0303169 0.00856255 0)
(-0.0319543 0.00844967 0)
(-0.0335652 0.00830246 0)
(-0.0351433 0.00812215 0)
(-0.0366826 0.00791003 0)
(-0.0381774 0.00766741 0)
(-0.039622 0.00739568 0)
(-0.0410112 0.00709623 0)
(-0.0423398 0.00677051 0)
(-0.0436032 0.00641998 0)
(-0.0447967 0.00604612 0)
(-0.0459161 0.00565047 0)
(-0.0469576 0.00523455 0)
(-0.0479173 0.00479992 0)
(-0.048792 0.00434817 0)
(-0.0495786 0.00388088 0)
(-0.0502744 0.00339968 0)
(-0.0508768 0.00290621 0)
(-0.0513837 0.00240212 0)
(-0.0517932 0.0018891 0)
(-0.052104 0.00136883 0)
(-0.0523148 0.000843053 0)
(-0.0524246 0.000313498 0)
(-0.0524331 -0.000218071 0)
(-0.05234 -0.000749874 0)
(-0.0521455 -0.00128011 0)
(-0.05185 -0.00180695 0)
(-0.0514544 -0.00232857 0)
(-0.0509598 -0.0028431 0)
(-0.0503678 -0.00334869 0)
(-0.0496803 -0.00384345 0)
(-0.0488994 -0.0043255 0)
(-0.0480278 -0.00479294 0)
(-0.0470684 -0.00524389 0)
(-0.0460245 -0.00567646 0)
(-0.0448997 -0.00608876 0)
(-0.0436979 -0.00647894 0)
(-0.0424236 -0.00684516 0)
(-0.0410812 -0.0071856 0)
(-0.0396759 -0.00749849 0)
(-0.0382129 -0.00778209 0)
(-0.0366978 -0.00803473 0)
(-0.0351364 -0.0082548 0)
(-0.033535 -0.00844076 0)
(-0.0319 -0.00859115 0)
(-0.0302381 -0.00870462 0)
(-0.0285561 -0.00877993 0)
(-0.0268611 -0.00881595 0)
(-0.0251605 -0.00881171 0)
(-0.0234616 -0.0087664 0)
(-0.0217719 -0.00867938 0)
(-0.020099 -0.0085502 0)
(-0.0184505 -0.00837866 0)
(-0.016834 -0.0081648 0)
(-0.0152571 -0.00790893 0)
(-0.013727 -0.00761172 0)
(-0.0122511 -0.00727416 0)
(-0.0108363 -0.00689769 0)
(-0.0094893 -0.00648421 0)
(-0.00821629 -0.00603617 0)
(-0.00702308 -0.00555666 0)
(-0.00591488 -0.00504951 0)
(-0.00489627 -0.00451941 0)
(-0.00397105 -0.00397206 0)
(-0.0031422 -0.00341435 0)
(-0.00241176 -0.00285456 0)
(-0.00178074 -0.00230261 0)
(-0.00124907 -0.00177036 0)
(-0.000815587 -0.00127192 0)
(-0.000477776 -0.000824081 0)
(-0.000231593 -0.000446625 0)
(-7.46257e-05 -0.000162781 0)
(-9.22111e-06 -1.39671e-06 0)
(-1.33838e-05 6.18143e-05 0)
(-0.000100941 0.000347319 0)
(-0.000304169 0.000755966 0)
(-0.000614823 0.00125636 0)
(-0.00103174 0.00182421 0)
(-0.00155669 0.00243882 0)
(-0.00219011 0.00308251 0)
(-0.00293124 0.00374033 0)
(-0.00377849 0.00439975 0)
(-0.0047294 0.00505029 0)
(-0.00578063 0.00568326 0)
(-0.00692811 0.0062915 0)
(-0.00816705 0.00686917 0)
(-0.00949204 0.00741155 0)
(-0.0108971 0.00791487 0)
(-0.0123759 0.0083762 0)
(-0.0139217 0.00879328 0)
(-0.0155273 0.00916448 0)
(-0.0171854 0.00948865 0)
(-0.0188886 0.0097651 0)
(-0.0206292 0.0099935 0)
(-0.0223995 0.0101739 0)
(-0.024192 0.0103064 0)
(-0.0259989 0.0103917 0)
(-0.0278125 0.0104304 0)
(-0.0296255 0.0104234 0)
(-0.0314304 0.0103718 0)
(-0.0332201 0.0102766 0)
(-0.0349873 0.0101392 0)
(-0.0367254 0.00996094 0)
(-0.0384275 0.00974321 0)
(-0.0400874 0.00948754 0)
(-0.0416988 0.00919551 0)
(-0.0432558 0.00886872 0)
(-0.0447527 0.00850887 0)
(-0.0461841 0.00811764 0)
(-0.047545 0.00769679 0)
(-0.0488305 0.00724809 0)
(-0.050036 0.00677335 0)
(-0.0511575 0.0062744 0)
(-0.0521909 0.0057531 0)
(-0.0531326 0.00521134 0)
(-0.0539795 0.00465104 0)
(-0.0547284 0.00407411 0)
(-0.0553769 0.00348253 0)
(-0.0559226 0.00287828 0)
(-0.0563636 0.00226336 0)
(-0.0566982 0.0016398 0)
(-0.0569252 0.00100968 0)
(-0.0570437 0.000375059 0)
(-0.057053 -0.000261947 0)
(-0.0569531 -0.000899209 0)
(-0.0567441 -0.00153457 0)
(-0.0564264 -0.00216587 0)
(-0.056001 -0.00279089 0)
(-0.0554691 -0.00340744 0)
(-0.0548323 -0.00401327 0)
(-0.0540928 -0.00460615 0)
(-0.0532527 -0.00518384 0)
(-0.052315 -0.00574406 0)
(-0.0512826 -0.00628458 0)
(-0.0501592 -0.00680314 0)
(-0.0489485 -0.0072975 0)
(-0.0476548 -0.00776546 0)