/*--------------------------------*- C++ -*----------------------------------*\
| =========                 |                                                 |
| \\      /  F ield         | OpenFOAM: The Open Source CFD Toolbox           |
|  \\    /   O peration     | Version:  2212                                  |
|   \\  /    A nd           | Website:  www.openfoam.com                      |
|    \\/     M anipulation  |                                                 |
\*---------------------------------------------------------------------------*/
FoamFile
{
    version     2.0;
    format      ascii;
    arch        "LSB;label=32;scalar=64";
    class       volScalarField;
    location    "0.0625";
    object      p;
}
// * * * * * * * * * * * * * * * * * * * * * * * * * * * * * * * * * * * * * //

dimensions      [0 2 -2 0 0 0 0];

internalField   nonuniform List<scalar> 
10000
(
3.56149e-08
8.69592e-05
-0.000125699
-0.000678345
-0.00152437
-0.00261118
-0.00388509
-0.00529463
-0.00679297
-0.0083389
-0.00989627
-0.0114334
-0.012923
-0.0143411
-0.0156673
-0.0168838
-0.0179757
-0.01893
-0.019736
-0.0203848
-0.0208691
-0.0211831
-0.0213225
-0.0212843
-0.0210665
-0.0206683
-0.0200901
-0.0193327
-0.0183982
-0.0172891
-0.016009
-0.0145617
-0.0129521
-0.0111853
-0.00926707
-0.00720375
-0.00500216
-0.00266951
-0.000213446
0.00235806
0.00503669
0.00781379
0.0106804
0.0136274
0.016645
0.0197235
0.022853
0.0260232
0.0292239
0.0324445
0.0356746
0.0389035
0.0421205
0.0453149
0.0484758
0.0515925
0.0546543
0.0576505
0.0605708
0.0634046
0.0661421
0.0687734
0.071289
0.0736795
0.0759363
0.0780507
0.080015
0.0818219
0.0834648
0.0849374
0.0862344
0.0873513
0.0882841
0.0890302
0.0895876
0.0899555
0.0901341
0.0901248
0.0899302
0.0895544
0.0890031
0.0882832
0.0874035
0.0863744
0.0852083
0.0839197
0.0825254
0.0810448
0.0794996
0.0779153
0.0763205
0.0747476
0.0732332
0.0718188
0.0705502
0.0694776
0.0686524
0.0681239
0.0679336
0.0680339
-8.58643e-05
2.72536e-06
-0.000202228
-0.000694541
-0.00142657
-0.00236129
-0.00345944
-0.00468008
-0.00598437
-0.00733675
-0.00870519
-0.0100611
-0.0113791
-0.0126369
-0.0138149
-0.0148963
-0.0158663
-0.0167124
-0.017424
-0.0179921
-0.0184093
-0.0186698
-0.0187688
-0.0187031
-0.0184704
-0.0180696
-0.0175005
-0.0167639
-0.0158613
-0.0147948
-0.0135675
-0.0121829
-0.0106452
-0.00895924
-0.00713037
-0.00516444
-0.00306779
-0.000847172
0.00149024
0.00393691
0.00648505
0.00912648
0.0118527
0.014655
0.0175243
0.0204512
0.0234262
0.0264397
0.029482
0.0325431
0.035613
0.0386815
0.0417386
0.0447739
0.0477773
0.0507385
0.0536475
0.0564941
0.0592686
0.061961
0.0645621
0.0670625
0.0694533
0.0717258
0.0738718
0.0758835
0.0777534
0.079475
0.0810422
0.0824492
0.0836913
0.0847643
0.0856649
0.0863909
0.0869407
0.0873138
0.0875108
0.0875335
0.0873846
0.0870685
0.0865909
0.0859589
0.0851811
0.0842678
0.0832311
0.0820852
0.080846
0.0795319
0.0781638
0.0767651
0.0753623
0.0739845
0.0726643
0.0714369
0.0703405
0.0694146
0.0686967
0.0682214
0.0680333
0.0681341
0.000129008
0.000212005
7.60645e-06
-0.000454017
-0.00112158
-0.0019642
-0.00294999
-0.00404491
-0.0052158
-0.00643165
-0.007664
-0.00888703
-0.0100775
-0.0112147
-0.0122803
-0.013258
-0.014134
-0.0148961
-0.0155339
-0.0160386
-0.0164029
-0.0166209
-0.0166879
-0.0166003
-0.0163557
-0.0159528
-0.0153913
-0.0146714
-0.0137945
-0.0127625
-0.011578
-0.0102442
-0.00876498
-0.00714479
-0.00538863
-0.00350199
-0.00149088
0.000638333
0.0028789
0.00522367
0.00766523
0.0101958
0.0128074
0.0154915
0.0182395
0.0210425
0.0238913
0.0267769
0.0296899
0.0326207
0.0355597
0.0384974
0.041424
0.0443297
0.0472047
0.0500394
0.052824
0.055549
0.058205
0.0607826
0.063273
0.0656673
0.067957
0.070134
0.0721905
0.074119
0.0759128
0.0775657
0.0790718
0.0804261
0.081624
0.0826617
0.0835365
0.0842462
0.0847898
0.0851669
0.0853783
0.085426
0.0853129
0.0850436
0.0846236
0.0840599
0.0833611
0.0825372
0.0815997
0.0805623
0.0794403
0.0782511
0.0770141
0.0757511
0.0744864
0.0732463
0.0720596
0.0709571
0.0699712
0.0691349
0.0684788
0.068032
0.0678446
0.0679448
0.000685498
0.00071008
0.000475057
1.23313e-05
-0.000630869
-0.00142649
-0.00234666
-0.00336206
-0.00444395
-0.00556513
-0.00670025
-0.00782601
-0.00892126
-0.00996689
-0.0109459
-0.0118431
-0.0126452
-0.0133408
-0.0139198
-0.0143737
-0.0146953
-0.0148789
-0.0149198
-0.0148144
-0.0145604
-0.0141562
-0.0136012
-0.0128956
-0.0120405
-0.0110377
-0.00988936
-0.00859858
-0.00716892
-0.0056045
-0.00391005
-0.00209077
-0.000152325
0.0018992
0.00405738
0.00631546
0.00866633
0.0111026
0.0136165
0.0162
0.0188447
0.0215421
0.0242836
0.0270603
0.0298632
0.0326832
0.0355111
0.0383376
0.0411533
0.043949
0.0467152
0.0494425
0.0521218
0.0547438
0.0572995
0.0597801
0.062177
0.0644818
0.0666863
0.0687828
0.070764
0.0726227
0.0743526
0.0759477
0.0774027
0.0787127
0.0798735
0.0808817
0.0817347
0.0824308
0.0829687
0.0833486
0.0835713
0.083639
0.0835546
0.0833226
0.0829484
0.0824391
0.0818026
0.0810487
0.0801885
0.079235
0.0782025
0.0771075
0.075968
0.0748041
0.0736379
0.0724933
0.0713957
0.0703724
0.0694516
0.068662
0.0680305
0.0675835
0.067369
0.0674189
0.00153719
0.00144966
0.00114922
0.00065844
1.2413e-05
-0.000763839
-0.00164572
-0.00260798
-0.00362587
-0.00467568
-0.00573503
-0.00678309
-0.00780073
-0.00877057
-0.00967693
-0.0105058
-0.0112447
-0.0118829
-0.0124109
-0.0128205
-0.0131048
-0.0132583
-0.0132764
-0.0131556
-0.0128935
-0.0124886
-0.0119401
-0.0112481
-0.0104135
-0.00943774
-0.00832307
-0.00707222
-0.00568853
-0.00417591
-0.00253878
-0.000782077
0.00108881
0.00306812
0.00514972
0.00732716
0.00959372
0.0119422
0.0143653
0.0168552
0.0194038
0.0220031
0.0246447
0.0273202
0.0300208
0.0327379
0.0354625
0.0381857
0.0408986
0.0435922
0.0462574
0.0488854
0.0514671
0.0539938
0.0564569
0.0588478
0.0611583
0.0633805
0.0655065
0.0675288
0.0694405
0.071235
0.0729061
0.0744482
0.0758562
0.0771255
0.0782521
0.0792331
0.0800659
0.0807489
0.0812813
0.0816631
0.0818953
0.0819801
0.0819206
0.0817209
0.0813865
0.080924
0.0803411
0.0796471
0.0788525
0.0779696
0.0770118
0.0759944
0.074934
0.073849
0.0727594
0.0716865
0.070653
0.0696828
0.0688005
0.0680309
0.0673978
0.0669251
0.06665
0.0665967
0.00263328
0.00239541
0.00200088
0.00145794
0.000785064
4.01989e-06
-0.000863555
-0.00179617
-0.00277257
-0.00377226
-0.00477565
-0.00576427
-0.00672097
-0.00763005
-0.00847725
-0.00924974
-0.00993601
-0.0105259
-0.0110107
-0.0113826
-0.0116351
-0.0117629
-0.0117616
-0.0116279
-0.0113594
-0.0109544
-0.0104124
-0.00973327
-0.00891776
-0.00796723
-0.00688368
-0.00566968
-0.00432837
-0.00286347
-0.00127916
0.000419872
0.00222849
0.00414122
0.00615224
0.00825538
0.0104442
0.0127118
0.0150511
0.0174546
0.0199147
0.0224236
0.0249732
0.0275554
0.0301618
0.0327841
0.0354136
0.0380419
0.0406603
0.04326
0.0458326
0.0483692
0.0508615
0.0533008
0.055679
0.0579877
0.0602193
0.0623659
0.0644201
0.0663747
0.0682231
0.0699591
0.0715765
0.0730702
0.0744353
0.0756675
0.076763
0.0777189
0.078533
0.0792038
0.0797305
0.0801132
0.0803531
0.0804522
0.0804136
0.0802413
0.0799404
0.0795173
0.0789793
0.0783352
0.0775949
0.0767697
0.0758723
0.0749166
0.0739179
0.0728929
0.0718595
0.0708369
0.069845
0.0689046
0.068037
0.0672637
0.0666056
0.0660837
0.0657199
0.0655249
0.00392373
0.0035109
0.00300079
0.00238549
0.00166497
0.000857914
-1.67013e-05
-0.000940787
-0.00189632
-0.00286556
-0.00383151
-0.00477796
-0.00568969
-0.00655258
-0.0073538
-0.00808167
-0.00872567
-0.00927646
-0.00972584
-0.0100667
-0.0102929
-0.0103995
-0.0103824
-0.0102383
-0.00996507
-0.00956107
-0.0090256
-0.00835865
-0.00756086
-0.0066335
-0.00557843
-0.0043981
-0.00309546
-0.00167404
-0.000137852
0.00150865
0.00326057
0.00511268
0.00705944
0.00909494
0.011213
0.0134069
0.0156699
0.0179948
0.0203743
0.0228008
0.0252667
0.0277641
0.0302849
0.032821
0.0353642
0.0379063
0.0404388
0.0429534
0.0454419
0.0478959
0.0503071
0.0526675
0.0549688
0.0572034
0.0593637
0.0614421
0.0634316
0.0653253
0.0671168
0.0688
0.0703692
0.0718194
0.0731459
0.0743445
0.0754119
0.0763451
0.0771421
0.0778014
0.0783223
0.0787051
0.0789507
0.0790612
0.0790395
0.0788894
0.0786158
0.0782247
0.077723
0.0771189
0.0764216
0.0756417
0.0747907
0.0738815
0.0729278
0.0719449
0.0709488
0.0699565
0.0689854
0.0680537
0.0671796
0.0663815
0.0656777
0.0650868
0.0646127
0.0642509
0.00536159
0.00475922
0.00411833
0.00341483
0.00262969
0.00177895
0.000879362
-5.41829e-05
-0.00100651
-0.00196246
-0.0029073
-0.00382691
-0.00470791
-0.00553775
-0.00630496
-0.006999
-0.00761033
-0.00813045
-0.00855184
-0.00886796
-0.00907318
-0.00916286
-0.00913323
-0.00898133
-0.00870498
-0.00830276
-0.00777398
-0.00711863
-0.00633732
-0.00543127
-0.00440222
-0.00325254
-0.00198506
-0.000603119
0.000889418
0.00248829
0.00418882
0.005986
0.00787454
0.00984876
0.0119026
0.0140298
0.0162237
0.0184774
0.0207839
0.0231359
0.025526
0.0279466
0.03039
0.0328483
0.0353135
0.0377776
0.0402327
0.0426706
0.0450833
0.0474629
0.0498012
0.0520904
0.0543228
0.0564908
0.0585871
0.0606044
0.062536
0.0643751
0.0661157
0.0677518
0.0692779
0.0706892
0.0719812
0.0731499
0.0741919
0.0751046
0.0758859
0.0765345
0.0770496
0.0774314
0.077681
0.0778001
0.0777916
0.0776589
0.0774069
0.0770409
0.0765675
0.0759943
0.0753297
0.0745835
0.0737663
0.0728897
0.0719663
0.0710096
0.0700341
0.0690545
0.0680864
0.0671452
0.0662467
0.065406
0.0646397
0.0639638
0.0633638
0.0628197
0.00690563
0.00610589
0.00532411
0.00452053
0.0036574
0.00274857
0.00180906
0.000850934
-0.000113264
-0.00107066
-0.00200861
-0.00291489
-0.0037778
-0.00458635
-0.00533032
-0.0060003
-0.00658773
-0.00708495
-0.00748513
-0.00778234
-0.00797148
-0.0080483
-0.00800936
-0.00785193
-0.00757405
-0.00717445
-0.0066525
-0.00600823
-0.00524224
-0.00435573
-0.00335041
-0.00222854
-0.000992856
0.000353411
0.00180654
0.00336244
0.00501665
0.00676437
0.00860046
0.0105195
0.0125155
0.0145826
0.0167142
0.0189038
0.0211446
0.0234296
0.0257516
0.0281032
0.030477
0.0328653
0.0352605
0.0376548
0.0400404
0.0424096
0.0447545
0.0470675
0.0493406
0.0515664
0.0537373
0.0558459
0.0578853
0.0598483
0.0617283
0.0635191
0.0652145
0.0668088
0.0682968
0.0696736
0.0709349
0.072077
0.0730964
0.0739907
0.0747579
0.0753964
0.0759056
0.0762857
0.0765375
0.0766628
0.076664
0.0765445
0.0763085
0.0759614
0.075509
0.0749583
0.0743172
0.0735943
0.0727994
0.0719431
0.0710367
0.0700924
0.0691227
0.0681409
0.0671602
0.0661943
0.0652561
0.0643584
0.063516
0.0627428
0.0620064
0.0612714
0.00852023
0.00751992
0.00659092
0.00567863
0.0047272
0.00374875
0.00275697
0.00176155
0.000772672
-0.000198863
-0.00114228
-0.00204709
-0.00290315
-0.00370085
-0.00443124
-0.00508598
-0.00565749
-0.00613889
-0.0065241
-0.00680778
-0.0069854
-0.0070531
-0.00700777
-0.00684703
-0.0065691
-0.00617288
-0.00565785
-0.00502412
-0.00427233
-0.00340368
-0.00241986
-0.00132305
-0.000115957
0.00119828
0.00261611
0.00413356
0.00574634
0.00744983
0.00923907
0.0111087
0.0130532
0.0150665
0.0171425
0.0192749
0.021457
0.0236822
0.0259434
0.0282336
0.0305454
0.0328714
0.0352043
0.0375365
0.0398605
0.0421687
0.0444535
0.0467075
0.048923
0.0510927
0.0532093
0.0552656
0.0572548
0.05917
0.0610049
0.0627531
0.0644089
0.0659666
0.0674212
0.0687678
0.0700023
0.071121
0.0721206
0.0729985
0.0737529
0.0743821
0.0748856
0.0752633
0.0755159
0.0756449
0.0756527
0.0755423
0.0753178
0.0749837
0.0745457
0.0740099
0.0733836
0.0726746
0.0718919
0.071045
0.0701439
0.0691995
0.068223
0.0672257
0.0662194
0.0652156
0.0642252
0.0632587
0.0623296
0.0614502
0.0605705
0.0596409
0.0101747
0.00897372
0.00789393
0.00686684
0.00581928
0.00476215
0.00370812
0.00266483
0.00164044
0.00064392
-0.000315645
-0.00122932
-0.00208839
-0.00288452
-0.00360994
-0.00425737
-0.00482013
-0.00529215
-0.00566806
-0.00594314
-0.00611338
-0.00617535
-0.00612635
-0.0059643
-0.00568765
-0.00529547
-0.0047874
-0.00416367
-0.00342496
-0.0025725
-0.001608
-0.000533639
0.000647988
0.00193378
0.00332026
0.00480363
0.00637975
0.00804411
0.00979188
0.0116179
0.0135166
0.0154824
0.0175093
0.0195911
0.0217215
0.0238939
0.0261015
0.0283374
0.0305946
0.0328659
0.0351439
0.0374216
0.0396914
0.0419462
0.0441784
0.0463808
0.0485459
0.0506667
0.052736
0.0547468
0.0566925
0.0585663
0.0603619
0.0620734
0.063695
0.0652212
0.0666469
0.0679676
0.069179
0.0702775
0.0712599
0.0721236
0.0728666
0.0734874
0.0739853
0.07436
0.0746121
0.074743
0.0747546
0.0746498
0.0744322
0.074106
0.0736763
0.0731485
0.0725293
0.0718259
0.0710463
0.0701989
0.0692928
0.0683376
0.067343
0.0663191
0.0652759
0.0642233
0.0631705
0.0621257
0.0611017
0.0601095
0.0590827
0.0579579
0.0118425
0.0104427
0.00921061
0.0080646
0.00691516
0.00577229
0.00464797
0.00354811
0.00247916
0.00144848
0.000463636
-0.000467843
-0.00133851
-0.00214125
-0.00286933
-0.00351651
-0.00407693
-0.00454534
-0.00491705
-0.00518797
-0.00535456
-0.00541391
-0.00536367
-0.00520206
-0.00492783
-0.00454026
-0.00403912
-0.00342476
-0.00269801
-0.00186011
-0.000912785
0.000141774
0.00130095
0.00256173
0.00392075
0.00537434
0.0069184
0.00854855
0.0102601
0.0120479
0.0139068
0.0158311
0.0178151
0.0198529
0.0219381
0.0240645
0.0262255
0.0284143
0.030624
0.0328477
0.0350783
0.0373087
0.0395318
0.0417404
0.0439272
0.0460851
0.048207
0.0502859
0.0523147
0.0542867
0.0561952
0.0580337
0.0597962
0.0614765
0.0630692
0.0645688
0.0659702
0.067269
0.068461
0.0695425
0.0705104
0.0713619
0.0720952
0.0727085
0.073201
0.0735724
0.0738231
0.073954
0.0739671
0.0738647
0.0736501
0.0733272
0.0729002
0.0723743
0.0717555
0.0710502
0.0702656
0.0694092
0.0684891
0.0675135
0.0664913
0.065431
0.0643415
0.0632312
0.0621073
0.0609768
0.0598517
0.0587424
0.0575665
0.0562479
0.0135007
0.0119051
0.0105207
0.00925314
0.00799761
0.00676357
0.00556261
0.00439911
0.00327807
0.00220548
0.00118757
0.000230641
-0.000659057
-0.0014755
-0.00221296
-0.00286607
-0.00342985
-0.00389977
-0.00427184
-0.00454255
-0.00470884
-0.00476827
-0.00471894
-0.00455936
-0.0042885
-0.00390588
-0.00341154
-0.00280592
-0.00208991
-0.00126488
-0.000332607
0.000704678
0.0018444
0.00308361
0.00441899
0.00584693
0.00736343
0.00896419
0.0106446
0.0123996
0.0142242
0.016113
0.0180603
0.0200603
0.0221069
0.024194
0.0263151
0.0284636
0.0306328
0.032816
0.0350062
0.0371965
0.03938
0.0415495
0.043698
0.0458186
0.0479042
0.0499479
0.0519429
0.0538824
0.0557601
0.0575694
0.0593044
0.0609592
0.0625281
0.0640059
0.0653876
0.0666686
0.0678449
0.0689126
0.0698686
0.0707102
0.0714352
0.0720422
0.0725299
0.0728978
0.0731462
0.0732758
0.0732882
0.0731856
0.0729706
0.0726467
0.0722177
0.0716884
0.0710639
0.0703502
0.0695535
0.0686806
0.0677384
0.0667343
0.0656761
0.0645714
0.0634277
0.0622519
0.0610503
0.0598282
0.0585974
0.0573681
0.0560426
0.0545327
0.0151296
0.0133418
0.0118057
0.0104153
0.00905081
0.00772149
0.00643884
0.00520598
0.00402663
0.00290564
0.00184811
0.000859194
-5.59367e-05
-0.000892233
-0.00164489
-0.00230934
-0.00288147
-0.00335745
-0.00373385
-0.00400775
-0.0041767
-0.00423868
-0.00419207
-0.00403574
-0.00376902
-0.00339165
-0.00290381
-0.00230611
-0.00159961
-0.000785763
0.000133583
0.00115618
0.00227944
0.00350043
0.00481592
0.00622232
0.00771565
0.00929169
0.0109459
0.0126735
0.0144694
0.0163283
0.0182448
0.0202132
0.0222276
0.0242818
0.0263696
0.0284846
0.0306201
0.0327697
0.0349264
0.0370837
0.0392344
0.0413718
0.043489
0.0455791
0.0476351
0.0496504
0.0516181
0.0535316
0.0553845
0.0571707
0.0588839
0.0605184
0.0620688
0.0635296
0.064896
0.0661633
0.0673275
0.0683846
0.0693315
0.0701654
0.0708841
0.0714858
0.0719693
0.0723339
0.0725795
0.0727068
0.0727169
0.0726116
0.0723932
0.0720648
0.0716297
0.0710921
0.0704568
0.0697289
0.068914
0.0680178
0.0670467
0.0660072
0.064906
0.0637499
0.0625452
0.0612978
0.0600129
0.0586946
0.0573549
0.0560036
0.0545289
0.052831
0.0167119
0.0147357
0.0130495
0.0115355
0.0100601
0.00863244
0.00726418
0.00595737
0.00471466
0.00353991
0.00243721
0.00141073
0.000464702
-0.000396685
-0.00116953
-0.0018501
-0.0024349
-0.00292079
-0.00330502
-0.0035852
-0.00375932
-0.00382581
-0.00378345
-0.00363146
-0.00336942
-0.00299731
-0.00251554
-0.00192491
-0.00122658
-0.000422149
0.000486444
0.00149691
0.00260669
0.00381286
0.00511215
0.006501
0.00797548
0.00953144
0.0111644
0.0128697
0.0146423
0.016477
0.0183686
0.0203114
0.0222997
0.0243274
0.0263884
0.0284764
0.030585
0.0327077
0.0348378
0.0369687
0.0390936
0.0412058
0.0432984
0.0453647
0.0473979
0.0493912
0.051338
0.0532317
0.0550661
0.0568348
0.0585319
0.0601516
0.0616885
0.0631371
0.0644927
0.0657504
0.0669061
0.067956
0.0688966
0.0697252
0.0704395
0.0710374
0.0715176
0.0718791
0.0721219
0.072246
0.0722525
0.0721425
0.0719182
0.0715822
0.0711374
0.0705877
0.0699369
0.0691898
0.0683511
0.0674261
0.0664201
0.0653392
0.0641891
0.0629756
0.0617043
0.0603802
0.0590075
0.0575895
0.0561384
0.0546641
0.0530412
0.0511586
0.0182327
0.0160719
0.014237
0.0125995
0.0110119
0.00948368
0.00802676
0.00664237
0.00533222
0.00409926
0.00294677
0.00187809
0.000896562
5.51368e-06
-0.000791812
-0.00149248
-0.00209367
-0.00259288
-0.0029879
-0.00327688
-0.00345832
-0.00353101
-0.00349413
-0.00334721
-0.00309017
-0.00272321
-0.00224693
-0.00166232
-0.000970757
-0.000173942
0.000726125
0.00172712
0.00282643
0.00402109
0.00530784
0.00668312
0.00814305
0.00968349
0.0113
0.012988
0.0147427
0.0165588
0.0184312
0.0203544
0.0223226
0.02433
0.0263706
0.0284381
0.0305263
0.0326288
0.0347389
0.0368503
0.0389561
0.0410497
0.0431244
0.0451736
0.0471904
0.0491682
0.0511004
0.0529806
0.0548024
0.0565595
0.0582461
0.0598563
0.0613848
0.0628261
0.0641752
0.0654274
0.0665785
0.0676244
0.0685618
0.0693877
0.0700995
0.0706952
0.0711732
0.0715324
0.0717723
0.0718928
0.0718946
0.0717785
0.0715463
0.0712002
0.0707428
0.0701773
0.0695073
0.0687366
0.0678695
0.0669106
0.0658648
0.0647373
0.0635332
0.0622574
0.0609148
0.0595097
0.0580456
0.0565252
0.0549609
0.0533631
0.0515931
0.0495291
0.0196785
0.0173367
0.0153549
0.0135941
0.0118936
0.0102633
0.00871538
0.0072505
0.00586959
0.00457488
0.0033688
0.00225398
0.00123307
0.000308627
-0.000516862
-0.00124106
-0.00186179
-0.00237713
-0.00278546
-0.00308542
-0.00327588
-0.00335608
-0.0033256
-0.0031843
-0.00293232
-0.00257014
-0.0020986
-0.00151891
-0.000832591
-4.14522e-05
0.000852416
0.00184661
0.00293845
0.00412495
0.00540283
0.0067685
0.0082181
0.00974753
0.0113524
0.0130282
0.0147701
0.0165731
0.018432
0.0203414
0.0222956
0.0242888
0.0263152
0.0283686
0.0304429
0.0325316
0.0346284
0.0367268
0.0388201
0.0409018
0.0429652
0.0450037
0.0470107
0.0489794
0.0509034
0.0527761
0.0545912
0.0563426
0.0580242
0.0596304
0.0611555
0.0625942
0.0639414
0.0651923
0.0663426
0.0673881
0.0683253
0.0691511
0.0698628
0.0704582
0.0709353
0.0712929
0.0715303
0.0716472
0.0716436
0.0715203
0.0712787
0.0709205
0.070448
0.0698639
0.0691711
0.0683731
0.0674737
0.0664769
0.065387
0.0642086
0.0629461
0.0616038
0.0601859
0.0586964
0.0571381
0.055513
0.0538343
0.0521127
0.0501968
0.0479545
0.0210374
0.0185179
0.0163911
0.0145073
0.0126936
0.01096
0.00931944
0.00777185
0.0063175
0.00495802
0.00369526
0.00253113
0.00146758
0.000506535
-0.000350147
-0.00110069
-0.00174359
-0.00227747
-0.00270117
-0.00301376
-0.00321461
-0.00330336
-0.00327991
-0.00314442
-0.00289732
-0.00253939
-0.0020717
-0.00149565
-0.000812903
-2.54067e-05
0.000864645
0.00185476
0.0029422
0.00412392
0.00539657
0.00675659
0.00820008
0.00972299
0.011321
0.0129896
0.014724
0.0165192
0.0183702
0.0202714
0.0222175
0.0242026
0.026221
0.0282666
0.0303333
0.0324148
0.0345047
0.0365966
0.038684
0.0407603
0.042819
0.0448534
0.0468568
0.0488228
0.0507447
0.0526161
0.0544306
0.056182
0.0578642
0.0594716
0.0609986
0.0624396
0.0637894
0.0650433
0.0661967
0.0672454
0.0681857
0.0690144
0.0697284
0.0703253
0.0708032
0.0711605
0.071396
0.0715094
0.0715002
0.0713691
0.071117
0.0707452
0.0702556
0.0696503
0.068932
0.0681037
0.0671687
0.0661305
0.064993
0.06376
0.0624354
0.0610231
0.0595267
0.0579499
0.0562949
0.0545636
0.0527694
0.0509237
0.0488631
0.0464452
0.0222986
0.0196044
0.0173342
0.0153281
0.013401
0.0115635
0.00982889
0.00819675
0.00666686
0.00524028
0.00391828
0.00270214
0.00159328
0.000593057
-0.000297299
-0.0010766
-0.00174384
-0.00229812
-0.00273879
-0.00306536
-0.00327761
-0.00337556
-0.00335944
-0.00322971
-0.00298713
-0.00263273
-0.00216779
-0.00159393
-0.000912959
-0.000126965
0.000761753
0.00175061
0.00283675
0.00401708
0.0052882
0.00664651
0.00808814
0.00960903
0.0112049
0.0128712
0.0146032
0.016396
0.0182446
0.0201435
0.0220873
0.0240703
0.0260868
0.0281308
0.0301962
0.0322768
0.0343663
0.0364582
0.0385461
0.0406235
0.0426839
0.0447205
0.0467269
0.0486964
0.0506225
0.0524986
0.0543184
0.0560756
0.0577642
0.0593782
0.0609121
0.0623603
0.0637175
0.0649787
0.0661394
0.0671951
0.0681419
0.0689764
0.0696954
0.0702962
0.0707767
0.071135
0.0713698
0.0714802
0.0714657
0.0713265
0.0710631
0.0706766
0.0701683
0.06954
0.068794
0.067933
0.0669597
0.0658772
0.0646889
0.0633982
0.0620085
0.0605232
0.0589457
0.0572792
0.0555256
0.0536864
0.0517759
0.0498062
0.0476018
0.0450106
0.0234523
0.020586
0.0181738
0.0160461
0.0140055
0.0120636
0.010234
0.00851598
0.00690887
0.00541324
0.00402991
0.00275966
0.00160334
0.00056178
-0.000364275
-0.00117422
-0.00186748
-0.00244365
-0.00290251
-0.00324401
-0.00346834
-0.00357582
-0.00356704
-0.00344279
-0.00320411
-0.00285228
-0.00238884
-0.00181556
-0.00113442
-0.000347646
0.000542325
0.00153279
0.0026208
0.00380318
0.00507651
0.00643712
0.00788114
0.00940449
0.0110029
0.0126718
0.0144066
0.0162024
0.018054
0.0199562
0.0219035
0.0238904
0.0259111
0.0279597
0.03003
0.032116
0.0342114
0.0363098
0.0384047
0.0404896
0.0425581
0.0446034
0.046619
0.0485984
0.0505348
0.0524217
0.0542528
0.0560217
0.0577222
0.0593484
0.0608945
0.0623549
0.0637242
0.0649973
0.0661695
0.067236
0.068193
0.0690365
0.0697634
0.0703707
0.070856
0.071217
0.0714523
0.0715607
0.0715414
0.0713942
0.0711193
0.0707173
0.0701893
0.0695367
0.0687613
0.0678656
0.0668518
0.0657226
0.064481
0.0631299
0.0616725
0.0601118
0.0584509
0.0566927
0.0548387
0.0528905
0.050863
0.048769
0.0464217
0.0436589
0.0244895
0.0214531
0.0189003
0.0166515
0.0144976
0.0124508
0.0105255
0.0087205
0.00703482
0.00546865
0.00402233
0.00269624
0.00149076
0.000406189
-0.000557189
-0.00139921
-0.00211978
-0.00271892
-0.00319682
-0.00355387
-0.00379058
-0.00390763
-0.00390594
-0.00378662
-0.003551
-0.00320061
-0.00273719
-0.0021627
-0.00147929
-0.00068934
0.000204559
0.00119959
0.00229272
0.00348069
0.00476
0.00612696
0.00757764
0.00910797
0.0107136
0.0123902
0.0141329
0.0159368
0.017797
0.0197081
0.0216648
0.0236614
0.0256923
0.0277516
0.0298331
0.0319308
0.0340384
0.0361496
0.0382579
0.0403568
0.0424398
0.0445002
0.0465314
0.0485268
0.0504798
0.0523837
0.0542321
0.0560185
0.0577367
0.0593806
0.0609443
0.0624221
0.0638084
0.0650981
0.066286
0.0673675
0.0683384
0.0691945
0.0699324
0.070549
0.0710413
0.0714072
0.0716447
0.0717524
0.0717292
0.0715745
0.0712881
0.0708704
0.070322
0.0696442
0.0688383
0.0679063
0.0668503
0.0656724
0.0643754
0.0629619
0.0614346
0.0597964
0.0580501
0.0561984
0.0542426
0.0521842
0.0500389
0.0478206
0.0453306
0.0423974
0.0254018
0.022197
0.0195044
0.017135
0.0148679
0.0127159
0.0106943
0.00880152
0.00703621
0.00539828
0.00388772
0.00250446
0.00124845
0.000119594
-0.000882313
-0.00175748
-0.00250625
-0.00312907
-0.00362654
-0.00399938
-0.00424847
-0.00437483
-0.00437972
-0.00426456
-0.00403094
-0.00368062
-0.00321555
-0.00263788
-0.00194995
-0.00115432
-0.000253707
0.000748961
0.00185055
0.00304771
0.00433686
0.00571424
0.00717591
0.00871776
0.0103355
0.0120245
0.0137802
0.0155977
0.0174719
0.0193976
0.0213694
0.0233817
0.0254288
0.0275048
0.0296037
0.0317194
0.0338456
0.0359759
0.038104
0.0402233
0.0423272
0.044409
0.0464622
0.0484801
0.0504559
0.0523829
0.0542546
0.0560645
0.0578061
0.0594733
0.0610601
0.0625606
0.063969
0.06528
0.0664883
0.0675891
0.0685778
0.0694503
0.0702026
0.0708314
0.0713337
0.0717067
0.0719484
0.072057
0.0720311
0.0718697
0.0715724
0.0711392
0.0705703
0.0698667
0.0690296
0.0680602
0.0669606
0.0657326
0.0643785
0.0629007
0.0613019
0.0595844
0.057751
0.0558042
0.0537452
0.0515755
0.0493117
0.0469686
0.0443361
0.0412332
0.026181
0.022809
0.0199774
0.0174876
0.0151074
0.0128501
0.0107316
0.00875036
0.00690463
0.00519403
0.00361824
0.0021768
0.000869269
-0.000304826
-0.00134606
-0.00225507
-0.00303261
-0.0036795
-0.0041967
-0.00458528
-0.00484645
-0.00498161
-0.00499233
-0.0048803
-0.00464738
-0.00429553
-0.00382694
-0.00324398
-0.00254916
-0.0017452
-0.000834942
0.000178556
0.00129205
0.00250206
0.00380496
0.00519692
0.00667395
0.0082319
0.00986642
0.011573
0.0133469
0.0151832
0.0170769
0.0190228
0.0210154
0.0230492
0.0251185
0.0272174
0.0293398
0.0314798
0.0336309
0.0357868
0.0379411
0.0400872
0.0422184
0.0443281
0.0464097
0.0484563
0.0504612
0.0524175
0.0543187
0.0561581
0.0579291
0.0596255
0.0612409
0.0627695
0.0642052
0.0655425
0.066776
0.0679005
0.0689113
0.069804
0.0705744
0.0712188
0.0717339
0.0721169
0.0723651
0.0724765
0.0724495
0.0722827
0.0719754
0.0715272
0.0709382
0.0702088
0.0693399
0.0683326
0.0671884
0.065909
0.0644966
0.0629533
0.0612813
0.059483
0.057561
0.0555176
0.0533543
0.0510721
0.048689
0.0462204
0.0434452
0.0401726
0.0268192
0.0232808
0.0203108
0.0177008
0.0152074
0.0128444
0.0106287
0.00855852
0.00663175
0.0048478
0.00320603
0.00170568
0.000345968
-0.000873965
-0.00195503
-0.00289829
-0.00370483
-0.00437584
-0.00491262
-0.00531656
-0.00558927
-0.00573248
-0.00574801
-0.00563785
-0.00540407
-0.00504891
-0.00457477
-0.00398422
-0.00327998
-0.00246488
-0.00154193
-0.000514312
0.000614598
0.00184123
0.00316187
0.00457263
0.00606945
0.00764813
0.00930426
0.0110333
0.0128305
0.014691
0.0166098
0.0185815
0.0206007
0.0226619
0.0247594
0.0268873
0.0290395
0.03121
0.0333923
0.0355802
0.0377671
0.0399464
0.0421115
0.0442556
0.046372
0.0484537
0.050494
0.0524861
0.0544229
0.0562979
0.0581043
0.0598357
0.0614856
0.0630478
0.0645162
0.065885
0.0671486
0.0683016
0.069339
0.0702561
0.0710485
0.0717122
0.0722435
0.0726392
0.0728966
0.0730132
0.072987
0.0728165
0.0725005
0.0720384
0.0714298
0.0706749
0.0697742
0.0687286
0.0675394
0.066208
0.0647363
0.0631262
0.0613798
0.0594994
0.0574874
0.0553463
0.0530773
0.0506816
0.0481781
0.0455833
0.0426646
0.0392218
0.027309
0.0236046
0.0204962
0.017766
0.0151592
0.0126904
0.0103772
0.00821756
0.00620928
0.00435146
0.00264321
0.00108349
-0.000328797
-0.00159487
-0.002716
-0.00369359
-0.00452905
-0.00522393
-0.00577984
-0.00619856
-0.00648202
-0.00663223
-0.00665131
-0.00654147
-0.00630509
-0.00594463
-0.00546272
-0.00486214
-0.00414575
-0.00331657
-0.00237774
-0.00133261
-0.000184653
0.00106246
0.00240492
0.00383876
0.00535985
0.00696391
0.00864651
0.0104031
0.0122289
0.0141189
0.0160682
0.0180714
0.020123
0.0222175
0.0243492
0.0265122
0.0287004
0.0309077
0.0331277
0.035354
0.03758
0.039799
0.0420045
0.0441894
0.0463471
0.0484705
0.0505527
0.0525868
0.0545657
0.0564825
0.0583305
0.0601029
0.0617932
0.0633948
0.0649015
0.0663072
0.0676061
0.0687925
0.0698612
0.0708072
0.0716258
0.0723127
0.0728638
0.0732757
0.0735452
0.0736697
0.0736467
0.0734744
0.0731515
0.0726767
0.0720496
0.0712698
0.0703377
0.0692539
0.0680195
0.0666356
0.065104
0.0634263
0.0616045
0.0596409
0.0575377
0.0552975
0.0529216
0.0504112
0.0477862
0.0450639
0.0420007
0.0383867
0.0276426
0.0237722
0.0205254
0.0176749
0.0149544
0.0123795
0.00996846
0.00771907
0.0056289
0.00369688
0.00192187
0.000302563
-0.00116248
-0.00247476
-0.00363591
-0.00464762
-0.00551165
-0.00622986
-0.00680423
-0.00723689
-0.00753002
-0.00768593
-0.00770702
-0.00759578
-0.00735483
-0.0069869
-0.00649481
-0.00588154
-0.00515013
-0.00430376
-0.00334576
-0.00227958
-0.00110883
0.00016272
0.00153117
0.00299244
0.00454233
0.0061765
0.00789049
0.00967968
0.0115393
0.0134643
0.0154496
0.0174899
0.0195798
0.0217136
0.0238855
0.0260898
0.0283202
0.0305706
0.0328346
0.0351057
0.0373774
0.0396428
0.0418952
0.0441276
0.0463331
0.0485048
0.0506354
0.052718
0.0547454
0.0567106
0.0586064
0.060426
0.0621627
0.0638097
0.0653604
0.0668087
0.0681483
0.0693734
0.0704785
0.0714582
0.0723075
0.0730217
0.0735966
0.0740283
0.0743134
0.0744487
0.0744317
0.0742601
0.0739321
0.0734464
0.072802
0.0719985
0.0710358
0.0699143
0.0686348
0.0671983
0.0656063
0.0638604
0.0619624
0.0599146
0.0577191
0.0553787
0.0528946
0.0502681
0.0475202
0.0446693
0.0414601
0.0376731
0.0278126
0.0237758
0.0203902
0.017419
0.0145846
0.0119033
0.00939408
0.00705462
0.00488232
0.00287591
0.00103402
-0.000644931
-0.00216267
-0.00352099
-0.00472184
-0.00576721
-0.0066592
-0.00740001
-0.00799193
-0.00843739
-0.00873887
-0.00889893
-0.00892027
-0.00880566
-0.00855798
-0.00818018
-0.00767531
-0.00704652
-0.00629704
-0.00543025
-0.00444962
-0.00335873
-0.00216132
-0.000861259
0.000537415
0.00203055
0.00361385
0.00528294
0.00703329
0.00886023
0.0107589
0.0127243
0.0147513
0.0168344
0.0189683
0.0211474
0.0233657
0.0256174
0.0278963
0.0301962
0.0325107
0.0348332
0.037157
0.0394754
0.0417813
0.0440679
0.046328
0.0485546
0.0507404
0.0528782
0.0549607
0.0569806
0.0589307
0.060804
0.0625934
0.0642919
0.0658928
0.0673894
0.0687755
0.0700448
0.0711915
0.0722099
0.0730948
0.073841
0.0744439
0.0748995
0.0752038
0.0753534
0.0753454
0.0751773
0.0748467
0.0743521
0.0736922
0.0728663
0.0718741
0.0707156
0.0693916
0.0679026
0.0662502
0.0644356
0.0624608
0.0603279
0.0580392
0.0555974
0.0530038
0.0502597
0.0473873
0.0444061
0.0410491
0.037087
0.0278117
0.0236076
0.0200826
0.0169903
0.0140415
0.0112533
0.00864556
0.0062158
0.0039612
0.00188032
-2.84385e-05
-0.00176693
-0.0033371
-0.00474108
-0.00598109
-0.00705945
-0.00797859
-0.008741
-0.00934931
-0.00980619
-0.0101144
-0.0102768
-0.0102965
-0.0101763
-0.00991952
-0.00952924
-0.00900877
-0.00836144
-0.0075907
-0.00670009
-0.00569322
-0.00457382
-0.00334574
-0.00201301
-0.000579768
0.000949744
0.00257117
0.00428005
0.00607181
0.0079417
0.00988481
0.0118961
0.0139703
0.0161021
0.0182859
0.0205162
0.022787
0.0250923
0.0274261
0.0297819
0.0321533
0.0345338
0.0369165
0.0392945
0.0416607
0.0440082
0.0463298
0.0486181
0.0508658
0.0530656
0.0552099
0.0572913
0.0593024
0.0612359
0.0630845
0.0648409
0.0664982
0.0680494
0.0694879
0.0708072
0.0720012
0.0730637
0.0739892
0.0747723
0.075408