/*--------------------------------*- C++ -*----------------------------------*\
| =========                 |                                                 |
| \\      /  F ield         | OpenFOAM: The Open Source CFD Toolbox           |
|  \\    /   O peration     | Version:  2212                                  |
|   \\  /    A nd           | Website:  www.openfoam.com                      |
|    \\/     M anipulation  |                                                 |
\*---------------------------------------------------------------------------*/
FoamFile
{
    version     2.0;
    format      ascii;
    arch        "LSB;label=32;scalar=64";
    class       volVectorField;
    location    "0.0625";
    object      U;
}
// * * * * * * * * * * * * * * * * * * * * * * * * * * * * * * * * * * * * * //

dimensions      [0 1 -1 0 0 0 0];

internalField   nonuniform List<vector> 
10000
(
(2.90913e-06 -2.90332e-06 0)
(1.43115e-05 -7.36953e-06 0)
(3.23596e-05 -8.45469e-06 0)
(4.92293e-05 -7.25228e-06 0)
(6.01573e-05 -4.83943e-06 0)
(6.28364e-05 -1.83768e-06 0)
(5.60757e-05 1.40495e-06 0)
(3.9334e-05 4.69253e-06 0)
(1.25052e-05 7.91564e-06 0)
(-2.42397e-05 1.10111e-05 0)
(-7.05484e-05 1.39397e-05 0)
(-0.00012595 1.66811e-05 0)
(-0.000189896 1.92199e-05 0)
(-0.000261787 2.15507e-05 0)
(-0.000340989 2.36721e-05 0)
(-0.000426852 2.55821e-05 0)
(-0.000518714 2.72834e-05 0)
(-0.00061591 2.87791e-05 0)
(-0.00071778 3.00724e-05 0)
(-0.000823669 3.1168e-05 0)
(-0.000932931 3.2071e-05 0)
(-0.00104494 3.27866e-05 0)
(-0.00115907 3.33207e-05 0)
(-0.00127472 3.36798e-05 0)
(-0.00139132 3.38703e-05 0)
(-0.00150828 3.38979e-05 0)
(-0.00162508 3.37683e-05 0)
(-0.00174117 3.34871e-05 0)
(-0.00185604 3.30605e-05 0)
(-0.00196922 3.24946e-05 0)
(-0.00208023 3.17958e-05 0)
(-0.00218862 3.09706e-05 0)
(-0.00229396 3.00252e-05 0)
(-0.00239585 2.89654e-05 0)
(-0.00249389 2.77975e-05 0)
(-0.00258773 2.65272e-05 0)
(-0.00267702 2.51603e-05 0)
(-0.00276143 2.37029e-05 0)
(-0.00284065 2.21609e-05 0)
(-0.0029144 2.05407e-05 0)
(-0.00298243 1.88482e-05 0)
(-0.00304449 1.70888e-05 0)
(-0.00310035 1.5269e-05 0)
(-0.00314982 1.33947e-05 0)
(-0.00319272 1.14717e-05 0)
(-0.00322889 9.5068e-06 0)
(-0.0032582 7.50639e-06 0)
(-0.00328053 5.47637e-06 0)
(-0.00329581 3.42318e-06 0)
(-0.00330395 1.35353e-06 0)
(-0.00330491 -7.26227e-07 0)
(-0.00329868 -2.80928e-06 0)
(-0.00328526 -4.88831e-06 0)
(-0.00326468 -6.95647e-06 0)
(-0.00323698 -9.00714e-06 0)
(-0.00320224 -1.10329e-05 0)
(-0.00316057 -1.30262e-05 0)
(-0.00311209 -1.49801e-05 0)
(-0.00305696 -1.68871e-05 0)
(-0.00299535 -1.87391e-05 0)
(-0.00292748 -2.05282e-05 0)
(-0.00285357 -2.22471e-05 0)
(-0.00277388 -2.38879e-05 0)
(-0.0026887 -2.54426e-05 0)
(-0.00259834 -2.69039e-05 0)
(-0.00250314 -2.82638e-05 0)
(-0.00240347 -2.95139e-05 0)
(-0.00229972 -3.06466e-05 0)
(-0.0021923 -3.16547e-05 0)
(-0.00208166 -3.25307e-05 0)
(-0.00196826 -3.32666e-05 0)
(-0.0018526 -3.38554e-05 0)
(-0.0017352 -3.42907e-05 0)
(-0.00161659 -3.45654e-05 0)
(-0.00149732 -3.46724e-05 0)
(-0.00137799 -3.4606e-05 0)
(-0.00125917 -3.43611e-05 0)
(-0.0011415 -3.39318e-05 0)
(-0.0010256 -3.33125e-05 0)
(-0.000912103 -3.24988e-05 0)
(-0.000801674 -3.14874e-05 0)
(-0.000694972 -3.02752e-05 0)
(-0.000592664 -2.88591e-05 0)
(-0.000495418 -2.72369e-05 0)
(-0.000403902 -2.54082e-05 0)
(-0.000318776 -2.33735e-05 0)
(-0.000240686 -2.11344e-05 0)
(-0.000170259 -1.86945e-05 0)
(-0.000108089 -1.60604e-05 0)
(-5.47264e-05 -1.32431e-05 0)
(-1.06568e-05 -1.02591e-05 0)
(2.37248e-05 -7.13454e-06 0)
(4.81539e-05 -3.91116e-06 0)
(6.25566e-05 -6.57686e-07 0)
(6.71485e-05 2.50923e-06 0)
(6.25867e-05 5.38726e-06 0)
(5.01838e-05 7.62981e-06 0)
(3.23573e-05 8.61604e-06 0)
(1.39455e-05 7.29208e-06 0)
(2.70752e-06 2.70796e-06 0)
(7.40496e-06 -1.43216e-05 0)
(2.98425e-05 -2.97999e-05 0)
(5.97451e-05 -3.16378e-05 0)
(8.34208e-05 -2.39363e-05 0)
(9.18133e-05 -1.03599e-05 0)
(7.96849e-05 6.6168e-06 0)
(4.38304e-05 2.53606e-05 0)
(-1.75046e-05 4.48107e-05 0)
(-0.000104996 6.427e-05 0)
(-0.000218547 8.32817e-05 0)
(-0.000357523 0.00010154 0)
(-0.000520907 0.000118838 0)
(-0.000707415 0.000135037 0)
(-0.000915569 0.000150049 0)
(-0.00114376 0.000163812 0)
(-0.00139031 0.000176296 0)
(-0.00165345 0.000187482 0)
(-0.0019314 0.000197368 0)
(-0.00222238 0.00020596 0)
(-0.0025246 0.000213275 0)
(-0.00283628 0.000219331 0)
(-0.00315566 0.000224153 0)
(-0.00348104 0.000227771 0)
(-0.00381072 0.000230216 0)
(-0.00414307 0.000231524 0)
(-0.00447648 0.000231728 0)
(-0.00480942 0.000230867 0)
(-0.00514037 0.000228977 0)
(-0.00546789 0.000226098 0)
(-0.0057906 0.000222268 0)
(-0.00610715 0.000217528 0)
(-0.00641626 0.000211917 0)
(-0.00671671 0.000205477 0)
(-0.00700732 0.000198248 0)
(-0.007287 0.00019027 0)
(-0.00755468 0.000181585 0)
(-0.00780939 0.000172234 0)
(-0.00805017 0.000162256 0)
(-0.00827616 0.000151695 0)
(-0.00848655 0.000140591 0)
(-0.00868058 0.000128986 0)
(-0.00885755 0.000116921 0)
(-0.00901684 0.000104439 0)
(-0.00915787 9.15809e-05 0)
(-0.00928012 7.83911e-05 0)
(-0.00938316 6.49126e-05 0)
(-0.00946661 5.11894e-05 0)
(-0.00953013 3.72662e-05 0)
(-0.00957348 2.31876e-05 0)
(-0.00959646 8.99875e-06 0)
(-0.00959896 -5.25374e-06 0)
(-0.00958093 -1.95224e-05 0)
(-0.00954236 -3.37604e-05 0)
(-0.00948336 -4.79192e-05 0)
(-0.00940407 -6.19493e-05 0)
(-0.00930471 -7.5801e-05 0)
(-0.00918559 -8.94244e-05 0)
(-0.00904708 -0.000102768 0)
(-0.00888962 -0.000115781 0)
(-0.00871373 -0.000128411 0)
(-0.00852001 -0.000140604 0)
(-0.00830912 -0.00015231 0)
(-0.00808181 -0.000163473 0)
(-0.0078389 -0.000174043 0)
(-0.00758129 -0.000183966 0)
(-0.00730994 -0.00019319 0)
(-0.00702591 -0.000201662 0)
(-0.00673031 -0.00020933 0)
(-0.00642433 -0.000216146 0)
(-0.00610924 -0.000222059 0)
(-0.00578635 -0.00022702 0)
(-0.00545708 -0.000230984 0)
(-0.00512287 -0.000233905 0)
(-0.00478526 -0.00023574 0)
(-0.00444581 -0.000236451 0)
(-0.00410615 -0.000235998 0)
(-0.00376797 -0.000234347 0)
(-0.00343298 -0.000231467 0)
(-0.00310295 -0.00022733 0)
(-0.00277966 -0.000221913 0)
(-0.00246494 -0.000215199 0)
(-0.00216059 -0.000207176 0)
(-0.00186847 -0.000197839 0)
(-0.00159039 -0.000187188 0)
(-0.00132816 -0.000175237 0)
(-0.00108355 -0.000162007 0)
(-0.000858261 -0.000147536 0)
(-0.000653921 -0.000131882 0)
(-0.000472034 -0.000115124 0)
(-0.000313942 -9.73794e-05 0)
(-0.000180768 -7.88086e-05 0)
(-7.33337e-05 -5.96414e-05 0)
(7.94729e-06 -4.02062e-05 0)
(6.32259e-05 -2.09814e-05 0)
(9.34377e-05 -2.67697e-06 0)
(0.000100607 1.36372e-05 0)
(8.81918e-05 2.63496e-05 0)
(6.16286e-05 3.30193e-05 0)
(3.01008e-05 3.01001e-05 0)
(7.28283e-06 1.39333e-05 0)
(8.53342e-06 -3.24222e-05 0)
(3.18121e-05 -5.97423e-05 0)
(5.81701e-05 -5.78911e-05 0)
(7.12738e-05 -3.54617e-05 0)
(6.02104e-05 7.20645e-07 0)
(1.81861e-05 4.55294e-05 0)
(-5.92758e-05 9.52775e-05 0)
(-0.000174826 0.000147344 0)
(-0.000329659 0.0001999 0)
(-0.000523865 0.000251657 0)
(-0.000756716 0.000301706 0)
(-0.00102687 0.000349408 0)
(-0.00133254 0.000394313 0)
(-0.00167161 0.000436107 0)
(-0.00204171 0.000474577 0)
(-0.00244032 0.000509584 0)
(-0.00286479 0.000541045 0)
(-0.00331242 0.000568921 0)
(-0.00378045 0.000593207 0)
(-0.00426609 0.000613919 0)
(-0.00476661 0.0006311 0)
(-0.00527925 0.000644805 0)
(-0.00580131 0.000655101 0)
(-0.00633014 0.000662068 0)
(-0.00686315 0.000665795 0)
(-0.00739781 0.000666374 0)
(-0.00793165 0.000663905 0)
(-0.00846229 0.00065849 0)
(-0.00898742 0.000650237 0)
(-0.00950482 0.000639254 0)
(-0.0100123 0.000625653 0)
(-0.010508 0.000609546 0)
(-0.0109897 0.000591049 0)
(-0.0114556 0.000570275 0)
(-0.0119041 0.000547342 0)
(-0.0123333 0.000522366 0)
(-0.0127416 0.000495465 0)
(-0.0131277 0.000466758 0)
(-0.01349 0.000436363 0)
(-0.0138273 0.000404401 0)
(-0.0141383 0.00037099 0)
(-0.014422 0.000336252 0)
(-0.0146773 0.000300311 0)
(-0.0149033 0.000263288 0)
(-0.0150991 0.000225308 0)
(-0.0152642 0.000186498 0)
(-0.0153977 0.000146985 0)
(-0.0154993 0.000106896 0)
(-0.0155686 6.63653e-05 0)
(-0.0156052 2.55233e-05 0)
(-0.0156089 -1.54963e-05 0)
(-0.0155797 -5.65568e-05 0)
(-0.0155176 -9.75198e-05 0)
(-0.0154227 -0.000138247 0)
(-0.0152952 -0.000178596 0)
(-0.0151357 -0.000218421 0)
(-0.0149444 -0.000257579 0)
(-0.0147221 -0.000295923 0)
(-0.0144695 -0.000333304 0)
(-0.0141874 -0.000369573 0)
(-0.0138767 -0.000404579 0)
(-0.0135385 -0.000438171 0)
(-0.0131741 -0.000470199 0)
(-0.0127848 -0.00050051 0)
(-0.0123719 -0.000528956 0)
(-0.0119371 -0.000555387 0)
(-0.011482 -0.000579653 0)
(-0.0110084 -0.00060161 0)
(-0.0105183 -0.000621117 0)
(-0.0100135 -0.000638032 0)
(-0.00949639 -0.000652222 0)
(-0.00896902 -0.000663555 0)
(-0.00843376 -0.000671908 0)
(-0.00789302 -0.000677162 0)
(-0.00734931 -0.000679208 0)
(-0.0068052 -0.000677942 0)
(-0.00626337 -0.000673273 0)
(-0.00572651 -0.000665119 0)
(-0.00519742 -0.000653411 0)
(-0.00467888 -0.000638094 0)
(-0.00417376 -0.000619129 0)
(-0.00368489 -0.000596497 0)
(-0.00321513 -0.000570197 0)
(-0.0027673 -0.000540255 0)
(-0.00234417 -0.000506728 0)
(-0.00194844 -0.000469711 0)
(-0.00158268 -0.000429342 0)
(-0.00124932 -0.000385822 0)
(-0.000950559 -0.000339425 0)
(-0.000688323 -0.000290528 0)
(-0.000464159 -0.000239644 0)
(-0.000279123 -0.000187472 0)
(-0.000133624 -0.000134972 0)
(-2.72196e-05 -8.34749e-05 0)
(4.16493e-05 -3.48359e-05 0)
(7.6002e-05 8.34058e-06 0)
(8.06473e-05 4.24149e-05 0)
(6.26428e-05 6.23874e-05 0)
(3.31328e-05 6.16517e-05 0)
(8.62286e-06 3.23419e-05 0)
(7.38967e-06 -4.94441e-05 0)
(2.43615e-05 -8.36353e-05 0)
(3.62768e-05 -7.10977e-05 0)
(2.65552e-05 -2.55329e-05 0)
(-1.62329e-05 4.28617e-05 0)
(-9.95753e-05 0.000126189 0)
(-0.000228578 0.000218463 0)
(-0.000406391 0.000315263 0)
(-0.000634527 0.000413343 0)
(-0.000913216 0.000510333 0)
(-0.00124167 0.000604498 0)
(-0.00161834 0.000694575 0)
(-0.00204106 0.000779647 0)
(-0.00250722 0.000859053 0)
(-0.00301387 0.000932331 0)
(-0.0035578 0.00099916 0)
(-0.00413565 0.00105934 0)
(-0.00474389 0.00111275 0)
(-0.00537896 0.00115934 0)
(-0.00603725 0.00119913 0)
(-0.00671512 0.00123216 0)
(-0.00740897 0.00125852 0)
(-0.00811523 0.00127833 0)
(-0.00883038 0.00129172 0)
(-0.00955097 0.00129884 0)
(-0.0102736 0.00129987 0)
(-0.010995 0.00129499 0)
(-0.0117121 0.0012844 0)
(-0.0124215 0.00126828 0)
(-0.0131205 0.00124685 0)
(-0.0138062 0.00122033 0)
(-0.0144757 0.00118892 0)
(-0.0151264 0.00115284 0)
(-0.0157558 0.00111233 0)
(-0.0163614 0.0010676 0)
(-0.0169411 0.00101888 0)
(-0.0174927 0.000966394 0)
(-0.0180141 0.000910381 0)
(-0.0185034 0.00085107 0)
(-0.0189589 0.000788694 0)
(-0.0193788 0.000723489 0)
(-0.0197618 0.000655692 0)
(-0.0201065 0.000585542 0)
(-0.0204115 0.000513283 0)
(-0.0206758 0.000439157 0)
(-0.0208985 0.000363413 0)
(-0.0210786 0.0002863 0)
(-0.0212156 0.00020807 0)
(-0.0213088 0.00012898 0)
(-0.0213579 4.92899e-05 0)
(-0.0213626 -3.07368e-05 0)
(-0.0213228 -0.000110835 0)
(-0.0212386 -0.000190734 0)
(-0.0211101 -0.000270159 0)
(-0.0209378 -0.000348834 0)
(-0.020722 -0.000426478 0)
(-0.0204635 -0.000502808 0)
(-0.0201631 -0.000577536 0)
(-0.0198217 -0.000650375 0)
(-0.0194405 -0.000721033 0)
(-0.0190209 -0.000789217 0)
(-0.0185642 -0.000854634 0)
(-0.0180721 -0.000916993 0)
(-0.0175464 -0.000975999 0)
(-0.016989 -0.00103136 0)
(-0.016402 -0.00108279 0)
(-0.0157877 -0.00113001 0)
(-0.0151485 -0.00117273 0)
(-0.0144869 -0.00121067 0)
(-0.0138057 -0.00124358 0)
(-0.0131076 -0.00127119 0)
(-0.0123958 -0.00129326 0)
(-0.0116733 -0.00130955 0)
(-0.0109433 -0.00131983 0)
(-0.0102092 -0.0013239 0)
(-0.0094744 -0.00132158 0)
(-0.00874247 -0.00131268 0)
(-0.00801702 -0.00129707 0)
(-0.00730172 -0.00127462 0)
(-0.00660028 -0.00124525 0)
(-0.00591647 -0.00120888 0)
(-0.00525402 -0.00116551 0)
(-0.00461668 -0.00111516 0)
(-0.00400812 -0.0010579 0)
(-0.00343195 -0.000993877 0)
(-0.00289163 -0.000923306 0)
(-0.00239047 -0.000846499 0)
(-0.00193153 -0.000763883 0)
(-0.00151758 -0.000676037 0)
(-0.00115098 -0.000583736 0)
(-0.00083359 -0.000488006 0)
(-0.000566617 -0.000390213 0)
(-0.000350452 -0.000292181 0)
(-0.000184448 -0.000196347 0)
(-6.66444e-05 -0.000105984 0)
(6.54419e-06 -2.54891e-05 0)
(4.06298e-05 3.92603e-05 0)
(4.34449e-05 8.05487e-05 0)
(2.6786e-05 8.84913e-05 0)
(7.69843e-06 5.02713e-05 0)
(5.06147e-06 -6.06968e-05 0)
(1.11801e-05 -9.26031e-05 0)
(9.65701e-07 -6.05464e-05 0)
(-4.05073e-05 1.70451e-05 0)
(-0.000124145 0.000126726 0)
(-0.000257531 0.000257907 0)
(-0.000445913 0.000402352 0)
(-0.000692566 0.000553776 0)
(-0.000999108 0.000707424 0)
(-0.00136578 0.000859708 0)
(-0.00179171 0.00100793 0)
(-0.00227515 0.00115008 0)
(-0.00281363 0.00128465 0)
(-0.00340414 0.00141053 0)
(-0.00404324 0.00152692 0)
(-0.00472717 0.00163325 0)
(-0.00545194 0.00172913 0)
(-0.00621337 0.00181434 0)
(-0.00700718 0.00188876 0)
(-0.00782903 0.00195234 0)
(-0.00867453 0.00200515 0)
(-0.00953931 0.00204729 0)
(-0.010419 0.00207893 0)
(-0.0113094 0.00210024 0)
(-0.0122062 0.00211148 0)
(-0.0131053 0.0021129 0)
(-0.0140026 0.00210478 0)
(-0.0148943 0.00208741 0)
(-0.0157765 0.00206112 0)
(-0.0166455 0.00202622 0)
(-0.0174978 0.00198306 0)
(-0.0183299 0.00193197 0)
(-0.0191387 0.00187332 0)
(-0.0199209 0.00180745 0)
(-0.0206736 0.00173474 0)
(-0.0213939 0.00165554 0)
(-0.0220793 0.00157022 0)
(-0.0227271 0.00147916 0)
(-0.023335 0.00138274 0)
(-0.0239009 0.00128134 0)
(-0.0244226 0.00117533 0)
(-0.0248983 0.00106512 0)
(-0.0253263 0.000951076 0)
(-0.0257051 0.000833605 0)
(-0.0260333 0.000713105 0)
(-0.0263096 0.000589978 0)
(-0.0265332 0.000464631 0)
(-0.026703 0.000337478 0)
(-0.0268186 0.000208935 0)
(-0.0268792 7.9427e-05 0)
(-0.0268848 -5.06181e-05 0)
(-0.026835 -0.000180765 0)
(-0.0267301 -0.000310575 0)
(-0.0265701 -0.000439602 0)
(-0.0263557 -0.000567394 0)
(-0.0260874 -0.000693495 0)
(-0.025766 -0.000817447 0)
(-0.0253926 -0.000938782 0)
(-0.0249683 -0.00105703 0)
(-0.0244947 -0.00117173 0)
(-0.0239733 -0.00128239 0)
(-0.0234059 -0.00138855 0)
(-0.0227946 -0.00148974 0)
(-0.0221416 -0.00158548 0)
(-0.0214492 -0.00167529 0)
(-0.0207201 -0.00175873 0)
(-0.0199571 -0.00183532 0)
(-0.0191632 -0.00190462 0)
(-0.0183415 -0.0019662 0)
(-0.0174954 -0.00201961 0)
(-0.0166284 -0.00206446 0)
(-0.0157441 -0.00210035 0)
(-0.0148464 -0.0021269 0)
(-0.0139393 -0.00214376 0)
(-0.0130269 -0.00215061 0)
(-0.0121134 -0.00214715 0)
(-0.0112031 -0.00213313 0)
(-0.0103005 -0.00210833 0)
(-0.00940998 -0.00207256 0)
(-0.00853614 -0.0020257 0)
(-0.00768353 -0.00196768 0)
(-0.00685667 -0.00189849 0)
(-0.00606008 -0.0018182 0)
(-0.00529819 -0.00172698 0)
(-0.0045753 -0.00162509 0)
(-0.00389554 -0.00151292 0)
(-0.00326283 -0.00139102 0)
(-0.00268078 -0.00126013 0)
(-0.00215259 -0.00112122 0)
(-0.00168101 -0.000975573 0)
(-0.00126815 -0.00082486 0)
(-0.000915369 -0.00067125 0)
(-0.000623092 -0.000517567 0)
(-0.000390595 -0.000367489 0)
(-0.000215765 -0.000225809 0)
(-9.48141e-05 -9.87724e-05 0)
(-2.20174e-05 5.51885e-06 0)
(1.06437e-05 7.6705e-05 0)
(1.46167e-05 0.000101694 0)
(5.56681e-06 6.30077e-05 0)
(2.17057e-06 -6.39525e-05 0)
(-5.2946e-06 -8.15421e-05 0)
(-4.28069e-05 -1.95685e-05 0)
(-0.000122307 9.96892e-05 0)
(-0.000253439 0.000259881 0)
(-0.000443406 0.00044794 0)
(-0.000697202 0.000653506 0)
(-0.00101793 0.000868482 0)
(-0.00140707 0.00108659 0)
(-0.00186475 0.00130298 0)
(-0.00238994 0.00151391 0)
(-0.00298064 0.00171654 0)
(-0.00363412 0.00190869 0)
(-0.00434701 0.00208872 0)
(-0.00511544 0.00225543 0)
(-0.00593518 0.00240792 0)
(-0.00680169 0.00254559 0)
(-0.00771023 0.00266805 0)
(-0.0086559 0.00277506 0)
(-0.00963371 0.00286653 0)
(-0.0106386 0.0029425 0)
(-0.0116656 0.00300308 0)
(-0.0127096 0.00304847 0)
(-0.0137656 0.00307893 0)
(-0.0148288 0.00309477 0)
(-0.0158943 0.00309635 0)
(-0.0169574 0.00308404 0)
(-0.0180135 0.00305829 0)
(-0.0190581 0.00301952 0)
(-0.0200869 0.0029682 0)
(-0.0210958 0.00290482 0)
(-0.0220807 0.00282986 0)
(-0.0230378 0.00274384 0)
(-0.0239634 0.00264728 0)
(-0.024854 0.00254069 0)
(-0.0257063 0.00242461 0)
(-0.026517 0.00229958 0)
(-0.0272833 0.00216614 0)
(-0.0280024 0.00202485 0)
(-0.0286716 0.00187627 0)
(-0.0292886 0.00172094 0)
(-0.0298511 0.00155945 0)
(-0.0303572 0.00139236 0)
(-0.030805 0.00122025 0)
(-0.0311929 0.00104371 0)
(-0.0315196 0.000863335 0)
(-0.0317837 0.000679713 0)
(-0.0319843 0.000493456 0)
(-0.0321206 0.000305177 0)
(-0.0321921 0.000115497 0)
(-0.0321983 -7.49543e-05 0)
(-0.0321392 -0.00026554 0)
(-0.0320148 -0.000455615 0)
(-0.0318253 -0.000644525 0)
(-0.0315715 -0.00083161 0)
(-0.0312539 -0.0010162 0)
(-0.0308736 -0.00119763 0)
(-0.0304318 -0.00137521 0)
(-0.02993 -0.00154826 0)
(-0.0293698 -0.00171609 0)
(-0.0287531 -0.00187801 0)
(-0.0280821 -0.00203333 0)
(-0.0273591 -0.00218137 0)
(-0.0265869 -0.00232142 0)
(-0.0257681 -0.00245282 0)
(-0.0249059 -0.00257489 0)
(-0.0240036 -0.00268696 0)
(-0.0230647 -0.00278839 0)
(-0.0220929 -0.00287853 0)
(-0.0210921 -0.00295678 0)
(-0.0200665 -0.00302254 0)
(-0.0190203 -0.00307525 0)
(-0.017958 -0.00311437 0)
(-0.0168844 -0.0031394 0)
(-0.0158041 -0.00314989 0)
(-0.0147222 -0.00314543 0)
(-0.0136437 -0.00312565 0)
(-0.0125736 -0.00309025 0)
(-0.0115173 -0.003039 0)
(-0.01048 -0.00297175 0)
(-0.00946686 -0.00288841 0)
(-0.00848323 -0.00278901 0)
(-0.00753427 -0.0026737 0)
(-0.00662505 -0.00254275 0)
(-0.0057605 -0.00239658 0)
(-0.00494534 -0.00223582 0)
(-0.00418401 -0.00206132 0)
(-0.00348056 -0.00187417 0)
(-0.00283864 -0.00167585 0)
(-0.00226129 -0.00146822 0)
(-0.00175089 -0.00125368 0)
(-0.00130899 -0.0010353 0)
(-0.000936135 -0.000816972 0)
(-0.000631674 -0.000603675 0)
(-0.000393565 -0.000401742 0)
(-0.00021813 -0.000219229 0)
(-9.98145e-05 -6.63526e-05 0)
(-3.08732e-05 4.4069e-05 0)
(-9.7244e-07 9.60449e-05 0)
(2.84242e-06 6.82495e-05 0)
(-9.49785e-07 -5.80559e-05 0)
(-2.35352e-05 -4.72688e-05 0)
(-9.15943e-05 5.63539e-05 0)
(-0.00021335 0.00022765 0)
(-0.000396637 0.000447831 0)
(-0.000647926 0.000701668 0)
(-0.000971648 0.000976863 0)
(-0.00137047 0.00126363 0)
(-0.00184555 0.00155423 0)
(-0.00239673 0.00184254 0)
(-0.00302272 0.00212378 0)
(-0.00372127 0.00239422 0)
(-0.00448931 0.00265095 0)
(-0.00532315 0.00289177 0)
(-0.00621852 0.003115 0)
(-0.00717075 0.0033194 0)
(-0.00817483 0.00350407 0)
(-0.00922551 0.00366843 0)
(-0.0103174 0.00381211 0)
(-0.0114448 0.00393494 0)
(-0.0126023 0.0040369 0)
(-0.013784 0.00411812 0)
(-0.0149845 0.00417882 0)
(-0.016198 0.00421931 0)
(-0.0174191 0.00423999 0)
(-0.0186423 0.00424131 0)
(-0.0198623 0.00422378 0)
(-0.0210739 0.00418796 0)
(-0.022272 0.00413442 0)
(-0.0234517 0.00406379 0)
(-0.0246083 0.00397671 0)
(-0.0257373 0.00387385 0)
(-0.0268342 0.00375588 0)
(-0.0278949 0.00362351 0)
(-0.0289153 0.00347745 0)
(-0.0298917 0.00331843 0)
(-0.0308205 0.00314717 0)
(-0.0316982 0.00296441 0)
(-0.0325218 0.00277092 0)
(-0.0332882 0.00256745 0)
(-0.0339947 0.00235477 0)
(-0.0346388 0.00213366 0)
(-0.0352182 0.00190489 0)
(-0.0357309 0.00166927 0)
(-0.0361749 0.00142759 0)
(-0.0365487 0.00118067 0)
(-0.0368509 0.000929324 0)
(-0.0370804 0.000674388 0)
(-0.0372362 0.0004167 0)
(-0.0373178 0.000157112 0)
(-0.0373247 -0.000103513 0)
(-0.0372567 -0.000364302 0)
(-0.037114 -0.000624373 0)
(-0.0368969 -0.000882832 0)
(-0.0366061 -0.00113878 0)
(-0.0362423 -0.00139129 0)
(-0.0358067 -0.00163946 0)
(-0.0353007 -0.00188234 0)
(-0.034726 -0.00211902 0)
(-0.0340845 -0.00234855 0)
(-0.0333783 -0.00256999 0)
(-0.0326099 -0.0027824 0)
(-0.0317821 -0.00298484 0)
(-0.0308978 -0.00317638 0)
(-0.0299602 -0.0033561 0)
(-0.0289729 -0.00352307 0)
(-0.0279396 -0.00367641 0)
(-0.0268642 -0.00381522 0)
(-0.0257511 -0.00393866 0)
(-0.0246046 -0.0040459 0)
(-0.0234294 -0.00413613 0)
(-0.0222305 -0.00420861 0)
(-0.0210129 -0.00426262 0)
(-0.0197819 -0.00429749 0)
(-0.0185429 -0.00431262 0)
(-0.0173014 -0.00430747 0)
(-0.0160632 -0.00428157 0)
(-0.0148341 -0.00423454 0)
(-0.0136199 -0.00416608 0)
(-0.0124265 -0.00407602 0)
(-0.0112598 -0.00396429 0)
(-0.0101257 -0.00383096 0)
(-0.00902997 -0.00367627 0)
(-0.0079783 -0.00350064 0)
(-0.00697614 -0.0033047 0)
(-0.00602872 -0.00308933 0)
(-0.00514096 -0.00285572 0)
(-0.00431735 -0.00260543 0)
(-0.00356188 -0.00234044 0)
(-0.00287796 -0.00206328 0)
(-0.00226823 -0.00177712 0)
(-0.00173448 -0.00148598 0)
(-0.0012775 -0.00119487 0)
(-0.000896844 -0.000910046 0)
(-0.000590755 -0.000639346 0)
(-0.000355919 -0.000392532 0)
(-0.000187258 -0.00018176 0)
(-7.766e-05 -2.20256e-05 0)
(-1.84398e-05 6.82327e-05 0)
(-1.38698e-07 6.47682e-05 0)
(-4.11983e-06 -4.245e-05 0)
(-4.25828e-05 1.20972e-05 0)
(-0.000143087 0.000170132 0)
(-0.000309758 0.000404485 0)
(-0.00054831 0.000694446 0)
(-0.000864216 0.00102296 0)
(-0.0012611 0.00137605 0)
(-0.00174098 0.00174239 0)
(-0.00230452 0.00211286 0)
(-0.00295116 0.00248017 0)
(-0.00367923 0.00283848 0)
(-0.00448614 0.00318317 0)
(-0.00536849 0.0035106 0)
(-0.00632221 0.00381795 0)
(-0.00734266 0.00410305 0)
(-0.00842476 0.00436426 0)
(-0.00956306 0.00460039 0)
(-0.0107519 0.0048106 0)
(-0.0119852 0.00499438 0)
(-0.013257 0.00515145 0)
(-0.0145612 0.00528172 0)
(-0.0158916 0.00538532 0)
(-0.0172418 0.00546248 0)
(-0.0186059 0.00551358 0)
(-0.0199777 0.00553909 0)
(-0.0213511 0.00553956 0)
(-0.0227204 0.00551563 0)
(-0.0240798 0.00546799 0)
(-0.0254236 0.00539738 0)
(-0.0267464 0.00530458 0)
(-0.0280431 0.00519042 0)
(-0.0293085 0.00505574 0)
(-0.0305377 0.00490143 0)
(-0.0317261 0.00472838 0)
(-0.0328692 0.00453752 0)
(-0.0339629 0.00432977 0)
(-0.0350031 0.0041061 0)
(-0.0359861 0.00386746 0)
(-0.0369083 0.00361484 0)
(-0.0377664 0.00334921 0)
(-0.0385574 0.00307159 0)
(-0.0392785 0.00278299 0)
(-0.0399271 0.00248442 0)
(-0.0405008 0.00217692 0)
(-0.0409977 0.00186154 0)
(-0.041416 0.00153934 0)
(-0.0417541 0.00121139 0)
(-0.0420108 0.000878778 0)
(-0.0421851 0.000542593 0)
(-0.0422762 0.000203951 0)
(-0.0422838 -0.000136023 0)
(-0.0422075 -0.000476191 0)
(-0.0420477 -0.000815401 0)
(-0.0418046 -0.00115249 0)
(-0.0414789 -0.00148628 0)
(-0.0410716 -0.00181558 0)
(-0.040584 -0.00213919 0)
(-0.0400175 -0.00245591 0)
(-0.0393742 -0.00276452 0)
(-0.0386561 -0.00306381 0)
(-0.0378656 -0.00335255 0)
(-0.0370055 -0.00362952 0)
(-0.0360788 -0.00389351 0)
(-0.0350888 -0.00414331 0)
(-0.0340392 -0.00437772 0)
(-0.0329337 -0.00459556 0)
(-0.0317767 -0.00479567 0)
(-0.0305724 -0.00497691 0)
(-0.0293256 -0.00513818 0)
(-0.0280412 -0.00527843 0)
(-0.0267245 -0.00539661 0)
(-0.0253808 -0.00549178 0)
(-0.0240158 -0.00556301 0)
(-0.0226353 -0.00560947 0)
(-0.0212452 -0.00563039 0)
(-0.0198518 -0.00562509 0)
(-0.0184613 -0.00559299 0)
(-0.0170802 -0.00553362 0)
(-0.0157147 -0.00544665 0)
(-0.0143715 -0.00533186 0)
(-0.013057 -0.00518921 0)
(-0.0117776 -0.00501885 0)
(-0.0105397 -0.00482112 0)
(-0.00934947 -0.00459661 0)
(-0.00821289 -0.00434618 0)
(-0.00713567 -0.00407103 0)
(-0.00612314 -0.00377272 0)
(-0.00518021 -0.00345328 0)
(-0.00431125 -0.00311527 0)
(-0.00352001 -0.0027619 0)
(-0.00280946 -0.00239717 0)
(-0.00218172 -0.00202604 0)
(-0.00163787 -0.00165462 0)
(-0.00117787 -0.00129041 0)
(-0.000800387 -0.000942669 0)
(-0.000502691 -0.000622715 0)
(-0.000280421 -0.000344421 0)
(-0.000127361 -0.000124629 0)
(-3.68098e-05 1.62668e-05 0)
(-3.1917e-06 5.19477e-05 0)
(-7.24849e-06 -1.69507e-05 0)
(-6.18578e-05 9.74972e-05 0)
(-0.000195748 0.000323439 0)
(-0.000408849 0.000632415 0)
(-0.000704582 0.00100227 0)
(-0.00108725 0.00141448 0)
(-0.00155949 0.00185363 0)
(-0.00212252 0.00230706 0)
(-0.00277635 0.00276441 0)
(-0.00351987 0.00321726 0)
(-0.00435098 0.00365879 0)
(-0.00526667 0.00408351 0)
(-0.00626313 0.00448705 0)
(-0.00733592 0.00486598 0)
(-0.00847999 0.00521759 0)
(-0.00968987 0.00553984 0)
(-0.0109597 0.0058312 0)
(-0.0122833 0.00609061 0)
(-0.0136543 0.00631734 0)
(-0.0150662 0.006511 0)
(-0.0165123 0.00667145 0)
(-0.017986 0.00679876 0)
(-0.0194805 0.00689319 0)
(-0.0209892 0.00695518 0)
(-0.0225054 0.00698526 0)
(-0.0240228 0.00698409 0)
(-0.0255348 0.00695245 0)
(-0.0270353 0.00689116 0)
(-0.0285181 0.00680113 0)
(-0.0299773 0.00668332 0)
(-0.0314072 0.00653874 0)
(-0.0328024 0.00636845 0)
(-0.0341573 0.00617353 0)
(-0.0354671 0.00595511 0)
(-0.0367268 0.00571433 0)
(-0.0379317 0.00545235 0)
(-0.0390777 0.00517037 0)
(-0.0401604 0.0048696 0)
(-0.041176 0.00455125 0)
(-0.0421211 0.00421658 0)
(-0.0429921 0.00386684 0)
(-0.043786 0.0035033 0)
(-0.0445 0.00312724 0)
(-0.0451317 0.00273997 0)
(-0.0456787 0.00234281 0)
(-0.0461391 0.00193708 0)
(-0.0465113 0.00152414 0)
(-0.0467938 0.00110535 0)
(-0.0469855 0.0006821 0)
(-0.0470858 0.000255777 0)
(-0.047094 -0.000172199 0)
(-0.0470101 -0.000600397 0)
(-0.046834 -0.00102737 0)
(-0.0465664 -0.00145165 0)
(-0.0462079 -0.00187176 0)
(-0.0457596 -0.00228621 0)
(-0.0452229 -0.00269349 0)
(-0.0445994 -0.0030921 0)
(-0.0438912 -0.0034805 0)
(-0.0431008 -0.00385717 0)
(-0.0422306 -0.00422058 0)
(-0.0412837 -0.00456921 0)
(-0.0402635 -0.00490153 0)
(-0.0391735 -0.00521603 0)
(-0.0380177 -0.00551122 0)
(-0.0368003 -0.00578562 0)
(-0.0355259 -0.00603779 0)
(-0.0341992 -0.00626631 0)
(-0.0328255 -0.00646982 0)
(-0.0314101 -0.006647 0)
(-0.0299587 -0.00679657 0)
(-0.0284771 -0.00691734 0)
(-0.0269715 -0.00700819 0)
(-0.0254482 -0.00706809 0)
(-0.0239138 -0.0070961 0)
(-0.0223748 -0.0070914 0)
(-0.0208382 -0.00705329 0)
(-0.0193109 -0.00698122 0)
(-0.0177997 -0.0068748 0)
(-0.0163119 -0.0067338 0)
(-0.0148542 -0.00655822 0)
(-0.0134338 -0.00634826 0)
(-0.0120574 -0.00610442 0)
(-0.0107318 -0.00582747 0)
(-0.00946333 -0.00551853 0)
(-0.00825819 -0.00517912 0)
(-0.00712214 -0.00481121 0)
(-0.0060605 -0.00441734 0)
(-0.00507803 -0.00400066 0)
(-0.00417885 -0.00356508 0)
(-0.00336631 -0.00311543 0)
(-0.00264292 -0.00265759 0)
(-0.00201021 -0.00219872 0)
(-0.0014686 -0.00174752 0)
(-0.00101736 -0.00131453 0)
(-0.000654501 -0.000912476 0)
(-0.000376563 -0.000556693 0)
(-0.000178404 -0.000265536 0)
(-5.54775e-05 -6.08892e-05 0)
(-6.21784e-06 2.95619e-05 0)
(-1.02907e-05 1.84036e-05 0)
(-8.10114e-05 0.000209254 0)
(-0.000248586 0.000517071 0)
(-0.0005088 0.000912652 0)
(-0.000862731 0.00137282 0)
(-0.0013134 0.0018779 0)
(-0.00186237 0.00241131 0)
(-0.00250989 0.00295924 0)
(-0.00325522 0.00351022 0)
(-0.00409662 0.00405482 0)
(-0.00503144 0.00458529 0)
(-0.00605616 0.00509533 0)
(-0.00716656 0.00557987 0)
(-0.00835775 0.00603483 0)
(-0.00962428 0.00645703 0)
(-0.0109603 0.00684399 0)
(-0.0123594 0.00719384 0)
(-0.0138152 0.00750524 0)
(-0.0153207 0.0077773 0)
(-0.016869 0.00800946 0)
(-0.0184531 0.00820152 0)
(-0.0200657 0.0083535 0)
(-0.0216997 0.0084657 0)
(-0.0233481 0.00853856 0)
(-0.0250036 0.00857273 0)
(-0.0266594 0.00856896 0)
(-0.0283086 0.00852814 0)
(-0.0299445 0.00845128 0)
(-0.0315605 0.00833943 0)
(-0.0331503 0.00819376 0)
(-0.0347077 0.00801547 0)
(-0.0362267 0.00780584 0)
(-0.0377018 0.00756617 0)
(-0.0391273 0.00729782 0)
(-0.0404981 0.00700219 0)
(-0.0418091 0.00668068 0)
(-0.0430557 0.00633475 0)
(-0.0442334 0.00596586 0)
(-0.045338 0.00557552 0)
(-0.0463657 0.00516523 0)
(-0.0473128 0.00473653 0)
(-0.0481761 0.00429097 0)
(-0.0489524 0.00383013 0)
(-0.0496391 0.0033556 0)
(-0.0502338 0.00286898 0)
(-0.0507343 0.00237191 0)
(-0.0511388 0.00186604 0)
(-0.0514459 0.00135305 0)
(-0.0516544 0.000834605 0)
(-0.0517634 0.000312435 0)
(-0.0517725 -0.000211734 0)
(-0.0516813 -0.000736152 0)
(-0.0514902 -0.00125905 0)
(-0.0511994 -0.00177863 0)
(-0.0508099 -0.0022931 0)
(-0.0503228 -0.00280063 0)
(-0.0497396 -0.00329938 0)
(-0.0490621 -0.00378751 0)
(-0.0482926 -0.00426316 0)
(-0.0474335 -0.00472447 0)
(-0.0464877 -0.00516958 0)
(-0.0454585 -0.00559662 0)
(-0.0443494 -0.00600375 0)
(-0.0431644 -0.00638913 0)
(-0.0419076 -0.00675094 0)
(-0.0405837 -0.00708739 0)
(-0.0391975 -0.00739674 0)
(-0.0377542 -0.00767726 0)
(-0.0362594 -0.00792731 0)
(-0.0347188 -0.00814528 0)
(-0.0331386 -0.00832964 0)
(-0.031525 -0.00847897 0)
(-0.0298847 -0.0085919 0)
(-0.0282244 -0.00866721 0)
(-0.0265512 -0.00870379 0)
(-0.0248721 -0.00870065 0)
(-0.0231946 -0.00865698 0)
(-0.021526 -0.00857214 0)
(-0.0198737 -0.00844569 0)
(-0.0182454 -0.00827739 0)
(-0.0166486 -0.00806728 0)
(-0.0150905 -0.00781566 0)
(-0.0135786 -0.00752315 0)
(-0.01212 -0.00719074 0)
(-0.0107217 -0.00681982 0)
(-0.00939004 -0.00641224 0)
(-0.00813141 -0.00597043 0)
(-0.0069515 -0.0054974 0)
(-0.00585546 -0.00499693 0)
(-0.00484785 -0.00447362 0)
(-0.00393246 -0.0039331 0)
(-0.00311224 -0.00338215 0)
(-0.00238924 -0.00282894 0)
(-0.0017645 -0.00228325 0)
(-0.00123798 -0.00175678 0)
(-0.000808568 -0.00126348 0)
(-0.000473814 -0.000819918 0)
(-0.000229759 -0.000445648 0)
(-7.40757e-05 -0.000163633 0)
(-9.16695e-06 -2.38303e-06 0)
(-1.32279e-05 6.34513e-05 0)
(-9.9841e-05 0.000347294 0)
(-0.000300975 0.000751218 0)
(-0.000608407 0.00124569 0)
(-0.0010209 0.00180684 0)
(-0.00154015 0.00241415 0)
(-0.00216654 0.0030501 0)
(-0.00289931 0.0036999 0)
(-0.00373686 0.00435114 0)
(-0.00467673 0.00499348 0)
(-0.00571563 0.00561834 0)
(-0.00684952 0.00621865 0)
(-0.00807365 0.00678865 0)
(-0.00938268 0.00732371 0)
(-0.0107707 0.00782012 0)
(-0.0122315 0.00827499 0)
(-0.0137582 0.00868612 0)
(-0.0153439 0.0090519 0)
(-0.0169814 0.00937122 0)
(-0.0186632 0.0096434 0)
(-0.0203819 0.00986814 0)
(-0.0221299 0.0100454 0)
(-0.0238995 0.0101756 0)
(-0.0256833 0.0102591 0)
(-0.0274737 0.0102966 0)
(-0.0292634 0.0102891 0)
(-0.031045 0.0102375 0)
(-0.0328113 0.010143 0)
(-0.0345556 0.0100069 0)
(-0.0362709 0.00983052 0)
(-0.0379508 0.00961524 0)
(-0.0395889 0.00936259 0)
(-0.0411791 0.00907411 0)
(-0.0427156 0.00875141 0)
(-0.0441927 0.00839614 0)
(-0.0456053 0.00800999 0)
(-0.0469482 0.00759467 0)
(-0.0482167 0.00715194 0)
(-0.0494064 0.00668357 0)
(-0.0505131 0.00619138 0)
(-0.0515329 0.00567719 0)
(-0.0524623 0.00514287 0)
(-0.0532982 0.00459029 0)
(-0.0540375 0.00402135 0)
(-0.0546777 0.00343799 0)
(-0.0552166 0.00284215 0)
(-0.0556521 0.0022358 0)
(-0.0559829 0.00162095 0)
(-0.0562074 0.000999617 0)
(-0.056325 0.000373842 0)
(-0.056335 -0.000254302 0)
(-0.0562372 -0.000882721 0)
(-0.0560318 -0.0015093 0)
(-0.0557192 -0.0021319 0)
(-0.0553003 -0.00274837 0)
(-0.0547765 -0.00335653 0)
(-0.0541492 -0.00395418 0)
(-0.0534204 -0.00453912 0)
(-0.0525925 -0.00510915 0)
(-0.0516681 -0.00566203 0)
(-0.0506504 -0.00619555 0)
(-0.0495428 -0.00670749 0)