/*--------------------------------*- C++ -*----------------------------------*\
| =========                 |                                                 |
| \\      /  F ield         | OpenFOAM: The Open Source CFD Toolbox           |
|  \\    /   O peration     | Version:  2212                                  |
|   \\  /    A nd           | Website:  www.openfoam.com                      |
|    \\/     M anipulation  |                                                 |
\*---------------------------------------------------------------------------*/
FoamFile
{
    version     2.0;
    format      ascii;
    arch        "LSB;label=32;scalar=64";
    class       volVectorField;
    location    "0.066";
    object      U_0;
}
// * * * * * * * * * * * * * * * * * * * * * * * * * * * * * * * * * * * * * //

dimensions      [0 1 -1 0 0 0 0];

internalField   nonuniform List<vector> 
10000
(
(2.93427e-06 -2.91234e-06 0)
(1.44236e-05 -7.42699e-06 0)
(3.26542e-05 -8.54192e-06 0)
(4.97122e-05 -7.33806e-06 0)
(6.07974e-05 -4.90852e-06 0)
(6.3574e-05 -1.88496e-06 0)
(5.6837e-05 1.38462e-06 0)
(4.00398e-05 4.70088e-06 0)
(1.30717e-05 7.95229e-06 0)
(-2.38951e-05 1.10752e-05 0)
(-7.05061e-05 1.40289e-05 0)
(-0.000126289 1.67927e-05 0)
(-0.000190694 1.93548e-05 0)
(-0.000263116 2.17072e-05 0)
(-0.000342919 2.38475e-05 0)
(-0.000429445 2.57756e-05 0)
(-0.00052203 2.74928e-05 0)
(-0.000620003 2.90032e-05 0)
(-0.000722696 3.0311e-05 0)
(-0.000829452 3.14205e-05 0)
(-0.000939619 3.23349e-05 0)
(-0.00105256 3.30593e-05 0)
(-0.00116765 3.36003e-05 0)
(-0.00128429 3.3964e-05 0)
(-0.00140188 3.41572e-05 0)
(-0.00151986 3.41865e-05 0)
(-0.00163767 3.4057e-05 0)
(-0.00175477 3.37747e-05 0)
(-0.00187066 3.3346e-05 0)
(-0.00198483 3.27769e-05 0)
(-0.00209682 3.20738e-05 0)
(-0.00220618 3.12429e-05 0)
(-0.00231246 3.02902e-05 0)
(-0.00241526 2.92216e-05 0)
(-0.00251419 2.80435e-05 0)
(-0.00260888 2.67621e-05 0)
(-0.00269897 2.53834e-05 0)
(-0.00278413 2.39133e-05 0)
(-0.00286407 2.23577e-05 0)
(-0.0029385 2.07227e-05 0)
(-0.00300713 1.90144e-05 0)
(-0.00306975 1.7239e-05 0)
(-0.00312611 1.54025e-05 0)
(-0.00317602 1.35107e-05 0)
(-0.00321929 1.15702e-05 0)
(-0.00325578 9.58721e-06 0)
(-0.00328534 7.56797e-06 0)
(-0.00330786 5.51915e-06 0)
(-0.00332325 3.44694e-06 0)
(-0.00333144 1.35764e-06 0)
(-0.00333239 -7.41448e-07 0)
(-0.00332607 -2.84353e-06 0)
(-0.00331249 -4.94202e-06 0)
(-0.00329168 -7.02955e-06 0)
(-0.00326369 -9.09896e-06 0)
(-0.0032286 -1.11434e-05 0)
(-0.00318651 -1.31553e-05 0)
(-0.00313755 -1.51268e-05 0)
(-0.00308187 -1.70503e-05 0)
(-0.00301966 -1.89184e-05 0)
(-0.00295113 -2.07232e-05 0)
(-0.00287651 -2.2457e-05 0)
(-0.00279606 -2.41116e-05 0)
(-0.00271007 -2.56791e-05 0)
(-0.00261887 -2.71517e-05 0)
(-0.00252278 -2.85216e-05 0)
(-0.00242219 -2.97806e-05 0)
(-0.00231748 -3.09212e-05 0)
(-0.00220909 -3.19361e-05 0)
(-0.00209745 -3.28175e-05 0)
(-0.00198304 -3.35574e-05 0)
(-0.00186636 -3.41485e-05 0)
(-0.00174792 -3.45842e-05 0)
(-0.00162828 -3.48577e-05 0)
(-0.00150799 -3.49624e-05 0)
(-0.00138764 -3.48923e-05 0)
(-0.00126783 -3.46417e-05 0)
(-0.00114918 -3.4205e-05 0)
(-0.00103232 -3.35769e-05 0)
(-0.000917911 -3.2753e-05 0)
(-0.000806603 -3.17297e-05 0)
(-0.000699066 -3.05038e-05 0)
(-0.000595971 -2.90722e-05 0)
(-0.000497994 -2.74334e-05 0)
(-0.000405805 -2.55865e-05 0)
(-0.000320071 -2.35319e-05 0)
(-0.000241442 -2.12713e-05 0)
(-0.000170548 -1.88088e-05 0)
(-0.000107986 -1.61513e-05 0)
(-5.43105e-05 -1.33096e-05 0)
(-1.00077e-05 -1.03004e-05 0)
(2.45264e-05 -7.15029e-06 0)
(4.90279e-05 -3.90166e-06 0)
(6.34258e-05 -6.24382e-07 0)
(6.79415e-05 2.56392e-06 0)
(6.32425e-05 5.45978e-06 0)
(5.06585e-05 7.71238e-06 0)
(3.26323e-05 8.696e-06 0)
(1.40457e-05 7.34941e-06 0)
(2.72051e-06 2.72098e-06 0)
(7.47256e-06 -1.44353e-05 0)
(3.01358e-05 -3.00727e-05 0)
(6.0376e-05 -3.1982e-05 0)
(8.43747e-05 -2.42465e-05 0)
(9.29956e-05 -1.05767e-05 0)
(8.09492e-05 6.5239e-06 0)
(4.4998e-05 2.54128e-05 0)
(-1.66365e-05 4.50184e-05 0)
(-0.000104638 6.46391e-05 0)
(-0.000218919 8.38124e-05 0)
(-0.000358844 0.000102229 0)
(-0.000523392 0.000119679 0)
(-0.000711272 0.000136026 0)
(-0.000921 0.000151176 0)
(-0.00115096 0.00016507 0)
(-0.00139944 0.000177674 0)
(-0.00166468 0.000188971 0)
(-0.00194489 0.000198957 0)
(-0.00223826 0.00020764 0)
(-0.00254298 0.000215034 0)
(-0.00285727 0.000221159 0)
(-0.00317936 0.00022604 0)
(-0.00350752 0.000229705 0)
(-0.00384004 0.000232186 0)
(-0.00417526 0.000233518 0)
(-0.00451158 0.000233737 0)
(-0.00484744 0.00023288 0)
(-0.00518131 0.000230985 0)
(-0.00551174 0.000228091 0)
(-0.00583732 0.000224237 0)
(-0.0061567 0.000219463 0)
(-0.00646859 0.00021381 0)
(-0.00677174 0.000207319 0)
(-0.00706499 0.00020003 0)
(-0.0073472 0.000191985 0)
(-0.00761732 0.000183225 0)
(-0.00787434 0.000173791 0)
(-0.00811732 0.000163724 0)
(-0.00834538 0.000153067 0)
(-0.00855768 0.000141861 0)
(-0.00875347 0.000130148 0)
(-0.00893205 0.000117971 0)
(-0.00909278 0.000105372 0)
(-0.00923507 9.2394e-05 0)
(-0.00935842 7.90799e-05 0)
(-0.00946237 6.54741e-05 0)
(-0.00954653 5.16204e-05 0)
(-0.00961058 3.75644e-05 0)
(-0.00965426 2.33519e-05 0)
(-0.00967739 9.02815e-06 0)
(-0.00967983 -5.35981e-06 0)
(-0.00966154 -1.97641e-05 0)
(-0.00962253 -3.41369e-05 0)
(-0.00956288 -4.84292e-05 0)
(-0.00948275 -6.25909e-05 0)
(-0.00938238 -7.65721e-05 0)
(-0.00926205 -9.03218e-05 0)
(-0.00912215 -0.000103788 0)
(-0.00896313 -0.000116918 0)
(-0.00878551 -0.000129661 0)
(-0.00858989 -0.000141963 0)
(-0.00837696 -0.00015377 0)
(-0.00814746 -0.000165029 0)
(-0.00790224 -0.000175687 0)
(-0.00764218 -0.000185691 0)
(-0.00736829 -0.000194986 0)
(-0.0070816 -0.000203522 0)
(-0.00678327 -0.000211246 0)
(-0.00647448 -0.000218108 0)
(-0.00615651 -0.000224057 0)
(-0.00583071 -0.000229046 0)
(-0.00549849 -0.000233025 0)
(-0.00516132 -0.000235952 0)
(-0.00482073 -0.000237783 0)
(-0.00447833 -0.000238477 0)
(-0.00413575 -0.000237998 0)
(-0.00379469 -0.000236309 0)
(-0.00345688 -0.00023338 0)
(-0.00312411 -0.000229184 0)
(-0.00279818 -0.000223697 0)
(-0.00248091 -0.000216903 0)
(-0.00217415 -0.000208788 0)
(-0.00187974 -0.000199348 0)
(-0.00159954 -0.000188585 0)
(-0.00133534 -0.000176511 0)
(-0.00108894 -0.000163151 0)
(-0.000862054 -0.000148542 0)
(-0.000656312 -0.000132741 0)
(-0.00047323 -0.000115833 0)
(-0.000314157 -9.79325e-05 0)
(-0.000180217 -7.92039e-05 0)
(-7.22335e-05 -5.98792e-05 0)
(9.38566e-06 -4.02909e-05 0)
(6.48009e-05 -2.09225e-05 0)
(9.49654e-05 -2.49102e-06 0)
(0.000101932 1.3925e-05 0)
(8.91975e-05 2.66993e-05 0)
(6.22566e-05 3.3372e-05 0)
(3.03746e-05 3.03729e-05 0)
(7.34063e-06 1.40342e-05 0)
(8.60947e-06 -3.27119e-05 0)
(3.21645e-05 -6.03644e-05 0)
(5.89074e-05 -5.86057e-05 0)
(7.23345e-05 -3.60531e-05 0)
(6.14252e-05 3.797e-07 0)
(1.93277e-05 4.55227e-05 0)
(-5.84815e-05 9.56532e-05 0)
(-0.000174683 0.000148137 0)
(-0.000330492 0.000201127 0)
(-0.000526007 0.000253324 0)
(-0.000760502 0.00030381 0)
(-0.00103263 0.000351938 0)
(-0.0013406 0.000397253 0)
(-0.00168228 0.000439438 0)
(-0.00205529 0.000478275 0)
(-0.00245708 0.000513623 0)
(-0.002885 0.000545399 0)
(-0.0033363 0.000573559 0)
(-0.00380821 0.000598099 0)
(-0.00429793 0.000619036 0)
(-0.00480269 0.000636411 0)
(-0.0053197 0.000650279 0)
(-0.00584626 0.000660709 0)
(-0.00637969 0.000667778 0)
(-0.00691735 0.000671577 0)
(-0.00745671 0.000672198 0)
(-0.00799527 0.000669741 0)
(-0.00853062 0.00066431 0)
(-0.00906044 0.000656013 0)
(-0.00958249 0.000644959 0)
(-0.0100946 0.00063126 0)
(-0.0105947 0.00061503 0)
(-0.0110808 0.000596384 0)
(-0.011551 0.000575438 0)
(-0.0120035 0.000552309 0)
(-0.0124366 0.000527116 0)
(-0.0128487 0.000499977 0)
(-0.0132383 0.000471011 0)
(-0.013604 0.000440339 0)
(-0.0139444 0.000408081 0)
(-0.0142583 0.000374359 0)
(-0.0145445 0.000339296 0)
(-0.0148021 0.000303016 0)
(-0.0150301 0.000265644 0)
(-0.0152278 0.000227303 0)
(-0.0153943 0.000188123 0)
(-0.015529 0.000148232 0)
(-0.0156315 0.00010776 0)
(-0.0157012 6.68404e-05 0)
(-0.015738 2.56067e-05 0)
(-0.0157417 -1.58053e-05 0)
(-0.015712 -5.72579e-05 0)
(-0.0156492 -9.86117e-05 0)
(-0.0155533 -0.000139725 0)
(-0.0154245 -0.000180454 0)
(-0.0152633 -0.000220653 0)
(-0.0150701 -0.000260176 0)
(-0.0148456 -0.000298874 0)
(-0.0145904 -0.000336596 0)
(-0.0143055 -0.000373192 0)
(-0.0139917 -0.00040851 0)
(-0.0136503 -0.000442397 0)
(-0.0132824 -0.0004747 0)
(-0.0128893 -0.000505266 0)
(-0.0124725 -0.000533945 0)
(-0.0120335 -0.000560585 0)
(-0.0115742 -0.000585037 0)
(-0.0110962 -0.000607155 0)
(-0.0106015 -0.000626796 0)
(-0.0100922 -0.000643818 0)
(-0.0095703 -0.000658085 0)
(-0.00903817 -0.000669466 0)
(-0.00849812 -0.000677837 0)
(-0.0079526 -0.000683078 0)
(-0.00740412 -0.00068508 0)
(-0.00685529 -0.00068374 0)
(-0.00630881 -0.000678964 0)
(-0.0057674 -0.000670673 0)
(-0.00523386 -0.000658796 0)
(-0.00471104 -0.000643279 0)
(-0.00420179 -0.000624085 0)
(-0.003709 -0.000601192 0)
(-0.00323553 -0.000574603 0)
(-0.00278422 -0.000544345 0)
(-0.00235787 -0.000510475 0)
(-0.0019592 -0.000473091 0)
(-0.00159079 -0.000432334 0)
(-0.00125508 -0.000388408 0)
(-0.000954303 -0.000341591 0)
(-0.000690373 -0.000292264 0)
(-0.000464848 -0.000240945 0)
(-0.00027878 -0.000188344 0)
(-0.00013257 -0.000135428 0)
(-2.57603e-05 -8.35428e-05 0)
(4.3235e-05 -3.4561e-05 0)
(7.74752e-05 8.88985e-06 0)
(8.18251e-05 4.31405e-05 0)
(6.34136e-05 6.31536e-05 0)
(3.34888e-05 6.22792e-05 0)
(8.70389e-06 3.26193e-05 0)
(7.4618e-06 -4.99334e-05 0)
(2.46973e-05 -8.46198e-05 0)
(3.69496e-05 -7.21545e-05 0)
(2.74423e-05 -2.63209e-05 0)
(-1.53721e-05 4.2564e-05 0)
(-9.90543e-05 0.00012652 0)
(-0.00022876 0.000219518 0)
(-0.000407675 0.000317101 0)
(-0.000637335 0.000415998 0)
(-0.000917981 0.000513818 0)
(-0.00124883 0.000608809 0)
(-0.00162833 0.000699695 0)
(-0.0020543 0.000785547 0)
(-0.00252412 0.000865698 0)
(-0.00303481 0.000939677 0)
(-0.00358314 0.00100716 0)
(-0.00416573 0.00106794 0)
(-0.00477902 0.0011219 0)
(-0.00541942 0.00116898 0)
(-0.00608328 0.0012092 0)
(-0.00676695 0.00124261 0)
(-0.00746678 0.00126928 0)
(-0.00817917 0.00128934 0)
(-0.00890057 0.00130293 0)
(-0.0096275 0.00131019 0)
(-0.0103565 0.0013113 0)
(-0.0110844 0.00130644 0)
(-0.0118078 0.00129581 0)
(-0.0125237 0.00127961 0)
(-0.013229 0.00125804 0)
(-0.0139208 0.00123132 0)
(-0.0145964 0.00119967 0)
(-0.015253 0.0011633 0)
(-0.0158882 0.00112245 0)
(-0.0164995 0.00107733 0)
(-0.0170845 0.00102818 0)
(-0.0176411 0.000975233 0)
(-0.0181673 0.000918713 0)
(-0.0186611 0.000858859 0)
(-0.0191208 0.000795905 0)
(-0.0195446 0.000730091 0)
(-0.0199312 0.000661656 0)
(-0.0202789 0.000590843 0)
(-0.0205867 0.000517897 0)
(-0.0208534 0.000443064 0)
(-0.0210781 0.000366594 0)
(-0.0212598 0.00028874 0)
(-0.0213979 0.000209758 0)
(-0.0214918 0.000129907 0)
(-0.0215412 4.94503e-05 0)
(-0.0215458 -3.13457e-05 0)
(-0.0215055 -0.000112212 0)
(-0.0214203 -0.000192875 0)
(-0.0212904 -0.000273056 0)
(-0.0211162 -0.000352477 0)
(-0.0208982 -0.000430852 0)
(-0.020637 -0.000507894 0)
(-0.0203335 -0.000583315 0)
(-0.0199888 -0.000656822 0)
(-0.0196038 -0.00072812 0)
(-0.01918 -0.000796914 0)
(-0.0187189 -0.000862908 0)
(-0.018222 -0.000925805 0)
(-0.0176912 -0.00098531 0)
(-0.0171285 -0.00104113 0)
(-0.0165359 -0.00109297 0)
(-0.0159158 -0.00114055 0)
(-0.0152706 -0.00118358 0)
(-0.0146029 -0.00122179 0)
(-0.0139154 -0.00125491 0)
(-0.013211 -0.00128267 0)
(-0.0124927 -0.00130484 0)
(-0.0117637 -0.00132116 0)
(-0.0110272 -0.00133142 0)
(-0.0102866 -0.00133542 0)
(-0.00954539 -0.00133295 0)
(-0.00880714 -0.00132385 0)
(-0.00807549 -0.00130797 0)
(-0.00735415 -0.0012852 0)
(-0.00664686 -0.00125544 0)
(-0.00595742 -0.00121863 0)
(-0.0052896 -0.00117476 0)
(-0.00464717 -0.00112386 0)
(-0.00403383 -0.00106599 0)
(-0.00345321 -0.00100131 0)
(-0.00290882 -0.000930042 0)
(-0.00240396 -0.000852495 0)
(-0.00194173 -0.000769106 0)
(-0.00152491 -0.000680462 0)
(-0.00115586 -0.000587346 0)
(-0.000836447 -0.000490797 0)
(-0.000567882 -0.000392196 0)
(-0.000350542 -0.000293384 0)
(-0.000183757 -0.000196822 0)
(-6.55375e-05 -0.000105815 0)
(7.75172e-06 -2.47966e-05 0)
(4.16863e-05 4.03068e-05 0)
(4.4179e-05 8.17225e-05 0)
(2.71409e-05 8.94992e-05 0)
(7.78239e-06 5.07515e-05 0)
(5.12384e-06 -6.13561e-05 0)
(1.14404e-05 -9.3872e-05 0)
(1.42208e-06 -6.18117e-05 0)
(-4.00408e-05 1.62649e-05 0)
(-0.000123984 0.000126748 0)
(-0.000258068 0.000258939 0)
(-0.000447595 0.000404533 0)
(-0.000695882 0.000557198 0)
(-0.00100457 0.000712138 0)
(-0.0013739 0.000865735 0)
(-0.00180302 0.00101527 0)
(-0.00229017 0.0011587 0)
(-0.00283286 0.00129451 0)
(-0.00342808 0.00142157 0)
(-0.00407235 0.00153907 0)
(-0.00476189 0.00164644 0)
(-0.00549266 0.00174329 0)
(-0.00626048 0.00182937 0)
(-0.00706101 0.00190457 0)
(-0.00788987 0.00196885 0)
(-0.00874265 0.00202226 0)
(-0.00961494 0.0020649 0)
(-0.0105023 0.00209694 0)
(-0.0114005 0.00211857 0)
(-0.0123053 0.00213002 0)
(-0.0132124 0.00213156 0)
(-0.0141177 0.00212347 0)
(-0.0150174 0.00210605 0)
(-0.0159076 0.0020796 0)
(-0.0167845 0.00204447 0)
(-0.0176445 0.00200099 0)
(-0.0184843 0.00194951 0)
(-0.0193004 0.00189038 0)
(-0.0200898 0.00182396 0)
(-0.0208495 0.00175061 0)
(-0.0215765 0.00167071 0)
(-0.0222682 0.00158463 0)
(-0.022922 0.00149275 0)
(-0.0235355 0.00139544 0)
(-0.0241066 0.00129309 0)
(-0.0246331 0.0011861 0)
(-0.0251132 0.00107484 0)
(-0.0255451 0.000959713 0)
(-0.0259274 0.000841122 0)
(-0.0262585 0.000719467 0)
(-0.0265373 0.000595156 0)
(-0.0267628 0.000468601 0)
(-0.0269341 0.000340221 0)
(-0.0270505 0.000210437 0)
(-0.0271116 7.96794e-05 0)
(-0.0271169 -5.1619e-05 0)
(-0.0270665 -0.000183018 0)
(-0.0269603 -0.000314072 0)
(-0.0267986 -0.000444331 0)
(-0.0265819 -0.000573337 0)
(-0.0263107 -0.000700629 0)
(-0.025986 -0.000825742 0)
(-0.0256088 -0.000948204 0)
(-0.0251803 -0.00106754 0)
(-0.024702 -0.00118328 0)
(-0.0241754 -0.00129494 0)
(-0.0236025 -0.00140204 0)
(-0.0229852 -0.0015041 0)
(-0.0223259 -0.00160065 0)
(-0.0216269 -0.00169121 0)
(-0.0208908 -0.00177532 0)
(-0.0201206 -0.0018525 0)
(-0.0193192 -0.00192232 0)
(-0.0184899 -0.00198432 0)
(-0.0176359 -0.00203808 0)
(-0.0167609 -0.00208318 0)
(-0.0158686 -0.00211923 0)
(-0.0149628 -0.00214584 0)
(-0.0140476 -0.00216267 0)
(-0.0131271 -0.00216939 0)
(-0.0122056 -0.00216571 0)
(-0.0112874 -0.00215137 0)
(-0.010377 -0.00212614 0)
(-0.00947893 -0.00208986 0)
(-0.00859776 -0.00204238 0)
(-0.00773808 -0.00198365 0)
(-0.00690446 -0.00191367 0)
(-0.00610145 -0.0018325 0)
(-0.00533351 -0.00174031 0)
(-0.00460498 -0.00163737 0)
(-0.00392002 -0.00152409 0)
(-0.00328258 -0.00140101 0)
(-0.00269627 -0.00126889 0)
(-0.00216433 -0.00112872 0)
(-0.0016895 -0.000981783 0)
(-0.00127392 -0.000829777 0)
(-0.000918919 -0.000674891 0)
(-0.000624924 -0.000519978 0)
(-0.000391187 -0.000368752 0)
(-0.000215556 -0.000226051 0)
(-9.41948e-05 -9.81716e-05 0)
(-2.13086e-05 6.71743e-06 0)
(1.12051e-05 7.81772e-05 0)
(1.49112e-05 0.000103025 0)
(5.64115e-06 6.36729e-05 0)
(2.2168e-06 -6.4732e-05 0)
(-5.15308e-06 -8.29583e-05 0)
(-4.26738e-05 -2.08288e-05 0)
(-0.000122454 9.92043e-05 0)
(-0.000254252 0.000260587 0)
(-0.000445355 0.000450116 0)
(-0.000700812 0.000657338 0)
(-0.00102377 0.000874093 0)
(-0.00141573 0.00109405 0)
(-0.00187683 0.00131232 0)
(-0.00240603 0.00152512 0)
(-0.00300135 0.00172959 0)
(-0.00366003 0.00192351 0)
(-0.00437867 0.00210524 0)
(-0.00515339 0.00227355 0)
(-0.00597991 0.00242753 0)
(-0.00685367 0.00256659 0)
(-0.00776988 0.0026903 0)
(-0.00872362 0.00279843 0)
(-0.00970984 0.0028909 0)
(-0.0107235 0.00296773 0)
(-0.0117594 0.00302903 0)
(-0.0128126 0.003075 0)
(-0.0138779 0.00310591 0)
(-0.0149506 0.00312206 0)
(-0.0160256 0.0031238 0)
(-0.0170982 0.00311154 0)
(-0.0181638 0.00308569 0)
(-0.0192179 0.0030467 0)
(-0.0202561 0.00299503 0)
(-0.0212742 0.00293118 0)
(-0.0222682 0.00285563 0)
(-0.0232341 0.0027689 0)
(-0.0241682 0.00267152 0)
(-0.025067 0.002564 0)
(-0.0259272 0.0024469 0)
(-0.0267454 0.00232074 0)
(-0.0275188 0.00218609 0)
(-0.0282446 0.00204349 0)
(-0.02892 0.00189352 0)
(-0.0295427 0.00173674 0)
(-0.0301104 0.00157372 0)
(-0.0306211 0.00140503 0)
(-0.031073 0.00123128 0)
(-0.0314644 0.00105304 0)
(-0.031794 0.000870924 0)
(-0.0320604 0.000685529 0)
(-0.0322627 0.00049747 0)
(-0.0324 0.000307368 0)
(-0.0324719 0.000115853 0)
(-0.032478 -7.6438e-05 0)
(-0.032418 -0.000268861 0)
(-0.0322921 -0.000460761 0)
(-0.0321006 -0.000651479 0)
(-0.031844 -0.000840345 0)
(-0.0315231 -0.00102668 0)
(-0.0311389 -0.00120981 0)
(-0.0306926 -0.00138905 0)
(-0.0301857 -0.00156369 0)
(-0.0296199 -0.00173305 0)
(-0.0289971 -0.00189643 0)
(-0.0283195 -0.00205313 0)
(-0.0275895 -0.00220245 0)
(-0.0268097 -0.0023437 0)
(-0.0259831 -0.00247619 0)
(-0.0251127 -0.00259924 0)
(-0.0242018 -0.00271218 0)
(-0.023254 -0.00281436 0)
(-0.0222731 -0.00290514 0)
(-0.021263 -0.00298389 0)
(-0.020228 -0.00305003 0)
(-0.0191722 -0.00310298 0)
(-0.0181004 -0.0031422 0)
(-0.0170171 -0.0031672 0)
(-0.0159272 -0.00317751 0)
(-0.0148358 -0.00317272 0)
(-0.0137478 -0.00315248 0)
(-0.0126685 -0.00311648 0)
(-0.0116032 -0.00306449 0)
(-0.0105571 -0.00299635 0)
(-0.00953553 -0.00291199 0)
(-0.0085438 -0.00281145 0)
(-0.00758712 -0.00269486 0)
(-0.00667063 -0.00256252 0)
(-0.00579927 -0.00241485 0)
(-0.0049778 -0.0022525 0)
(-0.00421069 -0.0020763 0)
(-0.00350202 -0.00188741 0)
(-0.00285544 -0.00168727 0)
(-0.00227402 -0.0014778 0)
(-0.00176015 -0.00126142 0)
(-0.00131535 -0.00104121 0)
(-0.000940173 -0.000821129 0)
(-0.000633941 -0.00060619 0)
(-0.000394574 -0.000402785 0)
(-0.000218342 -0.000219037 0)
(-9.96209e-05 -6.52504e-05 0)
(-3.05823e-05 4.56598e-05 0)
(-7.78136e-07 9.75854e-05 0)
(2.89974e-06 6.90562e-05 0)
(-9.25742e-07 -5.88859e-05 0)
(-2.35391e-05 -4.8646e-05 0)
(-9.18618e-05 5.53743e-05 0)
(-0.000214242 0.000227818 0)
(-0.000398621 0.000449656 0)
(-0.000651546 0.000705498 0)
(-0.000977505 0.000982934 0)
(-0.0013792 0.0012721 0)
(-0.00185782 0.00156517 0)
(-0.00241321 0.001856 0)
(-0.00304408 0.00213975 0)
(-0.00374817 0.00241264 0)
(-0.0045224 0.00267176 0)
(-0.00536304 0.00291485 0)
(-0.0062658 0.00314023 0)
(-0.00722598 0.00334663 0)
(-0.00823853 0.00353316 0)
(-0.00929815 0.0036992 0)
(-0.0103994 0.0038444 0)
(-0.0115366 0.00396856 0)
(-0.0127041 0.00407167 0)
(-0.0138962 0.00415386 0)
(-0.0151072 0.00421533 0)
(-0.0163315 0.00425641 0)
(-0.0175635 0.0042775 0)
(-0.0187977 0.00427905 0)
(-0.0200287 0.00426156 0)
(-0.0212512 0.0042256 0)
(-0.0224602 0.00417175 0)
(-0.0236507 0.00410063 0)
(-0.024818 0.00401289 0)
(-0.0259573 0.00390921 0)
(-0.0270643 0.00379027 0)
(-0.0281348 0.00365677 0)
(-0.0291646 0.00350944 0)
(-0.0301501 0.003349 0)
(-0.0310874 0.00317619 0)
(-0.0319733 0.00299176 0)
(-0.0328045 0.00279648 0)
(-0.033578 0.00259111 0)
(-0.0342911 0.00237642 0)
(-0.0349412 0.0021532 0)
(-0.0355259 0.00192225 0)
(-0.0360432 0.00168437 0)
(-0.0364912 0.00144036 0)
(-0.0368684 0.00119106 0)
(-0.0371732 0.000937278 0)
(-0.0374046 0.00067987 0)
(-0.0375616 0.000419684 0)
(-0.0376437 0.000157581 0)
(-0.0376503 -0.000105566 0)
(-0.0375814 -0.000368874 0)
(-0.037437 -0.000631447 0)
(-0.0372175 -0.000892383 0)
(-0.0369235 -0.00115077 0)
(-0.0365559 -0.00140567 0)
(-0.0361158 -0.00165617 0)
(-0.0356046 -0.00190133 0)
(-0.0350241 -0.00214019 0)
(-0.0343762 -0.00237181 0)
(-0.033663 -0.00259525 0)
(-0.0328871 -0.00280954 0)
(-0.0320511 -0.00301374 0)
(-0.0311582 -0.00320692 0)
(-0.0302116 -0.00338813 0)
(-0.0292149 -0.00355646 0)
(-0.0281717 -0.00371099 0)
(-0.0270862 -0.00385085 0)
(-0.0259626 -0.00397516 0)
(-0.0248055 -0.00408309 0)
(-0.0236195 -0.00417385 0)
(-0.0224096 -0.00424666 0)
(-0.021181 -0.00430081 0)
(-0.0199389 -0.00433565 0)
(-0.0186888 -0.00435054 0)
(-0.0174364 -0.00434497 0)
(-0.0161873 -0.00431845 0)
(-0.0149476 -0.00427061 0)
(-0.0137229 -0.00420116 0)
(-0.0125194 -0.00410991 0)
(-0.0113429 -0.00399682 0)
(-0.0101995 -0.00386195 0)
(-0.00909478 -0.00370555 0)
(-0.00803462 -0.00352805 0)
(-0.0070245 -0.0033301 0)
(-0.00606968 -0.00311258 0)
(-0.0051751 -0.00287672 0)
(-0.00434528 -0.00262407 0)
(-0.00358425 -0.00235666 0)
(-0.0028954 -0.00207703 0)
(-0.00228141 -0.00178841 0)
(-0.00174405 -0.00149484 0)
(-0.00128409 -0.00120137 0)
(-0.00090108 -0.000914339 0)
(-0.000593217 -0.000641644 0)
(-0.000357137 -0.000393134 0)
(-0.000187699 -0.000181066 0)
(-7.77067e-05 -2.05511e-05 0)
(-1.83711e-05 6.98297e-05 0)
(-1.02618e-07 6.56565e-05 0)
(-4.12395e-06 -4.32467e-05 0)
(-4.27535e-05 1.09716e-05 0)
(-0.000143801 0.000169756 0)
(-0.000311482 0.000405715 0)
(-0.000551596 0.000697879 0)
(-0.000869686 0.00102901 0)
(-0.00126943 0.00138499 0)
(-0.00175288 0.00175441 0)
(-0.00232071 0.00212807 0)
(-0.00297238 0.0024986 0)
(-0.00370621 0.00286011 0)
(-0.0045196 0.00320794 0)
(-0.00540913 0.00353841 0)
(-0.00637071 0.00384867 0)
(-0.00739965 0.00413651 0)
(-0.00849084 0.00440029 0)
(-0.0096388 0.00463878 0)
(-0.0108378 0.00485116 0)
(-0.0120817 0.00503687 0)
(-0.0133646 0.00519564 0)
(-0.0146802 0.00532739 0)
(-0.0160222 0.00543221 0)
(-0.0173844 0.00551037 0)
(-0.0187606 0.00556222 0)
(-0.0201447 0.00558824 0)
(-0.0215305 0.00558898 0)
(-0.0229121 0.00556509 0)
(-0.0242838 0.00551725 0)
(-0.0256398 0.00544622 0)
(-0.0269748 0.00535277 0)
(-0.0282833 0.00523774 0)
(-0.0295603 0.00510198 0)
(-0.0308008 0.00494639 0)
(-0.0320002 0.00477186 0)
(-0.033154 0.00457932 0)
(-0.0342578 0.00436972 0)
(-0.0353077 0.00414402 0)
(-0.0362998 0.00390319 0)
(-0.0372305 0.00364822 0)
(-0.0380966 0.0033801 0)
(-0.0388949 0.00309986 0)
(-0.0396226 0.00280851 0)
(-0.0402771 0.00250708 0)
(-0.0408561 0.00219663 0)
(-0.0413575 0.00187821 0)
(-0.0417795 0.00155289 0)
(-0.0421205 0.00122176 0)
(-0.0423794 0.000885913 0)
(-0.042555 0.000546464 0)
(-0.0426466 0.000204536 0)
(-0.0426539 -0.000138732 0)
(-0.0425765 -0.000482188 0)
(-0.0424148 -0.000824665 0)
(-0.0421689 -0.00116499 0)
(-0.0418397 -0.00150196 0)
(-0.0414281 -0.00183438 0)
(-0.0409355 -0.00216104 0)
(-0.0403633 -0.00248072 0)
(-0.0397134 -0.00279218 0)
(-0.0389881 -0.0030942 0)
(-0.0381898 -0.00338554 0)
(-0.0373212 -0.00366498 0)
(-0.0363855 -0.00393127 0)
(-0.0353859 -0.0041832 0)
(-0.0343261 -0.00441957 0)
(-0.0332101 -0.00463918 0)
(-0.032042 -0.00484086 0)
(-0.0308263 -0.00502346 0)
(-0.0295679 -0.00518588 0)
(-0.0282716 -0.00532704 0)
(-0.0269427 -0.00544591 0)
(-0.0255867 -0.00554153 0)
(-0.0242093 -0.00561297 0)
(-0.0228163 -0.00565939 0)
(-0.0214139 -0.00568002 0)
(-0.0200081 -0.00567419 0)
(-0.0186054 -0.00564131 0)
(-0.0172122 -0.00558091 0)
(-0.015835 -0.00549266 0)
(-0.0144804 -0.00537636 0)
(-0.0131548 -0.00523197 0)
(-0.0118648 -0.00505964 0)
(-0.0106168 -0.00485972 0)
(-0.00941688 -0.00463282 0)
(-0.00827121 -0.00437982 0)
(-0.0071855 -0.00410193 0)
(-0.00616512 -0.00380073 0)
(-0.005215 -0.00347828 0)
(-0.00433955 -0.00313718 0)
(-0.00354252 -0.00278067 0)
(-0.00282689 -0.00241279 0)
(-0.00219478 -0.00203854 0)
(-0.00164727 -0.0016641 0)
(-0.00118429 -0.00129706 0)
(-0.00080447 -0.000946731 0)
(-0.000505041 -0.000624546 0)
(-0.000281577 -0.000344492 0)
(-0.00012779 -0.000123545 0)
(-3.68826e-05 1.77387e-05 0)
(-3.17926e-06 5.28471e-05 0)
(-7.28209e-06 -1.76274e-05 0)
(-6.22037e-05 9.6854e-05 0)
(-0.000196935 0.000324015 0)
(-0.000411456 0.000635152 0)
(-0.00070925 0.00100784 0)
(-0.00109468 0.00142335 0)
(-0.00157044 0.00186612 0)
(-0.00213775 0.00232338 0)
(-0.00279665 0.00278468 0)
(-0.00354605 0.00324152 0)
(-0.00438382 0.003687 0)
(-0.00530694 0.0041156 0)
(-0.00631158 0.00452289 0)
(-0.00739326 0.0049054 0)
(-0.00854692 0.0052604 0)
(-0.00976702 0.00558581 0)
(-0.0110476 0.0058801 0)
(-0.0123826 0.00614217 0)
(-0.0137655 0.00637128 0)
(-0.0151896 0.00656705 0)
(-0.0166484 0.0067293 0)
(-0.018135 0.00685813 0)
(-0.0196428 0.00695378 0)
(-0.0211649 0.00701668 0)
(-0.0226948 0.00704738 0)
(-0.0242258 0.00704653 0)
(-0.0257514 0.00701491 0)
(-0.0272655 0.00695336 0)
(-0.0287618 0.00686277 0)
(-0.0302344 0.00674413 0)
(-0.0316774 0.00659844 0)
(-0.0330853 0.00642678 0)
(-0.0344528 0.00623023 0)
(-0.0357746 0.00600993 0)
(-0.037046 0.00576702 0)
(-0.0382621 0.0055027 0)
(-0.0394186 0.00521816 0)
(-0.0405114 0.00491462 0)
(-0.0415365 0.00459331 0)
(-0.0424902 0.0042555 0)
(-0.0433692 0.00390244 0)
(-0.0441705 0.00353543 0)
(-0.0448911 0.00315577 0)
(-0.0455284 0.00276477 0)
(-0.0460804 0.00236377 0)
(-0.0465449 0.00195411 0)
(-0.0469202 0.00153717 0)
(-0.0472051 0.00111431 0)
(-0.0473983 0.000686943 0)
(-0.0474991 0.000256481 0)
(-0.047507 -0.000175645 0)
(-0.0474218 -0.000607984 0)
(-0.0472437 -0.00103907 0)
(-0.0469731 -0.00146742 0)
(-0.0466107 -0.00189154 0)
(-0.0461577 -0.00230993 0)
(-0.0456154 -0.00272104 0)
(-0.0449855 -0.00312337 0)
(-0.0442702 -0.00351536 0)
(-0.0434718 -0.00389547 0)
(-0.042593 -0.00426216 0)
(-0.0416368 -0.00461389 0)
(-0.0406066 -0.00494911 0)
(-0.039506 -0.0052663 0)
(-0.0383391 -0.00556396 0)
(-0.03711 -0.0058406 0)
(-0.0358235 -0.00609475 0)
(-0.0344843 -0.00632499 0)
(-0.0330978 -0.00652995 0)
(-0.0316692 -0.00670829 0)
(-0.0302044 -0.00685874 0)
(-0.0287092 -0.00698009 0)
(-0.02719 -0.00707123 0)
(-0.025653 -0.0071311 0)
(-0.0241048 -0.00715877 0)
(-0.0225523 -0.00715343 0)
(-0.0210022 -0.00711437 0)
(-0.0194615 -0.00704103 0)
(-0.0179374 -0.00693304 0)
(-0.0164368 -0.00679018 0)
(-0.0149669 -0.00661244 0)
(-0.0135346 -0.00640006 0)
(-0.0121469 -0.00615352 0)
(-0.0108105 -0.00587362 0)
(-0.00953184 -0.00556151 0)
(-0.00831714 -0.00521871 0)
(-0.00717221 -0.00484725 0)
(-0.00610241 -0.00444967 0)
(-0.00511251 -0.00402917 0)
(-0.00420666 -0.00358971 0)
(-0.00338821 -0.00313616 0)
(-0.00265968 -0.00267447 0)
(-0.00202258 -0.00221186 0)
(-0.00147733 -0.00175713 0)
(-0.00102317 -0.0013209 0)
(-0.000658062 -0.000916006 0)
(-0.000378488 -0.000557919 0)
(-0.000179241 -0.000265145 0)
(-5.57009e-05 -5.97409e-05 0)
(-6.23036e-06 3.03964e-05 0)
(-1.0351e-05 1.79371e-05 0)
(-8.15332e-05 0.000209331 0)
(-0.000250257 0.000518958 0)
(-0.000512315 0.00091736 0)
(-0.000868825 0.00138107 0)
(-0.00132286 0.00189022 0)
(-0.00187601 0.00242805 0)
(-0.00252856 0.00298063 0)
(-0.00327977 0.00353638 0)
(-0.00412789 0.00408578 0)
(-0.00507027 0.00462101 0)
(-0.00610338 0.00513572 0)
(-0.00722295 0.00562476 0)
(-0.00842407 0.00608403 0)
(-0.00970125 0.00651029 0)
(-0.0110486 0.00690104 0)
(-0.0124597 0.0072544 0)
(-0.0139279 0.007569 0)
(-0.0154465 0.00784391 0)
(-0.0170083 0.0080786 0)
(-0.0186062 0.00827282 0)
(-0.0202331 0.00842662 0)
(-0.0218816 0.00854026 0)
(-0.0235446 0.00861421 0)
(-0.025215 0.00864909 0)
(-0.0268856 0.00864568 0)
(-0.0285497 0.00860487 0)
(-0.0302004 0.00852764 0)
(-0.0318311 0.0084151 0)
(-0.0334354 0.00826838 0)
(-0.035007 0.00808872 0)
(-0.03654 0.00787738 0)
(-0.0380286 0.0076357 0)
(-0.0394673 0.00736504 0)
(-0.0408507 0.00706679 0)
(-0.0421739 0.0067424 0)
(-0.043432 0.00639332 0)
(-0.0446206 0.00602103 0)
(-0.0457354 0.00562705 0)
(-0.0467726 0.0052129 0)
(-0.0477284 0.00478013 0)
(-0.0485995 0.00433032 0)
(-0.0493829 0.00386506 0)
(-0.0500759 0.00338595 0)
(-0.0506758 0.00289463 0)
(-0.0511808 0.00239274 0)
(-0.0515888 0.00188196 0)
(-0.0518984 0.00136398 0)
(-0.0521085 0.000840498 0)
(-0.0522181 0.000313257 0)
(-0.0522268 -0.000215995 0)
(-0.0521343 -0.000745485 0)
(-0.0519408 -0.00127342 0)
(-0.0516468 -0.00179799 0)
(-0.0512531 -0.00231737 0)
(-0.0507609 -0.00282972 0)
(-0.0501716 -0.00333317 0)
(-0.0494872 -0.00382585 0)
(-0.0487099 -0.0043059 0)
(-0.0478422 -0.00477142 0)
(-0.0468871 -0.00522054 0)
(-0.0458478 -0.00565138 0)
(-0.0447278 -0.00606207 0)
(-0.0435313 -0.00645075 0)
(-0.0422624 -0.00681558 0)
(-0.0409259 -0.00715478 0)
(-0.0395265 -0.00746656 0)
(-0.0380697 -0.0077492 0)
(-0.0365609 -0.00800103 0)
(-0.035006 -0.00822044 0)
(-0.0334112 -0.0084059 0)
(-0.0317829 -0.00855595 0)
(-0.0301277 -0.00866926 0)
(-0.0284525 -0.00874456 0)
(-0.0267643 -0.00878075 0)
(-0.0250704 -0.00877686 0)
(-0.0233781 -0.00873206 0)
(-0.021695 -0.00864572 0)
(-0.0200286 -0.00851739 0)
(-0.0183864 -0.00834686 0)
(-0.016776 -0.00813417 0)
(-0.015205 -0.00787963 0)
(-0.0136806 -0.00758389 0)
(-0.0122101 -0.00724794 0)
(-0.0108005 -0.00687321 0)
(-0.00945825 -0.00646157 0)
(-0.00818973 -0.00601548 0)
(-0.00700067 -0.005538 0)
(-0.00589628 -0.00503295 0)
(-0.00488111 -0.00450498 0)
(-0.00395896 -0.00395977 0)
(-0.00313282 -0.00340417 0)
(-0.0024047 -0.00284644 0)
(-0.00177565 -0.00229646 0)
(-0.00124559 -0.00176602 0)
(-0.000813387 -0.0012692 0)
(-0.000476535 -0.00082271 0)
(-0.000231019 -0.000446265 0)
(-7.44539e-05 -0.000163016 0)
(-9.2047e-06 -1.69204e-06 0)
(-1.33145e-05 6.32857e-05 0)
(-0.000100539 0.000348333 0)
(-0.000303129 0.000754785 0)
(-0.000612834 0.00125284 0)
(-0.00102843 0.00181835 0)
(-0.00155166 0.00243057 0)
(-0.00218291 0.00307181 0)
(-0.00292146 0.00372713 0)
(-0.00376569 0.00438402 0)
(-0.00471315 0.00503203 0)
(-0.00576052 0.0056625 0)
(-0.00690374 0.00626829 0)
(-0.00813803 0.0068436 0)
(-0.00945801 0.00738372 0)
(-0.0108578 0.00788491 0)
(-0.0123309 0.00834424 0)
(-0.0138707 0.00875948 0)
(-0.01547 0.00912901 0)
(-0.0171217 0.00945168 0)
(-0.0188182 0.00972682 0)
(-0.0205519 0.00995409 0)
(-0.0223153 0.0101335 0)
(-0.0241006 0.0102653 0)
(-0.0259002 0.0103501 0)
(-0.0277066 0.0103884 0)
(-0.0295123 0.0103813 0)
(-0.0313099 0.0103297 0)
(-0.0330923 0.0102348 0)
(-0.0348524 0.0100978 0)
(-0.0365833 0.00992008 0)
(-0.0382785 0.00970313 0)
(-0.0399316 0.00944842 0)
(-0.0415364 0.00915751 0)
(-0.043087 0.00883202 0)
(-0.0445777 0.0084736 0)
(-0.0460033 0.00808398 0)
(-0.0473586 0.00766487 0)
(-0.0486388 0.00721804 0)
(-0.0498394 0.0067453 0)
(-0.0509562 0.00624848 0)
(-0.0519854 0.00572942 0)
(-0.0529233 0.00518999 0)
(-0.0537667 0.00463211 0)
(-0.0545127 0.00405769 0)
(-0.0551586 0.00346868 0)
(-0.0557022 0.00286707 0)
(-0.0561415 0.00225483 0)
(-0.0564749 0.00163401 0)
(-0.0567012 0.00100663 0)
(-0.0568194 0.000374781 0)
(-0.056829 -0.000259451 0)
(-0.0567297 -0.000893947 0)
(-0.0565218 -0.00152656 0)
(-0.0562057 -0.00215514 0)
(-0.0557824 -0.00277749 0)
(-0.055253 -0.00339141 0)
(-0.0546192 -0.00399468 0)
(-0.053883 -0.00458509 0)
(-0.0530467 -0.00516037 0)
(-0.0521132 -0.0057183 0)
(-0.0510854 -0.00625663 0)
(-0.0499669 -0.00677313 0)
(-0.0487615 -0.00726555 0)
(-0.0474734 -0.00773171 0)