/*--------------------------------*- C++ -*----------------------------------*\
| =========                 |                                                 |
| \\      /  F ield         | OpenFOAM: The Open Source CFD Toolbox           |
|  \\    /   O peration     | Version:  2212                                  |
|   \\  /    A nd           | Website:  www.openfoam.com                      |
|    \\/     M anipulation  |                                                 |
\*---------------------------------------------------------------------------*/
FoamFile
{
    version     2.0;
    format      ascii;
    arch        "LSB;label=32;scalar=64";
    class       surfaceScalarField;
    location    "0.055";
    object      phi_0;
}
// * * * * * * * * * * * * * * * * * * * * * * * * * * * * * * * * * * * * * //

dimensions      [0 3 -1 0 0 0 0];

oriented        oriented;

internalField   nonuniform List<scalar> 
19800
(
6.62481e-11
-6.63351e-11
2.26461e-10
-1.60212e-10
3.99967e-10
-1.73518e-10
5.33726e-10
-1.33757e-10
5.97085e-10
-6.33567e-11
5.73525e-10
2.35639e-11
4.54965e-10
1.1856e-10
2.3863e-10
2.16339e-10
-7.4934e-11
3.13564e-10
-4.83013e-10
4.08082e-10
-9.81519e-10
4.98506e-10
-1.56543e-09
5.83916e-10
-2.2291e-09
6.63688e-10
-2.96653e-09
7.37437e-10
-3.77146e-09
8.04925e-10
-4.63749e-09
8.66024e-10
-5.55819e-09
9.20688e-10
-6.52709e-09
9.68912e-10
-7.53783e-09
1.01075e-09
-8.58409e-09
1.04628e-09
-9.6597e-09
1.07561e-09
-1.07586e-08
1.09889e-09
-1.18749e-08
1.11628e-09
-1.30028e-08
1.12792e-09
-1.41368e-08
1.134e-09
-1.52715e-08
1.13468e-09
-1.64017e-08
1.13017e-09
-1.75223e-08
1.12064e-09
-1.86286e-08
1.10629e-09
-1.97159e-08
1.0873e-09
-2.07798e-08
1.06389e-09
-2.1816e-08
1.03625e-09
-2.28206e-08
1.00457e-09
-2.37897e-08
9.69058e-10
-2.47196e-08
9.29926e-10
-2.56069e-08
8.87362e-10
-2.64485e-08
8.4156e-10
-2.72412e-08
7.92729e-10
-2.79823e-08
7.41077e-10
-2.86691e-08
6.86804e-10
-2.92992e-08
6.30102e-10
-2.98704e-08
5.71178e-10
-3.03806e-08
5.10238e-10
-3.08281e-08
4.47485e-10
-3.12112e-08
3.83125e-10
-3.15286e-08
3.17363e-10
-3.1779e-08
2.50418e-10
-3.19615e-08
1.82511e-10
-3.20754e-08
1.13849e-10
-3.212e-08
4.46464e-11
-3.20952e-08
-2.48704e-11
-3.20007e-08
-9.4474e-11
-3.18367e-08
-1.6393e-10
-3.16037e-08
-2.33004e-10
-3.13023e-08
-3.01474e-10
-3.09332e-08
-3.69102e-10
-3.04975e-08
-4.35634e-10
-2.99967e-08
-5.00822e-10
-2.94323e-08
-5.64415e-10
-2.88061e-08
-6.26155e-10
-2.81203e-08
-6.858e-10
-2.73772e-08
-7.43103e-10
-2.65794e-08
-7.97798e-10
-2.57298e-08
-8.49619e-10
-2.48315e-08
-8.98309e-10
-2.38879e-08
-9.43613e-10
-2.29026e-08
-9.85274e-10
-2.18796e-08
-1.02305e-09
-2.08229e-08
-1.05669e-09
-1.97369e-08
-1.08594e-09
-1.86264e-08
-1.11056e-09
-1.7496e-08
-1.13033e-09
-1.6351e-08
-1.14501e-09
-1.51966e-08
-1.15441e-09
-1.40383e-08
-1.15831e-09
-1.28818e-08
-1.15653e-09
-1.17329e-08
-1.1489e-09
-1.05977e-08
-1.13525e-09
-9.48225e-09
-1.11543e-09
-8.39291e-09
-1.08932e-09
-7.33608e-09
-1.05683e-09
-6.31822e-09
-1.01787e-09
-5.34582e-09
-9.72402e-10
-4.42538e-09
-9.2043e-10
-3.5634e-09
-8.6199e-10
-2.76623e-09
-7.97167e-10
-2.04012e-09
-7.26113e-10
-1.39104e-09
-6.49068e-10
-8.24632e-10
-5.66399e-10
-3.46015e-10
-4.78619e-10
4.04405e-11
-3.86461e-10
3.31429e-10
-2.90986e-10
5.25164e-10
-1.9373e-10
6.22142e-10
-9.69767e-11
6.26341e-10
-4.19904e-12
5.47119e-10
7.92257e-11
4.02264e-10
1.4486e-10
2.2316e-10
1.79106e-10
6.36485e-11
1.59511e-10
6.36536e-11
1.57098e-10
-2.23434e-10
4.31267e-10
-4.34346e-10
6.90841e-10
-4.33085e-10
8.40414e-10
-2.83321e-10
8.14906e-10
-3.78475e-11
5.72966e-10
2.65511e-10
9.08236e-11
6.00689e-10
-6.42701e-10
9.49872e-10
-1.63e-09
1.30086e-09
-2.8672e-09
1.64529e-09
-4.34604e-09
1.97734e-09
-6.05516e-09
2.29302e-09
-7.98099e-09
2.58951e-09
-1.01085e-08
2.86492e-09
-1.24215e-08
3.11796e-09
-1.49033e-08
3.34781e-09
-1.75366e-08
3.55404e-09
-2.03042e-08
3.73647e-09
-2.31886e-08
3.89512e-09
-2.61725e-08
4.03017e-09
-2.92388e-08
4.14192e-09
-3.23707e-08
4.2308e-09
-3.55517e-08
4.29726e-09
-3.87656e-08
4.34188e-09
-4.19969e-08
4.36525e-09
-4.52302e-08
4.36801e-09
-4.84508e-08
4.35083e-09
-5.16446e-08
4.3144e-09
-5.47977e-08
4.25943e-09
-5.78971e-08
4.18665e-09
-6.093e-08
4.09679e-09
-6.38843e-08
3.99062e-09
-6.67487e-08
3.86888e-09
-6.9512e-08
3.73235e-09
-7.21638e-08
3.58178e-09
-7.46944e-08
3.41794e-09
-7.70944e-08
3.24161e-09
-7.93553e-08
3.05356e-09
-8.14687e-08
2.85455e-09
-8.34273e-08
2.64538e-09
-8.5224e-08
2.42683e-09
-8.68525e-08
2.19968e-09
-8.8307e-08
1.96474e-09
-8.95823e-08
1.72279e-09
-9.06739e-08
1.47464e-09
-9.15776e-08
1.22111e-09
-9.22902e-08
9.63012e-10
-9.28089e-08
7.01191e-10
-9.31315e-08
4.36489e-10
-9.32566e-08
1.69746e-10
-9.31833e-08
-9.81676e-11
-9.29114e-08
-3.66367e-10
-9.24414e-08
-6.33967e-10
-9.17743e-08
-9.00064e-10
-9.09121e-08
-1.16374e-09
-8.98571e-08
-1.42408e-09
-8.86126e-08
-1.68014e-09
-8.71824e-08
-1.93095e-09
-8.55713e-08
-2.17556e-09
-8.37844e-08
-2.413e-09
-8.18279e-08
-2.6423e-09
-7.97086e-08
-2.86247e-09
-7.74338e-08
-3.07253e-09
-7.5012e-08
-3.27149e-09
-7.24519e-08
-3.45835e-09
-6.97634e-08
-3.63214e-09
-6.69568e-08
-3.79189e-09
-6.40432e-08
-3.93666e-09
-6.10344e-08
-4.06549e-09
-5.79429e-08
-4.17746e-09
-5.47818e-08
-4.27167e-09
-5.15649e-08
-4.34725e-09
-4.83065e-08
-4.40337e-09
-4.50217e-08
-4.43925e-09
-4.17258e-08
-4.45415e-09
-3.8435e-08
-4.44737e-09
-3.51656e-08
-4.41829e-09
-3.19345e-08
-4.36633e-09
-2.87589e-08
-4.291e-09
-2.56564e-08
-4.1919e-09
-2.26445e-08
-4.06871e-09
-1.97411e-08
-3.92126e-09
-1.6964e-08
-3.74952e-09
-1.43308e-08
-3.55358e-09
-1.18591e-08
-3.33374e-09
-9.5657e-09
-3.09054e-09
-7.467e-09
-2.8248e-09
-5.57835e-09
-2.53772e-09
-3.91376e-09
-2.23098e-09
-2.48543e-09
-1.90694e-09
-1.30307e-09
-1.56882e-09
-3.72952e-10
-1.2211e-09
3.03295e-10
-8.69982e-10
7.30534e-10
-5.24222e-10
9.22607e-10
-1.96264e-10
9.05889e-10
9.59573e-11
7.2402e-10
3.26731e-10
4.43675e-10
4.59448e-10
1.59405e-10
4.43787e-10
2.23061e-10
1.7234e-10
-3.95787e-10
4.30991e-10
-6.92992e-10
6.1686e-10
-6.18948e-10
6.1602e-10
-2.82479e-10
3.46559e-10
2.31614e-10
-2.46975e-10
8.59047e-10
-1.19888e-09
1.5526e-09
-2.5272e-09
2.27819e-09
-4.23767e-09
3.01133e-09
-6.32678e-09
3.7344e-09
-8.78416e-09
4.43473e-09
-1.15944e-08
5.10322e-09
-1.47382e-08
5.73334e-09
-1.81937e-08
6.32044e-09
-2.19371e-08
6.86133e-09
-2.59431e-08
7.35385e-09
-3.01857e-08
7.79665e-09
-3.46383e-08
8.18903e-09
-3.92739e-08
8.53078e-09
-4.40659e-08
8.82207e-09
-4.89873e-08
9.06338e-09
-5.40119e-08
9.25542e-09
-5.91138e-08
9.39911e-09
-6.42675e-08
9.49553e-09
-6.94481e-08
9.54588e-09
-7.46315e-08
9.55146e-09
-7.97944e-08
9.51367e-09
-8.49139e-08
9.43396e-09
-8.99683e-08
9.31382e-09
-9.49365e-08
9.15481e-09
-9.97982e-08
8.95851e-09
-1.04534e-07
8.72653e-09
-1.09126e-07
8.4605e-09
-1.13555e-07
8.16207e-09
-1.17807e-07
7.8329e-09
-1.21863e-07
7.47466e-09
-1.25711e-07
7.08903e-09
-1.29335e-07
6.6777e-09
-1.32723e-07
6.24237e-09
-1.35862e-07
5.78476e-09
-1.38742e-07
5.30658e-09
-1.41352e-07
4.80955e-09
-1.43682e-07
4.29544e-09
-1.45726e-07
3.76598e-09
-1.47474e-07
3.22296e-09
-1.48921e-07
2.66817e-09
-1.50061e-07
2.10341e-09
-1.50891e-07
1.53052e-09
-1.51406e-07
9.51358e-10
-1.51604e-07
3.67797e-10
-1.51483e-07
-2.18268e-10
-1.51045e-07
-8.049e-10
-1.50289e-07
-1.39014e-09
-1.49217e-07
-1.97202e-09
-1.47832e-07
-2.54852e-09
-1.46139e-07
-3.1176e-09
-1.44141e-07
-3.67722e-09
-1.41847e-07
-4.22529e-09
-1.39263e-07
-4.7597e-09
-1.36398e-07
-5.27833e-09
-1.33261e-07
-5.77908e-09
-1.29864e-07
-6.25978e-09
-1.26218e-07
-6.7183e-09
-1.22337e-07
-7.15247e-09
-1.18235e-07
-7.56018e-09
-1.13928e-07
-7.93928e-09
-1.09432e-07
-8.28769e-09
-1.04765e-07
-8.60335e-09
-9.99466e-08
-8.88421e-09
-9.49958e-08
-9.1283e-09
-8.99338e-08
-9.33368e-09
-8.47825e-08
-9.49851e-09
-7.95649e-08
-9.62101e-09
-7.43046e-08
-9.69952e-09
-6.90263e-08
-9.73245e-09
-6.37553e-08
-9.71838e-09
-5.85176e-08
-9.65601e-09
-5.33398e-08
-9.54417e-09
-4.82489e-08
-9.38189e-09
-4.32724e-08
-9.16841e-09
-3.84378e-08
-8.90322e-09
-3.37731e-08
-8.58605e-09
-2.93056e-08
-8.21698e-09
-2.50627e-08
-7.79644e-09
-2.10711e-08
-7.32534e-09
-1.73566e-08
-6.80511e-09
-1.39435e-08
-6.23786e-09
-1.08547e-08
-5.62655e-09
-8.1104e-09
-4.97525e-09
-5.72788e-09
-4.28946e-09
-3.72013e-09
-3.57657e-09
-2.09469e-09
-2.84654e-09
-8.519e-10
-2.11278e-09
1.74096e-11
-1.39353e-09
5.34837e-10
-7.13692e-10
7.38086e-10
-1.073e-10
6.85581e-10
3.79227e-10
4.61299e-10
6.83736e-10
1.79546e-10
7.2555e-10
4.02603e-10
1.34468e-10
-5.30249e-10
2.86526e-10
-8.45048e-10
2.88531e-10
-6.20948e-10
1.99541e-11
-1.38997e-11
-6.07406e-10
8.58971e-10
-1.65522e-09
1.90685e-09
-3.16315e-09
3.06053e-09
-5.15318e-09
4.26821e-09
-7.63321e-09
5.49135e-09
-1.06001e-08
6.70126e-09
-1.4042e-08
7.87668e-09
-1.79406e-08
9.00186e-09
-2.22725e-08
1.00652e-08
-2.70105e-08
1.10584e-08
-3.21244e-08
1.19753e-08
-3.75822e-08
1.28117e-08
-4.33504e-08
1.35648e-08
-4.93946e-08
1.42332e-08
-5.56797e-08
1.48159e-08
-6.21707e-08
1.5313e-08
-6.88323e-08
1.57251e-08
-7.563e-08
1.6053e-08
-8.25291e-08
1.62983e-08
-8.9496e-08
1.64625e-08
-9.64977e-08
1.65475e-08
-1.03502e-07
1.65556e-08
-1.10477e-07
1.6489e-08
-1.17393e-07
1.63501e-08
-1.24221e-07
1.61413e-08
-1.30931e-07
1.58654e-08
-1.37498e-07
1.55251e-08
-1.43894e-07
1.51229e-08
-1.50096e-07
1.46618e-08
-1.56078e-07
1.41446e-08
-1.61819e-07
1.3574e-08
-1.67298e-07
1.29531e-08
-1.72493e-07
1.22846e-08
-1.77387e-07
1.15716e-08
-1.81962e-07
1.08169e-08
-1.86201e-07
1.00236e-08
-1.90089e-07
9.19453e-09
-1.93612e-07
8.33281e-09
-1.96758e-07
7.44143e-09
-1.99515e-07
6.52347e-09
-2.01874e-07
5.582e-09
-2.03826e-07
4.62013e-09
-2.05364e-07
3.64104e-09
-2.06481e-07
2.6479e-09
-2.07174e-07
1.64393e-09
-2.07438e-07
6.32413e-10
-2.07273e-07
-3.83343e-10
-2.06678e-07
-1.39999e-09
-2.05654e-07
-2.41412e-09
-2.04204e-07
-3.4223e-09
-2.02332e-07
-4.42104e-09
-2.00042e-07
-5.40682e-09
-1.97343e-07
-6.37605e-09
-1.94244e-07
-7.32514e-09
-1.90753e-07
-8.25045e-09
-1.86883e-07
-9.14833e-09
-1.82647e-07
-1.00151e-08
-1.7806e-07
-1.0847e-08
-1.73138e-07
-1.16404e-08
-1.67898e-07
-1.23916e-08
-1.62362e-07
-1.3097e-08
-1.56548e-07
-1.37528e-08
-1.5048e-07
-1.43554e-08
-1.44182e-07
-1.49014e-08
-1.37679e-07
-1.53872e-08
-1.30998e-07
-1.58095e-08
-1.24167e-07
-1.61651e-08
-1.17215e-07
-1.64506e-08
-1.10172e-07
-1.66632e-08
-1.03072e-07
-1.68001e-08
-9.59455e-08
-1.68586e-08
-8.88276e-08
-1.68363e-08
-8.17525e-08
-1.67311e-08
-7.47555e-08
-1.65412e-08
-6.78725e-08
-1.62649e-08
-6.11397e-08
-1.59012e-08
-5.45936e-08
-1.54494e-08
-4.82705e-08
-1.49092e-08
-4.22065e-08
-1.4281e-08
-3.64371e-08
-1.35658e-08
-3.09968e-08
-1.27656e-08
-2.59188e-08
-1.18832e-08
-2.12341e-08
-1.09225e-08
-1.69715e-08
-9.88919e-09
-1.31561e-08
-8.79062e-09
-9.80895e-09
-7.63664e-09
-6.94536e-09
-6.44017e-09
-4.57365e-09
-5.21825e-09
-2.69312e-09
-3.99329e-09
-1.29178e-09
-2.79487e-09
-3.43411e-10
-1.66206e-09
1.95779e-10
-6.46499e-10
3.91166e-10
1.83843e-10
3.34007e-10
7.40909e-10
1.4696e-10
9.12596e-10
5.49557e-10
6.72319e-11
-5.97478e-10
4.9272e-11
-8.27078e-10
-2.12331e-10
-3.59342e-10
-8.34952e-10
6.0872e-10
-1.90595e-09
1.92997e-09
-3.48749e-09
3.48838e-09
-5.62041e-09
5.19346e-09
-8.32781e-09
6.97562e-09
-1.16181e-08
8.78163e-09
-1.54877e-08
1.05709e-08
-1.99234e-08
1.23124e-08
-2.49044e-08
1.39829e-08
-3.04038e-08
1.55646e-08
-3.639e-08
1.70446e-08
-4.28278e-08
1.84131e-08
-4.96794e-08
1.96633e-08
-5.69051e-08
2.07905e-08
-6.44636e-08
2.17917e-08
-7.23131e-08
2.26654e-08
-8.04112e-08
2.34111e-08
-8.87153e-08
2.40292e-08
-9.71833e-08
2.4521e-08
-1.05773e-07
2.48883e-08
-1.14444e-07
2.51332e-08
-1.23155e-07
2.52586e-08
-1.31867e-07
2.52674e-08
-1.40541e-07
2.51631e-08
-1.4914e-07
2.4949e-08
-1.57628e-07
2.46289e-08
-1.65969e-07
2.42068e-08
-1.7413e-07
2.36865e-08
-1.8208e-07
2.30723e-08
-1.89786e-07
2.23682e-08
-1.9722e-07
2.15786e-08
-2.04354e-07
2.07077e-08
-2.11161e-07
1.976e-08
-2.17616e-07
1.87398e-08
-2.23696e-07
1.76515e-08
-2.29378e-07
1.64997e-08
-2.34644e-07
1.52889e-08
-2.39473e-07
1.40237e-08
-2.43849e-07
1.27085e-08
-2.47755e-07
1.13482e-08
-2.51179e-07
9.94726e-09
-2.54108e-07
8.51052e-09
-2.5653e-07
7.04272e-09
-2.58438e-07
5.54868e-09
-2.59823e-07
4.03328e-09
-2.60681e-07
2.50147e-09
-2.61007e-07
9.58236e-10
-2.60799e-07
-5.9135e-10
-2.60056e-07
-2.14216e-09
-2.58782e-07
-3.689e-09
-2.56977e-07
-5.22661e-09
-2.54649e-07
-6.74967e-09
-2.51803e-07
-8.25279e-09
-2.48448e-07
-9.73054e-09
-2.44596e-07
-1.11774e-08
-2.40258e-07
-1.25879e-08
-2.3545e-07
-1.39564e-08
-2.30188e-07
-1.52774e-08
-2.2449e-07
-1.65451e-08
-2.18376e-07
-1.77541e-08
-2.11869e-07
-1.88987e-08
-2.04993e-07
-1.99733e-08
-1.97773e-07
-2.09725e-08
-1.90238e-07
-2.18908e-08
-1.82416e-07
-2.27228e-08
-1.7434e-07
-2.34634e-08
-1.66042e-07
-2.41074e-08
-1.57557e-07
-2.46499e-08
-1.48922e-07
-2.50864e-08
-1.40173e-07
-2.54122e-08
-1.3135e-07
-2.56232e-08
-1.22493e-07
-2.57156e-08
-1.13643e-07
-2.56858e-08
-1.04844e-07
-2.55308e-08
-9.6137e-08
-2.52479e-08
-8.75669e-08
-2.4835e-08
-7.91775e-08
-2.42906e-08
-7.10131e-08
-2.36138e-08
-6.31175e-08
-2.28048e-08
-5.55342e-08
-2.18642e-08
-4.83059e-08
-2.07941e-08
-4.14737e-08
-1.95978e-08
-3.50771e-08
-1.82798e-08
-2.91526e-08
-1.68469e-08
-2.3734e-08
-1.53078e-08
-1.88504e-08
-1.36742e-08
-1.45259e-08
-1.19611e-08
-1.0778e-08
-1.01881e-08
-7.61594e-09
-8.38033e-09
-5.03886e-09
-6.57037e-09
-3.03371e-09
-4.80002e-09
-1.57259e-09
-3.12318e-09
-6.09843e-10
-1.60924e-09
-7.87474e-11
-3.47239e-10
1.12184e-10
5.49987e-10
8.41614e-11
9.40613e-10
6.33717e-10
-1.62401e-11
-5.81239e-10
-2.44923e-10
-5.98397e-10
-8.25142e-10
2.20868e-10
-1.86372e-09
1.6473e-09
-3.44159e-09
3.50784e-09
-5.61709e-09
5.66387e-09
-8.42883e-09
8.0052e-09
-1.18985e-08
1.04453e-08
-1.60331e-08
1.29163e-08
-2.08279e-08
1.53656e-08
-2.62676e-08
1.77521e-08
-3.23288e-08
2.00441e-08
-3.89815e-08
2.22174e-08
-4.61904e-08
2.42534e-08
-5.39158e-08
2.61385e-08
-6.21149e-08
2.78624e-08
-7.07426e-08
2.94182e-08
-7.9752e-08
3.08011e-08
-8.90951e-08
3.20084e-08
-9.8723e-08
3.30391e-08
-1.08587e-07
3.38932e-08
-1.18638e-07
3.45721e-08
-1.28828e-07
3.50778e-08
-1.39108e-07
3.54135e-08
-1.49432e-07
3.55824e-08
-1.59753e-07
3.55886e-08
-1.70026e-07
3.54367e-08
-1.80209e-07
3.51312e-08
-1.90257e-07
3.46774e-08
-2.00131e-07
3.40805e-08
-2.0979e-07
3.33459e-08
-2.19197e-07
3.24795e-08
-2.28316e-07
3.1487e-08
-2.37112e-07
3.03742e-08
-2.45551e-07
2.91473e-08
-2.53604e-07
2.78123e-08
-2.61239e-07
2.63754e-08
-2.68431e-07
2.48428e-08
-2.75152e-07
2.32208e-08
-2.81379e-07
2.15158e-08
-2.87089e-07
1.97342e-08
-2.92263e-07
1.78824e-08
-2.96882e-07
1.5967e-08
-3.00929e-07
1.39946e-08
-3.04391e-07
1.19719e-08
-3.07253e-07
9.90549e-09
-3.09507e-07
7.80226e-09
-3.11143e-07
5.66909e-09
-3.12154e-07
3.51293e-09
-3.12537e-07
1.34085e-09
-3.12288e-07
-8.40027e-10
-3.11408e-07
-3.02247e-09
-3.09898e-07
-5.19916e-09
-3.07762e-07
-7.36269e-09
-3.05006e-07
-9.50558e-09
-3.01638e-07
-1.16203e-08
-2.9767e-07
-1.36991e-08
-2.93113e-07
-1.57343e-08
-2.87983e-07
-1.77182e-08
-2.82296e-07
-1.96429e-08
-2.76073e-07
-2.15006e-08
-2.69335e-07
-2.32834e-08
-2.62105e-07
-2.49836e-08
-2.54411e-07
-2.65932e-08
-2.4628e-07
-2.81044e-08
-2.37743e-07
-2.95097e-08
-2.28832e-07
-3.08014e-08
-2.19583e-07
-3.19721e-08
-2.10031e-07
-3.30146e-08
-2.00217e-07
-3.39217e-08
-1.9018e-07
-3.46868e-08
-1.79963e-07
-3.53032e-08
-1.6961e-07
-3.57651e-08
-1.59167e-07
-3.60664e-08
-1.48681e-07
-3.62022e-08
-1.38199e-07
-3.61675e-08
-1.27771e-07
-3.59583e-08
-1.17448e-07
-3.5571e-08
-1.0728e-07
-3.50031e-08
-9.73182e-08
-3.42526e-08
-8.76133e-08
-3.33187e-08
-7.82162e-08
-3.22018e-08
-6.9177e-08
-3.09035e-08
-6.05443e-08
-2.94268e-08
-5.23652e-08
-2.77768e-08
-4.46845e-08
-2.59606e-08
-3.75438e-08
-2.39876e-08
-3.09809e-08
-2.18708e-08
-2.50286e-08
-1.96264e-08
-1.9714e-08
-1.72757e-08
-1.50567e-08
-1.48454e-08
-1.10674e-08
-1.23696e-08
-7.74641e-09
-9.89137e-09
-5.08137e-09
-7.46506e-09
-3.04526e-09
-5.15929e-09
-1.59397e-09
-3.06052e-09
-6.63733e-10
-1.27747e-09
-1.68302e-10
5.45568e-11
4.56123e-12
7.67751e-10
6.38281e-10
-1.07995e-10
-4.73242e-10
-5.71873e-10
-1.34516e-10
-1.50657e-09
1.15557e-09
-3.00358e-09
3.14431e-09
-5.13337e-09
5.63763e-09
-7.94709e-09
8.47759e-09
-1.14784e-08
1.15365e-08
-1.57452e-08
1.47121e-08
-2.07518e-08
1.79229e-08
-2.64905e-08
2.11043e-08
-3.29437e-08
2.42053e-08
-4.00851e-08
2.71855e-08
-4.78814e-08
3.00137e-08
-5.62937e-08
3.26657e-08
-6.52784e-08
3.51231e-08
-7.47882e-08
3.73722e-08
-8.47732e-08
3.94032e-08
-9.51814e-08
4.12093e-08
-1.05959e-07
4.27864e-08
-1.17053e-07
4.41324e-08
-1.28407e-07
4.52472e-08
-1.39967e-07
4.6132e-08
-1.51678e-07
4.67893e-08
-1.63487e-07
4.72224e-08
-1.7534e-07
4.74357e-08
-1.87186e-07
4.74343e-08
-1.98973e-07
4.72237e-08
-2.10652e-07
4.68101e-08
-2.22175e-07
4.62001e-08
-2.33495e-07
4.54004e-08
-2.44567e-07
4.44182e-08
-2.55348e-07
4.32611e-08
-2.65798e-07
4.19365e-08
-2.75876e-07
4.04522e-08
-2.85545e-07
3.88163e-08
-2.94769e-07
3.70367e-08
-3.03516e-07
3.51216e-08
-3.11752e-07
3.30793e-08
-3.19449e-07
3.09181e-08
-3.2658e-07
2.86465e-08
-3.33119e-07
2.62731e-08
-3.39043e-07
2.38063e-08
-3.44331e-07
2.12549e-08
-3.48964e-07
1.86278e-08
-3.52926e-07
1.59337e-08
-3.56202e-07
1.31816e-08
-3.5878e-07
1.03807e-08
-3.60651e-07
7.53999e-09
-3.61807e-07
4.66889e-09
-3.62243e-07
1.77674e-09
-3.61956e-07
-1.12693e-09
-3.60946e-07
-4.03249e-09
-3.59215e-07
-6.93023e-09
-3.56767e-07
-9.81026e-09
-3.5361e-07
-1.26626e-08
-3.49753e-07
-1.54773e-08
-3.45208e-07
-1.8244e-08
-3.3999e-07
-2.09527e-08
-3.34115e-07
-2.35928e-08
-3.27604e-07
-2.61542e-08
-3.20478e-07
-2.86263e-08
-3.12763e-07
-3.09989e-08
-3.04485e-07
-3.32614e-08
-2.95675e-07
-3.54035e-08
-2.86364e-07
-3.74151e-08
-2.76588e-07
-3.92859e-08
-2.66383e-07
-4.10059e-08
-2.5579e-07
-4.25654e-08
-2.4485e-07
-4.39549e-08
-2.33606e-07
-4.5165e-08
-2.22106e-07
-4.6187e-08
-2.10397e-07
-4.70123e-08
-1.98529e-07
-4.7633e-08
-1.86554e-07
-4.80416e-08
-1.74525e-07
-4.82315e-08
-1.62496e-07
-4.81964e-08
-1.50523e-07
-4.79313e-08
-1.38662e-07
-4.74316e-08
-1.26971e-07
-4.66943e-08
-1.15506e-07
-4.57171e-08
-1.04326e-07
-4.44994e-08
-9.34856e-08
-4.3042e-08
-8.30417e-08
-4.13473e-08
-7.30484e-08
-3.94201e-08
-6.3558e-08
-3.72673e-08
-5.46199e-08
-3.48987e-08
-4.62802e-08
-3.23274e-08
-3.85806e-08
-2.95704e-08
-3.15575e-08
-2.66495e-08
-2.52408e-08
-2.35923e-08
-1.96529e-08
-2.04334e-08
-1.48067e-08
-1.72158e-08
-1.07047e-08
-1.39933e-08
-7.33716e-09
-1.08326e-08
-4.68003e-09
-7.81642e-09
-2.69354e-09
-5.04701e-09
-1.3202e-09
-2.65081e-09
-4.8305e-10
-7.82595e-10
-8.37874e-11
3.68498e-10
5.54491e-10
-2.0321e-10
-2.70037e-10
-9.15608e-10
5.77876e-10
-2.22654e-09
2.46649e-09
-4.20948e-09
5.12724e-09
-6.92177e-09
8.34992e-09
-1.04049e-08
1.19607e-08
-1.46853e-08
1.58168e-08
-1.97754e-08
1.98021e-08
-2.5675e-08
2.38225e-08
-3.23729e-08
2.78022e-08
-3.98477e-08
3.16801e-08
-4.807e-08
3.54078e-08
-5.7003e-08
3.89467e-08
-6.66042e-08
4.22669e-08
-7.6826e-08
4.53449e-08
-8.76171e-08
4.81634e-08
-9.89232e-08
5.07093e-08
-1.10688e-07
5.29737e-08
-1.22852e-07
5.49508e-08
-1.35357e-07
5.66375e-08
-1.48143e-07
5.80331e-08
-1.61149e-07
5.91385e-08
-1.74317e-07
5.99565e-08
-1.87585e-07
6.04911e-08
-2.00897e-07
6.07473e-08
-2.14194e-07
6.07313e-08
-2.2742e-07
6.045e-08
-2.40521e-07
5.99107e-08
-2.53443e-07
5.91217e-08
-2.66134e-07
5.80915e-08
-2.78545e-07
5.68291e-08
-2.90627e-07
5.53437e-08
-3.02336e-07
5.36451e-08
-3.13627e-07
5.17429e-08
-3.24458e-07
4.96473e-08
-3.34789e-07
4.73685e-08
-3.44585e-07
4.49168e-08
-3.53808e-07
4.23027e-08
-3.62427e-07
3.95369e-08
-3.7041e-07
3.66302e-08
-3.77731e-07
3.35935e-08
-3.84362e-07
3.04376e-08
-3.90281e-07
2.71739e-08
-3.95467e-07
2.38133e-08
-3.999e-07
2.03674e-08
-4.03566e-07
1.68476e-08
-4.06451e-07
1.32655e-08
-4.08544e-07
9.63278e-09
-4.09837e-07
5.96136e-09
-4.10323e-07
2.26325e-09
-4.10001e-07
-1.44939e-09
-4.08869e-07
-5.16426e-09
-4.0693e-07
-8.86892e-09
-4.0419e-07
-1.25508e-08
-4.00655e-07
-1.61971e-08
-3.96337e-07
-1.97951e-08
-3.9125e-07
-2.33317e-08
-3.85408e-07
-2.67939e-08
-3.78833e-07
-3.01686e-08
-3.71544e-07
-3.34426e-08
-3.63568e-07
-3.66026e-08
-3.54931e-07
-3.96354e-08
-3.45665e-07
-4.25278e-08
-3.35802e-07
-4.52667e-08
-3.25378e-07
-4.7839e-08
-3.14432e-07
-5.0232e-08
-3.03005e-07
-5.24328e-08
-2.91141e-07
-5.44293e-08
-2.78887e-07
-5.62093e-08
-2.6629e-07
-5.77611e-08
-2.53404e-07
-5.90737e-08
-2.4028e-07
-6.01364e-08
-2.26973e-07
-6.09393e-08
-2.13542e-07
-6.1473e-08
-2.00044e-07
-6.17292e-08
-1.8654e-07
-6.17004e-08
-1.73091e-07
-6.13801e-08
-1.5976e-07
-6.07633e-08
-1.46608e-07
-5.9846e-08
-1.33699e-07
-5.8626e-08
-1.21096e-07
-5.71027e-08
-1.0886e-07
-5.52776e-08
-9.70531e-08
-5.31543e-08
-8.57341e-08
-5.07391e-08
-7.496e-08
-4.80413e-08
-6.47849e-08
-4.50738e-08
-5.52589e-08
-4.18534e-08
-4.64276e-08
-3.84017e-08
-3.83308e-08
-3.47463e-08
-3.10019e-08
-3.09212e-08
-2.44662e-08
-2.69691e-08
-1.874e-08
-2.2942e-08
-1.38291e-08
-1.89042e-08
-9.7277e-09
-1.4934e-08
-6.41675e-09
-1.11274e-08
-3.86298e-09
-7.60079e-09
-2.01766e-09
-4.49614e-09
-8.15836e-10
-1.98441e-09
-1.75971e-10
-2.71362e-10
3.78513e-10
-2.99046e-10
2.90135e-11
-1.26584e-09
1.54468e-09
-2.9646e-09
4.16526e-09
-5.44971e-09
7.61235e-09
-8.7638e-09
1.1664e-08
-1.2937e-08
1.61339e-08
-1.79868e-08
2.08667e-08
-2.39188e-08
2.57341e-08
-3.07269e-08
3.06307e-08
-3.83951e-08
3.54704e-08
-4.68979e-08
4.01829e-08
-5.62018e-08
4.47117e-08
-6.62663e-08
4.90112e-08
-7.70449e-08
5.30456e-08
-8.84865e-08
5.67865e-08
-1.00536e-07
6.02124e-08
-1.13133e-07
6.33073e-08
-1.26219e-07
6.60597e-08
-1.39731e-07
6.8462e-08
-1.53603e-07
7.05099e-08
-1.67772e-07
7.2202e-08
-1.82173e-07
7.35391e-08
-1.9674e-07
7.4524e-08
-2.1141e-07
7.51612e-08
-2.26119e-07
7.54566e-08
-2.40805e-07
7.54173e-08
-2.55407e-07
7.50516e-08
-2.69865e-07
7.43683e-08
-2.8412e-07
7.33773e-08
-2.98118e-07
7.20889e-08
-3.11802e-07
7.0514e-08
-3.25123e-07
6.86639e-08
-3.38028e-07
6.65504e-08
-3.50471e-07
6.41855e-08
-3.62405e-07
6.15815e-08
-3.73787e-07
5.87511e-08
-3.84577e-07
5.57068e-08
-3.94737e-07
5.24618e-08
-4.04229e-07
4.90292e-08
-4.13021e-07
4.54222e-08
-4.21082e-07
4.16544e-08
-4.28383e-07
3.77392e-08
-4.349e-07
3.36905e-08
-4.40609e-07
2.95222e-08
-4.4549e-07
2.52483e-08
-4.49525e-07
2.08831e-08
-4.52701e-07
1.64409e-08
-4.55004e-07
1.19362e-08
-4.56426e-07
7.38377e-09
-4.56962e-07
2.79851e-09
-4.56606e-07
-1.80456e-09
-4.5536e-07
-6.41018e-09
-4.53226e-07
-1.1003e-08
-4.5021e-07
-1.55673e-08
-4.4632e-07
-2.00875e-08
-4.41567e-07
-2.45476e-08
-4.35967e-07
-2.89317e-08
-4.29537e-07
-3.32235e-08
-4.22299e-07
-3.74069e-08
-4.14276e-07
-4.14656e-08
-4.05495e-07
-4.53832e-08
-3.95987e-07
-4.91435e-08
-3.85785e-07
-5.27301e-08
-3.74925e-07
-5.6127e-08
-3.63446e-07
-5.9318e-08
-3.5139e-07
-6.22874e-08
-3.38803e-07
-6.50197e-08
-3.25733e-07
-6.74997e-08
-3.1223e-07
-6.97126e-08
-2.98347e-07
-7.16442e-08
-2.8414e-07
-7.32808e-08
-2.69666e-07
-7.46096e-08
-2.54987e-07
-7.56184e-08
-2.40164e-07
-7.62961e-08
-2.25261e-07
-7.66323e-08
-2.10343e-07
-7.66184e-08
-1.95477e-07
-7.62465e-08
-1.80729e-07
-7.55106e-08
-1.66169e-07
-7.44064e-08
-1.51864e-07
-7.29314e-08
-1.37881e-07
-7.10852e-08
-1.24289e-07
-6.88702e-08
-1.11152e-07
-6.62911e-08
-9.85346e-08
-6.33563e-08
-8.64985e-08
-6.00774e-08
-7.51018e-08
-5.64705e-08
-6.43988e-08
-5.25564e-08
-5.44389e-08
-4.83617e-08
-4.52657e-08
-4.39195e-08
-3.69162e-08
-3.92707e-08
-2.94195e-08
-3.44657e-08
-2.2796e-08
-2.95655e-08
-1.70559e-08
-2.46442e-08
-1.21987e-08
-1.97913e-08
-8.21178e-09
-1.51143e-08
-5.07005e-09
-1.07425e-08
-2.73526e-09
-6.83092e-09
-1.15613e-09
-3.56353e-09
-2.69062e-10
-1.15843e-09
1.09448e-10
-3.93856e-10
4.22859e-10
-1.61608e-09
2.7669e-09
-3.70716e-09
6.25635e-09
-6.70239e-09
1.06076e-08
-1.0629e-08
1.55906e-08
-1.55046e-08
2.10095e-08
-2.13367e-08
2.66988e-08
-2.81226e-08
3.252e-08
-3.58497e-08
3.83578e-08
-4.4496e-08
4.41166e-08
-5.4031e-08
4.97179e-08
-6.44168e-08
5.50974e-08
-7.56086e-08
6.0203e-08
-8.75558e-08
6.49928e-08
-1.00203e-07
6.94339e-08
-1.13491e-07
7.35006e-08
-1.27358e-07
7.71737e-08
-1.41737e-07
8.04391e-08
-1.56563e-07
8.32874e-08
-1.71766e-07
8.5713e-08
-1.87278e-07
8.77138e-08
-2.03029e-07
8.92901e-08
-2.1895e-07
9.0445e-08
-2.34972e-07
9.11835e-08
-2.51027e-07
9.15121e-08
-2.67049e-07
9.14392e-08
-2.82972e-07
9.09742e-08
-2.98731e-07
9.01276e-08
-3.14265e-07
8.8911e-08
-3.29513e-07
8.73366e-08
-3.44416e-07
8.54172e-08
-3.58918e-07
8.31665e-08
-3.72966e-07
8.05983e-08
-3.86508e-07
7.77272e-08
-3.99494e-07
7.45678e-08
-4.11878e-07
7.11352e-08
-4.23616e-07
6.74447e-08
-4.34666e-07
6.35121e-08
-4.4499e-07
5.9353e-08
-4.54552e-07
5.49835e-08
-4.63317e-07
5.04199e-08
-4.71256e-07
4.56785e-08
-4.78342e-07
4.0776e-08
-4.84549e-07
3.57292e-08
-4.89855e-07
3.05549e-08
-4.94243e-07
2.52705e-08
-4.97695e-07
1.98933e-08
-5.002e-07
1.44408e-08
-5.01747e-07
8.93083e-09
-5.0233e-07
3.38137e-09
-5.01945e-07
-2.18939e-09
-5.00592e-07
-7.76304e-09
-4.98274e-07
-1.3321e-08
-4.94997e-07
-1.88444e-08
-4.9077e-07
-2.43143e-08
-4.85606e-07
-2.97115e-08
-4.79521e-07
-3.50168e-08
-4.72534e-07
-4.02106e-08
-4.64668e-07
-4.52733e-08
-4.55948e-07
-5.01855e-08
-4.46404e-07
-5.49274e-08
-4.36068e-07
-5.94794e-08
-4.24976e-07
-6.38219e-08
-4.13168e-07
-6.79355e-08
-4.00685e-07
-7.18011e-08
-3.87572e-07
-7.53995e-08
-3.7388e-07
-7.87123e-08
-3.59658e-07
-8.17211e-08
-3.44962e-07
-8.44085e-08
-3.29849e-07
-8.67574e-08
-3.14379e-07
-8.87515e-08
-2.98613e-07
-9.03754e-08
-2.82616e-07
-9.16147e-08
-2.66456e-07
-9.24562e-08
-2.50201e-07
-9.2888e-08
-2.3392e-07
-9.28994e-08
-2.17684e-07
-9.24816e-08
-2.01567e-07
-9.16278e-08
-1.85641e-07
-9.03328e-08
-1.69978e-07
-8.85941e-08
-1.54652e-07
-8.64118e-08
-1.39733e-07
-8.37889e-08
-1.25292e-07
-8.07317e-08
-1.11398e-07
-7.72502e-08
-9.81169e-08
-7.33589e-08
-8.55103e-08
-6.90771e-08
-7.3637e-08
-6.44297e-08
-6.25505e-08
-5.94482e-08
-5.22984e-08
-5.41715e-08
-4.29219e-08
-4.86472e-08
-3.44546e-08
-4.29331e-08
-2.69214e-08
-3.70987e-08
-2.03382e-08
-3.12274e-08
-1.47107e-08
-2.54187e-08
-1.00341e-08
-1.97909e-08
-6.2924e-09
-1.44842e-08
-3.45906e-09
-9.66425e-09
-1.49723e-09
-5.52536e-09
-3.61342e-10
-2.29432e-09
-2.51889e-10
-4.86723e-10
9.09584e-10
-1.96231e-09
4.24249e-09
-4.44542e-09
8.73946e-09
-7.95282e-09
1.4115e-08
-1.24962e-08
2.01339e-08
-1.80802e-08
2.65935e-08
-2.47015e-08
3.33202e-08
-3.23485e-08
4.0167e-08
-4.10008e-08
4.70101e-08
-5.06299e-08
5.37457e-08
-6.11996e-08
6.02877e-08
-7.26669e-08
6.65647e-08
-8.49822e-08
7.25183e-08
-9.80908e-08
7.81014e-08
-1.11933e-07
8.32762e-08
-1.26446e-07
8.8013e-08
-1.41561e-07
9.22896e-08
-1.57212e-07
9.60892e-08
-1.73325e-07
9.94006e-08
-1.89829e-07
1.02217e-07
-2.0665e-07
1.04535e-07
-2.23715e-07
1.06355e-07
-2.40951e-07
1.07681e-07
-2.58285e-07
1.08517e-07
-2.75643e-07
1.08871e-07
-2.92956e-07
1.08752e-07
-3.10154e-07
1.08172e-07
-3.27168e-07
1.07142e-07
-3.43932e-07
1.05675e-07
-3.60382e-07
1.03787e-07
-3.76456e-07
1.01491e-07
-3.92094e-07
9.88041e-08
-4.07238e-07
9.57423e-08
-4.21833e-07
9.23224e-08
-4.35827e-07
8.85617e-08
-4.4917e-07
8.44782e-08
-4.61815e-07
8.00897e-08
-4.73717e-07
7.54148e-08
-4.84837e-07
7.0472e-08
-4.95133e-07
6.52804e-08
-5.04573e-07
5.98591e-08
-5.13122e-07
5.42275e-08
-5.20751e-07
4.84054e-08
-5.27434e-07
4.24124e-08
-5.33148e-07
3.62688e-08
-5.37873e-07
2.9995e-08
-5.41591e-07
2.36114e-08
-5.44289e-07
1.71388e-08
-5.45956e-07
1.05984e-08
-5.46586e-07
4.01142e-09
-5.46175e-07
-2.60061e-09
-5.44722e-07
-9.21589e-09
-5.42231e-07
-1.58124e-08
-5.38707e-07
-2.23679e-08
-5.34162e-07
-2.88599e-08
-5.28608e-07
-3.52657e-08
-5.22062e-07
-4.15626e-08
-5.14545e-07
-4.77275e-08
-5.06081e-07
-5.37373e-08
-4.96698e-07
-5.95688e-08
-4.86426e-07
-6.51989e-08
-4.75301e-07
-7.06045e-08
-4.6336e-07
-7.57623e-08
-4.50646e-07
-8.06497e-08
-4.37204e-07
-8.52438e-08
-4.23081e-07
-8.95223e-08
-4.08329e-07
-9.34635e-08
-3.93005e-07
-9.70459e-08
-3.77164e-07
-1.00249e-07
-3.60869e-07
-1.03052e-07
-3.44183e-07
-1.05437e-07
-3.27173e-07
-1.07386e-07
-3.09906e-07
-1.08881e-07
-2.92455e-07
-1.09908e-07
-2.74891e-07
-1.10452e-07
-2.57289e-07
-1.10501e-07
-2.39725e-07
-1.10046e-07
-2.22276e-07
-1.09077e-07
-2.05018e-07
-1.07591e-07
-1.88029e-07
-1.05583e-07
-1.71386e-07
-1.03055e-07
-1.55165e-07
-1.0001e-07
-1.39442e-07
-9.64554e-08
-1.24287e-07
-9.24043e-08
-1.09773e-07
-8.78733e-08
-9.59652e-08
-8.2885e-08
-8.29264e-08
-7.74686e-08
-7.07144e-08
-7.16602e-08
-5.93815e-08
-6.55044e-08
-4.89733e-08
-5.90554e-08
-3.95285e-08
-5.23779e-08
-3.10775e-08
-4.55497e-08
-2.36424e-08
-3.86625e-08
-1.72361e-08
-3.1825e-08
-1.18622e-08
-2.51648e-08
-7.51501e-09
-1.88314e-08
-4.18002e-09
-1.29992e-08
-1.835e-09
-7.87038e-09
-4.51844e-10
-3.67747e-09
-7.0373e-10
-5.77195e-10
1.48678e-09
-2.30226e-09
5.96756e-09
-5.17397e-09
1.16112e-08
-9.19152e-09
1.81325e-08
-1.43514e-08
2.52938e-08
-2.06451e-08
3.28873e-08
-2.80581e-08
4.07333e-08
-3.65691e-08
4.8678e-08
-4.61494e-08
5.65904e-08
-5.67635e-08
6.43598e-08
-6.83687e-08
7.1893e-08
-8.09165e-08
7.91124e-08
-9.43521e-08
8.5954e-08
-1.08616e-07
9.23654e-08
-1.23644e-07
9.83044e-08
-1.39369e-07
1.03738e-07
-1.55719e-07
1.0864e-07
-1.72622e-07
1.12992e-07
-1.90002e-07
1.1678e-07
-2.07782e-07
1.19998e-07
-2.25886e-07
1.22639e-07
-2.44236e-07
1.24706e-07
-2.62755e-07
1.26199e-07
-2.81365e-07
1.27127e-07
-2.99991e-07
1.27497e-07
-3.18558e-07
1.27319e-07
-3.36991e-07
1.26605e-07
-3.55221e-07
1.25371e-07
-3.73175e-07
1.2363e-07
-3.90787e-07
1.21399e-07
-4.07991e-07
1.18695e-07
-4.24723e-07
1.15536e-07
-4.40923e-07
1.11942e-07
-4.56533e-07
1.07932e-07
-4.71497e-07
1.03526e-07
-4.85762e-07
9.87435e-08
-4.99279e-07
9.36068e-08
-5.12001e-07
8.81367e-08
-5.23884e-07
8.23551e-08
-5.34888e-07
7.62839e-08
-5.44974e-07
6.99454e-08
-5.54109e-07
6.33622e-08
-5.62261e-07
5.65572e-08
-5.69402e-07
4.95535e-08
-5.75507e-07
4.23745e-08
-5.80556e-07
3.50439e-08
-5.84531e-07
2.75857e-08
-5.87416e-07
2.0024e-08
-5.89201e-07
1.23835e-08
-5.89878e-07
4.68888e-09
-5.89444e-07
-3.03476e-09
-5.87898e-07
-1.0762e-08
-5.85243e-07
-1.84673e-08
-5.81486e-07
-2.61248e-08
-5.76638e-07
-3.37082e-08
-5.70712e-07
-4.11912e-08
-5.63728e-07
-4.85473e-08
-5.55706e-07
-5.57497e-08