/*--------------------------------*- C++ -*----------------------------------*\
| =========                 |                                                 |
| \\      /  F ield         | OpenFOAM: The Open Source CFD Toolbox           |
|  \\    /   O peration     | Version:  2212                                  |
|   \\  /    A nd           | Website:  www.openfoam.com                      |
|    \\/     M anipulation  |                                                 |
\*---------------------------------------------------------------------------*/
FoamFile
{
    version     2.0;
    format      ascii;
    arch        "LSB;label=32;scalar=64";
    class       volVectorField;
    location    "0.055";
    object      U;
}
// * * * * * * * * * * * * * * * * * * * * * * * * * * * * * * * * * * * * * //

dimensions      [0 1 -1 0 0 0 0];

internalField   nonuniform List<vector> 
10000
(
(2.87949e-06 -2.83077e-06 0)
(1.39386e-05 -7.07469e-06 0)
(3.12664e-05 -8.05707e-06 0)
(4.73039e-05 -6.87761e-06 0)
(5.75232e-05 -4.54543e-06 0)
(5.97191e-05 -1.64063e-06 0)
(5.27287e-05 1.5041e-06 0)
(3.60292e-05 4.70113e-06 0)
(9.52e-06 7.83506e-06 0)
(-2.66279e-05 1.08415e-05 0)
(-7.20659e-05 1.36868e-05 0)
(-0.000126334 1.6346e-05 0)
(-0.000188895 1.88079e-05 0)
(-0.000259161 2.10687e-05 0)
(-0.000336516 2.3125e-05 0)
(-0.000420323 2.4976e-05 0)
(-0.000509936 2.66242e-05 0)
(-0.000604711 2.80708e-05 0)
(-0.000704003 2.93202e-05 0)
(-0.000807175 3.0377e-05 0)
(-0.000913601 3.12467e-05 0)
(-0.00102267 3.19357e-05 0)
(-0.00113377 3.24486e-05 0)
(-0.00124634 3.27913e-05 0)
(-0.00135979 3.29702e-05 0)
(-0.00147358 3.29906e-05 0)
(-0.00158718 3.28578e-05 0)
(-0.00170007 3.25779e-05 0)
(-0.00181177 3.21568e-05 0)
(-0.00192179 3.16007e-05 0)
(-0.00202968 3.09159e-05 0)
(-0.00213501 3.01088e-05 0)
(-0.00223737 2.91856e-05 0)
(-0.00233636 2.81518e-05 0)
(-0.0024316 2.70127e-05 0)
(-0.00252274 2.57744e-05 0)
(-0.00260946 2.44432e-05 0)
(-0.00269142 2.3025e-05 0)
(-0.00276835 2.15251e-05 0)
(-0.00283996 1.99495e-05 0)
(-0.00290601 1.83041e-05 0)
(-0.00296626 1.65947e-05 0)
(-0.00302049 1.48272e-05 0)
(-0.00306852 1.30071e-05 0)
(-0.00311018 1.11404e-05 0)
(-0.00314531 9.23337e-06 0)
(-0.00317378 7.29202e-06 0)
(-0.00319549 5.32231e-06 0)
(-0.00321035 3.33035e-06 0)
(-0.00321829 1.32242e-06 0)
(-0.00321927 -6.95127e-07 0)
(-0.00321328 -2.71588e-06 0)
(-0.00320031 -4.73303e-06 0)
(-0.0031804 -6.73987e-06 0)
(-0.00315358 -8.72987e-06 0)
(-0.00311993 -1.06958e-05 0)
(-0.00307956 -1.26304e-05 0)
(-0.00303258 -1.45272e-05 0)
(-0.00297914 -1.63793e-05 0)
(-0.00291942 -1.81786e-05 0)
(-0.0028536 -1.99178e-05 0)
(-0.00278192 -2.15894e-05 0)
(-0.00270462 -2.31856e-05 0)
(-0.00262197 -2.46988e-05 0)
(-0.00253429 -2.61221e-05 0)
(-0.00244189 -2.74481e-05 0)
(-0.00234513 -2.86688e-05 0)
(-0.00224437 -2.97762e-05 0)
(-0.00214004 -3.07628e-05 0)
(-0.00203255 -3.16211e-05 0)
(-0.00192236 -3.23444e-05 0)
(-0.00180994 -3.29261e-05 0)
(-0.0016958 -3.33593e-05 0)
(-0.00158044 -3.36369e-05 0)
(-0.00146441 -3.37524e-05 0)
(-0.00134827 -3.36995e-05 0)
(-0.00123261 -3.34725e-05 0)
(-0.00111802 -3.3066e-05 0)
(-0.0010051 -3.24753e-05 0)
(-0.000894487 -3.16965e-05 0)
(-0.000786814 -3.07258e-05 0)
(-0.000682725 -2.95593e-05 0)
(-0.000582869 -2.8194e-05 0)
(-0.000487898 -2.66278e-05 0)
(-0.000398464 -2.48594e-05 0)
(-0.000315215 -2.28889e-05 0)
(-0.000238782 -2.07179e-05 0)
(-0.00016978 -1.83503e-05 0)
(-0.000108794 -1.57922e-05 0)
(-5.63662e-05 -1.30533e-05 0)
(-1.29758e-05 -1.01493e-05 0)
(2.09827e-05 -7.10534e-06 0)
(4.52402e-05 -3.96117e-06 0)
(5.97119e-05 -7.82913e-07 0)
(6.4592e-05 2.31701e-06 0)
(6.05028e-05 5.14382e-06 0)
(4.87024e-05 7.36066e-06 0)
(3.15231e-05 8.36363e-06 0)
(1.36575e-05 7.12173e-06 0)
(2.67866e-06 2.67859e-06 0)
(7.31329e-06 -1.40028e-05 0)
(2.90981e-05 -2.87682e-05 0)
(5.78005e-05 -3.02174e-05 0)
(8.01228e-05 -2.25655e-05 0)
(8.73839e-05 -9.29522e-06 0)
(7.45907e-05 7.23674e-06 0)
(3.86658e-05 2.54767e-05 0)
(-2.20718e-05 4.43948e-05 0)
(-0.000108258 6.33149e-05 0)
(-0.000219778 8.1792e-05 0)
(-0.000356003 9.95252e-05 0)
(-0.000515932 0.000116317 0)
(-0.0006983 0.000132035 0)
(-0.000901667 0.000146589 0)
(-0.00112446 0.000159928 0)
(-0.00136503 0.000172018 0)
(-0.00162166 0.000182845 0)
(-0.00189263 0.000192405 0)
(-0.00217619 0.000200706 0)
(-0.00247059 0.000207764 0)
(-0.00277411 0.000213598 0)
(-0.00308505 0.000218234 0)
(-0.00340174 0.0002217 0)
(-0.00372254 0.000224029 0)
(-0.00404586 0.000225251 0)
(-0.00437014 0.000225403 0)
(-0.00469389 0.000224521 0)
(-0.00501565 0.000222642 0)
(-0.00533402 0.000219803 0)
(-0.00564766 0.000216043 0)
(-0.00595526 0.000211401 0)
(-0.00625558 0.000205917 0)
(-0.00654745 0.000199631 0)
(-0.00682973 0.000192583 0)
(-0.00710136 0.000184811 0)
(-0.00736131 0.000176356 0)
(-0.00760863 0.000167257 0)
(-0.00784241 0.000157556 0)
(-0.00806183 0.00014729 0)
(-0.00826608 0.000136501 0)
(-0.00845444 0.00012523 0)
(-0.00862625 0.000113515 0)
(-0.00878089 0.000101399 0)
(-0.00891781 8.89219e-05 0)
(-0.00903653 7.61249e-05 0)
(-0.00913661 6.30502e-05 0)
(-0.00921768 4.97399e-05 0)
(-0.00927943 3.62366e-05 0)
(-0.00932163 2.25836e-05 0)
(-0.00934408 8.82449e-06 0)
(-0.00934667 -4.99617e-06 0)
(-0.00932934 -1.88336e-05 0)
(-0.00929211 -3.26424e-05 0)
(-0.00923506 -4.63754e-05 0)
(-0.00915834 -5.99852e-05 0)
(-0.00906215 -7.34242e-05 0)
(-0.00894679 -8.66437e-05 0)
(-0.00881261 -9.95955e-05 0)
(-0.00866004 -0.00011223 0)
(-0.00848957 -0.000124498 0)
(-0.00830178 -0.000136347 0)
(-0.00809731 -0.000147726 0)
(-0.00787687 -0.000158584 0)
(-0.00764125 -0.00016887 0)
(-0.00739132 -0.000178534 0)
(-0.00712802 -0.000187525 0)
(-0.00685234 -0.000195793 0)
(-0.00656537 -0.000203285 0)
(-0.00626826 -0.000209953 0)
(-0.00596221 -0.000215749 0)
(-0.00564853 -0.000220626 0)
(-0.00532855 -0.000224538 0)
(-0.0050037 -0.000227442 0)
(-0.00467543 -0.000229296 0)
(-0.00434528 -0.000230059 0)
(-0.00401482 -0.000229694 0)
(-0.00368569 -0.000228166 0)
(-0.00335956 -0.000225444 0)
(-0.00303813 -0.000221501 0)
(-0.00272315 -0.000216314 0)
(-0.00241637 -0.000209866 0)
(-0.00211959 -0.000202143 0)
(-0.00183458 -0.000193138 0)
(-0.00156312 -0.000182852 0)
(-0.00130699 -0.000171293 0)
(-0.0010679 -0.000158482 0)
(-0.000847537 -0.000144456 0)
(-0.000647486 -0.000129266 0)
(-0.000469231 -0.000112991 0)
(-0.000314096 -9.57398e-05 0)
(-0.000183197 -7.76683e-05 0)
(-7.73577e-05 -5.89966e-05 0)
(2.99025e-06 -4.00405e-05 0)
(5.79623e-05 -2.1262e-05 0)
(8.84334e-05 -3.34832e-06 0)
(9.63359e-05 1.26628e-05 0)
(8.49958e-05 2.52039e-05 0)
(5.96705e-05 3.1896e-05 0)
(2.92694e-05 2.92637e-05 0)
(7.11564e-06 1.36469e-05 0)
(8.4053e-06 -3.16941e-05 0)
(3.10129e-05 -5.77108e-05 0)
(5.62315e-05 -5.51483e-05 0)
(6.81262e-05 -3.28438e-05 0)
(5.61925e-05 2.6169e-06 0)
(1.39463e-05 4.63543e-05 0)
(-6.2894e-05 9.48176e-05 0)
(-0.000176857 0.000145491 0)
(-0.000329052 0.000196605 0)
(-0.000519542 0.000246908 0)
(-0.000747588 0.000295526 0)
(-0.00101186 0.000341838 0)
(-0.00131061 0.000385407 0)
(-0.00164175 0.000425934 0)
(-0.00200298 0.000463215 0)
(-0.00239182 0.000497117 0)
(-0.00280571 0.000527562 0)
(-0.00324199 0.000554517 0)
(-0.00369798 0.000577976 0)
(-0.00417098 0.000597958 0)
(-0.00465831 0.000614507 0)
(-0.00515731 0.000627677 0)
(-0.00566534 0.000637536 0)
(-0.00617983 0.000644164 0)
(-0.00669827 0.000647645 0)
(-0.0072182 0.000648071 0)
(-0.00773722 0.000645541 0)
(-0.00825304 0.000640157 0)
(-0.00876341 0.000632022 0)
(-0.00926618 0.000621244 0)
(-0.00975928 0.00060793 0)
(-0.0102407 0.000592193 0)
(-0.0107086 0.000574144 0)
(-0.0111612 0.000553896 0)
(-0.0115966 0.000531562 0)
(-0.0120134 0.000507255 0)
(-0.0124099 0.000481092 0)
(-0.0127846 0.000453184 0)
(-0.0131364 0.000423649 0)
(-0.0134638 0.000392603 0)
(-0.0137657 0.000360162 0)
(-0.0140411 0.000326443 0)
(-0.0142889 0.000291564 0)
(-0.0145083 0.000255644 0)
(-0.0146985 0.000218803 0)
(-0.0148588 0.000181162 0)
(-0.0149886 0.000142843 0)
(-0.0150874 0.000103971 0)
(-0.0151548 6.4672e-05 0)
(-0.0151906 2.50721e-05 0)
(-0.0151945 -1.47001e-05 0)
(-0.0151665 -5.45134e-05 0)
(-0.0151065 -9.42358e-05 0)
(-0.0150148 -0.000133733 0)
(-0.0148915 -0.000172869 0)
(-0.0147371 -0.000211504 0)
(-0.014552 -0.0002495 0)
(-0.0143367 -0.000286714 0)
(-0.0140919 -0.000323006 0)
(-0.0138185 -0.000358231 0)
(-0.0135174 -0.000392243 0)
(-0.0131896 -0.000424896 0)
(-0.0128363 -0.000456044 0)
(-0.0124587 -0.000485541 0)
(-0.0120582 -0.000513242 0)
(-0.0116363 -0.000539002 0)
(-0.0111947 -0.000562678 0)
(-0.0107351 -0.000584126 0)
(-0.0102592 -0.000603208 0)
(-0.00976906 -0.000619788 0)
(-0.00926672 -0.000633735 0)
(-0.00875433 -0.000644919 0)
(-0.00823413 -0.000653221 0)
(-0.00770846 -0.000658522 0)
(-0.00717975 -0.000660715 0)
(-0.00665049 -0.000659698 0)
(-0.00612326 -0.000655378 0)
(-0.00560071 -0.000647673 0)
(-0.00508552 -0.000636515 0)
(-0.00458042 -0.000621848 0)
(-0.00408818 -0.000603631 0)
(-0.00361158 -0.000581841 0)
(-0.0031534 -0.000556475 0)
(-0.00271638 -0.000527554 0)
(-0.00230324 -0.000495128 0)
(-0.00191661 -0.000459285 0)
(-0.00155902 -0.000420156 0)
(-0.00123285 -0.000377929 0)
(-0.000940262 -0.000332868 0)
(-0.000683162 -0.000285334 0)
(-0.000463088 -0.00023582 0)
(-0.000281104 -0.000184998 0)
(-0.00013765 -0.000133797 0)
(-3.23412e-05 -8.35021e-05 0)
(3.62912e-05 -3.59143e-05 0)
(7.11367e-05 6.4366e-06 0)
(7.68267e-05 4.00072e-05 0)
(6.01861e-05 5.99175e-05 0)
(3.20216e-05 5.96921e-05 0)
(8.37619e-06 3.15161e-05 0)
(7.2317e-06 -4.82908e-05 0)
(2.36073e-05 -8.06989e-05 0)
(3.4682e-05 -6.72963e-05 0)
(2.42517e-05 -2.20906e-05 0)
(-1.87137e-05 4.50127e-05 0)
(-0.000101391 0.000126417 0)
(-0.000228668 0.000216373 0)
(-0.000403526 0.000310623 0)
(-0.000627389 0.000406036 0)
(-0.000900424 0.000500317 0)
(-0.00122183 0.000591797 0)
(-0.00159007 0.000679252 0)
(-0.00200301 0.000761798 0)
(-0.00245809 0.000838801 0)
(-0.00295242 0.000909814 0)
(-0.00348287 0.000974533 0)
(-0.00404615 0.00103277 0)
(-0.00463883 0.00108441 0)
(-0.00525744 0.00112941 0)
(-0.00589845 0.0011678 0)
(-0.00655834 0.00119961 0)
(-0.00723361 0.00122494 0)
(-0.00792077 0.0012439 0)
(-0.00861641 0.00125663 0)
(-0.00931719 0.00126327 0)
(-0.0100198 0.00126401 0)
(-0.0107211 0.00125902 0)
(-0.011418 0.00124849 0)
(-0.0121075 0.00123261 0)
(-0.0127866 0.00121158 0)
(-0.0134526 0.00118563 0)
(-0.0141029 0.00115495 0)
(-0.0147349 0.00111976 0)
(-0.0153461 0.00108027 0)
(-0.0159342 0.00103672 0)
(-0.016497 0.000989314 0)
(-0.0170324 0.000938279 0)
(-0.0175386 0.000883838 0)
(-0.0180135 0.000826216 0)
(-0.0184556 0.000765639 0)
(-0.0188633 0.000702337 0)
(-0.0192351 0.000636538 0)
(-0.0195696 0.000568474 0)
(-0.0198658 0.000498377 0)
(-0.0201224 0.000426482 0)
(-0.0203387 0.000353029 0)
(-0.0205137 0.000278256 0)
(-0.0206469 0.000202408 0)
(-0.0207377 0.000125729 0)
(-0.0207857 4.84698e-05 0)
(-0.0207907 -2.91166e-05 0)
(-0.0207526 -0.000106775 0)
(-0.0206713 -0.000184246 0)
(-0.0205472 -0.000261268 0)
(-0.0203805 -0.000337572 0)
(-0.0201717 -0.00041289 0)
(-0.0199215 -0.000486949 0)
(-0.0196305 -0.000559473 0)
(-0.0192999 -0.000630184 0)
(-0.0189306 -0.000698803 0)
(-0.018524 -0.000765046 0)
(-0.0180813 -0.00082863 0)
(-0.0176042 -0.000889272 0)
(-0.0170945 -0.000946689 0)
(-0.0165539 -0.0010006 0)
(-0.0159844 -0.00105072 0)
(-0.0153884 -0.00109678 0)
(-0.014768 -0.0011385 0)
(-0.0141258 -0.00117562 0)
(-0.0134643 -0.00120787 0)
(-0.0127864 -0.00123501 0)
(-0.0120949 -0.00125678 0)
(-0.0113928 -0.00127296 0)
(-0.0106833 -0.00128333 0)
(-0.00996951 -0.00128768 0)
(-0.00925489 -0.00128583 0)
(-0.00854282 -0.0012776 0)
(-0.00783682 -0.00126285 0)
(-0.00714045 -0.00124146 0)
(-0.00645734 -0.00121333 0)
(-0.00579112 -0.0011784 0)
(-0.00514546 -0.00113664 0)
(-0.00452398 -0.00108807 0)
(-0.0039303 -0.00103277 0)
(-0.00336791 -0.000970845 0)
(-0.00284023 -0.000902513 0)
(-0.00235048 -0.000828064 0)
(-0.00190167 -0.000747907 0)
(-0.00149652 -0.000662595 0)
(-0.00113738 -0.000572871 0)
(-0.00082609 -0.000479722 0)
(-0.000563873 -0.000384469 0)
(-0.000351162 -0.000288873 0)
(-0.000187378 -0.000195296 0)
(-7.06744e-05 -0.000106912 0)
(2.38262e-06 -2.7997e-05 0)
(3.70995e-05 3.57222e-05 0)
(4.10485e-05 7.67152e-05 0)
(2.56532e-05 8.53007e-05 0)
(7.43601e-06 4.8808e-05 0)
(4.90538e-06 -5.91635e-05 0)
(1.05949e-05 -8.90368e-05 0)
(-1.30677e-08 -5.62209e-05 0)
(-4.14537e-05 2.05531e-05 0)
(-0.000124294 0.000128151 0)
(-0.000255824 0.000256352 0)
(-0.000441053 0.000397219 0)
(-0.000683101 0.000544694 0)
(-0.000983469 0.000694189 0)
(-0.00134233 0.000842245 0)
(-0.00175881 0.000986254 0)
(-0.00223114 0.00112427 0)
(-0.0027569 0.00125485 0)
(-0.00333314 0.00137692 0)
(-0.00395649 0.00148971 0)
(-0.00462327 0.00159269 0)
(-0.00532958 0.00168548 0)
(-0.00607135 0.00176786 0)
(-0.00684442 0.00183973 0)
(-0.00764454 0.00190107 0)
(-0.00846747 0.00195193 0)
(-0.00930893 0.00199241 0)
(-0.0101647 0.00202269 0)
(-0.0110307 0.00204296 0)
(-0.0119027 0.00205344 0)
(-0.0127768 0.00205439 0)
(-0.013649 0.0020461 0)
(-0.0145155 0.00202884 0)
(-0.0153726 0.00200294 0)
(-0.0162169 0.00196871 0)
(-0.0170447 0.00192649 0)
(-0.0178529 0.0018766 0)
(-0.0186383 0.0018194 0)
(-0.0193978 0.00175522 0)
(-0.0201286 0.00168443 0)
(-0.0208279 0.00160738 0)
(-0.0214932 0.00152443 0)
(-0.022122 0.00143594 0)
(-0.0227121 0.00134228 0)
(-0.0232613 0.00124382 0)
(-0.0237677 0.00114092 0)
(-0.0242294 0.00103396 0)
(-0.0246449 0.000923325 0)
(-0.0250126 0.000809382 0)
(-0.0253313 0.000692521 0)
(-0.0255997 0.000573129 0)
(-0.0258169 0.000451598 0)
(-0.0259821 0.000328325 0)
(-0.0260946 0.000203711 0)
(-0.026154 7.81635e-05 0)
(-0.0261599 -4.79065e-05 0)
(-0.0261122 -0.000174082 0)
(-0.026011 -0.000299941 0)
(-0.0258565 -0.000425054 0)
(-0.0256492 -0.000548988 0)
(-0.0253896 -0.000671305 0)
(-0.0250785 -0.000791562 0)
(-0.0247169 -0.000909311 0)
(-0.0243061 -0.0010241 0)
(-0.0238472 -0.00113548 0)
(-0.023342 -0.00124299 0)
(-0.0227921 -0.00134617 0)
(-0.0221996 -0.00144456 0)
(-0.0215664 -0.00153771 0)
(-0.020895 -0.00162517 0)
(-0.0201878 -0.00170647 0)
(-0.0194475 -0.00178118 0)
(-0.0186771 -0.00184886 0)
(-0.0178795 -0.00190908 0)
(-0.017058 -0.00196143 0)
(-0.0162161 -0.00200549 0)
(-0.0153571 -0.00204089 0)
(-0.014485 -0.00206725 0)
(-0.0136034 -0.00208424 0)
(-0.0127164 -0.00209153 0)
(-0.0118281 -0.00208882 0)
(-0.0109426 -0.00207586 0)
(-0.0100643 -0.00205243 0)
(-0.00919753 -0.00201835 0)
(-0.00834667 -0.00197348 0)
(-0.00751616 -0.00191774 0)
(-0.00671043 -0.00185113 0)
(-0.00593386 -0.00177369 0)
(-0.00519079 -0.00168558 0)
(-0.00448541 -0.00158703 0)
(-0.00382178 -0.00147842 0)
(-0.00320372 -0.00136026 0)
(-0.00263478 -0.00123327 0)
(-0.00211812 -0.00109837 0)
(-0.00165645 -0.000956803 0)
(-0.00125187 -0.000810167 0)
(-0.000905758 -0.00066056 0)
(-0.000618589 -0.000510716 0)
(-0.000389716 -0.0003642 0)
(-0.000217145 -0.000225666 0)
(-9.72583e-05 -0.000101187 0)
(-2.45467e-05 1.34434e-06 0)
(8.73504e-06 7.18199e-05 0)
(1.36493e-05 9.74299e-05 0)
(5.32919e-06 6.095e-05 0)
(2.04921e-06 -6.21442e-05 0)
(-5.59514e-06 -7.7725e-05 0)
(-4.29029e-05 -1.53989e-05 0)
(-0.000121474 0.000102305 0)
(-0.000250634 0.000259371 0)
(-0.000437319 0.000443161 0)
(-0.000686313 0.00064366 0)
(-0.00100055 0.000853059 0)
(-0.00138142 0.0010653 0)
(-0.00182897 0.0012757 0)
(-0.00234213 0.00148065 0)
(-0.00291895 0.0016774 0)
(-0.00355671 0.00186385 0)
(-0.00425211 0.00203844 0)
(-0.00500135 0.0022 0)
(-0.0058003 0.00234768 0)
(-0.00664453 0.00248091 0)
(-0.00752942 0.0025993 0)
(-0.00845019 0.00270266 0)
(-0.00940198 0.00279089 0)
(-0.0103799 0.00286405 0)
(-0.011379 0.00292225 0)
(-0.0123945 0.00296569 0)
(-0.0134214 0.00299464 0)
(-0.0144551 0.0030094 0)
(-0.0154908 0.00301032 0)
(-0.016524 0.00299779 0)
(-0.0175502 0.00297222 0)
(-0.0185651 0.00293404 0)
(-0.0195645 0.00288373 0)
(-0.0205444 0.00282173 0)
(-0.0215009 0.00274855 0)
(-0.0224302 0.00266467 0)
(-0.0233289 0.0025706 0)
(-0.0241935 0.00246685 0)
(-0.0250208 0.00235394 0)
(-0.0258078 0.00223239 0)
(-0.0265516 0.00210274 0)
(-0.0272495 0.00196551 0)
(-0.027899 0.00182125 0)
(-0.0284978 0.00167049 0)
(-0.0290439 0.00151379 0)
(-0.0295351 0.0013517 0)
(-0.0299698 0.00118478 0)
(-0.0303465 0.00101358 0)
(-0.0306637 0.00083869 0)
(-0.0309204 0.00066067 0)
(-0.0311155 0.000480109 0)
(-0.0312483 0.000297596 0)
(-0.0313182 0.000113728 0)
(-0.0313249 -7.08927e-05 0)
(-0.0312683 -0.000255652 0)
(-0.0311483 -0.000439932 0)
(-0.0309654 -0.000623103 0)
(-0.03072 -0.000804532 0)
(-0.0304127 -0.000983577 0)
(-0.0300447 -0.00115959 0)
(-0.029617 -0.00133191 0)
(-0.029131 -0.00149989 0)
(-0.0285883 -0.00166286 0)
(-0.0279908 -0.00182016 0)
(-0.0273406 -0.00197111 0)
(-0.0266398 -0.00211505 0)
(-0.0258911 -0.00225132 0)
(-0.0250971 -0.00237925 0)
(-0.0242609 -0.00249819 0)
(-0.0233856 -0.0026075 0)
(-0.0224745 -0.00270654 0)
(-0.0215313 -0.00279469 0)
(-0.0205597 -0.00287136 0)
(-0.0195638 -0.00293596 0)
(-0.0185477 -0.00298793 0)
(-0.0175157 -0.00302676 0)
(-0.0164724 -0.00305196 0)
(-0.0154223 -0.00306306 0)
(-0.0143704 -0.00305966 0)
(-0.0133214 -0.0030414 0)
(-0.0122803 -0.00300798 0)
(-0.0112523 -0.00295915 0)
(-0.0102424 -0.00289475 0)
(-0.00925571 -0.00281469 0)
(-0.00829739 -0.00271899 0)
(-0.00737248 -0.00260777 0)
(-0.00648593 -0.00248128 0)
(-0.00564256 -0.00233991 0)
(-0.00484698 -0.00218426 0)
(-0.00410354 -0.00201512 0)
(-0.00341624 -0.00183356 0)
(-0.00278863 -0.00164097 0)
(-0.00222375 -0.00143916 0)
(-0.00172397 -0.00123045 0)
(-0.00129083 -0.00101778 0)
(-0.00092494 -0.000804932 0)
(-0.000625731 -0.000596738 0)
(-0.000391283 -0.000399346 0)
(-0.000218089 -0.000220589 0)
(-0.000100813 -7.04181e-05 0)
(-3.19849e-05 3.86681e-05 0)
(-1.64836e-06 9.1038e-05 0)
(2.65385e-06 6.57219e-05 0)
(-1.01657e-06 -5.61417e-05 0)
(-2.34551e-05 -4.369e-05 0)
(-9.0609e-05 5.95548e-05 0)
(-0.000210396 0.000228252 0)
(-0.000390384 0.000444003 0)
(-0.000636807 0.000692028 0)
(-0.000953902 0.000960441 0)
(-0.00134419 0.00123979 0)
(-0.00180873 0.00152258 0)
(-0.0023473 0.00180292 0)
(-0.00295861 0.0020762 0)
(-0.0036404 0.0023388 0)
(-0.00438967 0.00258794 0)
(-0.00520276 0.00282148 0)
(-0.00607551 0.00303782 0)
(-0.00700335 0.00323577 0)
(-0.0079814 0.00341449 0)
(-0.00900452 0.0035734 0)
(-0.0100674 0.00371218 0)
(-0.0111647 0.00383066 0)
(-0.0122909 0.00392884 0)
(-0.0134405 0.00400686 0)
(-0.014608 0.00406495 0)
(-0.0157879 0.00410342 0)
(-0.016975 0.00412266 0)
(-0.0181639 0.00412313 0)
(-0.0193495 0.00410532 0)
(-0.0205267 0.00406979 0)
(-0.0216906 0.0040171 0)
(-0.0228365 0.00394787 0)
(-0.0239599 0.00386272 0)
(-0.0250562 0.0037623 0)
(-0.0261212 0.00364729 0)
(-0.027151 0.00351837 0)
(-0.0281416 0.00337622 0)
(-0.0290894 0.00322155 0)
(-0.0299909 0.00305508 0)
(-0.0308428 0.00287752 0)
(-0.0316421 0.00268961 0)
(-0.032386 0.00249208 0)
(-0.0330717 0.00228568 0)
(-0.0336969 0.00207114 0)
(-0.0342593 0.00184924 0)
(-0.034757 0.00162072 0)
(-0.0351881 0.00138638 0)
(-0.0355512 0.00114698 0)
(-0.0358449 0.000903319 0)
(-0.0360681 0.000656192 0)
(-0.0362199 0.000406408 0)
(-0.0362997 0.000154785 0)
(-0.0363072 -9.78497e-05 0)
(-0.0362421 -0.000350657 0)
(-0.0361046 -0.00060279 0)
(-0.0358949 -0.000853388 0)
(-0.0356137 -0.00110158 0)
(-0.0352618 -0.0013465 0)
(-0.0348403 -0.00158725 0)
(-0.0343505 -0.00182295 0)
(-0.033794 -0.00205268 0)
(-0.0331726 -0.00227555 0)
(-0.0324884 -0.00249066 0)
(-0.0317438 -0.00269708 0)
(-0.0309415 -0.00289392 0)
(-0.0300842 -0.00308027 0)
(-0.029175 -0.00325523 0)
(-0.0282175 -0.00341792 0)
(-0.0272151 -0.00356747 0)
(-0.0261717 -0.003703 0)
(-0.0250913 -0.0038237 0)
(-0.0239784 -0.00392875 0)
(-0.0228374 -0.00401738 0)
(-0.021673 -0.00408883 0)
(-0.0204902 -0.00414241 0)
(-0.019294 -0.00417746 0)
(-0.0180897 -0.00419338 0)
(-0.0168827 -0.00418964 0)
(-0.0156786 -0.00416577 0)
(-0.0144828 -0.00412137 0)
(-0.0133013 -0.00405616 0)
(-0.0121396 -0.00396993 0)
(-0.0110035 -0.00386261 0)
(-0.00989879 -0.00373424 0)
(-0.00883104 -0.00358504 0)
(-0.00780581 -0.00341539 0)
(-0.00682843 -0.00322588 0)
(-0.00590402 -0.00301735 0)
(-0.0050374 -0.00279094 0)
(-0.00423298 -0.00254812 0)
(-0.0034947 -0.0022908 0)
(-0.0028259 -0.00202143 0)
(-0.00222922 -0.00174306 0)
(-0.00170648 -0.00145956 0)
(-0.00125848 -0.0011758 0)
(-0.000884889 -0.000897845 0)
(-0.000584052 -0.000633302 0)
(-0.000352825 -0.000391667 0)
(-0.000186342 -0.000184773 0)
(-7.77594e-05 -2.72353e-05 0)
(-1.8742e-05 6.29393e-05 0)
(-2.64269e-07 6.19477e-05 0)
(-4.11684e-06 -4.06421e-05 0)
(-4.20601e-05 1.48536e-05 0)
(-0.000140866 0.000171435 0)
(-0.00030443 0.000401839 0)
(-0.000538244 0.000685772 0)
(-0.000847575 0.00100668 0)
(-0.00123588 0.00135104 0)
(-0.00170506 0.00170789 0)
(-0.00225568 0.00206843 0)
(-0.00288714 0.0024256 0)
(-0.00359777 0.00277377 0)
(-0.00438499 0.00310848 0)
(-0.00524545 0.00342624 0)
(-0.00617516 0.00372431 0)
(-0.00716958 0.00400062 0)
(-0.00822373 0.0042536 0)
(-0.0093323 0.00448211 0)
(-0.0104897 0.00468536 0)
(-0.0116902 0.00486287 0)
(-0.0129278 0.00501437 0)
(-0.0141966 0.00513982 0)
(-0.0154906 0.00523934 0)
(-0.0168036 0.00531318 0)
(-0.0181299 0.00536171 0)
(-0.0194633 0.00538541 0)
(-0.0207982 0.00538482 0)
(-0.0221288 0.00536059 0)
(-0.0234495 0.00531337 0)
(-0.0247549 0.00524391 0)
(-0.0260398 0.00515297 0)
(-0.0272991 0.00504137 0)
(-0.0285278 0.00490992 0)
(-0.0297213 0.0047595 0)
(-0.030875 0.00459097 0)
(-0.0319848 0.00440524 0)
(-0.0330464 0.00420322 0)
(-0.0340561 0.00398582 0)
(-0.0350101 0.00375399 0)
(-0.0359052 0.00350867 0)
(-0.036738 0.00325082 0)
(-0.0375057 0.00298141 0)
(-0.0382056 0.00270141 0)
(-0.0388352 0.00241182 0)
(-0.0393922 0.00211362 0)
(-0.0398748 0.00180782 0)
(-0.0402811 0.00149545 0)
(-0.0406097 0.00117754 0)
(-0.0408594 0.000855126 0)
(-0.0410292 0.000529264 0)
(-0.0411184 0.000201023 0)
(-0.0411266 -0.000128519 0)
(-0.0410536 -0.000458266 0)
(-0.0408996 -0.000787114 0)
(-0.0406648 -0.00111394 0)
(-0.04035 -0.00143762 0)
(-0.039956 -0.001757 0)
(-0.0394841 -0.00207094 0)
(-0.0389358 -0.00237827 0)
(-0.0383129 -0.00267782 0)
(-0.0376173 -0.00296842 0)
(-0.0368515 -0.00324889 0)
(-0.0360181 -0.00351805 0)
(-0.0351199 -0.00377473 0)
(-0.0341602 -0.00401775 0)
(-0.0331424 -0.00424595 0)
(-0.0320703 -0.00445819 0)
(-0.0309478 -0.00465334 0)
(-0.0297794 -0.00483029 0)
(-0.0285694 -0.00498796 0)
(-0.0273226 -0.00512533 0)
(-0.0260442 -0.00524138 0)
(-0.0247393 -0.00533517 0)
(-0.0234133 -0.0054058 0)
(-0.0220719 -0.00545244 0)
(-0.0207209 -0.00547434 0)
(-0.0193663 -0.00547081 0)
(-0.0180141 -0.00544128 0)
(-0.0166705 -0.00538527 0)
(-0.0153419 -0.00530243 0)
(-0.0140345 -0.00519253 0)
(-0.0127547 -0.00505552 0)
(-0.0115086 -0.0048915 0)
(-0.0103025 -0.00470078 0)
(-0.00914238 -0.00448392 0)
(-0.00803414 -0.00424172 0)
(-0.00698333 -0.00397531 0)
(-0.00599518 -0.00368619 0)
(-0.00507452 -0.00337629 0)
(-0.00422565 -0.00304808 0)
(-0.00345226 -0.00270466 0)
(-0.00275731 -0.00234988 0)
(-0.00214291 -0.00198853 0)
(-0.0016102 -0.00162653 0)
(-0.00115921 -0.00127117 0)
(-0.000788715 -0.000931416 0)
(-0.00049614 -0.00061829 0)
(-0.000277324 -0.000345288 0)
(-0.000126305 -0.000128814 0)
(-3.66864e-05 1.1231e-05 0)
(-3.24675e-06 4.90437e-05 0)
(-7.16875e-06 -1.54908e-05 0)
(-6.08521e-05 9.87843e-05 0)
(-0.000192187 0.000321837 0)
(-0.000400969 0.000625182 0)
(-0.000690445 0.000987125 0)
(-0.00106474 0.00138968 0)
(-0.00152636 0.00181792 0)
(-0.00207643 0.00225959 0)
(-0.00271488 0.00270467 0)
(-0.00344058 0.00314503 0)
(-0.00425143 0.00357407 0)
(-0.00514445 0.00398651 0)
(-0.0061159 0.00437814 0)
(-0.00716141 0.00474564 0)
(-0.00827605 0.00508642 0)
(-0.00945445 0.00539853 0)
(-0.0106909 0.0056805 0)
(-0.0119794 0.00593132 0)
(-0.0133137 0.00615032 0)
(-0.0146874 0.00633713 0)
(-0.0160942 0.00649163 0)
(-0.0175275 0.00661393 0)
(-0.0189807 0.00670429 0)
(-0.0204475 0.00676313 0)
(-0.0219213 0.00679102 0)
(-0.023396 0.00678861 0)
(-0.0248652 0.00675665 0)
(-0.026323 0.00669596 0)
(-0.0277634 0.00660743 0)
(-0.0291807 0.00649202 0)
(-0.0305694 0.00635072 0)
(-0.0319241 0.00618454 0)
(-0.0332397 0.00599457 0)
(-0.0345113 0.00578188 0)
(-0.0357341 0.0055476 0)
(-0.0369038 0.00529286 0)
(-0.0380161 0.00501882 0)
(-0.039067 0.00472664 0)
(-0.0400528 0.00441753 0)
(-0.04097 0.00409267 0)
(-0.0418154 0.00375329 0)
(-0.042586 0.0034006 0)
(-0.0432792 0.00303586 0)
(-0.0438925 0.00266032 0)
(-0.0444237 0.00227524 0)
(-0.044871 0.00188191 0)
(-0.0452327 0.00148162 0)
(-0.0455075 0.00107568 0)
(-0.0456944 0.000665436 0)
(-0.0457926 0.000252214 0)
(-0.0458016 -0.000162622 0)
(-0.0457212 -0.000577697 0)
(-0.0455516 -0.000991619 0)
(-0.0452932 -0.00140298 0)
(-0.0449467 -0.00181036 0)
(-0.044513 -0.00221233 0)
(-0.0439937 -0.00260743 0)
(-0.0433901 -0.00299421 0)
(-0.0427044 -0.00337121 0)
(-0.0419388 -0.00373694 0)
(-0.0410958 -0.00408994 0)
(-0.0401782 -0.00442873 0)
(-0.0391894 -0.00475183 0)
(-0.0381327 -0.00505779 0)
(-0.037012 -0.00534515 0)
(-0.0358313 -0.00561249 0)
(-0.034595 -0.00585839 0)
(-0.0333078 -0.00608149 0)
(-0.0319746 -0.00628044 0)
(-0.0306007 -0.00645395 0)
(-0.0291915 -0.00660079 0)
(-0.0277526 -0.00671978 0)
(-0.0262901 -0.00680982 0)
(-0.02481 -0.00686988 0)
(-0.0233187 -0.00689904 0)
(-0.0218227 -0.00689649 0)
(-0.0203285 -0.00686151 0)
(-0.0188428 -0.00679356 0)
(-0.0173725 -0.00669221 0)
(-0.0159244 -0.00655723 0)
(-0.0145054 -0.00638859 0)
(-0.013122 -0.00618646 0)
(-0.0117812 -0.00595127 0)
(-0.0104893 -0.00568376 0)
(-0.00925264 -0.00538496 0)
(-0.00807728 -0.00505634 0)
(-0.00696885 -0.00469977 0)
(-0.00593257 -0.00431767 0)
(-0.00497312 -0.00391309 0)
(-0.00409457 -0.00348979 0)
(-0.00330024 -0.00305242 0)
(-0.00259263 -0.00260668 0)
(-0.0019733 -0.0021595 0)
(-0.00144274 -0.00171933 0)
(-0.00100034 -0.00129638 0)
(-0.000644219 -0.000903036 0)
(-0.000371111 -0.000554212 0)
(-0.0001761 -0.000267777 0)
(-5.48982e-05 -6.50653e-05 0)
(-6.19891e-06 2.68026e-05 0)
(-1.01322e-05 1.92592e-05 0)
(-7.94979e-05 0.000208389 0)
(-0.000243625 0.000511501 0)
(-0.000498257 0.000899437 0)
(-0.000844356 0.00134951 0)
(-0.00128481 0.00184263 0)
(-0.00182105 0.00236272 0)
(-0.00245329 0.0028964 0)
(-0.00318073 0.00343259 0)
(-0.00400162 0.00396217 0)
(-0.00491333 0.00447765 0)
(-0.00591239 0.00497297 0)
(-0.00699464 0.00544321 0)
(-0.00815529 0.00588448 0)
(-0.00938901 0.00629369 0)
(-0.01069 0.00666847 0)
(-0.0120522 0.00700706 0)
(-0.0134692 0.00730817 0)
(-0.0149343 0.00757095 0)
(-0.0164407 0.00779491 0)
(-0.0179816 0.00797985 0)
(-0.0195499 0.00812585 0)
(-0.0211388 0.00823319 0)
(-0.0227412 0.00830234 0)
(-0.0243504 0.00833393 0)
(-0.0259596 0.00832873 0)
(-0.0275621 0.00828762 0)
(-0.0291515 0.00821157 0)
(-0.0307213 0.00810165 0)
(-0.0322654 0.00795899 0)
(-0.0337779 0.00778477 0)
(-0.035253 0.00758024 0)
(-0.0366853 0.00734668 0)
(-0.0380693 0.00708541 0)
(-0.0394 0.00679778 0)
(-0.0406727 0.00648518 0)
(-0.0418827 0.00614901 0)
(-0.0430259 0.0057907 0)
(-0.0440981 0.00541169 0)
(-0.0450956 0.00501345 0)
(-0.0460149 0.00459747 0)
(-0.0468529 0.00416523 0)
(-0.0476066 0.00371827 0)
(-0.0482734 0.00325812 0)
(-0.0488509 0.00278632 0)
(-0.0493372 0.00230444 0)
(-0.0497305 0.00181408 0)
(-0.0500293 0.00131683 0)
(-0.0502325 0.000814329 0)
(-0.0503393 0.000308208 0)
(-0.0503492 -0.000199865 0)
(-0.050262 -0.000708209 0)
(-0.0500778 -0.00121512 0)
(-0.0497971 -0.00171889 0)
(-0.0494206 -0.00221777 0)
(-0.0489495 -0.00271001 0)
(-0.0483851 -0.00319385 0)
(-0.0477293 -0.00366751 0)
(-0.0469841 -0.00412919 0)
(-0.046152 -0.0045771 0)
(-0.0452357 -0.00500945 0)
(-0.0442384 -0.00542444 0)
(-0.0431634 -0.00582027 0)
(-0.0420145 -0.00619518 0)
(-0.0407958 -0.00654739 0)
(-0.0395118 -0.00687517 0)
(-0.038167 -0.00717681 0)
(-0.0367666 -0.00745065 0)
(-0.0353159 -0.00769507 0)
(-0.0338204 -0.00790851 0)
(-0.0322861 -0.00808948 0)
(-0.030719 -0.00823655 0)
(-0.0291256 -0.00834841 0)
(-0.0275124 -0.00842384 0)
(-0.0258862 -0.00846173 0)
(-0.0242539 -0.0084611 0)
(-0.0226227 -0.00842115 0)
(-0.0209997 -0.00834121 0)
(-0.0193922 -0.00822082 0)
(-0.0178075 -0.00805973 0)
(-0.0162529 -0.00785794 0)
(-0.0147357 -0.00761569 0)
(-0.0132629 -0.00733357 0)
(-0.0118416 -0.00701248 0)
(-0.0104785 -0.00665374 0)
(-0.00917999 -0.00625911 0)
(-0.0079522 -0.00583091 0)
(-0.00680072 -0.00537203 0)
(-0.00573066 -0.0048861 0)
(-0.00474649 -0.00437756 0)
(-0.00385194 -0.00385183 0)
(-0.00305 -0.00331547 0)
(-0.0023427 -0.0027764 0)
(-0.00173114 -0.00224411 0)
(-0.00121537 -0.00172996 0)
(-0.000794384 -0.00124749 0)
(-0.0004659 -0.000812813 0)
(-0.000226156 -0.000444965 0)
(-7.30255e-05 -0.000166312 0)
(-9.07329e-06 -4.75939e-06 0)
(-1.29867e-05 6.34407e-05 0)
(-9.78109e-05 0.000343566 0)
(-0.000294582 0.000740584 0)
(-0.000595141 0.00122506 0)
(-0.000998194 0.00177364 0)
(-0.00150534 0.00236642 0)
(-0.00211688 0.00298639 0)
(-0.00283202 0.00361926 0)
(-0.00364914 0.004253 0)
(-0.00456579 0.00487763 0)
(-0.00557872 0.00548484 0)
(-0.00668395 0.00606784 0)
(-0.00787681 0.00662106 0)
(-0.00915206 0.00714003 0)
(-0.010504 0.00762119 0)
(-0.0119263 0.00806178 0)
(-0.0134126 0.00845969 0)
(-0.0149559 0.0088134 0)
(-0.0165493 0.00912185 0)
(-0.0181856 0.00938442 0)
(-0.0198574 0.00960084 0)
(-0.0215573 0.00977114 0)
(-0.023278 0.00989563 0)
(-0.0250122 0.00997482 0)
(-0.0267525 0.0100094 0)
(-0.0284918 0.0100003 0)
(-0.030223 0.00994849 0)
(-0.0319392 0.00985511 0)
(-0.0336337 0.0097214 0)
(-0.0352998 0.00954868 0)
(-0.0369314 0.00933836 0)
(-0.0385221 0.0090919 0)
(-0.0400663 0.0088108 0)
(-0.0415581 0.00849665 0)
(-0.0429922 0.00815103 0)
(-0.0443635 0.0077756 0)
(-0.0456672 0.00737202 0)
(-0.0468986 0.006942 0)
(-0.0480534 0.00648725 0)
(-0.0491277 0.00600953 0)
(-0.0501177 0.00551061 0)
(-0.0510201 0.00499228 0)
(-0.0518316 0.00445635 0)
(-0.0525496 0.00390466 0)
(-0.0531714 0.00333907 0)
(-0.053695 0.00276144 0)
(-0.0541185 0.00217368 0)
(-0.0544404 0.00157771 0)
(-0.0546593 0.000975474 0)
(-0.0547745 0.00036893 0)
(-0.0547855 -0.00023993 0)
(-0.0546919 -0.000849094 0)
(-0.054494 -0.00145653 0)
(-0.0541922 -0.00206018 0)
(-0.0537874 -0.00265798 0)
(-0.0532807 -0.00324783 0)
(-0.0526736 -0.00382762 0)
(-0.0519681 -0.00439522 0)
(-0.0511664 -0.00494851 0)
(-0.050271 -0.00548535 0)
(-0.049285 -0.00600358 0)
(-0.0482115 -0.00650108 0)