/*--------------------------------*- C++ -*----------------------------------*\
| =========                 |                                                 |
| \\      /  F ield         | OpenFOAM: The Open Source CFD Toolbox           |
|  \\    /   O peration     | Version:  2212                                  |
|   \\  /    A nd           | Website:  www.openfoam.com                      |
|    \\/     M anipulation  |                                                 |
\*---------------------------------------------------------------------------*/
FoamFile
{
    version     2.0;
    format      ascii;
    arch        "LSB;label=32;scalar=64";
    class       volVectorField;
    location    "0.055";
    object      U_0;
}
// * * * * * * * * * * * * * * * * * * * * * * * * * * * * * * * * * * * * * //

dimensions      [0 1 -1 0 0 0 0];

internalField   nonuniform List<vector> 
10000
(
(2.711e-06 -2.99539e-06 0)
(1.40032e-05 -7.39987e-06 0)
(3.15454e-05 -8.31242e-06 0)
(4.79295e-05 -7.06219e-06 0)
(5.83139e-05 -4.64876e-06 0)
(6.05885e-05 -1.6875e-06 0)
(5.36227e-05 1.49271e-06 0)
(3.69229e-05 4.70577e-06 0)
(1.04067e-05 7.84595e-06 0)
(-2.57408e-05 1.08532e-05 0)
(-7.11653e-05 1.36945e-05 0)
(-0.000125402 1.63491e-05 0)
(-0.000187912 1.88055e-05 0)
(-0.000258107 2.10589e-05 0)
(-0.00033537 2.31076e-05 0)
(-0.000419067 2.49524e-05 0)
(-0.000508555 2.65939e-05 0)
(-0.000603186 2.80349e-05 0)
(-0.000702318 2.928e-05 0)
(-0.000805316 3.03326e-05 0)
(-0.000911556 3.11988e-05 0)
(-0.00102043 3.18844e-05 0)
(-0.00113132 3.23939e-05 0)
(-0.00124367 3.27334e-05 0)
(-0.0013569 3.29095e-05 0)
(-0.00147046 3.29273e-05 0)
(-0.00158383 3.27929e-05 0)
(-0.00169649 3.25131e-05 0)
(-0.00180795 3.20928e-05 0)
(-0.00191774 3.15377e-05 0)
(-0.0020254 3.08541e-05 0)
(-0.00213051 3.00482e-05 0)
(-0.00223265 2.91256e-05 0)
(-0.00233142 2.80931e-05 0)
(-0.00242645 2.69566e-05 0)
(-0.0025174 2.57212e-05 0)
(-0.00260392 2.43922e-05 0)
(-0.00268571 2.29762e-05 0)
(-0.00276246 2.14798e-05 0)
(-0.00283392 1.99082e-05 0)
(-0.00289982 1.82664e-05 0)
(-0.00295994 1.65607e-05 0)
(-0.00301405 1.47972e-05 0)
(-0.00306198 1.29816e-05 0)
(-0.00310355 1.11194e-05 0)
(-0.0031386 9.21619e-06 0)
(-0.00316702 7.2787e-06 0)
(-0.00318868 5.31375e-06 0)
(-0.00320352 3.32706e-06 0)
(-0.00321145 1.32419e-06 0)
(-0.00321245 -6.88715e-07 0)
(-0.00320648 -2.70511e-06 0)
(-0.00319355 -4.71779e-06 0)
(-0.00317369 -6.71972e-06 0)
(-0.00314695 -8.70474e-06 0)
(-0.0031134 -1.06664e-05 0)
(-0.00307313 -1.25976e-05 0)
(-0.00302627 -1.44911e-05 0)
(-0.00297297 -1.63391e-05 0)
(-0.00291339 -1.8134e-05 0)
(-0.00284774 -1.98688e-05 0)
(-0.00277623 -2.15367e-05 0)
(-0.00269912 -2.31301e-05 0)
(-0.00261668 -2.46411e-05 0)
(-0.0025292 -2.6062e-05 0)
(-0.00243702 -2.7385e-05 0)
(-0.00234049 -2.86025e-05 0)
(-0.00223997 -2.97073e-05 0)
(-0.00213588 -3.06923e-05 0)
(-0.00202864 -3.15498e-05 0)
(-0.0019187 -3.22723e-05 0)
(-0.00180654 -3.28529e-05 0)
(-0.00169264 -3.3285e-05 0)
(-0.00157754 -3.35619e-05 0)
(-0.00146178 -3.36772e-05 0)
(-0.00134589 -3.36252e-05 0)
(-0.00123048 -3.34004e-05 0)
(-0.00111613 -3.29971e-05 0)
(-0.00100345 -3.24099e-05 0)
(-0.000893056 -3.16345e-05 0)
(-0.000785595 -3.06668e-05 0)
(-0.000681706 -2.95035e-05 0)
(-0.000582039 -2.81416e-05 0)
(-0.000487245 -2.65794e-05 0)
(-0.000397973 -2.48158e-05 0)
(-0.000314869 -2.28505e-05 0)
(-0.000238564 -2.06846e-05 0)
(-0.000169673 -1.83217e-05 0)
(-0.000108779 -1.57681e-05 0)
(-5.64252e-05 -1.30338e-05 0)
(-1.30927e-05 -1.01345e-05 0)
(2.0825e-05 -7.09525e-06 0)
(4.50591e-05 -3.9561e-06 0)
(5.95245e-05 -7.83211e-07 0)
(6.44147e-05 2.31143e-06 0)
(6.03505e-05 5.13357e-06 0)
(4.85874e-05 7.34656e-06 0)
(3.1452e-05 8.34805e-06 0)
(1.36276e-05 7.10887e-06 0)
(2.67208e-06 2.67382e-06 0)
(6.96305e-06 -1.38979e-05 0)
(2.86181e-05 -2.91282e-05 0)
(5.74851e-05 -3.06635e-05 0)
(8.00651e-05 -2.2937e-05 0)
(8.75602e-05 -9.52715e-06 0)
(7.4945e-05 7.11824e-06 0)
(3.91581e-05 2.54248e-05 0)
(-2.14574e-05 4.43703e-05 0)
(-0.000107511 6.32904e-05 0)
(-0.000218875 8.17484e-05 0)
(-0.000354909 9.94534e-05 0)
(-0.000514605 0.000116212 0)
(-0.000696697 0.000131892 0)
(-0.000899738 0.000146411 0)
(-0.00112216 0.000159712 0)
(-0.00136231 0.000171766 0)
(-0.00161849 0.00018256 0)
(-0.00188896 0.000192089 0)
(-0.00217198 0.000200363 0)
(-0.00246582 0.000207396 0)
(-0.00276875 0.000213207 0)
(-0.00307906 0.000217823 0)
(-0.00339511 0.000221273 0)
(-0.00371525 0.000223587 0)
(-0.00403789 0.000224798 0)
(-0.00436149 0.000224942 0)
(-0.00468454 0.000224055 0)
(-0.00500561 0.000222175 0)
(-0.00532328 0.000219337 0)
(-0.00563622 0.000215581 0)
(-0.00594314 0.000210946 0)
(-0.0062428 0.000205471 0)
(-0.00653401 0.000199196 0)
(-0.00681566 0.00019216 0)
(-0.00708667 0.000184404 0)
(-0.00734602 0.000175966 0)
(-0.00759278 0.000166887 0)
(-0.00782603 0.000157205 0)
(-0.00804493 0.000146963 0)
(-0.00824872 0.000136198 0)
(-0.00843664 0.000124952 0)
(-0.00860806 0.000113264 0)
(-0.00876234 0.000101177 0)
(-0.00889895 8.87293e-05 0)
(-0.0090174 7.59625e-05 0)
(-0.00911725 6.29184e-05 0)
(-0.00919815 4.96393e-05 0)
(-0.00925977 3.61688e-05 0)
(-0.00930188 2.25493e-05 0)
(-0.0093243 8.8233e-06 0)
(-0.0093269 -4.96464e-06 0)
(-0.00930964 -1.87691e-05 0)
(-0.00927252 -3.25442e-05 0)
(-0.00921563 -4.62435e-05 0)
(-0.00913911 -5.98207e-05 0)
(-0.00904318 -7.32289e-05 0)
(-0.00892811 -8.64192e-05 0)
(-0.00879428 -9.9342e-05 0)
(-0.00864209 -0.000111948 0)
(-0.00847205 -0.000124186 0)
(-0.00828473 -0.000136008 0)
(-0.00808075 -0.000147362 0)
(-0.00786085 -0.000158199 0)
(-0.00762581 -0.000168465 0)
(-0.00737649 -0.000178109 0)
(-0.00711381 -0.000187081 0)
(-0.00683879 -0.000195331 0)
(-0.0065525 -0.000202809 0)
(-0.00625608 -0.000209466 0)
(-0.00595074 -0.000215253 0)
(-0.00563778 -0.000220124 0)
(-0.00531853 -0.000224031 0)
(-0.00499441 -0.000226933 0)
(-0.00466687 -0.000228786 0)
(-0.00433745 -0.000229552 0)
(-0.00400772 -0.000229195 0)
(-0.0036793 -0.000227678 0)
(-0.00335385 -0.000224972 0)
(-0.0030331 -0.000221047 0)
(-0.00271876 -0.000215881 0)
(-0.0024126 -0.000209454 0)
(-0.0021164 -0.000201754 0)
(-0.00183194 -0.000192774 0)
(-0.001561 -0.000182515 0)
(-0.00130534 -0.000170987 0)
(-0.00106667 -0.000158209 0)
(-0.000846687 -0.000144217 0)
(-0.000646965 -0.000129063 0)
(-0.000468989 -0.000112823 0)
(-0.000314083 -9.56074e-05 0)
(-0.00018336 -7.75705e-05 0)
(-7.76471e-05 -5.89328e-05 0)
(2.62527e-06 -4.00104e-05 0)
(5.75691e-05 -2.12649e-05 0)
(8.80546e-05 -3.38125e-06 0)
(9.60074e-05 1.26048e-05 0)
(8.47443e-05 2.51287e-05 0)
(5.951e-05 3.18156e-05 0)
(2.91961e-05 2.91956e-05 0)
(7.09823e-06 1.36172e-05 0)
(8.11253e-06 -3.12971e-05 0)
(3.04057e-05 -5.77464e-05 0)
(5.54061e-05 -5.56242e-05 0)
(6.73121e-05 -3.33667e-05 0)
(5.55013e-05 2.20684e-06 0)
(1.34193e-05 4.60539e-05 0)
(-6.32249e-05 9.4579e-05 0)
(-0.000176949 0.000145264 0)
(-0.000328864 0.000196346 0)
(-0.000519013 0.00024659 0)
(-0.000746654 0.000295127 0)
(-0.00101046 0.000341349 0)
(-0.00130866 0.000384825 0)
(-0.00163919 0.000425258 0)
(-0.00199974 0.000462447 0)
(-0.00238785 0.000496261 0)
(-0.00280093 0.000526623 0)
(-0.00323635 0.000553501 0)
(-0.00369142 0.000576888 0)
(-0.00416346 0.000596807 0)
(-0.00464978 0.0006133 0)
(-0.00514774 0.000626421 0)
(-0.00565469 0.000636238 0)
(-0.00616809 0.000642832 0)
(-0.00668541 0.000646287 0)
(-0.00720421 0.000646696 0)
(-0.00772209 0.000644157 0)
(-0.00823677 0.000638771 0)
(-0.008746 0.000630641 0)
(-0.00924764 0.000619875 0)
(-0.00973962 0.000606582 0)
(-0.01022 0.000590871 0)
(-0.0106868 0.000572855 0)
(-0.0111383 0.000552646 0)
(-0.0115727 0.000530357 0)
(-0.0119885 0.000506101 0)
(-0.0123841 0.000479993 0)
(-0.012758 0.000452148 0)
(-0.0131089 0.000422679 0)
(-0.0134355 0.000391703 0)
(-0.0137368 0.000359337 0)
(-0.0140115 0.000325696 0)
(-0.0142587 0.0002909 0)
(-0.0144776 0.000255065 0)
(-0.0146674 0.000218312 0)
(-0.0148273 0.000180762 0)
(-0.0149568 0.000142537 0)
(-0.0150554 0.00010376 0)
(-0.0151227 6.45565e-05 0)
(-0.0151583 2.50529e-05 0)
(-0.0151623 -1.46228e-05 0)
(-0.0151343 -5.43396e-05 0)
(-0.0150746 -9.39652e-05 0)
(-0.0149831 -0.000133366 0)
(-0.0148602 -0.000172407 0)
(-0.0147061 -0.000210951 0)
(-0.0145215 -0.000248857 0)
(-0.0143067 -0.000285985 0)
(-0.0140626 -0.000322192 0)
(-0.0137899 -0.000357335 0)
(-0.0134895 -0.00039127 0)
(-0.0131625 -0.000423851 0)
(-0.0128101 -0.000454932 0)
(-0.0124334 -0.000484367 0)
(-0.0120339 -0.000512011 0)
(-0.011613 -0.000537718 0)
(-0.0111725 -0.000561346 0)
(-0.0107139 -0.000582755 0)
(-0.0102391 -0.000601804 0)
(-0.00975014 -0.000618359 0)
(-0.00924897 -0.000632287 0)
(-0.00873775 -0.000643459 0)
(-0.00821873 -0.000651756 0)
(-0.00769423 -0.00065706 0)
(-0.00716669 -0.000659264 0)
(-0.00663859 -0.000658266 0)
(-0.0061125 -0.000653976 0)
(-0.00559106 -0.000646311 0)
(-0.00507695 -0.000635201 0)
(-0.0045729 -0.000620588 0)
(-0.00408166 -0.000602431 0)
(-0.00360601 -0.000580707 0)
(-0.00314872 -0.000555413 0)
(-0.00271254 -0.000526572 0)
(-0.00230017 -0.000494232 0)
(-0.00191424 -0.00045848 0)
(-0.00155728 -0.000419447 0)
(-0.00123166 -0.000377321 0)
(-0.000939541 -0.000332362 0)
(-0.000682831 -0.000284931 0)
(-0.000463066 -0.000235517 0)
(-0.00028131 -0.000184796 0)
(-0.000138005 -0.000133691 0)
(-3.27707e-05 -8.34863e-05 0)
(3.58525e-05 -3.59788e-05 0)
(7.07421e-05 6.30692e-06 0)
(7.65174e-05 3.98342e-05 0)
(5.99863e-05 5.97319e-05 0)
(3.19294e-05 5.95332e-05 0)
(8.35462e-06 3.14392e-05 0)
(7.00801e-06 -4.74548e-05 0)
(2.30761e-05 -8.03057e-05 0)
(3.38316e-05 -6.75804e-05 0)
(2.32826e-05 -2.2599e-05 0)
(-1.96447e-05 4.44975e-05 0)
(-0.000102181 0.00012593 0)
(-0.00022922 0.000215881 0)
(-0.000403756 0.000310074 0)
(-0.000627207 0.000405384 0)
(-0.00089974 0.000499531 0)
(-0.00122056 0.000590851 0)
(-0.0015881 0.000678134 0)
(-0.00200026 0.000760504 0)
(-0.00245446 0.000837332 0)
(-0.00294782 0.000908175 0)
(-0.00347722 0.000972735 0)
(-0.00403936 0.00103082 0)
(-0.00463084 0.00108232 0)
(-0.00524817 0.00112719 0)
(-0.00588785 0.00116546 0)
(-0.00654635 0.00119717 0)
(-0.00722017 0.00122241 0)
(-0.00790586 0.0012413 0)
(-0.00859999 0.00125397 0)
(-0.00929923 0.00126057 0)
(-0.0100003 0.00126128 0)
(-0.0107001 0.00125627 0)
(-0.0113954 0.00124574 0)
(-0.0120833 0.00122987 0)
(-0.0127609 0.00120887 0)
(-0.0134254 0.00118296 0)
(-0.0140742 0.00115233 0)
(-0.0147047 0.0011172 0)
(-0.0153144 0.0010778 0)
(-0.0159012 0.00103434 0)
(-0.0164626 0.00098703 0)
(-0.0169968 0.000936106 0)
(-0.0175018 0.000881786 0)
(-0.0179756 0.000824294 0)
(-0.0184167 0.000763857 0)
(-0.0188234 0.000700703 0)
(-0.0191943 0.000635059 0)
(-0.019528 0.000567156 0)
(-0.0198235 0.000497226 0)
(-0.0200795 0.000425506 0)
(-0.0202953 0.000352231 0)
(-0.0204699 0.000277641 0)
(-0.0206028 0.000201978 0)
(-0.0206934 0.000125488 0)
(-0.0207413 4.84186e-05 0)
(-0.0207463 -2.89777e-05 0)
(-0.0207083 -0.000106446 0)
(-0.0206273 -0.000183727 0)
(-0.0205035 -0.00026056 0)
(-0.0203372 -0.00033668 0)
(-0.020129 -0.000411817 0)
(-0.0198794 -0.000485699 0)
(-0.0195892 -0.000558051 0)
(-0.0192594 -0.000628596 0)
(-0.0188911 -0.000697055 0)
(-0.0184854 -0.000763147 0)
(-0.0180439 -0.000826589 0)
(-0.017568 -0.000887099 0)
(-0.0170594 -0.000944393 0)
(-0.0165201 -0.000998189 0)
(-0.0159521 -0.00104821 0)
(-0.0153575 -0.00109418 0)
(-0.0147386 -0.00113582 0)
(-0.0140978 -0.00117287 0)
(-0.013438 -0.00120508 0)
(-0.0127616 -0.00123217 0)
(-0.0120717 -0.00125392 0)
(-0.0113712 -0.0012701 0)
(-0.0106633 -0.00128047 0)
(-0.00995109 -0.00128485 0)
(-0.00923803 -0.00128303 0)
(-0.00852751 -0.00127486 0)
(-0.00782302 -0.00126019 0)
(-0.00712813 -0.00123888 0)
(-0.00644644 -0.00121085 0)
(-0.00578159 -0.00117603 0)
(-0.00513723 -0.00113441 0)
(-0.00451698 -0.00108598 0)
(-0.00392445 -0.00103082 0)
(-0.00336313 -0.000969067 0)
(-0.00283641 -0.000900911 0)
(-0.00234754 -0.000826647 0)
(-0.00189951 -0.000746682 0)
(-0.00149503 -0.000661566 0)
(-0.00113646 -0.000572039 0)
(-0.000825624 -0.000479088 0)
(-0.000563761 -0.000384028 0)
(-0.0003513 -0.000288616 0)
(-0.00018767 -0.00019521 0)
(-7.10349e-05 -0.000106978 0)
(2.02551e-06 -2.8185e-05 0)
(3.68036e-05 3.5453e-05 0)
(4.08518e-05 7.64179e-05 0)
(2.55616e-05 8.50409e-05 0)
(7.41499e-06 4.86784e-05 0)
(4.76684e-06 -5.80789e-05 0)
(1.02353e-05 -8.82686e-05 0)
(-6.57526e-07 -5.6261e-05 0)
(-4.22422e-05 2.01235e-05 0)
(-0.000125063 0.000127568 0)
(-0.000256432 0.000255672 0)
(-0.000441374 0.000396419 0)
(-0.000683009 0.000543728 0)
(-0.000982841 0.000693015 0)
(-0.00134105 0.000840825 0)
(-0.00175674 0.000984569 0)
(-0.00222818 0.00112231 0)
(-0.00275292 0.0012526 0)
(-0.00332803 0.0013744 0)
(-0.00395014 0.00148692 0)
(-0.00461558 0.00158964 0)
(-0.00532044 0.00168219 0)
(-0.00606068 0.00176436 0)
(-0.00683213 0.00183603 0)
(-0.00763057 0.00189719 0)
(-0.00845173 0.00194789 0)
(-0.00929139 0.00198824 0)
(-0.0101453 0.0020184 0)
(-0.0110094 0.00203857 0)
(-0.0118795 0.00204899 0)
(-0.0127516 0.0020499 0)
(-0.0136218 0.00204158 0)
(-0.0144864 0.00202433 0)
(-0.0153416 0.00199845 0)
(-0.0161839 0.00196427 0)
(-0.0170099 0.00192211 0)
(-0.0178162 0.00187231 0)
(-0.0185997 0.00181521 0)
(-0.0193574 0.00175117 0)
(-0.0200865 0.00168052 0)
(-0.0207842 0.00160364 0)
(-0.0214479 0.00152087 0)
(-0.0220752 0.00143258 0)
(-0.0226639 0.00133913 0)
(-0.0232117 0.0012409 0)
(-0.0237169 0.00113824 0)
(-0.0241776 0.00103154 0)
(-0.0245921 0.000921164 0)
(-0.0249589 0.000807496 0)
(-0.0252768 0.000690919 0)
(-0.0255446 0.000571818 0)
(-0.0257613 0.000450586 0)
(-0.0259261 0.000327616 0)
(-0.0260384 0.000203309 0)
(-0.0260977 7.80708e-05 0)
(-0.0261036 -4.76883e-05 0)
(-0.026056 -0.000173553 0)
(-0.0259551 -0.000299101 0)
(-0.0258011 -0.000423908 0)
(-0.0255943 -0.00054754 0)
(-0.0253353 -0.000669561 0)
(-0.0250251 -0.000789529 0)
(-0.0246645 -0.000906998 0)
(-0.0242546 -0.00102152 0)
(-0.023797 -0.00113264 0)
(-0.023293 -0.0012399 0)
(-0.0227445 -0.00134285 0)
(-0.0221534 -0.00144102 0)
(-0.0215218 -0.00153397 0)
(-0.020852 -0.00162124 0)
(-0.0201465 -0.00170238 0)
(-0.019408 -0.00177694 0)
(-0.0186394 -0.0018445 0)
(-0.0178438 -0.00190461 0)
(-0.0170242 -0.00195687 0)
(-0.0161842 -0.00200088 0)
(-0.0153273 -0.00203624 0)
(-0.0144571 -0.00206259 0)
(-0.0135775 -0.00207959 0)
(-0.0126925 -0.00208691 0)
(-0.0118061 -0.00208427 0)
(-0.0109226 -0.0020714 0)
(-0.0100462 -0.00204808 0)
(-0.00918126 -0.00201413 0)
(-0.00833219 -0.00196942 0)
(-0.0075034 -0.00191387 0)
(-0.00669931 -0.00184746 0)
(-0.0059243 -0.00177025 0)
(-0.00518268 -0.00168238 0)
(-0.00447865 -0.00158409 0)
(-0.00381626 -0.00147576 0)
(-0.00319933 -0.0013579 0)
(-0.0026314 -0.00123121 0)
(-0.00211562 -0.00109663 0)
(-0.0016547 -0.000955374 0)
(-0.00125075 -0.000809052 0)
(-0.000905136 -0.000659754 0)
(-0.000618342 -0.000510205 0)
(-0.000389729 -0.000363961 0)
(-0.000217314 -0.000225668 0)
(-9.74921e-05 -0.000101384 0)
(-2.47701e-05 1.01346e-06 0)
(8.57505e-06 7.14319e-05 0)
(1.35717e-05 9.70802e-05 0)
(5.31157e-06 6.07725e-05 0)
(1.97507e-06 -6.09208e-05 0)
(-5.78871e-06 -7.66977e-05 0)
(-4.32943e-05 -1.52491e-05 0)
(-0.00012196 0.000101927 0)
(-0.000251057 0.000258691 0)
(-0.000437528 0.000442233 0)
(-0.000686153 0.00064247 0)
(-0.000999873 0.000851565 0)
(-0.00138007 0.00106346 0)
(-0.0018268 0.00127347 0)
(-0.002339 0.00147803 0)
(-0.00291472 0.00167437 0)
(-0.00355123 0.00186041 0)
(-0.00424525 0.0020346 0)
(-0.00499299 0.00219578 0)
(-0.00579031 0.00234309 0)
(-0.0066328 0.00247598 0)
(-0.00751583 0.00259406 0)
(-0.00843466 0.00269713 0)
(-0.00938443 0.00278511 0)
(-0.0103602 0.00285804 0)
(-0.0113572 0.00291605 0)
(-0.0123704 0.00295934 0)
(-0.0133951 0.00298815 0)
(-0.0144265 0.00300282 0)
(-0.0154599 0.00300368 0)
(-0.0164907 0.00299112 0)
(-0.0175146 0.00296556 0)
(-0.0185271 0.00292742 0)
(-0.0195243 0.00287717 0)
(-0.0205019 0.00281528 0)
(-0.0214561 0.00274223 0)
(-0.0223833 0.00265851 0)
(-0.0232799 0.00256463 0)
(-0.0241424 0.0024611 0)
(-0.0249678 0.00234843 0)
(-0.0257529 0.00222715 0)
(-0.0264949 0.00209779 0)
(-0.0271912 0.00196088 0)
(-0.0278391 0.00181695 0)
(-0.0284365 0.00166655 0)
(-0.0289812 0.00151022 0)
(-0.0294713 0.00134852 0)
(-0.029905 0.001182 0)
(-0.0302808 0.00101122 0)
(-0.0305973 0.000836758 0)
(-0.0308533 0.000659177 0)
(-0.031048 0.000479062 0)
(-0.0311805 0.000297 0)
(-0.0312503 0.000113586 0)
(-0.031257 -7.0577e-05 0)
(-0.0312005 -0.00025488 0)
(-0.0310809 -0.000438704 0)
(-0.0308985 -0.000621426 0)
(-0.0306537 -0.000802411 0)
(-0.0303473 -0.000981021 0)
(-0.0299802 -0.00115661 0)
(-0.0295536 -0.00132852 0)
(-0.0290689 -0.0014961 0)
(-0.0285276 -0.00165869 0)
(-0.0279316 -0.00181562 0)
(-0.0272829 -0.00196623 0)
(-0.0265839 -0.00210986 0)
(-0.0258371 -0.00224583 0)
(-0.025045 -0.00237349 0)
(-0.0242108 -0.00249219 0)
(-0.0233376 -0.00260128 0)
(-0.0224287 -0.00270013 0)
(-0.0214877 -0.00278813 0)
(-0.0205185 -0.00286467 0)
(-0.0195249 -0.00292918 0)
(-0.0185111 -0.00298111 0)
(-0.0174815 -0.00301992 0)
(-0.0164406 -0.00304512 0)
(-0.0153929 -0.00305628 0)
(-0.0143433 -0.00305297 0)
(-0.0132966 -0.00303483 0)
(-0.0122578 -0.00300157 0)
(-0.0112319 -0.00295293 0)
(-0.0102242 -0.00288876 0)
(-0.00923955 -0.00280897 0)
(-0.0082832 -0.00271356 0)
(-0.00736015 -0.00260267 0)
(-0.00647536 -0.00247652 0)
(-0.00563363 -0.00233554 0)
(-0.00483957 -0.00218028 0)
(-0.00409751 -0.00201157 0)
(-0.00341144 -0.00183045 0)
(-0.00278494 -0.00163831 0)
(-0.00222101 -0.00143695 0)
(-0.00172203 -0.00122869 0)
(-0.00128955 -0.00101646 0)
(-0.000924182 -0.000804038 0)
(-0.000625359 -0.000596238 0)
(-0.000391174 -0.000399194 0)
(-0.000218133 -0.000220722 0)
(-0.000100919 -7.07557e-05 0)
(-3.2084e-05 3.82281e-05 0)
(-1.70295e-06 9.06237e-05 0)
(2.64091e-06 6.55072e-05 0)
(-1.04377e-06 -5.48658e-05 0)
(-2.35161e-05 -4.25254e-05 0)
(-9.07598e-05 5.98002e-05 0)
(-0.000210552 0.000227855 0)
(-0.000390396 0.000443149 0)
(-0.000636512 0.000690768 0)
(-0.000953128 0.000958755 0)
(-0.00134276 0.00123763 0)
(-0.00180648 0.00151992 0)
(-0.00234407 0.00179973 0)
(-0.00295422 0.00207244 0)
(-0.0036347 0.00233448 0)
(-0.00438249 0.00258307 0)
(-0.00519395 0.00281607 0)
(-0.00606494 0.0030319 0)
(-0.00699087 0.00322936 0)
(-0.00796689 0.00340762 0)
(-0.00898786 0.00356611 0)
(-0.0100485 0.0037045 0)
(-0.0111434 0.00382264 0)
(-0.0122672 0.00392053 0)
(-0.0134142 0.00399829 0)
(-0.0145792 0.00405617 0)
(-0.0157565 0.00409447 0)
(-0.0169409 0.00411359 0)
(-0.0181272 0.00411398 0)
(-0.0193101 0.00409614 0)
(-0.0204846 0.00406062 0)
(-0.0216458 0.00400799 0)
(-0.0227891 0.00393885 0)
(-0.0239098 0.00385384 0)
(-0.0250035 0.00375361 0)
(-0.0260661 0.00363883 0)
(-0.0270934 0.00351016 0)
(-0.0280817 0.00336831 0)
(-0.0290272 0.00321398 0)
(-0.0299266 0.00304788 0)
(-0.0307765 0.00287073 0)
(-0.0315739 0.00268325 0)
(-0.0323159 0.00248618 0)
(-0.033 0.00228026 0)
(-0.0336237 0.00206624 0)
(-0.0341848 0.00184487 0)
(-0.0346813 0.00161691 0)
(-0.0351114 0.00138314 0)
(-0.0354736 0.00114433 0)
(-0.0357666 0.000901268 0)
(-0.0359893 0.000654752 0)
(-0.0361408 0.000405588 0)
(-0.0362205 0.000154589 0)
(-0.036228 -9.74186e-05 0)
(-0.0361631 -0.0003496 0)
(-0.036026 -0.000601109 0)
(-0.0358169 -0.00085109 0)
(-0.0355365 -0.00109868 0)
(-0.0351855 -0.001343 0)
(-0.0347651 -0.00158317 0)
(-0.0342765 -0.0018183 0)
(-0.0337214 -0.00204749 0)
(-0.0331016 -0.00226984 0)
(-0.0324191 -0.00248444 0)
(-0.0316764 -0.0026904 0)
(-0.030876 -0.0028868 0)
(-0.0300209 -0.00307274 0)
(-0.029114 -0.00324733 0)
(-0.0281587 -0.00340968 0)
(-0.0271587 -0.00355893 0)
(-0.0261178 -0.00369422 0)
(-0.0250401 -0.0038147 0)
(-0.0239298 -0.00391958 0)
(-0.0227914 -0.00400808 0)
(-0.0216298 -0.00407946 0)
(-0.0204496 -0.00413301 0)
(-0.0192562 -0.00416808 0)
(-0.0180546 -0.00418407 0)
(-0.0168503 -0.00418044 0)
(-0.0156488 -0.00415674 0)
(-0.0144558 -0.00411255 0)
(-0.0132767 -0.0040476 0)
(-0.0121175 -0.00396168 0)
(-0.0109838 -0.00385471 0)
(-0.00988139 -0.00372673 0)
(-0.00881582 -0.00357797 0)
(-0.00779263 -0.00340879 0)
(-0.00681718 -0.00321979 0)
(-0.00589456 -0.0030118 0)
(-0.00502957 -0.00278595 0)
(-0.00422663 -0.00254372 0)
(-0.00348967 -0.00228701 0)
(-0.00282202 -0.00201824 0)
(-0.00222635 -0.00174047 0)
(-0.00170444 -0.00145758 0)
(-0.00125712 -0.00117438 0)
(-0.000884052 -0.000896957 0)
(-0.0005836 -0.000632887 0)
(-0.000352632 -0.000391647 0)
(-0.0001863 -0.000185047 0)
(-7.77804e-05 -2.76745e-05 0)
(-1.87673e-05 6.24955e-05 0)
(-2.71979e-07 6.17096e-05 0)
(-4.11489e-06 -3.93758e-05 0)
(-4.20203e-05 1.60452e-05 0)
(-0.000140806 0.000171673 0)
(-0.000304267 0.000401318 0)
(-0.000537828 0.000684643 0)
(-0.000846733 0.00100498 0)
(-0.00123443 0.00134873 0)
(-0.00170281 0.00170493 0)
(-0.00225245 0.00206478 0)
(-0.00288274 0.00242124 0)
(-0.00359201 0.00276868 0)
(-0.0043777 0.00310266 0)
(-0.00523645 0.0034197 0)
(-0.00616429 0.00371708 0)
(-0.00715667 0.00399272 0)
(-0.00820864 0.00424507 0)
(-0.00931489 0.004473 0)
(-0.0104698 0.00467571 0)
(-0.0116678 0.00485273 0)
(-0.0129027 0.0050038 0)
(-0.0141688 0.00512887 0)
(-0.0154599 0.00522806 0)
(-0.0167701 0.00530163 0)
(-0.0180933 0.00534995 0)
(-0.0194238 0.00537349 0)
(-0.0207556 0.00537282 0)
(-0.0220832 0.00534854 0)
(-0.0234009 0.00530135 0)
(-0.0247033 0.00523196 0)
(-0.0259852 0.00514116 0)
(-0.0272415 0.00502974 0)
(-0.0284674 0.00489854 0)
(-0.029658 0.00474841 0)
(-0.0308091 0.00458023 0)
(-0.0319162 0.0043949 0)
(-0.0329753 0.00419331 0)
(-0.0339825 0.0039764 0)
(-0.0349343 0.0037451 0)
(-0.0358272 0.00350035 0)
(-0.0366581 0.0032431 0)
(-0.0374239 0.00297433 0)
(-0.0381221 0.002695 0)
(-0.0387502 0.0024061 0)
(-0.0393059 0.00210863 0)
(-0.0397873 0.00180358 0)
(-0.0401927 0.00149199 0)
(-0.0405205 0.00117486 0)
(-0.0407696 0.000853244 0)
(-0.0409391 0.000528192 0)
(-0.0410281 0.000200767 0)
(-0.0410364 -0.000127955 0)
(-0.0409636 -0.000456884 0)
(-0.04081 -0.000784917 0)
(-0.0405759 -0.00111094 0)
(-0.0402619 -0.00143382 0)
(-0.039869 -0.00175243 0)
(-0.0393984 -0.0020656 0)
(-0.0388515 -0.0023722 0)
(-0.0382301 -0.00267104 0)
(-0.0375363 -0.00296095 0)
(-0.0367724 -0.00324077 0)
(-0.0359411 -0.00350932 0)
(-0.0350451 -0.00376542 0)
(-0.0340878 -0.00400791 0)
(-0.0330725 -0.00423562 0)
(-0.032003 -0.00444742 0)
(-0.0308833 -0.00464218 0)
(-0.0297176 -0.0048188 0)
(-0.0285105 -0.0049762 0)
(-0.0272668 -0.00511334 0)
(-0.0259913 -0.00522923 0)
(-0.0246894 -0.00532291 0)
(-0.0233665 -0.0053935 0)
(-0.0220282 -0.00544016 0)
(-0.0206802 -0.00546214 0)
(-0.0193286 -0.00545876 0)
(-0.0179794 -0.00542944 0)
(-0.0166389 -0.0053737 0)
(-0.0153131 -0.00529119 0)
(-0.0140085 -0.00518168 0)
(-0.0127314 -0.00504512 0)
(-0.0114879 -0.00488161 0)
(-0.0102842 -0.00469145 0)
(-0.00912649 -0.00447519 0)
(-0.00802045 -0.00423364 0)
(-0.00697169 -0.00396792 0)
(-0.00598543 -0.00367952 0)
(-0.0050665 -0.00337038 0)
(-0.00421918 -0.00304294 0)
(-0.00344716 -0.00270029 0)
(-0.0027534 -0.00234629 0)
(-0.00214002 -0.0019857 0)
(-0.00160816 -0.00162443 0)
(-0.00115785 -0.00126975 0)
(-0.000787875 -0.000930616 0)
(-0.000495678 -0.000618013 0)
(-0.000277112 -0.000345413 0)
(-0.000126235 -0.000129188 0)
(-3.6679e-05 1.07999e-05 0)
(-3.24924e-06 4.87981e-05 0)
(-7.14756e-06 -1.42798e-05 0)
(-6.07355e-05 9.99113e-05 0)
(-0.000191948 0.000321959 0)
(-0.000400508 0.000624423 0)
(-0.000689606 0.000985596 0)
(-0.00106334 0.00138739 0)
(-0.00152421 0.00181483 0)
(-0.00207331 0.00225566 0)
(-0.0027106 0.00269986 0)
(-0.00343494 0.0031393 0)
(-0.00424423 0.00356743 0)
(-0.00513549 0.00397896 0)
(-0.006105 0.00436969 0)
(-0.00714838 0.00473632 0)
(-0.00826072 0.00507628 0)
(-0.00943667 0.00538761 0)
(-0.0106705 0.00566886 0)
(-0.0119563 0.00591901 0)
(-0.0132877 0.00613741 0)
(-0.0146585 0.00632368 0)
(-0.0160622 0.00647772 0)
(-0.0174923 0.00659961 0)
(-0.0189423 0.00668964 0)
(-0.0204058 0.00674823 0)
(-0.0218763 0.00677594 0)
(-0.0233476 0.00677341 0)
(-0.0248135 0.00674141 0)
(-0.0262679 0.00668075 0)
(-0.027705 0.00659234 0)
(-0.029119 0.0064771 0)
(-0.0305045 0.00633603 0)
(-0.031856 0.00617017 0)
(-0.0331685 0.00598057 0)
(-0.0344371 0.00576832 0)
(-0.035657 0.00553454 0)
(-0.0368239 0.00528035 0)
(-0.0379335 0.00500693 0)
(-0.0389819 0.00471542 0)
(-0.0399653 0.00440702 0)
(-0.0408803 0.00408293 0)
(-0.0417237 0.00374435 0)
(-0.0424925 0.00339252 0)
(-0.043184 0.00302866 0)
(-0.0437959 0.00265403 0)
(-0.0443258 0.0022699 0)
(-0.044772 0.00187753 0)
(-0.0451329 0.00147824 0)
(-0.0454071 0.00107331 0)
(-0.0455936 0.000664085 0)
(-0.0456916 0.000251893 0)
(-0.0457006 -0.00016191 0)
(-0.0456206 -0.000575953 0)
(-0.0454515 -0.000988849 0)
(-0.0451937 -0.0013992 0)
(-0.0448481 -0.00180558 0)
(-0.0444157 -0.00220656 0)
(-0.0438976 -0.0026007 0)
(-0.0432957 -0.00298656 0)
(-0.0426117 -0.00336265 0)
(-0.041848 -0.00372753 0)
(-0.0410071 -0.00407971 0)
(-0.0400919 -0.00441772 0)
(-0.0391055 -0.0047401 0)
(-0.0380514 -0.00504538 0)
(-0.0369335 -0.00533213 0)
(-0.0357556 -0.00559892 0)
(-0.0345224 -0.00584433 0)
(-0.0332383 -0.006067 0)
(-0.0319083 -0.0062656 0)
(-0.0305376 -0.00643883 0)
(-0.0291317 -0.00658546 0)
(-0.0276962 -0.00670431 0)
(-0.0262371 -0.00679429 0)
(-0.0247604 -0.00685437 0)
(-0.0232725 -0.00688363 0)
(-0.0217798 -0.00688125 0)
(-0.0202889 -0.00684653 0)
(-0.0188065 -0.00677891 0)
(-0.0173394 -0.00667797 0)
(-0.0158944 -0.00654348 0)
(-0.0144784 -0.00637539 0)
(-0.013098 -0.00617388 0)
(-0.0117599 -0.00593938 0)
(-0.0104706 -0.00567261 0)
(-0.00923643 -0.00537462 0)
(-0.00806339 -0.00504685 0)
(-0.00695711 -0.00469118 0)
(-0.00592279 -0.00431001 0)
(-0.00496512 -0.00390637 0)
(-0.00408816 -0.00348403 0)
(-0.00329523 -0.00304762 0)
(-0.00258883 -0.00260282 0)
(-0.00197053 -0.00215656 0)
(-0.00144082 -0.00171724 0)
(-0.000999074 -0.00129507 0)
(-0.000643464 -0.000902388 0)
(-0.000370714 -0.000554094 0)
(-0.000175933 -0.000268012 0)
(-5.48561e-05 -6.54366e-05 0)
(-6.19642e-06 2.65672e-05 0)
(-1.00965e-05 2.03825e-05 0)
(-7.9321e-05 0.000209364 0)
(-0.000243229 0.000511397 0)
(-0.00049752 0.000898317 0)
(-0.000843107 0.00134745 0)
(-0.00128285 0.00183961 0)
(-0.00181818 0.00235869 0)
(-0.00244929 0.00289132 0)
(-0.00317537 0.00342641 0)
(-0.0039947 0.00395488 0)
(-0.00490463 0.00446924 0)
(-0.00590171 0.00496344 0)
(-0.00698177 0.00543261 0)
(-0.00814005 0.00587283 0)
(-0.00937122 0.00628104 0)
(-0.0106695 0.00665489 0)
(-0.0120288 0.00699261 0)
(-0.0134428 0.00729292 0)
(-0.0149047 0.00755497 0)
(-0.0164079 0.00777829 0)
(-0.0179453 0.00796267 0)
(-0.0195102 0.00810819 0)
(-0.0210955 0.00821513 0)
(-0.0226944 0.00828398 0)
(-0.0243 0.00831535 0)
(-0.0259055 0.00831002 0)
(-0.0275043 0.00826887 0)
(-0.02909 0.00819288 0)
(-0.0306562 0.00808309 0)
(-0.0321968 0.00794065 0)
(-0.0337057 0.00776673 0)
(-0.0351774 0.00756258 0)
(-0.0366062 0.00732949 0)
(-0.037987 0.00706876 0)
(-0.0393146 0.00678175 0)
(-0.0405842 0.00646983 0)
(-0.0417914 0.00613442 0)
(-0.0429318 0.00577693 0)
(-0.0440014 0.0053988 0)
(-0.0449966 0.0050015 0)
(-0.0459137 0.00458651 0)
(-0.0467497 0.00415531 0)
(-0.0475015 0.00370944 0)
(-0.0481667 0.00325041 0)
(-0.0487429 0.00277977 0)
(-0.0492281 0.00229908 0)
(-0.0496204 0.00180994 0)
(-0.0499185 0.00131393 0)
(-0.0501213 0.000812676 0)
(-0.050228 0.000307818 0)
(-0.0502379 -0.000198989 0)
(-0.050151 -0.000706069 0)
(-0.0499673 -0.00121173 0)
(-0.0496874 -0.00171425 0)
(-0.0493119 -0.0022119 0)
(-0.048842 -0.00270294 0)
(-0.0482791 -0.0031856 0)
(-0.047625 -0.00365812 0)
(-0.0468817 -0.0041187 0)
(-0.0460517 -0.00456556 0)
(-0.0451378 -0.0049969 0)
(-0.0441429 -0.00541094 0)
(-0.0430706 -0.00580589 0)
(-0.0419246 -0.00617997 0)
(-0.0407089 -0.00653142 0)
(-0.039428 -0.00685852 0)
(-0.0380865 -0.00715956 0)
(-0.0366894 -0.00743288 0)
(-0.0352422 -0.00767686 0)
(-0.0337503 -0.00788995 0)
(-0.0322195 -0.00807065 0)
(-0.0306561 -0.00821756 0)
(-0.0290664 -0.00832934 0)
(-0.0274569 -0.00840479 0)
(-0.0258344 -0.00844278 0)
(-0.0242058 -0.00844237 0)
(-0.0225782 -0.00840271 0)
(-0.0209587 -0.00832317 0)
(-0.0193547 -0.00820327 0)
(-0.0177735 -0.00804276 0)
(-0.0162222 -0.00784163 0)
(-0.0147082 -0.00760013 0)
(-0.0132385 -0.00731883 0)
(-0.0118201 -0.00699864 0)
(-0.0104597 -0.00664086 0)
(-0.00916379 -0.00624727 0)
(-0.00793839 -0.00582014 0)
(-0.00678913 -0.00536237 0)
(-0.00572109 -0.00487758 0)
(-0.00473873 -0.0043702 0)
(-0.0038458 -0.00384562 0)
(-0.00304526 -0.00331041 0)
(-0.00233917 -0.00277244 0)
(-0.00172861 -0.00224119 0)
(-0.00121366 -0.00172799 0)
(-0.00079332 -0.00124634 0)
(-0.000465309 -0.000812349 0)
(-0.000225887 -0.000444984 0)
(-7.29472e-05 -0.000166573 0)
(-9.06561e-06 -4.96588e-06 0)
(-1.29411e-05 6.44482e-05 0)
(-9.75831e-05 0.000344316 0)
(-0.000294045 0.000740148 0)
(-0.000594147 0.00122345 0)
(-0.00099655 0.00177089 0)
(-0.00150284 0.0023625 0)
(-0.00211329 0.00298125 0)
(-0.00282712 0.00361284 0)
(-0.00364269 0.00424527 0)
(-0.00455757 0.00486856 0)
(-0.00556851 0.00547444 0)
(-0.00667152 0.00605612 0)
(-0.00786196 0.00660805 0)
(-0.00913459 0.00712579 0)
(-0.0104837 0.00760577 0)
(-0.011903 0.00804526 0)
(-0.0133861 0.00844214 0)
(-0.0149262 0.0087949 0)
(-0.0165162 0.0091025 0)
(-0.0181488 0.00936432 0)
(-0.0198169 0.00958008 0)
(-0.0215131 0.00974983 0)
(-0.02323 0.00987386 0)
(-0.0249603 0.0099527 0)
(-0.0266967 0.00998705 0)
(-0.028432 0.00997779 0)
(-0.0301592 0.00992594 0)
(-0.0318715 0.00983262 0)
(-0.033562 0.00969908 0)
(-0.0352243 0.00952664 0)
(-0.0368521 0.00931669 0)
(-0.0384391 0.00907069 0)
(-0.0399796 0.00879016 0)
(-0.0414679 0.00847665 0)
(-0.0428986 0.00813178 0)
(-0.0442667 0.00775718 0)
(-0.0455672 0.00735451 0)
(-0.0467957 0.00692547 0)
(-0.0479478 0.00647178 0)
(-0.0490195 0.00599519 0)
(-0.0500071 0.00549746 0)
(-0.0509073 0.00498038 0)
(-0.0517169 0.00444576 0)
(-0.0524332 0.00389542 0)
(-0.0530536 0.00333122 0)
(-0.053576 0.00275502 0)
(-0.0539985 0.00216872 0)
(-0.0543196 0.00157423 0)
(-0.0545381 0.000973496 0)
(-0.0546531 0.000368466 0)
(-0.0546641 -0.000238876 0)
(-0.0545708 -0.000846524 0)
(-0.0543735 -0.00145245 0)
(-0.0540726 -0.00205461 0)
(-0.0536688 -0.00265094 0)
(-0.0531634 -0.00323934 0)
(-0.052558 -0.00381772 0)
(-0.0518543 -0.00438396 0)
(-0.0510546 -0.00493594 0)
(-0.0501615 -0.00547151 0)
(-0.0491779 -0.00598854 0)
(-0.0481072 -0.00648489 0)
(-0.0469529 -0.00695845 0)