/*--------------------------------*- C++ -*----------------------------------*\
| =========                 |                                                 |
| \\      /  F ield         | OpenFOAM: The Open Source CFD Toolbox           |
|  \\    /   O peration     | Version:  2212                                  |
|   \\  /    A nd           | Website:  www.openfoam.com                      |
|    \\/     M anipulation  |                                                 |
\*---------------------------------------------------------------------------*/
FoamFile
{
    version     2.0;
    format      ascii;
    arch        "LSB;label=32;scalar=64";
    class       surfaceScalarField;
    location    "0.063";
    object      phi_0;
}
// * * * * * * * * * * * * * * * * * * * * * * * * * * * * * * * * * * * * * //

dimensions      [0 3 -1 0 0 0 0];

oriented        oriented;

internalField   nonuniform List<scalar> 
19800
(
6.78345e-11
-6.78274e-11
2.31349e-10
-1.63534e-10
4.10299e-10
-1.78938e-10
5.49571e-10
-1.39269e-10
6.17653e-10
-6.80786e-11
5.97134e-10
2.05178e-11
4.79387e-10
1.17763e-10
2.61253e-10
2.1813e-10
-5.68702e-11
3.18124e-10
-4.72362e-10
4.15492e-10
-9.8112e-10
5.08751e-10
-1.57804e-09
5.96923e-10
-2.25739e-09
6.7935e-10
-3.013e-09
7.55619e-10
-3.83845e-09
8.25464e-10
-4.72719e-09
8.88742e-10
-5.67258e-09
9.45392e-10
-6.66801e-09
9.95422e-10
-7.70688e-09
1.03887e-09
-8.78271e-09
1.07583e-09
-9.88912e-09
1.10641e-09
-1.10199e-08
1.13074e-09
-1.21689e-08
1.14898e-09
-1.33302e-08
1.16129e-09
-1.4498e-08
1.16784e-09
-1.56668e-08
1.16883e-09
-1.68313e-08
1.16445e-09
-1.79862e-08
1.15487e-09
-1.91265e-08
1.14031e-09
-2.02474e-08
1.12096e-09
-2.13445e-08
1.09702e-09
-2.24131e-08
1.06869e-09
-2.34493e-08
1.03618e-09
-2.4449e-08
9.99698e-10
-2.54085e-08
9.59451e-10
-2.63241e-08
9.15645e-10
-2.71926e-08
8.68483e-10
-2.80108e-08
8.18169e-10
-2.87757e-08
7.64913e-10
-2.94846e-08
7.08929e-10
-3.0135e-08
6.50421e-10
-3.07246e-08
5.89597e-10
-3.12513e-08
5.26671e-10
-3.17132e-08
4.61851e-10
-3.21085e-08
3.95358e-10
-3.24359e-08
3.27415e-10
-3.26942e-08
2.58239e-10
-3.28822e-08
1.88053e-10
-3.29993e-08
1.17083e-10
-3.30448e-08
4.55491e-11
-3.30185e-08
-2.63105e-11
-3.29203e-08
-9.82526e-11
-3.27502e-08
-1.70041e-10
-3.25088e-08
-2.41434e-10
-3.21966e-08
-3.12183e-10
-3.18146e-08
-3.82039e-10
-3.13638e-08
-4.50749e-10
-3.08458e-08
-5.18057e-10
-3.02621e-08
-5.83704e-10
-2.96147e-08
-6.4742e-10
-2.89057e-08
-7.08944e-10
-2.81377e-08
-7.68014e-10
-2.73133e-08
-8.24358e-10
-2.64356e-08
-8.77708e-10
-2.55078e-08
-9.27805e-10
-2.45334e-08
-9.74382e-10
-2.35163e-08
-1.01716e-09
-2.24604e-08
-1.0559e-09
-2.137e-08
-1.09033e-09
-2.02498e-08
-1.12022e-09
-1.91045e-08
-1.1453e-09
-1.79392e-08
-1.16535e-09
-1.6759e-08
-1.18013e-09
-1.55696e-08
-1.18944e-09
-1.43765e-08
-1.19306e-09
-1.31857e-08
-1.1908e-09
-1.20032e-08
-1.18249e-09
-1.08353e-08
-1.16796e-09
-9.68822e-09
-1.14707e-09
-8.56853e-09
-1.11968e-09
-7.4828e-09
-1.08573e-09
-6.43766e-09
-1.04514e-09
-5.43979e-09
-9.97869e-10
-4.49588e-09
-9.43911e-10
-3.61255e-09
-8.83322e-10
-2.79635e-09
-8.16204e-10
-2.05363e-09
-7.42723e-10
-1.39048e-09
-6.63136e-10
-8.12644e-10
-5.7783e-10
-3.25294e-10
-4.8735e-10
6.71698e-11
-3.92467e-10
3.61455e-10
-2.94283e-10
5.55856e-10
-1.94394e-10
6.51026e-10
-9.51669e-11
6.51248e-10
-2.22243e-13
5.66318e-10
8.49323e-11
4.1478e-10
1.51544e-10
2.29139e-10
1.85643e-10
6.48888e-11
1.64245e-10
6.48894e-11
1.63831e-10
-2.31665e-10
4.4832e-10
-4.48009e-10
7.18825e-10
-4.49451e-10
8.78494e-10
-2.98928e-10
8.59945e-10
-4.95405e-11
6.20131e-10
2.60315e-10
1.34053e-10
6.03821e-10
-6.10282e-10
9.62466e-10
-1.61572e-09
1.32356e-09
-2.87856e-09
1.67835e-09
-4.39056e-09
2.02076e-09
-6.14021e-09
2.34656e-09
-8.1137e-09
2.65281e-09
-1.02956e-08
2.93751e-09
-1.26694e-08
3.19928e-09
-1.5218e-08
3.43727e-09
-1.79236e-08
3.65098e-09
-2.07684e-08
3.84021e-09
-2.37345e-08
4.00495e-09
-2.6804e-08
4.14539e-09
-2.99594e-08
4.26182e-09
-3.31833e-08
4.35464e-09
-3.64587e-08
4.42436e-09
-3.97689e-08
4.47151e-09
-4.30978e-08
4.49672e-09
-4.64295e-08
4.50063e-09
-4.9749e-08
4.48393e-09
-5.30415e-08
4.44731e-09
-5.62926e-08
4.3915e-09
-5.9489e-08
4.31726e-09
-6.26173e-08
4.22534e-09
-6.56651e-08
4.11651e-09
-6.86205e-08
3.99154e-09
-7.1472e-08
3.8512e-09
-7.42088e-08
3.69629e-09
-7.68208e-08
3.52761e-09
-7.92982e-08
3.34594e-09
-8.16321e-08
3.15208e-09
-8.38141e-08
2.94684e-09
-8.58362e-08
2.73103e-09
-8.76912e-08
2.50545e-09
-8.93725e-08
2.27091e-09
-9.08741e-08
2.02825e-09
-9.21905e-08
1.77829e-09
-9.3317e-08
1.52187e-09
-9.42495e-08
1.25984e-09
-9.49843e-08
9.93067e-10
-9.55187e-08
7.22408e-10
-9.58503e-08
4.48751e-10
-9.59778e-08
1.72987e-10
-9.59001e-08
-1.03987e-10
-9.56171e-08
-3.8125e-10
-9.51292e-08
-6.57873e-10
-9.44378e-08
-9.32917e-10
-9.35445e-08
-1.20542e-09
-9.24522e-08
-1.47441e-09
-9.1164e-08
-1.73891e-09
-8.96841e-08
-1.99792e-09
-8.80174e-08
-2.25045e-09
-8.61693e-08
-2.4955e-09
-8.41462e-08
-2.73203e-09
-8.19552e-08
-2.95903e-09
-7.96041e-08
-3.17547e-09
-7.71014e-08
-3.38035e-09
-7.44566e-08
-3.57263e-09
-7.16797e-08
-3.75129e-09
-6.87815e-08
-3.91536e-09
-6.57736e-08
-4.06384e-09
-6.26681e-08
-4.19575e-09
-5.94782e-08
-4.31015e-09
-5.62174e-08
-4.40613e-09
-5.28999e-08
-4.4828e-09
-4.95408e-08
-4.53931e-09
-4.61554e-08
-4.57485e-09
-4.27597e-08
-4.58867e-09
-3.93705e-08
-4.58008e-09
-3.60046e-08
-4.54842e-09
-3.26794e-08
-4.49313e-09
-2.94127e-08
-4.41374e-09
-2.62226e-08
-4.30985e-09
-2.31271e-08
-4.18118e-09
-2.01447e-08
-4.02757e-09
-1.72936e-08
-3.84898e-09
-1.45919e-08
-3.64557e-09
-1.20576e-08
-3.41767e-09
-9.70791e-09
-3.16585e-09
-7.55961e-09
-2.89101e-09
-5.6283e-09
-2.59444e-09
-3.92823e-09
-2.2779e-09
-2.47172e-09
-1.94387e-09
-1.26849e-09
-1.5957e-09
-3.24722e-10
-1.23804e-09
3.58246e-10
-8.77365e-10
7.85792e-10
-5.22716e-10
9.72565e-10
-1.86984e-10
9.46156e-10
1.11353e-10
7.51893e-10
3.45805e-10
4.58749e-10
4.78783e-10
1.64132e-10
4.58863e-10
2.29021e-10
1.79969e-10
-4.11626e-10
4.51784e-10
-7.19823e-10
6.50436e-10
-6.48111e-10
6.59359e-10
-3.07842e-10
3.93974e-10
2.15844e-10
-2.03324e-10
8.57615e-10
-1.16844e-09
1.56894e-09
-2.52049e-09
2.3145e-09
-4.26585e-09
3.0689e-09
-6.4013e-09
3.81379e-09
-8.91648e-09
4.53595e-09
-1.17958e-08
5.22585e-09
-1.50196e-08
5.87665e-09
-1.85656e-08
6.48348e-09
-2.24092e-08
7.04297e-09
-2.65248e-08
7.55283e-09
-3.08854e-08
8.01162e-09
-3.54638e-08
8.41857e-09
-4.02322e-08
8.77341e-09
-4.51631e-08
9.07629e-09
-5.0229e-08
9.32765e-09
-5.54026e-08
9.52822e-09
-6.06571e-08
9.6789e-09
-6.59664e-08
9.78079e-09
-7.13048e-08
9.83511e-09
-7.66473e-08
9.84317e-09
-8.19698e-08
9.80637e-09
-8.72487e-08
9.72621e-09
-9.24613e-08
9.60421e-09
-9.7586e-08
9.44195e-09
-1.02602e-07
9.24106e-09
-1.07488e-07
9.00318e-09
-1.12227e-07
8.72999e-09
-1.16799e-07
8.42318e-09
-1.21187e-07
8.08444e-09
-1.25375e-07
7.7155e-09
-1.29347e-07
7.3181e-09
-1.33089e-07
6.89399e-09
-1.36587e-07
6.44492e-09
-1.39829e-07
5.97265e-09
-1.42802e-07
5.47898e-09
-1.45497e-07
4.96569e-09
-1.47903e-07
4.43459e-09
-1.50013e-07
3.88752e-09
-1.51817e-07
3.32632e-09
-1.5331e-07
2.75286e-09
-1.54486e-07
2.16903e-09
-1.5534e-07
1.57673e-09
-1.55869e-07
9.77897e-10
-1.56071e-07
3.74511e-10
-1.55943e-07
-2.31451e-10
-1.55487e-07
-8.37972e-10
-1.54702e-07
-1.44301e-09
-1.5359e-07
-2.0445e-09
-1.52155e-07
-2.64034e-09
-1.50401e-07
-3.2284e-09
-1.48334e-07
-3.80653e-09
-1.45959e-07
-4.37258e-09
-1.43285e-07
-4.92435e-09
-1.40321e-07
-5.45963e-09
-1.37077e-07
-5.97621e-09
-1.33564e-07
-6.47187e-09
-1.29795e-07
-6.94438e-09
-1.25784e-07
-7.39151e-09
-1.21545e-07
-7.81108e-09
-1.17096e-07
-8.20087e-09
-1.12452e-07
-8.55871e-09
-1.07634e-07
-8.88248e-09
-1.02659e-07
-9.17011e-09
-9.75499e-08
-9.41954e-09
-9.23273e-08
-9.62881e-09
-8.7014e-08
-9.79602e-09
-8.1634e-08
-9.91938e-09
-7.62116e-08
-9.99718e-09
-7.07725e-08
-1.00278e-08
-6.53427e-08
-1.00098e-08
-5.99492e-08
-9.94194e-09
-5.46194e-08
-9.82297e-09
-4.93812e-08
-9.65198e-09
-4.42628e-08
-9.42823e-09
-3.92927e-08
-9.15124e-09
-3.44995e-08
-8.8208e-09
-2.99114e-08
-8.43705e-09
-2.55565e-08
-8.00048e-09
-2.14621e-08
-7.51209e-09
-1.76545e-08
-6.97342e-09
-1.41588e-08
-6.38675e-09
-1.0998e-08
-5.75519e-09
-8.1929e-09
-5.08303e-09
-5.76076e-09
-4.37601e-09
-3.71462e-09
-3.64184e-09
-2.06181e-09
-2.89086e-09
-8.02188e-10
-2.13699e-09
7.42107e-11
-1.39911e-09
5.9016e-10
-7.02928e-10
7.85062e-10
-8.35576e-11
7.19592e-10
4.11261e-10
4.80636e-10
7.17742e-10
1.8607e-10
7.53431e-10
4.15084e-10
1.41613e-10
-5.53237e-10
3.05176e-10
-8.83391e-10
3.17116e-10
-6.6004e-10
5.33636e-11
-4.40785e-11
-5.77299e-10
8.46492e-10
-1.63893e-09
1.91925e-09
-3.17305e-09
3.10305e-09
-5.20289e-09
4.34435e-09
-7.73713e-09
5.60315e-09
-1.0773e-08
6.84965e-09
-1.42988e-08
8.0617e-09
-1.82958e-08
9.22291e-09
-2.27403e-08
1.03212e-08
-2.76045e-08
1.13476e-08
-3.28575e-08
1.2296e-08
-3.84665e-08
1.31618e-08
-4.43971e-08
1.39421e-08
-5.06137e-08
1.46353e-08
-5.70806e-08
1.52403e-08
-6.37615e-08
1.57571e-08
-7.06202e-08
1.61863e-08
-7.76208e-08
1.65289e-08
-8.47279e-08
1.6786e-08
-9.19067e-08
1.69595e-08
-9.91229e-08
1.70514e-08
-1.06343e-07
1.70636e-08
-1.13536e-07
1.69986e-08
-1.20668e-07
1.68588e-08
-1.27711e-07
1.66467e-08
-1.34634e-07
1.63651e-08
-1.41409e-07
1.60166e-08
-1.4801e-07
1.56042e-08
-1.54411e-07
1.51305e-08
-1.60586e-07
1.45986e-08
-1.66513e-07
1.40114e-08
-1.7217e-07
1.33718e-08
-1.77534e-07
1.26828e-08
-1.82588e-07
1.19475e-08
-1.87312e-07
1.11688e-08
-1.91689e-07
1.035e-08
-1.95704e-07
9.49392e-09
-1.99342e-07
8.60386e-09
-2.0259e-07
7.68292e-09
-2.05437e-07
6.73429e-09
-2.07872e-07
5.76118e-09
-2.09886e-07
4.76684e-09
-2.11472e-07
3.75456e-09
-2.12623e-07
2.72766e-09
-2.13334e-07
1.68952e-09
-2.13603e-07
6.43548e-10
-2.13428e-07
-4.0679e-10
-2.12808e-07
-1.458e-09
-2.11744e-07
-2.50652e-09
-2.1024e-07
-3.54876e-09
-2.08299e-07
-4.58108e-09
-2.05928e-07
-5.5998e-09
-2.03133e-07
-6.60118e-09
-1.99924e-07
-7.58148e-09
-1.96312e-07
-8.53691e-09
-1.92308e-07
-9.46367e-09
-1.87926e-07
-1.03579e-08
-1.83182e-07
-1.12158e-08
-1.78093e-07
-1.20335e-08
-1.72677e-07
-1.28072e-08
-1.66955e-07
-1.35331e-08
-1.60949e-07
-1.42074e-08
-1.54681e-07
-1.48265e-08
-1.48177e-07
-1.53866e-08
-1.41463e-07
-1.58841e-08
-1.34567e-07
-1.63158e-08
-1.27517e-07
-1.66781e-08
-1.20346e-07
-1.69678e-08
-1.13083e-07
-1.7182e-08
-1.05762e-07
-1.73177e-08
-9.84179e-08
-1.73724e-08
-9.10842e-08
-1.73435e-08
-8.37973e-08
-1.72289e-08
-7.65934e-08
-1.70268e-08
-6.95097e-08
-1.67357e-08
-6.25833e-08
-1.63546e-08
-5.58519e-08
-1.58826e-08
-4.93529e-08
-1.53198e-08
-4.31233e-08
-1.46666e-08
-3.71996e-08
-1.39242e-08
-3.1617e-08
-1.30947e-08
-2.64095e-08
-1.21809e-08
-2.16089e-08
-1.11873e-08
-1.72443e-08
-1.01197e-08
-1.33415e-08
-8.98591e-09
-9.92137e-09
-7.7961e-09
-6.99943e-09
-6.56378e-09
-4.58365e-09
-5.30664e-09
-2.67273e-09
-4.04791e-09
-1.25367e-09
-2.81817e-09
-2.9883e-10
-1.65777e-09
2.37533e-10
-6.19929e-10
4.23358e-10
2.25436e-10
3.53159e-10
7.87953e-10
1.53651e-10
9.52938e-10
5.68728e-10
7.25235e-11
-6.25746e-10
6.21314e-11
-8.73003e-10
-1.95514e-10
-4.02403e-10
-8.21691e-10
5.82087e-10
-1.90684e-09
1.93165e-09
-3.51564e-09
3.52804e-09
-5.69085e-09
5.27826e-09
-8.45689e-09
7.1104e-09
-1.1823e-08
8.9693e-09
-1.57861e-08
1.08128e-08
-2.03331e-08
1.26087e-08
-2.54428e-08
1.43326e-08
-3.10878e-08
1.59662e-08
-3.7236e-08
1.74958e-08
-4.38513e-08
1.89113e-08
-5.08949e-08
2.02054e-08
-5.8326e-08
2.13732e-08
-6.61023e-08
2.24116e-08
-7.41806e-08
2.33186e-08
-8.25174e-08
2.40939e-08
-9.10689e-08
2.47378e-08
-9.97915e-08
2.52514e-08
-1.08642e-07
2.56365e-08
-1.17578e-07
2.58954e-08
-1.26557e-07
2.60308e-08
-1.3554e-07
2.60458e-08
-1.44485e-07
2.59436e-08
-1.53354e-07
2.5728e-08
-1.6211e-07
2.54027e-08
-1.70716e-07
2.49717e-08
-1.79139e-07
2.44389e-08
-1.87343e-07
2.38087e-08
-1.95298e-07
2.30854e-08
-2.02973e-07
2.22732e-08
-2.10338e-07
2.13767e-08
-2.17367e-07
2.04003e-08
-2.24032e-07
1.93486e-08
-2.30311e-07
1.82262e-08
-2.3618e-07
1.70376e-08
-2.41618e-07
1.57877e-08
-2.46605e-07
1.44811e-08
-2.51124e-07
1.31226e-08
-2.55158e-07
1.17169e-08
-2.58692e-07
1.02691e-08
-2.61715e-07
8.7839e-09
-2.64215e-07
7.2664e-09
-2.66182e-07
5.72158e-09
-2.67608e-07
4.15456e-09
-2.68489e-07
2.57048e-09
-2.6882e-07
9.7457e-10
-2.68599e-07
-6.27885e-10
-2.67826e-07
-2.23152e-09
-2.66501e-07
-3.83091e-09
-2.6463e-07
-5.42057e-09
-2.62216e-07
-6.99493e-09
-2.59267e-07
-8.54837e-09
-2.55793e-07
-1.00752e-08
-2.51805e-07
-1.15698e-08
-2.47316e-07
-1.30263e-08
-2.4234e-07
-1.44389e-08
-2.36896e-07
-1.58018e-08
-2.31003e-07
-1.71092e-08
-2.24681e-07
-1.83553e-08
-2.17954e-07
-1.95342e-08
-2.10847e-07
-2.06403e-08
-2.03387e-07
-2.16678e-08
-1.95602e-07
-2.26111e-08
-1.87524e-07
-2.34647e-08
-1.79185e-07
-2.42233e-08
-1.70619e-07
-2.48816e-08
-1.61862e-07
-2.54346e-08
-1.52953e-07
-2.58776e-08
-1.43929e-07
-2.62059e-08
-1.34831e-07
-2.64154e-08
-1.25701e-07
-2.65021e-08
-1.16582e-07
-2.64625e-08
-1.07518e-07
-2.62935e-08
-9.8552e-08
-2.59925e-08
-8.97303e-08
-2.55575e-08
-8.1098e-08
-2.49869e-08
-7.27005e-08
-2.42801e-08
-6.45832e-08
-2.34371e-08
-5.67907e-08
-2.24592e-08
-4.93667e-08
-2.13483e-08
-4.23533e-08
-2.0108e-08
-3.57909e-08
-1.87433e-08
-2.9717e-08
-1.72613e-08
-2.41657e-08
-1.5671e-08
-1.91668e-08
-1.39848e-08
-1.47445e-08
-1.22184e-08
-1.09162e-08
-1.03921e-08
-7.69082e-09
-8.532e-09
-5.06689e-09
-6.67182e-09
-3.03024e-09
-4.85481e-09
-1.55142e-09
-3.1366e-09
-5.8266e-10
-1.58868e-09
-5.45522e-11
-3.02665e-10
1.27817e-10
6.0559e-10
8.99258e-11
9.90826e-10
6.58652e-10
-1.33596e-11
-6.12388e-10
-2.39995e-10
-6.46362e-10
-8.24414e-10
1.82013e-10
-1.87737e-09
1.63505e-09
-3.48288e-09
3.53715e-09
-5.7017e-09
5.74686e-09
-8.57433e-09
8.15088e-09
-1.21237e-08
1.06598e-08
-1.63579e-08
1.32035e-08
-2.12723e-08
1.57272e-08
-2.68518e-08
1.81882e-08
-3.30729e-08
2.05536e-08
-3.99048e-08
2.27982e-08
-4.73115e-08
2.49025e-08
-5.52524e-08
2.68522e-08
-6.36837e-08
2.86367e-08
-7.2559e-08
3.02485e-08
-8.18302e-08
3.16827e-08
-9.14476e-08
3.29361e-08
-1.01361e-07
3.40077e-08
-1.11521e-07
3.48973e-08
-1.21876e-07
3.56063e-08
-1.32376e-07
3.61368e-08
-1.42972e-07
3.64915e-08
-1.53615e-07
3.66741e-08
-1.64258e-07
3.66886e-08
-1.74854e-07
3.65395e-08
-1.85358e-07
3.62316e-08
-1.95725e-07
3.577e-08
-2.05914e-07
3.51603e-08
-2.15883e-07
3.4408e-08
-2.25593e-07
3.35189e-08
-2.35006e-07
3.24989e-08
-2.44087e-07
3.13542e-08
-2.52802e-07
3.0091e-08
-2.61117e-07
2.87154e-08
-2.69002e-07
2.7234e-08
-2.76429e-07
2.5653e-08
-2.8337e-07
2.39791e-08
-2.89802e-07
2.22188e-08
-2.95699e-07
2.03787e-08
-3.01042e-07
1.84657e-08
-3.05812e-07
1.64864e-08
-3.0999e-07
1.44477e-08
-3.13563e-07
1.23566e-08
-3.16517e-07
1.02201e-08
-3.1884e-07
8.04523e-09
-3.20525e-07
5.83924e-09
-3.21564e-07
3.60938e-09
-3.21952e-07
1.36302e-09
-3.21688e-07
-8.92382e-10
-3.2077e-07
-3.14928e-09
-3.19201e-07
-5.40003e-09
-3.16985e-07
-7.6369e-09
-3.14128e-07
-9.85207e-09
-3.10638e-07
-1.20376e-08
-3.06528e-07
-1.41856e-08
-3.0181e-07
-1.6288e-08
-2.96499e-07
-1.83366e-08
-2.90615e-07
-2.03235e-08
-2.84176e-07
-2.22403e-08
-2.77206e-07
-2.4079e-08
-2.6973e-07
-2.58314e-08
-2.61775e-07
-2.74894e-08
-2.53371e-07
-2.9045e-08
-2.44548e-07
-3.04902e-08
-2.35342e-07
-3.18172e-08
-2.25788e-07
-3.30184e-08
-2.15925e-07
-3.40864e-08
-2.05793e-07
-3.50138e-08
-1.95434e-07
-3.57938e-08
-1.84892e-07
-3.64197e-08
-1.74212e-07
-3.68854e-08
-1.63443e-07
-3.71849e-08
-1.52632e-07
-3.7313e-08
-1.41829e-07
-3.72649e-08
-1.31086e-07
-3.70365e-08
-1.20455e-07
-3.66244e-08
-1.09986e-07
-3.60259e-08
-9.97338e-08
-3.52392e-08
-8.975e-08
-3.42639e-08
-8.00869e-08
-3.31002e-08
-7.07959e-08
-3.17502e-08
-6.1927e-08
-3.02172e-08
-5.35284e-08
-2.85066e-08
-4.56459e-08
-2.66259e-08
-3.83219e-08
-2.45852e-08
-3.1595e-08
-2.2398e-08
-2.54985e-08
-2.00813e-08
-2.00597e-08
-1.76572e-08
-1.52982e-08
-1.51536e-08
-1.12243e-08
-1.26058e-08
-7.83771e-09
-1.00584e-08
-5.12486e-09
-7.56766e-09
-3.05717e-09
-5.20429e-09
-1.5884e-09
-3.05744e-09
-6.52082e-10
-1.23898e-09
-1.58547e-10
1.12051e-10
8.68629e-12
8.23595e-10
6.67341e-10
-1.0779e-10
-5.04594e-10
-5.76142e-10
-1.78012e-10
-1.52472e-09
1.13059e-09
-3.04877e-09
3.15908e-09
-5.22163e-09
5.71002e-09
-8.09674e-09
8.62198e-09
-1.17094e-08
1.17636e-08
-1.60789e-08
1.50293e-08
-2.12103e-08
1.83348e-08
-2.70962e-08
2.16131e-08
-3.3719e-08
2.48109e-08
-4.1052e-08
2.78867e-08
-4.90615e-08
3.08076e-08
-5.77076e-08
3.35486e-08
-6.69457e-08
3.60903e-08
-7.67273e-08
3.84184e-08
-8.70012e-08
4.05224e-08
-9.77139e-08
4.23954e-08
-1.0881e-07
4.40327e-08
-1.20235e-07
4.54322e-08
-1.31931e-07
4.65934e-08
-1.43842e-07
4.75175e-08
-1.55912e-07
4.82068e-08
-1.68085e-07
4.86647e-08
-1.80307e-07
4.88957e-08
-1.92523e-07
4.89047e-08
-2.04681e-07
4.86974e-08
-2.16729e-07
4.82801e-08
-2.28619e-07
4.76593e-08
-2.403e-07
4.68422e-08
-2.51728e-07
4.5836e-08
-2.62858e-07
4.46482e-08
-2.73646e-07
4.32868e-08
-2.84051e-07
4.17597e-08
-2.94035e-07
4.00751e-08
-3.03561e-07
3.82412e-08
-3.12594e-07
3.62665e-08
-3.211e-07
3.41596e-08
-3.2905e-07
3.1929e-08
-3.36415e-07
2.95835e-08
-3.43168e-07
2.7132e-08
-3.49286e-07
2.45833e-08
-3.54746e-07
2.19467e-08
-3.59529e-07
1.9231e-08
-3.63619e-07
1.64457e-08
-3.66999e-07
1.36001e-08
-3.69657e-07
1.07036e-08
-3.71584e-07
7.76584e-09
-3.72771e-07
4.79645e-09
-3.73213e-07
1.80528e-09
-3.72908e-07
-1.19773e-09
-3.71854e-07
-4.20254e-09
-3.70055e-07
-7.19897e-09
-3.67516e-07
-1.01767e-08
-3.64242e-07
-1.31254e-08
-3.60245e-07
-1.60345e-08
-3.55538e-07
-1.88934e-08
-3.50134e-07
-2.16915e-08
-3.44053e-07
-2.44179e-08
-3.37314e-07
-2.7062e-08
-3.29942e-07
-2.9613e-08
-3.21961e-07
-3.20599e-08
-3.134e-07
-3.43921e-08
-3.04291e-07
-3.65988e-08
-2.94666e-07
-3.86694e-08
-2.84563e-07
-4.05935e-08
-2.74019e-07
-4.23607e-08
-2.63077e-07
-4.3961e-08
-2.51778e-07
-4.53846e-08
-2.4017e-07
-4.6622e-08
-2.283e-07
-4.76641e-08
-2.16217e-07
-4.85024e-08
-2.03974e-07
-4.91286e-08
-1.91624e-07
-4.95352e-08
-1.79221e-07
-4.97154e-08
-1.66823e-07
-4.96632e-08
-1.54486e-07
-4.93732e-08
-1.4227e-07
-4.88412e-08
-1.30231e-07
-4.8064e-08
-1.18431e-07
-4.70397e-08
-1.06927e-07
-4.57678e-08
-9.57778e-08
-4.42493e-08
-8.50408e-08
-4.24872e-08
-7.47715e-08
-4.04864e-08
-6.50236e-08
-3.82545e-08
-5.58476e-08
-3.58019e-08
-4.72906e-08
-3.31422e-08
-3.93952e-08
-3.02934e-08
-3.21982e-08
-2.72783e-08
-2.57299e-08
-2.41255e-08
-2.00125e-08
-2.0871e-08
-1.50588e-08
-1.75595e-08
-1.08705e-08
-1.42467e-08
-7.43686e-09
-1.10014e-08
-4.7322e-09
-7.90895e-09
-2.71473e-09
-5.07491e-09
-1.32434e-09
-2.62937e-09
-4.80781e-10
-7.31507e-10
-8.17507e-11
4.24573e-10
5.85587e-10
-2.05814e-10
-2.98785e-10
-9.29855e-10
5.46034e-10
-2.26541e-09
2.46615e-09
-4.28934e-09
5.183e-09
-7.06158e-09
8.48226e-09
-1.06257e-08
1.2186e-08
-1.50095e-08
1.61474e-08
-2.02266e-08
2.02464e-08
-2.62775e-08
2.43857e-08
-3.3151e-08
2.84866e-08
-4.0826e-08
3.24859e-08
-4.92724e-08
3.63331e-08
-5.84528e-08
3.9988e-08
-6.83237e-08
4.34195e-08
-7.88365e-08
4.66031e-08
-8.99386e-08
4.95205e-08
-1.01574e-07
5.2158e-08
-1.13685e-07
5.45061e-08
-1.26211e-07
5.65587e-08
-1.39091e-07
5.83124e-08
-1.52264e-07
5.9766e-08
-1.65667e-07
6.09205e-08
-1.79238e-07
6.17785e-08
-1.92918e-07
6.2344e-08
-2.06644e-07
6.26219e-08
-2.20358e-07
6.26185e-08
-2.34001e-07
6.23406e-08
-2.47517e-07
6.1796e-08
-2.6085e-07
6.09928e-08
-2.73948e-07
5.99397e-08
-2.86758e-07
5.8646e-08
-2.99231e-07
5.71212e-08
-3.11319e-07
5.5375e-08
-3.22977e-07
5.34176e-08
-3.34161e-07
5.12594e-08
-3.44831e-07
4.89108e-08
-3.54947e-07
4.63825e-08
-3.64472e-07
4.36854e-08
-3.73374e-07
4.08306e-08
-3.8162e-07
3.78291e-08
-3.8918e-07
3.46923e-08
-3.96028e-07
3.14315e-08
-4.0214e-07
2.80584e-08
-4.07493e-07
2.45845e-08
-4.12069e-07
2.10218e-08
-4.15851e-07
1.73822e-08
-4.18825e-07
1.36777e-08
-4.2098e-07
9.92065e-09
-4.22307e-07
6.12344e-09
-4.22801e-07
2.2986e-09
-4.22457e-07
-1.54117e-09
-4.21277e-07
-5.38302e-09
-4.19262e-07
-9.21394e-09
-4.16418e-07
-1.30208e-08
-4.12753e-07
-1.67903e-08
-4.08278e-07
-2.05091e-08
-4.03008e-07
-2.41636e-08
-3.96959e-07
-2.77402e-08
-3.90152e-07
-3.12253e-08
-3.82609e-07
-3.46051e-08
-3.74356e-07
-3.78659e-08
-3.65422e-07
-4.09939e-08
-3.55839e-07
-4.39754e-08
-3.45641e-07
-4.67969e-08
-3.34865e-07
-4.94449e-08
-3.23552e-07
-5.19062e-08
-3.11746e-07
-5.41676e-08
-2.9949e-07
-5.62164e-08
-2.86834e-07
-5.80403e-08
-2.73829e-07
-5.96274e-08
-2.60527e-07
-6.09662e-08
-2.46983e-07
-6.20459e-08
-2.33256e-07
-6.28563e-08
-2.19403e-07
-6.33881e-08
-2.05485e-07
-6.36327e-08
-1.91566e-07
-6.35827e-08
-1.77707e-07
-6.32317e-08
-1.63974e-07
-6.25745e-08
-1.50431e-07
-6.16075e-08
-1.37142e-07
-6.03285e-08
-1.24172e-07
-5.87373e-08
-1.11586e-07
-5.68357e-08
-9.94452e-08
-5.46279e-08
-8.78112e-08
-5.21205e-08
-7.67421e-08
-4.93236e-08
-6.62933e-08
-4.62507e-08
-5.65159e-08
-4.29196e-08
-4.74565e-08
-3.93529e-08
-3.91554e-08
-3.55793e-08
-3.16465e-08
-3.16345e-08
-2.4955e-08
-2.75625e-08
-1.9097e-08
-2.34175e-08
-1.40777e-08
-1.92659e-08
-9.89034e-09
-1.51888e-08
-6.51436e-09
-1.12849e-08
-3.91457e-09
-7.6747e-09
-2.0398e-09
-4.50414e-09
-8.22113e-10
-1.94919e-09
-1.76296e-10
-2.21239e-10
4.09285e-10
-3.04517e-10
5.73287e-12
-1.29051e-09
1.53203e-09
-3.02534e-09
4.201e-09
-5.56629e-09
7.72394e-09
-8.9582e-09
1.18742e-08
-1.32329e-08
1.64608e-08
-1.84093e-08
2.13238e-08
-2.44935e-08
2.63307e-08
-3.14803e-08
3.13725e-08
-3.93535e-08
3.63598e-08
-4.80875e-08
4.12199e-08
-5.76483e-08
4.58938e-08
-6.79946e-08
5.03343e-08
-7.9079e-08
5.45038e-08
-9.08488e-08
5.83729e-08
-1.03247e-07
6.1919e-08
-1.16215e-07
6.51252e-08
-1.29688e-07
6.79793e-08
-1.43602e-07
7.04732e-08
-1.57892e-07
7.26024e-08
-1.72491e-07
7.43649e-08
-1.87332e-07
7.57614e-08
-2.02348e-07
7.67946e-08
-2.17473e-07
7.74688e-08
-2.32641e-07
7.77901e-08
-2.47788e-07
7.77654e-08
-2.62851e-07
7.74031e-08
-2.77767e-07
7.67124e-08
-2.92477e-07
7.5703e-08
-3.06923e-07
7.43856e-08
-3.21048e-07
7.27712e-08
-3.34799e-07
7.08716e-08
-3.48122e-07
6.86987e-08
-3.60969e-07
6.62648e-08
-3.73293e-07
6.35827e-08
-3.85047e-07
6.06653e-08
-3.9619e-07
5.75257e-08
-4.06682e-07
5.41774e-08
-4.16486e-07
5.0634e-08
-4.25566e-07
4.69092e-08
-4.33891e-07
4.30169e-08
-4.41431e-07
3.89714e-08
-4.48159e-07
3.47869e-08
-4.54052e-07
3.04779e-08
-4.5909e-07
2.6059e-08
-4.63252e-07
2.1545e-08
-4.66526e-07
1.69509e-08
-4.68897e-07
1.2292e-08
-4.70357e-07
7.58349e-09
-4.70899e-07
2.84101e-09
-4.70521e-07
-1.91973e-09
-4.69221e-07
-6.68282e-09
-4.67003e-07
-1.14322e-08
-4.63872e-07
-1.61515e-08
-4.59838e-07
-2.08244e-08
-4.54913e-07
-2.54343e-08
-4.49112e-07
-2.99645e-08
-4.42454e-07
-3.43982e-08
-4.3496e-07
-3.87185e-08
-4.26657e-07
-4.29084e-08
-4.17572e-07
-4.6951e-08
-4.07737e-07
-5.08294e-08
-3.97185e-07
-5.45266e-08
-3.85956e-07
-5.8026e-08
-3.7409e-07
-6.1311e-08
-3.61631e-07
-6.43653e-08
-3.48626e-07
-6.71729e-08
-3.35124e-07
-6.97182e-08
-3.21178e-07
-7.19859e-08
-3.06844e-07
-7.39616e-08
-2.92179e-07
-7.56313e-08
-2.77243e-07
-7.69818e-08
-2.62099e-07
-7.80007e-08
-2.4681e-07
-7.86768e-08
-2.31443e-07
-7.89997e-08
-2.16065e-07
-7.89605e-08
-2.00745e-07
-7.85516e-08
-1.85553e-07
-7.7767e-08
-1.70558e-07
-7.66026e-08
-1.5583e-07
-7.50561e-08
-1.4144e-07
-7.31276e-08
-1.27456e-07
-7.08197e-08
-1.13946e-07
-6.8138e-08
-1.00975e-07
-6.50911e-08
-8.8607e-08
-6.16917e-08
-7.6901e-08
-5.79567e-08
-6.59125e-08
-5.3908e-08
-5.56919e-08
-4.95735e-08
-4.62836e-08
-4.49876e-08
-3.7725e-08
-4.01931e-08
-3.00454e-08
-3.52422e-08
-2.32648e-08
-3.01981e-08
-1.73932e-08
-2.51375e-08
-1.2429e-08
-2.0153e-08
-8.35836e-09
-1.53556e-08
-5.15446e-09
-1.08786e-08
-2.77686e-09
-6.88173e-09
-1.17161e-09
-3.55444e-09
-2.719e-10
-1.12095e-09
1.37383e-10
-4.02214e-10
4.07952e-10
-1.65139e-09
2.78121e-09
-3.79042e-09
6.34003e-09
-6.85689e-09
1.07904e-08
-1.08798e-08
1.58971e-08
-1.58783e-08
2.14592e-08
-2.18607e-08
2.73062e-08
-2.88249e-08
3.32949e-08
-3.67585e-08
3.93061e-08
-4.56396e-08
4.52409e-08
-5.54374e-08
5.10176e-08
-6.6113e-08
5.65695e-08
-7.7621e-08
6.18423e-08
-8.99096e-08
6.67925e-08
-1.02922e-07
7.13856e-08
-1.16598e-07
7.55948e-08
-1.30873e-07
7.93997e-08
-1.45679e-07
8.27857e-08
-1.60948e-07
8.57426e-08
-1.7661e-07
8.82644e-08
-1.92594e-07
9.03483e-08
-2.08827e-07
9.19948e-08
-2.25239e-07
9.32065e-08
-2.41758e-07
9.39883e-08
-2.58315e-07
9.43468e-08
-2.7484e-07
9.42903e-08
-2.91265e-07
9.38284e-08
-3.07525e-07
9.29717e-08
-3.23554e-07
9.17319e-08
-3.3929e-07
9.01215e-08
-3.54672e-07
8.81537e-08
-3.69643e-07
8.58422e-08
-3.84146e-07
8.32015e-08
-3.98127e-07
8.02463e-08
-4.11536e-07
7.69918e-08
-4.24324e-07
7.34534e-08
-4.36446e-07
6.96472e-08
-4.47858e-07
6.55891e-08
-4.58519e-07
6.12955e-08
-4.68393e-07
5.67831e-08
-4.77445e-07
5.20687e-08
-4.85643e-07
4.71692e-08
-4.92958e-07
4.21021e-08
-4.99365e-07
3.68848e-08
-5.04841e-07
3.15349e-08
-5.09366e-07
2.60703e-08
-5.12924e-07
2.05092e-08
-5.15502e-07
1.487e-08
-5.1709e-07
9.17107e-09
-5.1768e-07
3.43133e-09
-5.1727e-07
-2.33025e-09
-5.15858e-07
-8.09445e-09
-5.13448e-07
-1.38418e-08
-5.10047e-07
-1.95528e-08
-5.05664e-07
-2.52075e-08
-5.00312e-07
-3.07859e-08
-4.94009e-07
-3.6268e-08
-4.86774e-07
-4.16334e-08
-4.78631e-07
-4.68617e-08
-4.69606e-07
-5.19327e-08
-4.59731e-07
-5.68258e-08
-4.4904e-07
-6.15208e-08
-4.37569e-07
-6.59972e-08
-4.2536e-07
-7.02351e-08
-4.12457e-07
-7.42146e-08
-3.98906e-07
-7.7916e-08
-3.84759e-07
-8.13202e-08
-3.70068e-07
-8.44085e-08
-3.54891e-07
-8.71628e-08
-3.39287e-07
-8.95656e-08
-3.23318e-07
-9.16004e-08
-3.07049e-07
-9.32513e-08
-2.90546e-07
-9.45039e-08
-2.73878e-07
-9.53445e-08
-2.57116e-07
-9.57612e-08
-2.40333e-07
-9.57435e-08
-2.23603e-07
-9.52825e-08
-2.06998e-07
-9.43713e-08
-1.90596e-07
-9.30053e-08
-1.7447e-07
-9.11821e-08
-1.58695e-07
-8.89023e-08
-1.43345e-07
-8.61694e-08
-1.28493e-07
-8.29904e-08
-1.14208e-07
-7.9376e-08
-1.00558e-07
-7.53418e-08
-8.76067e-08
-7.0908e-08
-7.54139e-08
-6.61008e-08
-6.40341e-08
-6.09533e-08
-5.35159e-08
-5.55059e-08
-4.39008e-08
-4.98082e-08
-3.52227e-08
-4.39202e-08
-2.75067e-08
-3.79141e-08
-2.0768e-08
-3.18762e-08
-1.50117e-08
-2.59092e-08
-1.02319e-08
-2.01354e-08
-6.41115e-09
-1.46993e-08
-3.52098e-09
-9.77188e-09
-1.52227e-09
-5.55314e-09
-3.66768e-10
-2.27645e-09
-2.29383e-10
-4.97976e-10
9.05928e-10
-2.00835e-09
4.29159e-09
-4.55147e-09
8.88316e-09
-8.14583e-09
1.43848e-08
-1.28044e-08
2.05557e-08
-1.85329e-08
2.71877e-08
-2.53287e-08
3.41019e-08
-3.31803e-08
4.11465e-08
-4.20674e-08
4.81932e-08
-5.19613e-08
5.51348e-08
-6.28252e-08
6.18816e-08
-7.46154e-08
6.83596e-08
-8.72812e-08
7.45081e-08
-1.00767e-07
8.02779e-08
-1.1501e-07
8.56295e-08
-1.29948e-07
9.05321e-08
-1.4551e-07
9.49619e-08
-1.61626e-07
9.89017e-08
-1.78223e-07
1.02339e-07
-1.95225e-07
1.05267e-07
-2.12559e-07
1.07682e-07
-2.30147e-07
1.09583e-07
-2.47914e-07
1.10974e-07
-2.65785e-07
1.11859e-07
-2.83685e-07
1.12247e-07
-3.01542e-07
1.12146e-07
-3.19282e-07
1.11568e-07
-3.36835e-07
1.10525e-07
-3.54133e-07
1.0903e-07
-3.71109e-07
1.07098e-07
-3.87699e-07
1.04744e-07
-4.0384e-07
1.01984e-07
-4.19474e-07
9.88349e-08
-4.34542e-07
9.53145e-08
-4.4899e-07
9.14404e-08
-4.62768e-07
8.72307e-08
-4.75825e-07
8.27043e-08
-4.88116e-07
7.788e-08
-4.99597e-07
7.27773e-08
-5.1023e-07
6.74157e-08
-5.19976e-07
6.18151e-08
-5.28803e-07
5.59957e-08
-5.36679e-07
4.99779e-08
-5.43576e-07
4.37825e-08
-5.49472e-07
3.74303e-08
-5.54344e-07
3.09425e-08
-5.58175e-07
2.43407e-08
-5.60952e-07
1.76465e-08
-5.62663e-07
1.08819e-08
-5.633e-07
4.06909e-09
-5.62861e-07
-2.76933e-09
-5.61345e-07
-9.61067e-09
-5.58755e-07
-1.64319e-08
-5.55098e-07
-2.32098e-08
-5.50385e-07
-2.9921e-08
-5.44629e-07
-3.65418e-08
-5.37848e-07
-4.30484e-08
-5.30065e-07
-4.94168e-08
-5.21303e-07
-5.56231e-08
-5.11593e-07
-6.1643e-08
-5.00966e-07
-6.74526e-08
-4.89459e-07
-7.30278e-08
-4.77112e-07
-7.83448e-08
-4.63967e-07
-8.33797e-08
-4.50072e-07
-8.81092e-08
-4.35478e-07
-9.25103e-08
-4.20238e-07
-9.65605e-08
-4.04409e-07
-1.00238e-07
-3.88051e-07
-1.03521e-07
-3.71228e-07
-1.06389e-07
-3.54005e-07
-1.08823e-07
-3.36452e-07
-1.10805e-07
-3.18639e-07
-1.12317e-07
-3.00641e-07
-1.13343e-07
-2.82531e-07
-1.13871e-07
-2.64387e-07
-1.13888e-07
-2.46287e-07
-1.13382e-07
-2.2831e-07
-1.12348e-07
-2.10536e-07
-1.10779e-07
-1.93044e-07
-1.08674e-07
-1.75914e-07
-1.06032e-07
-1.59224e-07
-1.0286e-07
-1.43051e-07
-9.91637e-08
-1.27468e-07
-9.49581e-08
-1.1255e-07
-9.02607e-08
-9.8362e-08
-8.50954e-08
-8.497e-08
-7.94929e-08
-7.24323e-08
-7.3491e-08
-6.0802e-08
-6.71361e-08
-5.01257e-08
-6.04846e-08
-4.0442e-08
-5.36039e-08
-3.17818e-08
-4.65743e-08
-2.41668e-08
-3.94912e-08
-1.76095e-08
-3.24666e-08
-1.21125e-08
-2.56324e-08
-7.66888e-09
-1.91429e-08
-4.26268e-09
-1.31781e-08
-1.86977e-09
-7.94605e-09
-4.59884e-10
-3.68634e-09
-6.89267e-10
-5.91297e-10
1.49723e-09
-2.35897e-09
6.05924e-09
-5.30277e-09
1.1827e-08
-9.42309e-09
1.85051e-08
-1.47172e-08
2.58498e-08
-2.11772e-08
3.36477e-08
-2.87889e-08
4.17136e-08
-3.75309e-08
4.98884e-08
-4.73743e-08
5.80367e-08
-5.82831e-08
6.60436e-08
-7.02141e-08
7.38126e-08
-8.31174e-08
8.12629e-08
-9.69374e-08
8.83281e-08
-1.11613e-07
9.49535e-08
-1.27079e-07
1.01095e-07
-1.43265e-07
1.06718e-07
-1.60099e-07
1.11796e-07
-1.77505e-07
1.16308e-07
-1.95406e-07
1.20241e-07
-2.13724e-07
1.23585e-07
-2.32379e-07
1.26336e-07
-2.51291e-07
1.28495e-07
-2.7038e-07
1.30063e-07
-2.89567e-07
1.31046e-07
-3.08773e-07
1.31453e-07
-3.27921e-07
1.31294e-07
-3.46935e-07
1.30582e-07
-3.6574e-07
1.29331e-07
-3.84265e-07
1.27555e-07
-4.02439e-07
1.25271e-07
-4.20193e-07
1.22498e-07
-4.37463e-07
1.19253e-07
-4.54185e-07
1.15557e-07
-4.70299e-07
1.11428e-07
-4.85747e-07
1.06889e-07
-5.00475e-07
1.01959e-07
-5.14431e-07
9.66603e-08
-5.27567e-07
9.10154e-08
-5.39836e-07
8.50465e-08
-5.51197e-07
7.87764e-08
-5.6161e-07
7.22282e-08
-5.7104e-07
6.54255e-08
-5.79454e-07
5.83919e-08
-5.86823e-07
5.11515e-08
-5.93121e-07
4.37288e-08
-5.98327e-07
3.61484e-08
-6.02422e-07
2.84354e-08
-6.0539e-07
2.06149e-08
-6.07221e-07
1.27127e-08
-6.07906e-07
4.75449e-09
-6.07442e-07
-3.23339e-09
-6.05829e-07
-1.12245e-08
-6.03068e-07
-1.91921e-08
-5.99169e-07
-2.71091e-08
-5.94142e-07
-3.49482e-08
-5.88002e-07
-4.2682e-08
-5.80767e-07
-5.02829e-08
-5.72461e-07
-5.77228e-08