/*--------------------------------*- C++ -*----------------------------------*\
| =========                 |                                                 |
| \\      /  F ield         | OpenFOAM: The Open Source CFD Toolbox           |
|  \\    /   O peration     | Version:  2212                                  |
|   \\  /    A nd           | Website:  www.openfoam.com                      |
|    \\/     M anipulation  |                                                 |
\*---------------------------------------------------------------------------*/
FoamFile
{
    version     2.0;
    format      ascii;
    arch        "LSB;label=32;scalar=64";
    class       surfaceScalarField;
    location    "0.039";
    object      phi;
}
// * * * * * * * * * * * * * * * * * * * * * * * * * * * * * * * * * * * * * //

dimensions      [0 3 -1 0 0 0 0];

oriented        oriented;

internalField   nonuniform List<scalar> 
19800
(
6.24531e-11
-6.24909e-11
2.01662e-10
-1.39204e-10
3.44881e-10
-1.43218e-10
4.48802e-10
-1.03939e-10
4.88021e-10
-3.92305e-11
4.47844e-10
4.01846e-11
3.20824e-10
1.27016e-10
1.04456e-10
2.1638e-10
-2.00644e-10
3.05099e-10
-5.91844e-10
3.91197e-10
-1.06515e-09
4.73313e-10
-1.61578e-09
5.50625e-10
-2.2384e-09
6.22622e-10
-2.92731e-09
6.88915e-10
-3.67665e-09
7.49339e-10
-4.48041e-09
8.03775e-10
-5.33263e-09
8.52219e-10
-6.22733e-09
8.94694e-10
-7.1586e-09
9.31275e-10
-8.12064e-09
9.62049e-10
-9.10781e-09
9.87177e-10
-1.01146e-08
1.00679e-09
-1.11356e-08
1.02103e-09
-1.21657e-08
1.03009e-09
-1.31998e-08
1.03414e-09
-1.42332e-08
1.03334e-09
-1.52611e-08
1.02788e-09
-1.6279e-08
1.01796e-09
-1.72827e-08
1.00374e-09
-1.82682e-08
9.85423e-10
-1.92314e-08
9.63212e-10
-2.01687e-08
9.37279e-10
-2.10765e-08
9.07801e-10
-2.19514e-08
8.74965e-10
-2.27904e-08
8.38959e-10
-2.35904e-08
7.99965e-10
-2.43485e-08
7.58155e-10
-2.50622e-08
7.13716e-10
-2.57291e-08
6.66833e-10
-2.63468e-08
6.17687e-10
-2.69132e-08
5.6645e-10
-2.74265e-08
5.13296e-10
-2.78849e-08
4.58406e-10
-2.82869e-08
4.01961e-10
-2.8631e-08
3.44146e-10
-2.89162e-08
2.85135e-10
-2.91413e-08
2.25099e-10
-2.93055e-08
1.64237e-10
-2.94082e-08
1.02735e-10
-2.9449e-08
4.07669e-11
-2.94275e-08
-2.14749e-11
-2.93437e-08
-8.38046e-11
-2.91977e-08
-1.46031e-10
-2.89898e-08
-2.07935e-10
-2.87204e-08
-2.69311e-10
-2.83905e-08
-3.29973e-10
-2.80008e-08
-3.89719e-10
-2.75524e-08
-4.48323e-10
-2.70469e-08
-5.05568e-10
-2.64856e-08
-5.61244e-10
-2.58705e-08
-6.1513e-10
-2.52035e-08
-6.66997e-10
-2.44869e-08
-7.16627e-10
-2.37231e-08
-7.63802e-10
-2.29148e-08
-8.08284e-10
-2.2065e-08
-8.4983e-10
-2.11767e-08
-8.88221e-10
-2.02535e-08
-9.23238e-10
-1.92989e-08
-9.54646e-10
-1.83167e-08
-9.82213e-10
-1.73109e-08
-1.00573e-09
-1.62859e-08
-1.025e-09
-1.52461e-08
-1.03979e-09
-1.41963e-08
-1.04988e-09
-1.31412e-08
-1.05507e-09
-1.2086e-08
-1.05519e-09
-1.10359e-08
-1.05008e-09
-9.99637e-09
-1.03955e-09
-8.9729e-09
-1.02347e-09
-7.9712e-09
-1.00171e-09
-6.99708e-09
-9.74123e-10
-6.05646e-09
-9.40609e-10
-5.15536e-09
-9.011e-10
-4.29979e-09
-8.55568e-10
-3.49578e-09
-8.04016e-10
-2.74929e-09
-7.46487e-10
-2.06621e-09
-6.83081e-10
-1.45223e-09
-6.13978e-10
-9.12778e-10
-5.39457e-10
-4.52847e-10
-4.5993e-10
-7.68459e-11
-3.75999e-10
2.11699e-10
-2.88548e-10
4.10581e-10
-1.98887e-10
5.19587e-10
-1.09005e-10
5.41575e-10
-2.19829e-11
4.84222e-10
5.73556e-11
3.62858e-10
1.21359e-10
2.05334e-10
1.57522e-10
6.05254e-11
1.44817e-10
6.05297e-11
1.48318e-10
-2.10804e-10
3.89586e-10
-3.80483e-10
6.00042e-10
-3.5366e-10
6.99413e-10
-2.03292e-10
6.3249e-10
2.76921e-11
3.64042e-10
3.08642e-10
-1.26086e-10
6.17144e-10
-8.46993e-10
9.3728e-10
-1.79992e-09
1.25804e-09
-2.98049e-09
1.57176e-09
-4.3804e-09
1.87322e-09
-5.98857e-09
2.15881e-09
-7.79202e-09
2.42607e-09
-9.77646e-09
2.67337e-09
-1.19268e-08
2.89963e-09
-1.42272e-08
3.10423e-09
-1.66619e-08
3.28688e-09
-1.92146e-08
3.44747e-09
-2.18695e-08
3.58612e-09
-2.46105e-08
3.70312e-09
-2.74222e-08
3.79883e-09
-3.02891e-08
3.87368e-09
-3.31963e-08
3.92823e-09
-3.61293e-08
3.96304e-09
-3.90738e-08
3.9787e-09
-4.20163e-08
3.97584e-09
-4.49436e-08
3.95515e-09
-4.78429e-08
3.9173e-09
-5.07022e-08
3.86296e-09
-5.35096e-08
3.79284e-09
-5.6254e-08
3.70765e-09
-5.89248e-08
3.60809e-09
-6.15119e-08
3.49486e-09
-6.40056e-08
3.36866e-09
-6.63968e-08
3.23019e-09
-6.8677e-08
3.08017e-09
-7.08381e-08
2.91928e-09
-7.28726e-08
2.74821e-09
-7.47735e-08
2.56767e-09
-7.65342e-08
2.37837e-09
-7.81487e-08
2.18098e-09
-7.96116e-08
1.97618e-09
-8.09179e-08
1.76469e-09
-8.20631e-08
1.54719e-09
-8.30433e-08
1.32438e-09
-8.38551e-08
1.09695e-09
-8.44956e-08
8.65605e-10
-8.49625e-08
6.31063e-10
-8.52538e-08
3.94057e-10
-8.53684e-08
1.55301e-10
-8.53054e-08
-8.44787e-11
-8.50646e-08
-3.24531e-10
-8.46466e-08
-5.641e-10
-8.40521e-08
-8.02419e-10
-8.32827e-08
-1.0387e-09
-8.23405e-08
-1.27214e-09
-8.12283e-08
-1.50197e-09
-7.99493e-08
-1.72735e-09
-7.85074e-08
-1.94745e-09
-7.69072e-08
-2.16144e-09
-7.51539e-08
-2.36847e-09
-7.32532e-08
-2.56768e-09
-7.12116e-08
-2.75823e-09
-6.90362e-08
-2.93923e-09
-6.67346e-08
-3.10981e-09
-6.43154e-08
-3.2691e-09
-6.17874e-08
-3.41622e-09
-5.91603e-08
-3.55031e-09
-5.64445e-08
-3.6705e-09
-5.36507e-08
-3.77596e-09
-5.07906e-08
-3.86586e-09
-4.78762e-08
-3.93939e-09
-4.49202e-08
-3.99575e-09
-4.19359e-08
-4.03417e-09
-3.89371e-08
-4.05392e-09
-3.5938e-08
-4.05431e-09
-3.29533e-08
-4.03472e-09
-2.99983e-08
-3.99457e-09
-2.70884e-08
-3.93335e-09
-2.42396e-08
-3.85058e-09
-2.14678e-08
-3.74589e-09
-1.87894e-08
-3.61897e-09
-1.62208e-08
-3.46968e-09
-1.37784e-08
-3.29799e-09
-1.14784e-08
-3.10404e-09
-9.3367e-09
-2.8882e-09
-7.36872e-09
-2.65106e-09
-5.58915e-09
-2.39355e-09
-4.01156e-09
-2.11704e-09
-2.64805e-09
-1.82345e-09
-1.50855e-09
-1.51549e-09
-6.00114e-10
-1.19699e-09
7.43523e-11
-8.73353e-10
5.17653e-10
-5.52301e-10
7.4064e-10
-2.44968e-10
7.6553e-10
3.24593e-11
6.30419e-10
2.56468e-10
3.94827e-10
3.93122e-10
1.44746e-10
3.94899e-10
2.05276e-10
1.61218e-10
-3.7202e-10
3.86787e-10
-6.06054e-10
5.24785e-10
-4.91667e-10
4.75774e-10
-1.54285e-10
1.69686e-10
3.33775e-10
-4.40432e-10
9.18758e-10
-1.38297e-09
1.55969e-09
-2.67211e-09
2.22643e-09
-4.31118e-09
2.8971e-09
-6.29538e-09
3.55597e-09
-8.61387e-09
4.19172e-09
-1.12514e-08
4.79632e-09
-1.41894e-08
5.36406e-09
-1.7407e-08
5.89099e-09
-2.08817e-08
6.37439e-09
-2.45901e-08
6.81257e-09
-2.85077e-08
7.20452e-09
-3.26101e-08
7.54982e-09
-3.68724e-08
7.84847e-09
-4.12701e-08
8.10082e-09
-4.57787e-08
8.30748e-09
-5.03744e-08
8.46931e-09
-5.50334e-08
8.58731e-09
-5.9733e-08
8.66258e-09
-6.44506e-08
8.69634e-09
-6.91647e-08
8.68993e-09
-7.38543e-08
8.64471e-09
-7.84991e-08
8.5621e-09
-8.30797e-08
8.44354e-09
-8.75774e-08
8.29054e-09
-9.19743e-08
8.10459e-09
-9.62534e-08
7.88721e-09
-1.00398e-07
7.63991e-09
-1.04394e-07
7.36422e-09
-1.08226e-07
7.06168e-09
-1.11879e-07
6.7338e-09
-1.15342e-07
6.3821e-09
-1.18602e-07
6.00812e-09
-1.21648e-07
5.61338e-09
-1.24469e-07
5.19939e-09
-1.27055e-07
4.76767e-09
-1.29399e-07
4.31974e-09
-1.31491e-07
3.85713e-09
-1.33326e-07
3.38137e-09
-1.34895e-07
2.89399e-09
-1.36195e-07
2.3965e-09
-1.3722e-07
1.89049e-09
-1.37966e-07
1.3775e-09
-1.38431e-07
8.59123e-10
-1.38613e-07
3.36963e-10
-1.3851e-07
-1.87373e-10
-1.38122e-07
-7.12245e-10
-1.3745e-07
-1.23599e-09
-1.36496e-07
-1.75691e-09
-1.35261e-07
-2.27331e-09
-1.3375e-07
-2.78345e-09
-1.31966e-07
-3.28557e-09
-1.29916e-07
-3.77788e-09
-1.27605e-07
-4.25857e-09
-1.2504e-07
-4.72582e-09
-1.22231e-07
-5.17777e-09
-1.19186e-07
-5.61256e-09
-1.15916e-07
-6.02831e-09
-1.12432e-07
-6.42315e-09
-1.08747e-07
-6.79515e-09
-1.04873e-07
-7.14243e-09
-1.00826e-07
-7.46311e-09
-9.66215e-08
-7.75531e-09
-9.22748e-08
-8.01718e-09
-8.78038e-08
-8.24689e-09
-8.3227e-08
-8.44266e-09
-7.85637e-08
-8.60277e-09
-7.38339e-08
-8.72551e-09
-6.90588e-08
-8.80926e-09
-6.42603e-08
-8.85248e-09
-5.94608e-08
-8.85375e-09
-5.46838e-08
-8.81174e-09
-4.99531e-08
-8.72525e-09
-4.52932e-08
-8.59325e-09
-4.0729e-08
-8.41484e-09
-3.62855e-08
-8.18932e-09
-3.19883e-08
-7.91621e-09
-2.78626e-08
-7.59534e-09
-2.39338e-08
-7.22684e-09
-2.02266e-08
-6.81124e-09
-1.67652e-08
-6.34955e-09
-1.35729e-08
-5.84339e-09
-1.06713e-08
-5.29512e-09
-8.08032e-09
-4.70805e-09
-5.81698e-09
-4.08679e-09
-3.89485e-09
-3.43762e-09
-2.32269e-09
-2.76915e-09
-1.10288e-09
-2.09316e-09
-2.29346e-10
-1.42583e-09
3.152e-10
-7.89512e-10
5.62757e-10
-2.15094e-10
5.64404e-10
2.54831e-10
3.9498e-10
5.62553e-10
1.57991e-10
6.31884e-10
3.63273e-10
1.21212e-10
-4.93243e-10
2.42142e-10
-7.26974e-10
2.0481e-10
-4.54332e-10
-9.82145e-11
1.48743e-10
-7.43435e-10
9.79011e-10
-1.7832e-09
1.95851e-09
-3.2502e-09
3.0267e-09
-5.16152e-09
4.13775e-09
-7.52181e-09
5.25739e-09
-1.0326e-08
6.36015e-09
-1.35615e-08
7.42722e-09
-1.72099e-08
8.44474e-09
-2.12485e-08
9.40267e-09
-2.56513e-08
1.02938e-08
-3.03899e-08
1.1113e-08
-3.54342e-08
1.18569e-08
-4.07532e-08
1.25235e-08
-4.63149e-08
1.31115e-08
-5.20871e-08
1.36207e-08
-5.80376e-08
1.40514e-08
-6.41344e-08
1.44043e-08
-7.03458e-08
1.46807e-08
-7.66407e-08
1.48821e-08
-8.29884e-08
1.50103e-08
-8.93593e-08
1.50673e-08
-9.57245e-08
1.50551e-08
-1.02056e-07
1.49761e-08
-1.08326e-07
1.48325e-08
-1.1451e-07
1.4627e-08
-1.20581e-07
1.43619e-08
-1.26516e-07
1.40398e-08
-1.32292e-07
1.36633e-08
-1.37887e-07
1.3235e-08
-1.43281e-07
1.27575e-08
-1.48452e-07
1.22334e-08
-1.53384e-07
1.16654e-08
-1.58058e-07
1.10561e-08
-1.62458e-07
1.04081e-08
-1.66569e-07
9.72409e-09
-1.70376e-07
9.00669e-09
-1.73867e-07
8.25852e-09
-1.77029e-07
7.48224e-09
-1.79853e-07
6.68048e-09
-1.82327e-07
5.85591e-09
-1.84444e-07
5.01119e-09
-1.86197e-07
4.149e-09
-1.87578e-07
3.27205e-09
-1.88584e-07
2.38305e-09
-1.8921e-07
1.48477e-09
-1.89453e-07
5.79985e-10
-1.89311e-07
-3.28498e-10
-1.88786e-07
-1.23783e-09
-1.87877e-07
-2.1451e-09
-1.86586e-07
-3.04739e-09
-1.84918e-07
-3.94174e-09
-1.82876e-07
-4.82513e-09
-1.80467e-07
-5.69451e-09
-1.77698e-07
-6.54679e-09
-1.74578e-07
-7.37883e-09
-1.71116e-07
-8.18747e-09
-1.67325e-07
-8.96951e-09
-1.63216e-07
-9.72174e-09
-1.58803e-07
-1.04409e-08
-1.54102e-07
-1.11238e-08
-1.4913e-07
-1.1767e-08
-1.43905e-07
-1.23675e-08
-1.38447e-07
-1.29219e-08
-1.32775e-07
-1.3427e-08
-1.26912e-07
-1.38797e-08
-1.20883e-07
-1.42768e-08
-1.1471e-07
-1.46153e-08
-1.0842e-07
-1.48922e-08
-1.02041e-07
-1.51047e-08
-9.56004e-08
-1.52502e-08
-8.9127e-08
-1.53259e-08
-8.26513e-08
-1.53295e-08
-7.62042e-08
-1.52588e-08
-6.98175e-08
-1.51119e-08
-6.35236e-08
-1.48871e-08
-5.73554e-08
-1.45831e-08
-5.1346e-08
-1.41987e-08
-4.55287e-08
-1.37335e-08
-3.99367e-08
-1.31873e-08
-3.46029e-08
-1.25606e-08
-2.95594e-08
-1.18547e-08
-2.48373e-08
-1.10717e-08
-2.04661e-08
-1.02146e-08
-1.64733e-08
-9.28796e-09
-1.28834e-08
-8.29793e-09
-9.71741e-09
-7.25278e-09
-6.99139e-09
-6.16364e-09
-4.71523e-09
-5.04531e-09
-2.89084e-09
-3.91755e-09
-1.50998e-09
-2.80669e-09
-5.51579e-10
-1.74791e-09
2.147e-11
-7.88143e-10
2.66203e-10
1.01014e-11
2.63435e-10
5.65318e-10
1.23393e-10
7.71929e-10
4.86673e-10
5.35101e-11
-5.46757e-10
1.04035e-11
-6.83879e-10
-2.76113e-10
-1.6782e-10
-9.11288e-10
7.83933e-10
-1.97141e-09
2.03912e-09
-3.5094e-09
3.4965e-09
-5.55891e-09
5.07621e-09
-8.13769e-09
6.71653e-09
-1.12505e-08
8.37017e-09
-1.48914e-08
1.00011e-08
-1.90463e-08
1.15821e-08
-2.36941e-08
1.30926e-08
-2.88087e-08
1.45173e-08
-3.43599e-08
1.58449e-08
-4.03144e-08
1.70675e-08
-4.66368e-08
1.81793e-08
-5.32901e-08
1.91767e-08
-6.02361e-08
2.00576e-08
-6.74364e-08
2.0821e-08
-7.4852e-08
2.1467e-08
-8.24442e-08
2.19965e-08
-9.01745e-08
2.2411e-08
-9.8005e-08
2.27126e-08
-1.05898e-07
2.29037e-08
-1.13818e-07
2.29872e-08
-1.21729e-07
2.2966e-08
-1.29597e-07
2.28436e-08
-1.37388e-07
2.26233e-08
-1.45069e-07
2.23088e-08
-1.52611e-07
2.19038e-08
-1.59984e-07
2.1412e-08
-1.67158e-07
2.08375e-08
-1.74107e-07
2.0184e-08
-1.80805e-07
1.94556e-08
-1.87228e-07
1.86562e-08
-1.93352e-07
1.77897e-08
-1.99156e-07
1.68603e-08
-2.0462e-07
1.58718e-08
-2.09724e-07
1.48284e-08
-2.14452e-07
1.3734e-08
-2.18786e-07
1.25926e-08
-2.22712e-07
1.14084e-08
-2.26217e-07
1.01853e-08
-2.29288e-07
8.92734e-09
-2.31916e-07
7.63869e-09
-2.3409e-07
6.32342e-09
-2.35804e-07
4.98567e-09
-2.3705e-07
3.62962e-09
-2.37825e-07
2.25948e-09
-2.38124e-07
8.79489e-10
-2.37947e-07
-5.06038e-10
-2.37292e-07
-1.89274e-09
-2.36161e-07
-3.27619e-09
-2.34556e-07
-4.65193e-09
-2.32483e-07
-6.01541e-09
-2.29946e-07
-7.36205e-09
-2.26953e-07
-8.68719e-09
-2.23514e-07
-9.98611e-09
-2.19639e-07
-1.1254e-08
-2.1534e-07
-1.24862e-08
-2.10632e-07
-1.36777e-08
-2.0553e-07
-1.48236e-08
-2.00052e-07
-1.5919e-08
-1.94216e-07
-1.69591e-08
-1.88045e-07
-1.79388e-08
-1.81559e-07
-1.88532e-08
-1.74783e-07
-1.96975e-08
-1.67744e-07
-2.04667e-08
-1.60467e-07
-2.11562e-08
-1.52983e-07
-2.17612e-08
-1.45321e-07
-2.22772e-08
-1.37513e-07
-2.26998e-08
-1.29593e-07
-2.30247e-08
-1.21596e-07
-2.32478e-08
-1.13556e-07
-2.33655e-08
-1.05511e-07
-2.33741e-08
-9.74997e-08
-2.32705e-08
-8.95597e-08
-2.30519e-08
-8.17308e-08
-2.2716e-08
-7.40531e-08
-2.22608e-08
-6.65667e-08
-2.16851e-08
-5.93119e-08
-2.09883e-08
-5.23287e-08
-2.01705e-08
-4.56566e-08
-1.92328e-08
-3.93337e-08
-1.81775e-08
-3.33972e-08
-1.70082e-08
-2.78818e-08
-1.573e-08
-2.28197e-08
-1.43501e-08
-1.82394e-08
-1.28782e-08
-1.4165e-08
-1.13272e-08
-1.06147e-08
-9.71393e-09
-7.59957e-09
-8.06039e-09
-5.12181e-09
-6.3953e-09
-3.17249e-09
-4.75601e-09
-1.72931e-09
-3.1911e-09
-7.53791e-10
-1.76366e-09
-1.88288e-10
-5.55403e-10
4.7771e-11
3.29256e-10
6.20432e-11
7.57666e-10
5.48714e-10
-2.76338e-11
-5.19113e-10
-2.71066e-10
-4.40443e-10
-8.56397e-10
4.17506e-10
-1.87908e-09
1.80661e-09
-3.40972e-09
3.56978e-09
-5.49793e-09
5.5847e-09
-8.17529e-09
7.75357e-09
-1.14581e-08
9.99936e-09
-1.53498e-08
1.22619e-08
-1.98431e-08
1.44944e-08
-2.49216e-08
1.66606e-08
-3.05619e-08
1.87329e-08
-3.67347e-08
2.06901e-08
-4.34061e-08
2.25164e-08
-5.05388e-08
2.42002e-08
-5.80926e-08
2.57331e-08
-6.60256e-08
2.71097e-08
-7.42942e-08
2.83262e-08
-8.28542e-08
2.9381e-08
-9.16612e-08
3.02739e-08
-1.0067e-07
3.10055e-08
-1.09837e-07
3.15777e-08
-1.19117e-07
3.1993e-08
-1.28468e-07
3.22545e-08
-1.37847e-07
3.2366e-08
-1.47212e-07
3.23314e-08
-1.56524e-07
3.21553e-08
-1.65743e-07
3.18423e-08
-1.74831e-07
3.13974e-08
-1.83753e-07
3.08256e-08
-1.92473e-07
3.01322e-08
-2.00959e-07
2.93226e-08
-2.09177e-07
2.84022e-08
-2.17098e-07
2.73765e-08
-2.24693e-07
2.62509e-08
-2.31934e-07
2.50312e-08
-2.38797e-07
2.37228e-08
-2.45256e-07
2.23315e-08
-2.51291e-07
2.08628e-08
-2.56879e-07
1.93223e-08
-2.62002e-07
1.77158e-08
-2.66643e-07
1.6049e-08
-2.70785e-07
1.43275e-08
-2.74415e-07
1.2557e-08
-2.77519e-07
1.07433e-08
-2.80088e-07
8.89226e-09
-2.82112e-07
7.00963e-09
-2.83584e-07
5.10132e-09
-2.84498e-07
3.17327e-09
-2.84849e-07
1.23148e-09
-2.84638e-07
-7.1798e-10
-2.83861e-07
-2.66895e-09
-2.82522e-07
-4.61522e-09
-2.80624e-07
-6.55049e-09
-2.78171e-07
-8.46838e-09
-2.7517e-07
-1.03624e-08
-2.71632e-07
-1.2226e-08
-2.67565e-07
-1.40527e-08
-2.62984e-07
-1.58356e-08
-2.57902e-07
-1.7568e-08
-2.52336e-07
-1.92431e-08
-2.46306e-07
-2.08541e-08
-2.39831e-07
-2.23941e-08
-2.32934e-07
-2.38561e-08
-2.25639e-07
-2.52333e-08
-2.17974e-07
-2.65188e-08
-2.09965e-07
-2.77057e-08
-2.01645e-07
-2.87874e-08
-1.93044e-07
-2.97572e-08
-1.84196e-07
-3.06086e-08
-1.75138e-07
-3.13354e-08
-1.65907e-07
-3.19313e-08
-1.56541e-07
-3.23906e-08
-1.47081e-07
-3.27077e-08
-1.37569e-07
-3.28775e-08
-1.28048e-07
-3.28952e-08
-1.18562e-07
-3.27565e-08
-1.09156e-07
-3.24578e-08
-9.98762e-08
-3.19959e-08
-9.07685e-08
-3.13684e-08
-8.18796e-08
-3.0574e-08
-7.32559e-08
-2.96121e-08
-6.49431e-08
-2.84832e-08
-5.69866e-08
-2.71894e-08
-4.943e-08
-2.57341e-08
-4.23154e-08
-2.41228e-08
-3.56821e-08
-2.23633e-08
-2.95664e-08
-2.04658e-08
-2.40003e-08
-1.84444e-08
-1.90106e-08
-1.63169e-08
-1.4618e-08
-1.41066e-08
-1.0835e-08
-1.18434e-08
-7.66495e-09
-9.56533e-09
-5.09993e-09
-7.32104e-09
-3.11868e-09
-5.17234e-09
-1.68451e-09
-3.19782e-09
-7.42873e-10
-1.49704e-09
-2.18759e-10
-1.94856e-10
-1.37316e-11
5.5264e-10
5.34976e-10
-1.14749e-10
-4.04366e-10
-5.79019e-10
2.38276e-11
-1.49437e-09
1.33284e-09
-2.94161e-09
3.25387e-09
-4.98179e-09
5.60994e-09
-7.65794e-09
8.26086e-09
-1.09971e-08
1.10928e-08
-1.50123e-08
1.40145e-08
-1.97042e-08
1.69537e-08
-2.50629e-08
1.9853e-08
-3.10695e-08
2.26673e-08
-3.7698e-08
2.53614e-08
-4.4916e-08
2.7908e-08
-5.26861e-08
3.02865e-08
-6.09673e-08
3.24813e-08
-6.97152e-08
3.44811e-08
-7.88833e-08
3.62778e-08
-8.84237e-08
3.78665e-08
-9.8287e-08
3.92443e-08
-1.08423e-07
4.04104e-08
-1.18783e-07
4.13652e-08
-1.29316e-07
4.21108e-08
-1.39974e-07
4.26502e-08
-1.50706e-07
4.29871e-08
-1.61466e-07
4.3126e-08
-1.72207e-07
4.30723e-08
-1.82883e-07
4.28314e-08
-1.9345e-07
4.24095e-08
-2.03866e-07
4.18129e-08
-2.14089e-07
4.10483e-08
-2.24079e-07
4.01224e-08
-2.33798e-07
3.90422e-08
-2.43211e-07
3.78149e-08
-2.52282e-07
3.64478e-08
-2.60979e-07
3.4948e-08
-2.69271e-07
3.3323e-08
-2.77129e-07
3.15802e-08
-2.84524e-07
2.9727e-08
-2.91432e-07
2.77709e-08
-2.97829e-07
2.57195e-08
-3.03694e-07
2.35801e-08
-3.09005e-07
2.13605e-08
-3.13746e-07
1.90682e-08
-3.179e-07
1.67107e-08
-3.21452e-07
1.42959e-08
-3.24391e-07
1.18313e-08
-3.26706e-07
9.32485e-09
-3.28389e-07
6.78431e-09
-3.29434e-07
4.21762e-09
-3.29835e-07
1.63276e-09
-3.29591e-07
-9.62148e-10
-3.28701e-07
-3.55893e-09
-3.27167e-07
-6.14929e-09
-3.24993e-07
-8.72486e-09
-3.22184e-07
-1.12771e-08
-3.18749e-07
-1.37975e-08
-3.14697e-07
-1.62773e-08
-3.10042e-07
-1.87077e-08
-3.04798e-07
-2.10798e-08
-2.98982e-07
-2.33846e-08
-2.92612e-07
-2.56132e-08
-2.85709e-07
-2.77564e-08
-2.78298e-07
-2.9805e-08
-2.70404e-07
-3.17501e-08
-2.62055e-07
-3.35824e-08
-2.53281e-07
-3.52929e-08
-2.44114e-07
-3.68726e-08
-2.34589e-07
-3.83127e-08
-2.24742e-07
-3.96043e-08
-2.14611e-07
-4.0739e-08
-2.04238e-07
-4.17086e-08
-1.93664e-07
-4.25049e-08
-1.82934e-07
-4.31206e-08
-1.72094e-07
-4.35483e-08
-1.6119e-07
-4.37813e-08
-1.50272e-07
-4.38137e-08
-1.39388e-07
-4.36399e-08
-1.28591e-07
-4.32553e-08
-1.1793e-07
-4.2656e-08
-1.0746e-07
-4.18393e-08
-9.72299e-08
-4.08036e-08
-8.72936e-08
-3.95484e-08
-7.77017e-08
-3.80751e-08
-6.85043e-08
-3.63867e-08
-5.97503e-08
-3.44882e-08
-5.14859e-08
-3.23873e-08
-4.37546e-08
-3.00945e-08
-3.65965e-08
-2.76239e-08
-3.00469e-08
-2.4994e-08
-2.41355e-08
-2.22283e-08
-1.88853e-08
-1.93568e-08
-1.43114e-08
-1.64173e-08
-1.04192e-08
-1.34575e-08
-7.20317e-09
-1.05371e-08
-4.6452e-09
-7.73032e-09
-2.71282e-09
-5.1302e-09
-1.35767e-09
-2.8522e-09
-5.13882e-10
-1.03864e-09
-9.66351e-11
1.35387e-10
4.38339e-10
-2.03758e-10
-2.00601e-10
-8.99025e-10
7.19091e-10
-2.16225e-09
2.59608e-09
-4.05716e-09
5.14877e-09
-6.63256e-09
8.18535e-09
-9.92266e-09
1.1551e-08
-1.39479e-08
1.5118e-08
-1.87163e-08
1.87829e-08
-2.42243e-08
2.24618e-08
-3.04587e-08
2.60874e-08
-3.73975e-08
2.96061e-08
-4.50113e-08
3.29752e-08
-5.32646e-08
3.61613e-08
-6.21167e-08
3.91386e-08
-7.15228e-08
4.18874e-08
-8.14348e-08
4.43931e-08
-9.18023e-08
4.66453e-08
-1.02573e-07
4.8637e-08
-1.13693e-07
5.03642e-08
-1.25107e-07
5.18252e-08
-1.36762e-07
5.30203e-08
-1.48603e-07
5.39516e-08
-1.60575e-07
5.46223e-08
-1.72625e-07
5.5037e-08
-1.847e-07
5.52012e-08
-1.96749e-07
5.5121e-08
-2.08721e-07
5.48034e-08
-2.20568e-07
5.42559e-08
-2.32241e-07
5.34864e-08
-2.43696e-07
5.2503e-08
-2.54888e-07
5.13144e-08
-2.65775e-07
4.99294e-08
-2.76317e-07
4.83569e-08
-2.86475e-07
4.66061e-08
-2.96213e-07
4.46861e-08
-3.05497e-07
4.26065e-08
-3.14293e-07
4.03765e-08
-3.22572e-07
3.80056e-08
-3.30304e-07
3.55034e-08
-3.37464e-07
3.28794e-08
-3.44027e-07
3.01433e-08
-3.49971e-07
2.73046e-08
-3.55276e-07
2.43731e-08
-3.59924e-07
2.13585e-08
-3.63899e-07
1.82707e-08
-3.67187e-07
1.51195e-08
-3.69777e-07
1.19148e-08
-3.71659e-07
8.6667e-09
-3.72827e-07
5.38533e-09
-3.73275e-07
2.08092e-09
-3.73001e-07
-1.23619e-09
-3.72005e-07
-4.55553e-09
-3.70287e-07
-7.86652e-09
-3.67854e-07
-1.11584e-08
-3.64711e-07
-1.44204e-08
-3.60867e-07
-1.76415e-08
-3.56333e-07
-2.08106e-08
-3.51124e-07
-2.39165e-08
-3.45256e-07
-2.69478e-08
-3.38748e-07
-2.98932e-08
-3.3162e-07
-3.2741e-08
-3.23896e-07
-3.54799e-08
-3.15603e-07
-3.80981e-08
-3.06769e-07
-4.05841e-08
-2.97426e-07
-4.29263e-08
-2.87605e-07
-4.51132e-08
-2.77345e-07
-4.71334e-08
-2.66681e-07
-4.89757e-08
-2.55657e-07
-5.06292e-08
-2.44313e-07
-5.20829e-08
-2.32695e-07
-5.33266e-08
-2.20849e-07
-5.43503e-08
-2.08826e-07
-5.51443e-08
-1.96674e-07
-5.56998e-08
-1.84447e-07
-5.60084e-08
-1.72198e-07
-5.60626e-08
-1.59982e-07
-5.58558e-08
-1.47855e-07
-5.53823e-08
-1.35874e-07
-5.46375e-08
-1.24095e-07
-5.36183e-08
-1.12575e-07
-5.23229e-08
-1.01373e-07
-5.07513e-08
-9.05422e-08
-4.89055e-08
-8.0139e-08
-4.67898e-08
-7.02161e-08
-4.44111e-08
-6.08239e-08
-4.17794e-08
-5.20099e-08
-3.89085e-08
-4.38175e-08
-3.58163e-08
-3.62855e-08
-3.2526e-08
-2.94467e-08
-2.90671e-08
-2.33271e-08
-2.54764e-08
-1.79447e-08
-2.17997e-08
-1.33082e-08
-1.8094e-08
-9.41594e-09
-1.44293e-08
-6.25444e-09
-1.08918e-08
-3.7975e-09
-7.58714e-09
-2.00514e-09
-4.64456e-09
-8.23016e-10
-2.22076e-09
-1.8229e-10
-5.05346e-10
2.56055e-10
-2.92345e-10
9.17402e-11
-1.22212e-09
1.64888e-09
-2.84183e-09
4.21578e-09
-5.19714e-09
7.50408e-09
-8.3232e-09
1.13114e-08
-1.22437e-08
1.54715e-08
-1.69711e-08
1.98454e-08
-2.25068e-08
2.43186e-08
-2.88424e-08
2.87973e-08
-3.59599e-08
3.3205e-08
-4.38336e-08
3.74798e-08
-5.24305e-08
4.1572e-08
-6.17114e-08
4.54423e-08
-7.16324e-08
4.90596e-08
-8.21448e-08
5.23999e-08
-9.31971e-08
5.54454e-08
-1.04735e-07
5.8183e-08
-1.16702e-07
6.06037e-08
-1.2904e-07
6.27022e-08
-1.4169e-07
6.44759e-08
-1.54595e-07
6.59247e-08
-1.67694e-07
6.70507e-08
-1.80929e-07
6.78574e-08
-1.94242e-07
6.83501e-08
-2.07576e-07
6.85352e-08
-2.20875e-07
6.84199e-08
-2.34084e-07
6.80126e-08
-2.4715e-07
6.73221e-08
-2.60022e-07
6.63581e-08
-2.72649e-07
6.51304e-08
-2.84985e-07
6.36496e-08
-2.96981e-07
6.19263e-08
-3.08596e-07
5.99714e-08
-3.19786e-07
5.77963e-08
-3.30512e-07
5.54121e-08
-3.40736e-07
5.28305e-08
-3.50423e-07
5.00629e-08
-3.59538e-07
4.71212e-08
-3.68052e-07
4.40169e-08
-3.75934e-07
4.0762e-08
-3.83159e-07
3.73683e-08
-3.89702e-07
3.38478e-08
-3.95542e-07
3.02124e-08
-4.00658e-07
2.64743e-08
-4.05032e-07
2.26455e-08
-4.08651e-07
1.87384e-08
-4.11502e-07
1.47652e-08
-4.13573e-07
1.07384e-08
-4.14859e-07
6.67049e-09
-4.15352e-07
2.57423e-09
-4.1505e-07
-1.53761e-09
-4.13954e-07
-5.65204e-09
-4.12064e-07
-9.75597e-09
-4.09387e-07
-1.38361e-08
-4.05928e-07
-1.78791e-08
-4.01698e-07
-2.18712e-08
-3.9671e-07
-2.57989e-08
-3.90978e-07
-2.96482e-08
-3.84521e-07
-3.34051e-08
-3.77359e-07
-3.70555e-08
-3.69515e-07
-4.05853e-08
-3.61014e-07
-4.39802e-08
-3.51887e-07
-4.72258e-08
-3.42163e-07
-5.0308e-08
-3.31877e-07
-5.32124e-08
-3.21065e-07
-5.5925e-08
-3.09766e-07
-5.84317e-08
-2.98023e-07
-6.07188e-08
-2.8588e-07
-6.27727e-08
-2.73382e-07
-6.45805e-08
-2.6058e-07
-6.61292e-08
-2.47523e-07
-6.74068e-08
-2.34266e-07
-6.84017e-08
-2.20863e-07
-6.91029e-08
-2.0737e-07
-6.95006e-08
-1.93847e-07
-6.95856e-08
-1.80353e-07
-6.93499e-08
-1.66949e-07
-6.8787e-08
-1.53695e-07
-6.78915e-08
-1.40653e-07
-6.66599e-08
-1.27886e-07
-6.50904e-08
-1.15454e-07
-6.31834e-08
-1.03417e-07
-6.09418e-08
-9.18359e-08
-5.83712e-08
-8.07664e-08
-5.54805e-08
-7.02635e-08
-5.22824e-08
-6.03781e-08
-4.87938e-08
-5.11575e-08
-4.50369e-08
-4.26437e-08
-4.10398e-08
-3.48731e-08
-3.68377e-08
-2.78751e-08
-3.24743e-08
-2.16716e-08
-2.80033e-08
-1.62754e-08
-2.34902e-08
-1.16898e-08
-1.90149e-08
-7.90747e-09
-1.46742e-08
-4.90978e-09
-1.05848e-08
-2.66672e-09
-6.88761e-09
-1.13683e-09
-3.75066e-09
-2.68121e-10
-1.37406e-09
-1.20635e-11
-3.79193e-10
4.70924e-10
-1.5429e-09
2.81259e-09
-3.52133e-09
6.19422e-09
-6.34234e-09
1.03251e-08
-1.00267e-08
1.49958e-08
-1.45868e-08
2.00316e-08
-2.00258e-08
2.52844e-08
-2.63378e-08
3.06306e-08
-3.35079e-08
3.59674e-08
-4.15133e-08
4.12103e-08
-5.03234e-08
4.62899e-08
-5.99012e-08
5.11498e-08
-7.02038e-08
5.57448e-08
-8.11831e-08
6.00389e-08
-9.27872e-08
6.4004e-08
-1.04961e-07
6.76188e-08
-1.17645e-07
7.08676e-08
-1.30781e-07
7.37393e-08
-1.44306e-07
7.62272e-08
-1.58158e-07
7.83278e-08
-1.72274e-07
8.00405e-08
-1.8659e-07
8.13673e-08
-2.01045e-07
8.23121e-08
-2.15576e-07
8.28808e-08
-2.30121e-07
8.30807e-08
-2.44621e-07
8.29202e-08
-2.59018e-07
8.24091e-08
-2.73253e-07
8.15577e-08
-2.87273e-07
8.03773e-08
-3.01022e-07
7.88798e-08
-3.1445e-07
7.70774e-08
-3.27506e-07
7.4983e-08
-3.40145e-07
7.26096e-08
-3.52319e-07
6.99707e-08
-3.63987e-07
6.70798e-08
-3.75107e-07
6.39507e-08
-3.85641e-07
6.05973e-08
-3.95554e-07
5.70336e-08
-4.04811e-07
5.32739e-08
-4.13381e-07
4.93323e-08
-4.21236e-07
4.52233e-08
-4.28349e-07
4.09611e-08
-4.34697e-07
3.65603e-08
-4.40258e-07
3.20354e-08
-4.45014e-07
2.74012e-08
-4.48948e-07
2.26725e-08
-4.52047e-07
1.7864e-08
-4.54299e-07
1.29909e-08
-4.55697e-07
8.06835e-09
-4.56235e-07
3.11165e-09
-4.55908e-07
-1.8637e-09
-4.54718e-07
-6.84205e-09
-4.52667e-07
-1.18076e-08
-4.49759e-07
-1.67442e-08
-4.46002e-07
-2.16357e-08
-4.41408e-07
-2.64658e-08
-4.35988e-07
-3.12179e-08
-4.29761e-07
-3.58753e-08
-4.22746e-07
-4.0421e-08
-4.14963e-07
-4.48381e-08
-4.06439e-07
-4.91096e-08
-3.97201e-07
-5.32181e-08
-3.8728e-07
-5.71467e-08
-3.7671e-07
-6.0878e-08
-3.65527e-07
-6.43951e-08
-3.53771e-07
-6.76809e-08
-3.41484e-07
-7.07186e-08
-3.28711e-07
-7.34918e-08
-3.155e-07
-7.59843e-08
-3.019e-07
-7.81804e-08
-2.87964e-07
-8.0065e-08
-2.73747e-07
-8.16234e-08
-2.59307e-07
-8.2842e-08
-2.44702e-07
-8.37079e-08
-2.29993e-07
-8.42093e-08
-2.15244e-07
-8.43355e-08
-2.00516e-07
-8.40772e-08
-1.85876e-07
-8.34267e-08
-1.7139e-07
-8.23781e-08
-1.57122e-07
-8.09273e-08
-1.4314e-07
-7.90727e-08
-1.29508e-07
-7.6815e-08
-1.16292e-07
-7.41582e-08
-1.03554e-07
-7.11092e-08
-9.13556e-08
-6.76791e-08
-7.97547e-08
-6.38832e-08
-6.88066e-08
-5.97419e-08
-5.8562e-08
-5.52815e-08
-4.90668e-08
-5.0535e-08
-4.03612e-08
-4.55433e-08
-3.24788e-08
-4.03567e-08
-2.54456e-08
-3.50364e-08
-1.92798e-08
-2.96561e-08
-1.39903e-08
-2.43044e-08
-9.57704e-09
-1.90875e-08
-6.03011e-09
-1.41317e-08
-3.33026e-09
-9.58746e-09
-1.44952e-09
-5.6314e-09
-3.52663e-10
-2.47092e-09
-3.64731e-10
-4.63721e-10
9.34647e-10
-1.85819e-09
4.20706e-09
-4.19347e-09
8.5295e-09
-7.48026e-09
1.36119e-08
-1.17251e-08
1.92406e-08
-1.69283e-08
2.52349e-08
-2.30834e-08
3.14394e-08
-3.0176e-08
3.77232e-08
-3.81845e-08
4.3976e-08
-4.70801e-08
5.01059e-08
-5.6827e-08
5.60368e-08
-6.73835e-08
6.17064e-08
-7.87025e-08
6.70638e-08
-9.07319e-08
7.20683e-08
-1.03416e-07
7.66881e-08
-1.16695e-07
8.08983e-08
-1.30508e-07
8.46806e-08
-1.44791e-07
8.8022e-08
-1.59478e-07
9.09142e-08
-1.74503e-07
9.33527e-08
-1.89799e-07
9.53367e-08
-2.053e-07
9.68678e-08
-2.20938e-07
9.79506e-08
-2.36649e-07
9.85913e-08
-2.52366e-07
9.87983e-08
-2.68027e-07
9.85811e-08
-2.83569e-07
9.7951e-08
-2.98931e-07
9.692e-08
-3.14055e-07
9.5501e-08
-3.28883e-07
9.37078e-08
-3.43361e-07
9.15549e-08
-3.57435e-07
8.90571e-08
-3.71055e-07
8.62298e-08
-3.84173e-07
8.30886e-08
-3.96742e-07
7.96496e-08
-4.08721e-07
7.5929e-08
-4.20067e-07
7.19431e-08
-4.30742e-07
6.77085e-08
-4.4071e-07
6.3242e-08
-4.49938e-07
5.85604e-08
-4.58395e-07
5.36805e-08
-4.66053e-07
4.86195e-08
-4.72888e-07
4.33944e-08
-4.78875e-07
3.80226e-08
-4.83995e-07
3.25215e-08
-4.88231e-07
2.69084e-08
-4.91568e-07
2.12011e-08
-4.93995e-07
1.54174e-08
-4.95501e-07
9.57523e-09
-4.96083e-07
3.69278e-09
-4.95735e-07
-2.21163e-09
-4.94457e-07
-8.11946e-09
-4.92253e-07
-1.40119e-08
-4.89127e-07
-1.98701e-08
-4.85088e-07
-2.56748e-08
-4.80147e-07
-3.14067e-08
-4.74319e-07
-3.70461e-08
-4.67621e-07
-4.25734e-08
-4.60073e-07
-4.79684e-08
-4.517e-07
-5.32113e-08
-4.42528e-07
-5.82818e-08
-4.32586e-07
-6.31596e-08
-4.21908e-07
-6.78246e-08
-4.1053e-07
-7.22563e-08
-3.9849e-07
-7.64348e-08
-3.85831e-07
-8.034e-08
-3.72598e-07
-8.39522e-08
-3.58837e-07
-8.72521e-08
-3.44601e-07
-9.02205e-08
-3.29942e-07
-9.28392e-08
-3.14917e-07
-9.50903e-08
-2.99583e-07
-9.69569e-08
-2.84003e-07
-9.84228e-08
-2.68237e-07
-9.94732e-08
-2.52352e-07
-1.00094e-07
-2.36414e-07
-1.00274e-07
-2.2049e-07
-1.00001e-07
-2.0465e-07
-9.9267e-08
-1.88963e-07
-9.80652e-08
-1.73499e-07
-9.63912e-08
-1.58328e-07
-9.42434e-08
-1.4352e-07
-9.16229e-08
-1.29144e-07
-8.85347e-08
-1.15266e-07
-8.49873e-08
-1.01951e-07
-8.09939e-08
-8.92617e-08
-7.65724e-08
-7.7257e-08
-7.17466e-08
-6.59915e-08
-6.65469e-08
-5.55153e-08
-6.10112e-08
-4.58726e-08
-5.5186e-08
-3.71016e-08
-4.91277e-08
-2.92336e-08
-4.29044e-08
-2.22924e-08
-3.65973e-08
-1.62935e-08
-3.03032e-08
-1.12448e-08
-2.41362e-08
-7.14564e-09
-1.82309e-08
-3.9881e-09
-1.2745e-08
-1.75764e-09
-7.86185e-09
-4.35156e-10
-3.7934e-09
-7.99888e-10
-5.45658e-10
1.4803e-09
-2.16634e-09
5.82774e-09
-4.854e-09
1.12172e-08
-8.60325e-09
1.73611e-08
-1.34067e-08
2.40441e-08
-1.92527e-08
3.10809e-08
-2.61244e-08
3.83111e-08
-3.39988e-08
4.55977e-08
-4.28469e-08
5.2824e-08
-5.26331e-08
5.98921e-08
-6.33161e-08
6.67198e-08
-7.48491e-08
7.32393e-08
-8.71801e-08
7.93948e-08
-1.00253e-07
8.51413e-08
-1.14008e-07
9.04429e-08
-1.28382e-07
9.5272e-08
-1.43308e-07
9.96074e-08
-1.58721e-07
1.03434e-07
-1.7455e-07
1.06743e-07
-1.90725e-07
1.09528e-07
-2.07177e-07
1.11788e-07
-2.23834e-07
1.13525e-07
-2.40627e-07
1.14744e-07
-2.57487e-07
1.15451e-07
-2.74344e-07
1.15655e-07
-2.91132e-07
1.15369e-07
-3.07784e-07
1.14604e-07
-3.24238e-07
1.13373e-07
-3.4043e-07
1.11693e-07
-3.56301e-07
1.09578e-07
-3.71791e-07
1.07046e-07
-3.86847e-07
1.04113e-07
-4.01414e-07
1.00796e-07
-4.1544e-07
9.71153e-08
-4.28879e-07
9.3088e-08
-4.41683e-07
8.8733e-08
-4.53809e-07
8.40695e-08
-4.65217e-07
7.91166e-08
-4.75869e-07
7.38938e-08
-4.85729e-07
6.84206e-08
-4.94765e-07
6.27167e-08
-5.02948e-07
5.68019e-08
-5.10249e-07
5.06962e-08
-5.16646e-07
4.44197e-08
-5.22117e-07
3.79925e-08
-5.26644e-07
3.14352e-08
-5.30211e-07
2.47682e-08
-5.32806e-07
1.80123e-08
-5.3442e-07
1.11885e-08
-5.35045e-07
4.31781e-09
-5.34678e-07
-2.57835e-09
-5.33319e-07
-9.4784e-09
-5.3097e-07
-1.63605e-08
-5.27638e-07
-2.32026e-08
-5.2333e-07
-2.99823e-08
-5.1806e-07
-3.66772e-08
-5.11842e-07
-4.32643e-08
-5.04694e-07