/*--------------------------------*- C++ -*----------------------------------*\
| =========                 |                                                 |
| \\      /  F ield         | OpenFOAM: The Open Source CFD Toolbox           |
|  \\    /   O peration     | Version:  2212                                  |
|   \\  /    A nd           | Website:  www.openfoam.com                      |
|    \\/     M anipulation  |                                                 |
\*---------------------------------------------------------------------------*/
FoamFile
{
    version     2.0;
    format      ascii;
    arch        "LSB;label=32;scalar=64";
    class       volVectorField;
    location    "0.039";
    object      U;
}
// * * * * * * * * * * * * * * * * * * * * * * * * * * * * * * * * * * * * * //

dimensions      [0 1 -1 0 0 0 0];

internalField   nonuniform List<vector> 
10000
(
(2.81136e-06 -2.67813e-06 0)
(1.2834e-05 -6.14653e-06 0)
(2.77188e-05 -6.69332e-06 0)
(4.08598e-05 -5.55105e-06 0)
(4.84607e-05 -3.45822e-06 0)
(4.8671e-05 -8.38682e-07 0)
(4.04377e-05 2.01082e-06 0)
(2.33059e-05 4.91975e-06 0)
(-2.78612e-06 7.77007e-06 0)
(-3.76678e-05 1.04992e-05 0)
(-8.09824e-05 1.30754e-05 0)
(-0.000132288 1.5476e-05 0)
(-0.000191077 1.76935e-05 0)
(-0.000256784 1.97236e-05 0)
(-0.000328831 2.15607e-05 0)
(-0.000406628 2.32054e-05 0)
(-0.000489566 2.46622e-05 0)
(-0.000577051 2.59325e-05 0)
(-0.000668489 2.70172e-05 0)
(-0.00076329 2.79271e-05 0)
(-0.000860883 2.86689e-05 0)
(-0.000960711 2.92461e-05 0)
(-0.00106223 2.96646e-05 0)
(-0.00116491 2.9931e-05 0)
(-0.00126824 3.00487e-05 0)
(-0.00137173 3.00226e-05 0)
(-0.0014749 2.98593e-05 0)
(-0.00157729 2.95659e-05 0)
(-0.00167848 2.91477e-05 0)
(-0.00177804 2.86107e-05 0)
(-0.00187556 2.79611e-05 0)
(-0.00197067 2.72044e-05 0)
(-0.00206301 2.63457e-05 0)
(-0.00215223 2.53899e-05 0)
(-0.002238 2.43428e-05 0)
(-0.00232002 2.32101e-05 0)
(-0.00239799 2.19969e-05 0)
(-0.00247164 2.07076e-05 0)
(-0.00254073 1.93473e-05 0)
(-0.00260501 1.79224e-05 0)
(-0.00266426 1.6437e-05 0)
(-0.0027183 1.48963e-05 0)
(-0.00276692 1.33059e-05 0)
(-0.00280997 1.16706e-05 0)
(-0.00284731 9.99606e-06 0)
(-0.0028788 8.28746e-06 0)
(-0.00290434 6.54796e-06 0)
(-0.00292382 4.78358e-06 0)
(-0.00293719 3.00129e-06 0)
(-0.00294437 1.20565e-06 0)
(-0.00294534 -5.98521e-07 0)
(-0.00294007 -2.40588e-06 0)
(-0.00292857 -4.21147e-06 0)
(-0.00291087 -6.00887e-06 0)
(-0.00288699 -7.79095e-06 0)
(-0.00285701 -9.5525e-06 0)
(-0.002821 -1.12888e-05 0)
(-0.00277906 -1.29934e-05 0)
(-0.00273133 -1.46591e-05 0)
(-0.00267795 -1.62796e-05 0)
(-0.00261909 -1.7849e-05 0)
(-0.00255493 -1.93606e-05 0)
(-0.00248569 -2.08084e-05 0)
(-0.00241161 -2.2186e-05 0)
(-0.00233293 -2.34862e-05 0)
(-0.00224995 -2.4701e-05 0)
(-0.00216297 -2.5824e-05 0)
(-0.00207231 -2.68495e-05 0)
(-0.00197833 -2.77705e-05 0)
(-0.00188139 -2.85799e-05 0)
(-0.00178189 -2.92715e-05 0)
(-0.00168025 -2.98396e-05 0)
(-0.0015769 -3.02768e-05 0)
(-0.0014723 -3.05757e-05 0)
(-0.00136694 -3.07303e-05 0)
(-0.0012613 -3.07351e-05 0)
(-0.00115591 -3.05848e-05 0)
(-0.00105129 -3.02741e-05 0)
(-0.000948008 -2.97987e-05 0)
(-0.000846612 -2.9154e-05 0)
(-0.000747682 -2.83344e-05 0)
(-0.000651804 -2.73346e-05 0)
(-0.000559576 -2.61509e-05 0)
(-0.0004716 -2.47811e-05 0)
(-0.00038848 -2.32241e-05 0)
(-0.000310818 -2.14789e-05 0)
(-0.000239207 -1.95456e-05 0)
(-0.000174227 -1.74258e-05 0)
(-0.000116439 -1.51238e-05 0)
(-6.63669e-05 -1.26469e-05 0)
(-2.44881e-05 -1.00067e-05 0)
(8.79267e-06 -7.22266e-06 0)
(3.31763e-05 -4.32732e-06 0)
(4.85226e-05 -1.37741e-06 0)
(5.4936e-05 1.52849e-06 0)
(5.28998e-05 4.21869e-06 0)
(4.34689e-05 6.38985e-06 0)
(2.86775e-05 7.49105e-06 0)
(1.27395e-05 6.55989e-06 0)
(2.60765e-06 2.60754e-06 0)
(7.06001e-06 -1.30929e-05 0)
(2.66327e-05 -2.54034e-05 0)
(5.10872e-05 -2.52927e-05 0)
(6.83966e-05 -1.75949e-05 0)
(7.10861e-05 -5.13866e-06 0)
(5.49604e-05 1.01421e-05 0)
(1.73833e-05 2.6911e-05 0)
(-4.3034e-05 4.4241e-05 0)
(-0.000126764 6.15105e-05 0)
(-0.000233582 7.83216e-05 0)
(-0.000362834 9.43974e-05 0)
(-0.000513528 0.000109561 0)
(-0.000684434 0.000123706 0)
(-0.000874184 0.000136752 0)
(-0.00108129 0.000148655 0)
(-0.00130421 0.000159393 0)
(-0.00154136 0.000168959 0)
(-0.00179112 0.00017735 0)
(-0.00205189 0.000184583 0)
(-0.00232208 0.000190675 0)
(-0.00260009 0.000195651 0)
(-0.00288439 0.000199538 0)
(-0.00317346 0.000202367 0)
(-0.00346582 0.000204171 0)
(-0.00376004 0.000204981 0)
(-0.00405472 0.000204831 0)
(-0.00434853 0.00020376 0)
(-0.00464017 0.000201802 0)
(-0.00492839 0.000198992 0)
(-0.005212 0.000195369 0)
(-0.00548987 0.000190972 0)
(-0.00576088 0.000185837 0)
(-0.00602402 0.000179997 0)
(-0.00627829 0.00017349 0)
(-0.00652276 0.000166354 0)
(-0.00675653 0.000158625 0)
(-0.00697879 0.000150337 0)
(-0.00718875 0.000141527 0)
(-0.00738569 0.000132231 0)
(-0.00756892 0.000122485 0)
(-0.00773782 0.000112324 0)
(-0.00789182 0.000101782 0)
(-0.0080304 9.08951e-05 0)
(-0.00815308 7.97009e-05 0)
(-0.00825944 6.82336e-05 0)
(-0.00834912 5.65286e-05 0)
(-0.0084218 4.46216e-05 0)
(-0.00847722 3.25493e-05 0)
(-0.00851517 2.03495e-05 0)
(-0.00853548 8.05929e-06 0)
(-0.00853807 -4.28467e-06 0)
(-0.00852288 -1.66451e-05 0)
(-0.00848993 -2.89829e-05 0)
(-0.00843927 -4.12573e-05 0)
(-0.00837103 -5.3428e-05 0)
(-0.00828539 -6.54554e-05 0)
(-0.0081826 -7.72987e-05 0)
(-0.00806295 -8.89151e-05 0)
(-0.0079268 -0.000100262 0)
(-0.00777457 -0.000111296 0)
(-0.00760676 -0.000121974 0)
(-0.00742391 -0.000132251 0)
(-0.00722663 -0.000142084 0)
(-0.00701559 -0.000151427 0)
(-0.00679155 -0.000160236 0)
(-0.0065553 -0.000168463 0)
(-0.0063077 -0.000176064 0)
(-0.0060497 -0.000182995 0)
(-0.0057823 -0.000189209 0)
(-0.00550654 -0.000194664 0)
(-0.00522355 -0.000199315 0)
(-0.00493452 -0.000203122 0)
(-0.00464068 -0.000206042 0)
(-0.00434334 -0.000208032 0)
(-0.00404384 -0.000209055 0)
(-0.00374358 -0.000209073 0)
(-0.00344403 -0.000208053 0)
(-0.00314667 -0.000205964 0)
(-0.00285304 -0.000202777 0)
(-0.00256471 -0.000198467 0)
(-0.00228328 -0.000193009 0)
(-0.00201037 -0.000186384 0)
(-0.00174762 -0.000178579 0)
(-0.00149667 -0.00016959 0)
(-0.00125916 -0.000159419 0)
(-0.00103669 -0.000148078 0)
(-0.000830846 -0.000135591 0)
(-0.000643127 -0.000121997 0)
(-0.00047496 -0.000107357 0)
(-0.000327642 -9.17584e-05 0)
(-0.000202292 -7.53297e-05 0)
(-9.97816e-05 -5.8256e-05 0)
(-2.06409e-05 -4.08094e-05 0)
(3.5078e-05 -2.33943e-05 0)
(6.79972e-05 -6.62093e-06 0)
(7.96893e-05 8.58042e-06 0)
(7.29976e-05 2.0784e-05 0)
(5.25496e-05 2.77963e-05 0)
(2.63495e-05 2.63437e-05 0)
(6.55427e-06 1.273e-05 0)
(8.03659e-06 -2.94399e-05 0)
(2.81216e-05 -5.06924e-05 0)
(4.88223e-05 -4.51799e-05 0)
(5.55732e-05 -2.27761e-05 0)
(3.92384e-05 1.08644e-05 0)
(-5.67958e-06 5.16116e-05 0)
(-8.27957e-05 9.63632e-05 0)
(-0.000194172 0.000142874 0)
(-0.000340597 0.000189578 0)
(-0.000521955 0.000235349 0)
(-0.000737413 0.000279407 0)
(-0.000985622 0.00032122 0)
(-0.00126488 0.000360399 0)
(-0.0015732 0.000396695 0)
(-0.00190838 0.000429942 0)
(-0.00226812 0.000460033 0)
(-0.00265002 0.000486916 0)
(-0.00305163 0.000510574 0)
(-0.00347048 0.000531015 0)
(-0.00390408 0.000548272 0)
(-0.00435 0.000562396 0)
(-0.0048058 0.00057345 0)
(-0.00526911 0.000581509 0)
(-0.0057376 0.000586654 0)
(-0.00620901 0.000588971 0)
(-0.00668112 0.000588555 0)
(-0.00715181 0.000585501 0)
(-0.00761902 0.000579908 0)
(-0.00808077 0.000571875 0)
(-0.00853513 0.000561507 0)
(-0.0089803 0.000548906 0)
(-0.00941452 0.000534177 0)
(-0.00983612 0.000517421 0)
(-0.0102435 0.000498744 0)
(-0.0106352 0.00047825 0)
(-0.0110098 0.000456042 0)
(-0.0113659 0.000432223 0)
(-0.0117024 0.000406897 0)
(-0.0120179 0.000380167 0)
(-0.0123115 0.000352136 0)
(-0.0125821 0.000322906 0)
(-0.0128288 0.000292581 0)
(-0.0130508 0.000261261 0)
(-0.0132473 0.000229051 0)
(-0.0134177 0.000196056 0)
(-0.0135613 0.000162377 0)
(-0.0136776 0.000128117 0)
(-0.0137662 9.33855e-05 0)
(-0.0138269 5.82885e-05 0)
(-0.0138592 2.2933e-05 0)
(-0.0138632 -1.25716e-05 0)
(-0.0138387 -4.81151e-05 0)
(-0.0137857 -8.3586e-05 0)
(-0.0137043 -0.000118869 0)
(-0.0135948 -0.000153848 0)
(-0.0134574 -0.000188406 0)
(-0.0132925 -0.000222426 0)
(-0.0131006 -0.000255785 0)
(-0.0128824 -0.00028836 0)
(-0.0126384 -0.000320028 0)
(-0.0123695 -0.000350663 0)
(-0.0120766 -0.000380139 0)
(-0.0117605 -0.000408329 0)
(-0.0114226 -0.000435105 0)
(-0.0110638 -0.000460336 0)
(-0.0106855 -0.000483894 0)
(-0.0102891 -0.00050565 0)
(-0.00987612 -0.000525476 0)
(-0.00944811 -0.000543246 0)
(-0.00900679 -0.000558835 0)
(-0.00855393 -0.000572121 0)
(-0.00809144 -0.000582985 0)
(-0.00762127 -0.00059131 0)
(-0.0071455 -0.000596984 0)
(-0.00666626 -0.0005999 0)
(-0.00618579 -0.000599958 0)
(-0.00570639 -0.000597066 0)
(-0.0052304 -0.000591141 0)
(-0.00476027 -0.000582107 0)
(-0.00429844 -0.000569899 0)
(-0.00384743 -0.000554463 0)
(-0.00340977 -0.00053576 0)
(-0.002988 -0.000513771 0)
(-0.00258465 -0.000488497 0)
(-0.00220225 -0.000459966 0)
(-0.00184324 -0.000428237 0)
(-0.00151 -0.000393405 0)
(-0.00120479 -0.000355619 0)
(-0.000929711 -0.00031509 0)
(-0.000686617 -0.000272115 0)
(-0.000477072 -0.000227111 0)
(-0.000302221 -0.000180654 0)
(-0.000162666 -0.000133553 0)
(-5.82809e-05 -8.69459e-05 0)
(1.20313e-05 -4.244e-05 0)
(5.06502e-05 -2.32233e-06 0)
(6.15539e-05 3.01664e-05 0)
(5.07551e-05 5.05027e-05 0)
(2.79135e-05 5.25697e-05 0)
(7.50212e-06 2.86711e-05 0)
(6.70403e-06 -4.44322e-05 0)
(2.05199e-05 -6.99231e-05 0)
(2.75134e-05 -5.25741e-05 0)
(1.29386e-05 -7.59017e-06 0)
(-3.28945e-05 5.62213e-05 0)
(-0.000116118 0.000132275 0)
(-0.000240859 0.000215487 0)
(-0.000409508 0.000302098 0)
(-0.000623098 0.000389314 0)
(-0.000881547 0.000475109 0)
(-0.00118391 0.000558011 0)
(-0.00152862 0.000636947 0)
(-0.00191357 0.000711153 0)
(-0.00233631 0.000780097 0)
(-0.00279411 0.000843402 0)
(-0.00328401 0.000900829 0)
(-0.00380296 0.000952234 0)
(-0.00434778 0.000997551 0)
(-0.00491528 0.00103676 0)
(-0.00550221 0.00106992 0)
(-0.00610537 0.00109708 0)
(-0.00672156 0.00111835 0)
(-0.00734764 0.00113386 0)
(-0.00798052 0.00114375 0)
(-0.00861718 0.00114818 0)
(-0.00925469 0.00114732 0)
(-0.0098902 0.00114134 0)
(-0.0105209 0.00113044 0)
(-0.0111443 0.00111479 0)
(-0.0117576 0.00109459 0)
(-0.0123585 0.00107005 0)
(-0.0129447 0.00104136 0)
(-0.0135137 0.00100872 0)
(-0.0140637 0.000972324 0)
(-0.0145924 0.000932383 0)
(-0.015098 0.000889095 0)
(-0.0155787 0.000842661 0)
(-0.0160328 0.000793281 0)
(-0.0164587 0.000741157 0)
(-0.0168549 0.000686491 0)
(-0.0172202 0.000629482 0)
(-0.0175531 0.00057033 0)
(-0.0178526 0.000509239 0)
(-0.0181178 0.000446411 0)
(-0.0183476 0.000382046 0)
(-0.0185412 0.00031635 0)
(-0.0186981 0.000249526 0)
(-0.0188175 0.000181783 0)
(-0.0188992 0.000113331 0)
(-0.0189426 4.43809e-05 0)
(-0.0189478 -2.48557e-05 0)
(-0.0189144 -9.41605e-05 0)
(-0.0188426 -0.000163312 0)
(-0.0187326 -0.000232088 0)
(-0.0185846 -0.000300265 0)
(-0.0183989 -0.00036761 0)
(-0.0181762 -0.000433893 0)
(-0.0179171 -0.000498878 0)
(-0.0176224 -0.000562325 0)
(-0.0172931 -0.000623992 0)
(-0.0169301 -0.000683636 0)
(-0.0165347 -0.000741012 0)
(-0.0161083 -0.000795872 0)
(-0.0156522 -0.000847966 0)
(-0.0151682 -0.000897044 0)
(-0.0146578 -0.000942858 0)
(-0.0141232 -0.000985159 0)
(-0.0135661 -0.0010237 0)
(-0.0129888 -0.00105824 0)
(-0.0123936 -0.00108854 0)
(-0.0117829 -0.00111436 0)
(-0.0111591 -0.00113547 0)
(-0.010525 -0.00115166 0)
(-0.00988326 -0.00116272 0)
(-0.00923681 -0.00116843 0)
(-0.0085886 -0.00116862 0)
(-0.00794168 -0.00116312 0)
(-0.00729919 -0.00115177 0)
(-0.00666435 -0.00113444 0)
(-0.00604043 -0.00111101 0)
(-0.00543072 -0.0010814 0)
(-0.00483856 -0.00104555 0)
(-0.00426728 -0.00100344 0)
(-0.00372019 -0.00095511 0)
(-0.00320054 -0.00090063 0)
(-0.00271151 -0.000840146 0)
(-0.00225614 -0.000773883 0)
(-0.00183729 -0.000702167 0)
(-0.00145759 -0.000625449 0)
(-0.00111934 -0.000544351 0)
(-0.000824411 -0.000459716 0)
(-0.000574154 -0.000372686 0)
(-0.000369199 -0.000284805 0)
(-0.000209292 -0.000198169 0)
(-9.30337e-05 -0.000115628 0)
(-1.7594e-05 -4.10552e-05 0)
(2.15801e-05 2.03003e-05 0)
(3.1138e-05 6.14505e-05 0)
(2.12021e-05 7.32831e-05 0)
(6.45893e-06 4.35677e-05 0)
(4.30365e-06 -5.36697e-05 0)
(7.73717e-06 -7.50006e-05 0)
(-5.91377e-06 -3.79261e-05 0)
(-4.96798e-05 3.76476e-05 0)
(-0.000132853 0.000139847 0)
(-0.00026171 0.000259655 0)
(-0.000440458 0.000390041 0)
(-0.000671604 0.000525609 0)
(-0.000956203 0.000662287 0)
(-0.00129414 0.00079702 0)
(-0.00168438 0.000927513 0)
(-0.0021251 0.00105207 0)
(-0.00261392 0.00116943 0)
(-0.003148 0.00127871 0)
(-0.00372414 0.00137924 0)
(-0.00433888 0.0014706 0)
(-0.0049886 0.00155249 0)
(-0.00566952 0.00162478 0)
(-0.0063778 0.00168741 0)
(-0.00710956 0.00174039 0)
(-0.00786091 0.00178382 0)
(-0.00862798 0.00181783 0)
(-0.00940696 0.00184261 0)
(-0.0101941 0.00185836 0)
(-0.0109856 0.00186532 0)
(-0.011778 0.00186374 0)
(-0.0125678 0.00185392 0)
(-0.0133515 0.00183612 0)
(-0.014126 0.00181066 0)
(-0.0148879 0.00177783 0)
(-0.0156343 0.00173795 0)
(-0.0163623 0.00169135 0)
(-0.0170692 0.00163833 0)
(-0.0177521 0.00157922 0)
(-0.0184088 0.00151434 0)
(-0.0190367 0.00144403 0)
(-0.0196336 0.0013686 0)
(-0.0201975 0.00128838 0)
(-0.0207264 0.0012037 0)
(-0.0212184 0.00111488 0)
(-0.0216719 0.00102226 0)
(-0.0220852 0.000926149 0)
(-0.0224571 0.000826887 0)
(-0.0227862 0.000724799 0)
(-0.0230714 0.000620217 0)
(-0.0233117 0.000513472 0)
(-0.0235062 0.0004049 0)
(-0.0236544 0.000294841 0)
(-0.0237556 0.000183634 0)
(-0.0238093 7.16238e-05 0)
(-0.0238155 -4.08399e-05 0)
(-0.0237738 -0.000153405 0)
(-0.0236845 -0.000265712 0)
(-0.0235476 -0.000377397 0)
(-0.0233636 -0.000488093 0)
(-0.0231329 -0.000597429 0)
(-0.0228562 -0.000705026 0)
(-0.0225343 -0.000810499 0)
(-0.0221683 -0.000913463 0)
(-0.0217593 -0.00101353 0)
(-0.0213086 -0.00111029 0)
(-0.0208177 -0.00120336 0)
(-0.0202882 -0.00129234 0)
(-0.0197221 -0.00137682 0)
(-0.0191212 -0.0014564 0)
(-0.0184877 -0.00153068 0)
(-0.017824 -0.00159926 0)
(-0.0171326 -0.00166174 0)
(-0.0164161 -0.00171773 0)
(-0.0156773 -0.00176685 0)
(-0.0149192 -0.00180873 0)
(-0.0141449 -0.00184301 0)
(-0.0133577 -0.00186932 0)
(-0.0125609 -0.00188735 0)
(-0.0117582 -0.00189678 0)
(-0.010953 -0.0018973 0)
(-0.0101493 -0.00188867 0)
(-0.00935071 -0.00187065 0)
(-0.00856128 -0.00184302 0)
(-0.00778495 -0.00180564 0)
(-0.00702574 -0.00175838 0)
(-0.00628768 -0.00170118 0)
(-0.0055748 -0.00163405 0)
(-0.00489106 -0.00155705 0)
(-0.00424038 -0.00147035 0)
(-0.00362652 -0.00137422 0)
(-0.00305309 -0.00126908 0)
(-0.00252346 -0.00115548 0)
(-0.00204068 -0.0010342 0)
(-0.00160742 -0.000906284 0)
(-0.00122581 -0.000773108 0)
(-0.000897374 -0.000636495 0)
(-0.000622809 -0.000498851 0)
(-0.000401833 -0.000363349 0)
(-0.000232948 -0.000234172 0)
(-0.000113186 -0.000116829 0)
(-3.78525e-05 -1.85561e-05 0)
(-1.86817e-07 5.12884e-05 0)
(9.49676e-06 8.07105e-05 0)
(4.39081e-06 5.33161e-05 0)
(1.50215e-06 -5.52039e-05 0)
(-7.76605e-06 -6.13447e-05 0)
(-4.65262e-05 4.70325e-06 0)
(-0.000124929 0.000119432 0)
(-0.000251127 0.000268226 0)
(-0.000431064 0.000439857 0)
(-0.000668761 0.000625386 0)
(-0.000966537 0.000817854 0)
(-0.00132532 0.00101188 0)
(-0.00174487 0.00120332 0)
(-0.00222395 0.00138901 0)
(-0.00276055 0.00156654 0)
(-0.00335199 0.0017341 0)
(-0.0039951 0.00189036 0)
(-0.00468627 0.00203434 0)
(-0.00542162 0.00216534 0)
(-0.00619702 0.00228292 0)
(-0.00700819 0.0023868 0)
(-0.00785073 0.00247686 0)
(-0.00872019 0.00255308 0)
(-0.0096121 0.00261555 0)
(-0.010522 0.00266445 0)
(-0.0114454 0.00269999 0)
(-0.012378 0.00272247 0)
(-0.0133156 0.0027322 0)
(-0.0142538 0.00272954 0)
(-0.0151886 0.00271488 0)
(-0.0161161 0.00268862 0)
(-0.0170324 0.00265118 0)
(-0.0179338 0.002603 0)
(-0.0188168 0.00254453 0)
(-0.0196779 0.00247623 0)
(-0.0205138 0.00239856 0)
(-0.0213215 0.00231198 0)
(-0.022098 0.00221696 0)
(-0.0228405 0.00211399 0)
(-0.0235463 0.00200352 0)
(-0.024213 0.00188605 0)
(-0.0248382 0.00176204 0)
(-0.0254198 0.00163197 0)
(-0.0259559 0.00149632 0)
(-0.0264445 0.00135558 0)
(-0.026884 0.00121021 0)
(-0.0272729 0.00106071 0)
(-0.0276099 0.000907556 0)
(-0.0278938 0.000751242 0)
(-0.0281237 0.000592258 0)
(-0.0282986 0.000431103 0)
(-0.028418 0.000268276 0)
(-0.0284814 0.000104283 0)
(-0.0284884 -6.03637e-05 0)
(-0.028439 -0.000225144 0)
(-0.0283332 -0.000389534 0)
(-0.0281712 -0.000553 0)
(-0.0279535 -0.000715005 0)
(-0.0276806 -0.000875003 0)
(-0.0273534 -0.00103244 0)
(-0.0269728 -0.00118675 0)
(-0.0265401 -0.00133738 0)
(-0.0260565 -0.00148375 0)
(-0.0255237 -0.00162528 0)
(-0.0249434 -0.0017614 0)
(-0.0243176 -0.00189152 0)
(-0.0236484 -0.00201505 0)
(-0.0229382 -0.00213141 0)
(-0.0221895 -0.00224002 0)
(-0.0214051 -0.0023403 0)
(-0.0205879 -0.00243167 0)
(-0.019741 -0.00251357 0)
(-0.0188677 -0.00258545 0)
(-0.0179715 -0.00264678 0)
(-0.0170561 -0.00269702 0)
(-0.0161252 -0.00273568 0)
(-0.0151829 -0.00276228 0)
(-0.0142333 -0.00277639 0)
(-0.0132805 -0.00277758 0)
(-0.0123291 -0.0027655 0)
(-0.0113833 -0.00273981 0)
(-0.0104479 -0.00270025 0)
(-0.00952738 -0.00264659 0)
(-0.00862639 -0.00257871 0)
(-0.00774961 -0.00249654 0)
(-0.00690165 -0.00240011 0)
(-0.00608708 -0.00228958 0)
(-0.00531036 -0.00216523 0)
(-0.00457579 -0.00202749 0)
(-0.00388745 -0.00187699 0)
(-0.00324915 -0.00171462 0)
(-0.00266432 -0.00154153 0)
(-0.00213593 -0.00135926 0)
(-0.0016664 -0.00116979 0)
(-0.00125741 -0.000975716 0)
(-0.000909815 -0.000780364 0)
(-0.000623416 -0.000588034 0)
(-0.00039681 -0.000404259 0)
(-0.000227165 -0.000236144 0)
(-0.000109979 -9.28003e-05 0)
(-3.87955e-05 1.42411e-05 0)
(-5.04195e-06 7.04222e-05 0)
(1.84271e-06 5.5986e-05 0)
(-1.42617e-06 -4.81984e-05 0)
(-2.45626e-05 -2.63302e-05 0)
(-9.11202e-05 7.91464e-05 0)
(-0.000207715 0.000242191 0)
(-0.000380816 0.000445981 0)
(-0.000615754 0.000677293 0)
(-0.000916035 0.000925495 0)
(-0.00128359 0.00118215 0)
(-0.00171907 0.0014406 0)
(-0.00222196 0.00169562 0)
(-0.00279079 0.00194316 0)
(-0.00342328 0.00218006 0)
(-0.00411648 0.00240392 0)
(-0.00486686 0.00261291 0)
(-0.00567049 0.00280568 0)
(-0.00652307 0.00298126 0)
(-0.00742006 0.00313897 0)
(-0.0083567 0.00327839 0)
(-0.00932811 0.0033993 0)
(-0.0103293 0.00350164 0)
(-0.0113554 0.00358549 0)
(-0.0124013 0.00365103 0)
(-0.013462 0.00369854 0)
(-0.0145327 0.00372837 0)
(-0.0156085 0.00374093 0)
(-0.0166847 0.00373667 0)
(-0.0177567 0.00371611 0)
(-0.0188199 0.00367978 0)
(-0.0198701 0.00362824 0)
(-0.0209031 0.00356206 0)
(-0.0219147 0.00348186 0)
(-0.0229011 0.00338824 0)
(-0.0238586 0.00328184 0)
(-0.0247836 0.00316327 0)
(-0.0256728 0.00303318 0)
(-0.026523 0.00289221 0)
(-0.0273312 0.002741 0)
(-0.0280945 0.00258021 0)
(-0.0288103 0.00241048 0)
(-0.0294761 0.00223246 0)
(-0.0300897 0.00204682 0)
(-0.030649 0.0018542 0)
(-0.031152 0.00165526 0)
(-0.0315971 0.00145067 0)
(-0.0319827 0.0012411 0)
(-0.0323076 0.0010272 0)
(-0.0325706 0.00080966 0)
(-0.0327706 0.000589158 0)
(-0.0329072 0.000366378 0)
(-0.0329795 0.000142017 0)
(-0.0329874 -8.3225e-05 0)
(-0.0329307 -0.000308635 0)
(-0.0328094 -0.000533496 0)
(-0.0326239 -0.000757079 0)
(-0.0323745 -0.000978647 0)
(-0.0320621 -0.00119745 0)
(-0.0316875 -0.00141274 0)
(-0.0312519 -0.00162374 0)
(-0.0307565 -0.00182969 0)
(-0.030203 -0.0020298 0)
(-0.0295932 -0.00222329 0)
(-0.028929 -0.00240937 0)
(-0.0282128 -0.00258724 0)
(-0.0274468 -0.00275611 0)
(-0.026634 -0.00291518 0)
(-0.025777 -0.00306367 0)
(-0.0248791 -0.00320078 0)
(-0.0239436 -0.00332574 0)
(-0.0229741 -0.0034378 0)
(-0.0219742 -0.0035362 0)
(-0.020948 -0.00362022 0)
(-0.0198996 -0.00368916 0)
(-0.0188333 -0.00374236 0)
(-0.0177536 -0.00377918 0)
(-0.0166652 -0.00379903 0)
(-0.0155728 -0.00380137 0)
(-0.0144815 -0.00378573 0)
(-0.0133962 -0.00375167 0)
(-0.012322 -0.00369885 0)
(-0.0112641 -0.00362703 0)
(-0.0102278 -0.00353603 0)
(-0.00921824 -0.00342581 0)
(-0.00824056 -0.00329647 0)
(-0.00729987 -0.00314824 0)
(-0.00640111 -0.00298156 0)
(-0.00554907 -0.00279706 0)
(-0.00474824 -0.00259565 0)
(-0.00400284 -0.00237855 0)
(-0.00331664 -0.00214736 0)
(-0.00269292 -0.00190416 0)
(-0.00213437 -0.0016516 0)
(-0.0016429 -0.00139306 0)
(-0.00121959 -0.00113283 0)
(-0.000864458 -0.000876342 0)
(-0.000576378 -0.000630416 0)
(-0.000352871 -0.000403666 0)
(-0.0001899 -0.000206898 0)
(-8.16298e-05 -5.3548e-05 0)
(-2.10559e-05 3.97014e-05 0)
(-8.93933e-07 5.05988e-05 0)
(-4.33401e-06 -3.23094e-05 0)
(-4.18456e-05 3.14797e-05 0)
(-0.000137653 0.000187748 0)
(-0.00029454 0.000408865 0)
(-0.000517064 0.000676255 0)
(-0.00080964 0.000975085 0)
(-0.00117506 0.00129323 0)
(-0.00161469 0.0016209 0)
(-0.00212873 0.00195026 0)
(-0.0027163 0.00227506 0)
(-0.0033756 0.00259036 0)
(-0.00410404 0.00289225 0)
(-0.00489835 0.00317771 0)
(-0.00575469 0.0034444 0)
(-0.00666876 0.00369058 0)
(-0.0076359 0.00391494 0)
(-0.00865116 0.00411657 0)
(-0.00970938 0.00429488 0)
(-0.0108052 0.00444953 0)
(-0.0119333 0.00458039 0)
(-0.0130882 0.00468751 0)
(-0.0142643 0.00477109 0)
(-0.0154563 0.00483144 0)
(-0.0166588 0.00486899 0)
(-0.0178663 0.00488423 0)
(-0.0190738 0.00487773 0)
(-0.0202761 0.00485012 0)
(-0.0214682 0.00480207 0)
(-0.0226453 0.0047343 0)
(-0.0238029 0.00464754 0)
(-0.0249363 0.00454256 0)
(-0.0260413 0.00442015 0)
(-0.0271137 0.0042811 0)
(-0.0281496 0.00412624 0)
(-0.0291453 0.00395638 0)
(-0.0300973 0.00377235 0)
(-0.031002 0.003575 0)
(-0.0318565 0.00336516 0)
(-0.0326578 0.00314368 0)
(-0.033403 0.0029114 0)
(-0.0340898 0.00266918 0)
(-0.0347156 0.00241788 0)
(-0.0352786 0.00215835 0)
(-0.0357766 0.00189146 0)
(-0.0362081 0.00161807 0)
(-0.0365716 0.00133906 0)
(-0.0368658 0.00105531 0)
(-0.0370896 0.000767704 0)
(-0.0372422 0.000477146 0)
(-0.0373231 0.000184541 0)
(-0.0373319 -0.000109196 0)
(-0.0372683 -0.000403137 0)
(-0.0371325 -0.000696346 0)
(-0.0369249 -0.000987873 0)
(-0.0366458 -0.00127676 0)
(-0.0362962 -0.00156202 0)
(-0.035877 -0.00184269 0)
(-0.0353895 -0.00211776 0)
(-0.0348353 -0.00238622 0)
(-0.0342159 -0.00264708 0)
(-0.0335336 -0.0028993 0)
(-0.0327904 -0.00314185 0)
(-0.0319889 -0.00337371 0)
(-0.0311318 -0.00359385 0)
(-0.0302221 -0.00380124 0)
(-0.029263 -0.00399486 0)
(-0.028258 -0.00417369 0)
(-0.0272108 -0.00433672 0)
(-0.0261254 -0.004483 0)
(-0.0250059 -0.00461154 0)
(-0.0238566 -0.00472142 0)
(-0.0226823 -0.00481176 0)
(-0.0214876 -0.00488169 0)
(-0.0202775 -0.0049304 0)
(-0.0190573 -0.00495717 0)
(-0.0178321 -0.0049613 0)
(-0.0166075 -0.00494219 0)
(-0.015389 -0.00489932 0)
(-0.0141821 -0.00483229 0)
(-0.0129927 -0.00474078 0)
(-0.0118263 -0.00462463 0)
(-0.0106888 -0.00448382 0)
(-0.00958578 -0.00431851 0)
(-0.00852275 -0.00412906 0)
(-0.00750515 -0.00391605 0)
(-0.00653817 -0.00368038 0)
(-0.00562673 -0.00342325 0)
(-0.00477539 -0.00314625 0)
(-0.00398827 -0.00285147 0)
(-0.00326899 -0.00254155 0)
(-0.00262052 -0.00221983 0)
(-0.00204508 -0.00189051 0)
(-0.00154404 -0.00155881 0)
(-0.00111778 -0.00123124 0)
(-0.000765577 -0.000915849 0)
(-0.000485497 -0.000622612 0)
(-0.000274179 -0.000363819 0)
(-0.000126635 -0.000154501 0)
(-3.7701e-05 -1.30007e-05 0)
(-3.66177e-06 3.67067e-05 0)
(-7.16036e-06 -7.49265e-06 0)
(-5.91437e-05 0.000112684 0)
(-0.0001848 0.000331769 0)
(-0.000383094 0.000621156 0)
(-0.000656483 0.000961045 0)
(-0.00100833 0.00133531 0)
(-0.00144055 0.00173055 0)
(-0.00195381 0.00213582 0)
(-0.00254771 0.00254221 0)
(-0.00322091 0.00294252 0)
(-0.00397121 0.00333093 0)
(-0.00479564 0.00370284 0)
(-0.00569057 0.0040546 0)
(-0.00665183 0.00438335 0)
(-0.00767475 0.00468692 0)
(-0.00875431 0.00496369 0)
(-0.00988519 0.00521248 0)
(-0.0110618 0.0054325 0)
(-0.0122785 0.00562329 0)
(-0.0135294 0.00578463 0)
(-0.0148087 0.00591653 0)
(-0.0161103 0.0060192 0)
(-0.0174285 0.00609299 0)
(-0.0187573 0.00613839 0)
(-0.0200911 0.00615598 0)
(-0.0214241 0.00614644 0)
(-0.0227509 0.00611053 0)
(-0.0240659 0.00604908 0)
(-0.0253641 0.00596294 0)
(-0.0266403 0.00585302 0)
(-0.0278896 0.00572029 0)
(-0.0291073 0.0055657 0)
(-0.0302889 0.00539024 0)
(-0.0314302 0.00519495 0)
(-0.032527 0.00498082 0)
(-0.0335754 0.00474892 0)
(-0.0345718 0.00450027 0)
(-0.0355127 0.00423594 0)
(-0.0363949 0.00395699 0)
(-0.0372154 0.00366447 0)
(-0.0379714 0.00335946 0)
(-0.0386604 0.00304303 0)
(-0.03928 0.00271626 0)
(-0.0398282 0.00238024 0)
(-0.0403032 0.00203607 0)
(-0.0407032 0.00168483 0)
(-0.041027 0.00132765 0)
(-0.0412733 0.000965639 0)
(-0.0414413 0.000599924 0)
(-0.0415303 0.000231649 0)
(-0.04154 -0.000138034 0)
(-0.04147 -0.000507957 0)
(-0.0413207 -0.000876942 0)
(-0.0410922 -0.0012438 0)
(-0.0407851 -0.00160731 0)
(-0.0404004 -0.00196626 0)
(-0.0399392 -0.00231941 0)
(-0.0394028 -0.00266551 0)
(-0.0387928 -0.00300331 0)
(-0.0381113 -0.00333152 0)
(-0.0373604 -0.00364888 0)
(-0.0365425 -0.00395409 0)
(-0.0356603 -0.00424586 0)
(-0.0347169 -0.00452292 0)
(-0.0337155 -0.00478397 0)
(-0.0326597 -0.00502773 0)
(-0.0315532 -0.00525295 0)
(-0.0304001 -0.00545838 0)
(-0.0292046 -0.00564279 0)
(-0.0279713 -0.005805 0)
(-0.0267051 -0.00594385 0)
(-0.0254108 -0.00605824 0)
(-0.0240938 -0.00614712 0)
(-0.0227594 -0.0062095 0)
(-0.0214132 -0.00624446 0)
(-0.0200609 -0.00625118 0)
(-0.0187086 -0.00622893 0)
(-0.0173621 -0.00617709 0)
(-0.0160277 -0.00609517 0)
(-0.0147113 -0.00598283 0)
(-0.0134193 -0.00583991 0)
(-0.0121578 -0.00566641 0)
(-0.0109329 -0.00546257 0)
(-0.0097506 -0.0052289 0)
(-0.00861667 -0.00496617 0)
(-0.00753673 -0.00467551 0)
(-0.00651608 -0.00435847 0)
(-0.00555967 -0.00401703 0)
(-0.00467196 -0.00365378 0)
(-0.00385692 -0.00327193 0)
(-0.00311785 -0.00287553 0)
(-0.00245733 -0.00246955 0)
(-0.00187714 -0.00206013 0)
(-0.00137809 -0.00165479 0)
(-0.000960012 -0.00126271 0)
(-0.000621647 -0.000895041 0)
(-0.000360463 -0.000565351 0)
(-0.000172466 -0.000289947 0)
(-5.44647e-05 -8.84065e-05 0)
(-6.37853e-06 1.4193e-05 0)
(-9.87322e-06 2.61103e-05 0)
(-7.61756e-05 0.000217398 0)
(-0.000231758 0.000511667 0)
(-0.00047184 0.000879904 0)
(-0.000796757 0.00130145 0)
(-0.00120874 0.00175918 0)
(-0.00170873 0.0022387 0)
(-0.00229655 0.00272805 0)
(-0.00297113 0.00321737 0)
(-0.00373058 0.00369858 0)
(-0.0045722 0.0041651 0)
(-0.0054926 0.00461163 0)
(-0.00648775 0.00503391 0)
(-0.0075531 0.0054286 0)
(-0.00868361 0.00579309 0)
(-0.00987391 0.0061254 0)
(-0.0111183 0.00642412 0)
(-0.0124108 0.00668824 0)
(-0.0137454 0.00691714 0)
(-0.0151158 0.00711054 0)
(-0.0165158 0.0072684 0)
(-0.017939 0.00739091 0)
(-0.0193791 0.00747847 0)
(-0.0208299 0.00753161 0)
(-0.0222852 0.00755103 0)
(-0.023739 0.00753752 0)
(-0.0251853 0.00749196 0)
(-0.0266183 0.00741532 0)
(-0.0280324 0.00730865 0)
(-0.0294221 0.00717303 0)
(-0.0307822 0.0070096 0)
(-0.0321077 0.00681953 0)
(-0.0333936 0.00660401 0)
(-0.0346353 0.00636428 0)
(-0.0358285 0.00610158 0)
(-0.0369688 0.00581716 0)
(-0.0380525 0.00551229 0)
(-0.0390757 0.00518827 0)
(-0.040035 0.00484638 0)
(-0.0409271 0.00448792 0)
(-0.041749 0.0041142 0)
(-0.0424981 0.00372652 0)
(-0.0431717 0.00332622 0)
(-0.0437676 0.00291461 0)
(-0.0442839 0.00249304 0)
(-0.0447188 0.00206284 0)
(-0.0450707 0.00162539 0)
(-0.0453385 0.00118204 0)
(-0.0455212 0.000734179 0)
(-0.0456181 0.000283203 0)
(-0.0456287 -0.000169478 0)
(-0.0455529 -0.000622439 0)
(-0.0453907 -0.00107424 0)
(-0.0451426 -0.00152341 0)
(-0.0448091 -0.00196849 0)
(-0.0443912 -0.00240797 0)
(-0.0438902 -0.00284035 0)
(-0.0433074 -0.0032641 0)
(-0.0426448 -0.00367769 0)
(-0.0419043 -0.00407956 0)
(-0.0410883 -0.00446816 0)
(-0.0401994 -0.00484191 0)
(-0.0392407 -0.00519926 0)
(-0.0382152 -0.00553864 0)
(-0.0371266 -0.00585847 0)
(-0.0359787 -0.00615722 0)
(-0.0347755 -0.00643334 0)
(-0.0335213 -0.00668533 0)
(-0.0322209 -0.00691172 0)
(-0.030879 -0.00711105 0)
(-0.0295009 -0.00728195 0)
(-0.0280919 -0.00742308 0)
(-0.0266576 -0.00753317 0)
(-0.0252038 -0.00761104 0)
(-0.0237366 -0.00765561 0)
(-0.0222621 -0.00766589 0)
(-0.0207866 -0.00764101 0)
(-0.0193166 -0.00758027 0)
(-0.0178587 -0.00748309 0)
(-0.0164193 -0.00734911 0)
(-0.0150052 -0.00717814 0)
(-0.0136229 -0.00697025 0)
(-0.0122789 -0.00672577 0)
(-0.0109796 -0.00644534 0)
(-0.0097313 -0.00612994 0)
(-0.00853991 -0.00578098 0)
(-0.00741114 -0.00540032 0)
(-0.00635029 -0.00499039 0)
(-0.00536223 -0.00455423 0)
(-0.00445127 -0.00409568 0)
(-0.00362111 -0.00361942 0)
(-0.00287477 -0.00313121 0)
(-0.00221448 -0.00263804 0)
(-0.00164159 -0.00214835 0)
(-0.00115658 -0.00167231 0)
(-0.000758979 -0.00122213 0)
(-0.000447179 -0.000812409 0)
(-0.000218264 -0.00046045 0)
(-7.10451e-05 -0.000186702 0)
(-9.0046e-06 -1.68681e-05 0)
(-1.24646e-05 6.83009e-05 0)
(-9.28042e-05 0.000345389 0)
(-0.000278038 0.000727423 0)
(-0.0005598 0.00118534 0)
(-0.000936368 0.00169791 0)
(-0.00140879 0.00224732 0)
(-0.00197696 0.00281834 0)
(-0.0026398 0.00339821 0)
(-0.0033955 0.00397624 0)
(-0.00424151 0.00454359 0)
(-0.00517461 0.00509296 0)
(-0.00619089 0.00561841 0)
(-0.00728591 0.00611511 0)
(-0.00845467 0.00657922 0)
(-0.00969179 0.00700775 0)
(-0.0109915 0.00739838 0)
(-0.0123477 0.00774941 0)
(-0.0137541 0.00805964 0)
(-0.0152042 0.0083283 0)
(-0.0166914 0.00855501 0)
(-0.0182092 0.00873969 0)
(-0.0197507 0.00888253 0)
(-0.0213093 0.00898394 0)
(-0.0228784 0.00904453 0)
(-0.0244514 0.00906508 0)
(-0.0260219 0.00904651 0)
(-0.0275836 0.00898983 0)
(-0.0291303 0.00889619 0)
(-0.030656 0.00876678 0)
(-0.032155 0.00860289 0)
(-0.0336216 0.00840586 0)
(-0.0350505 0.00817705 0)
(-0.0364364 0.00791789 0)
(-0.0377745 0.00762984 0)
(-0.03906 0.00731436 0)
(-0.0402885 0.00697296 0)
(-0.0414557 0.00660714 0)
(-0.0425576 0.00621844 0)
(-0.0435906 0.00580839 0)
(-0.0445512 0.00537854 0)
(-0.0454362 0.00493045 0)
(-0.0462427 0.00446568 0)
(-0.0469679 0.00398583 0)
(-0.0476095 0.00349247 0)
(-0.0481654 0.00298721 0)
(-0.0486336 0.00247165 0)
(-0.0490125 0.00194741 0)
(-0.049301 0.00141614 0)
(-0.0494978 0.000879494 0)
(-0.0496024 0.000339133 0)
(-0.0496141 -0.000203253 0)
(-0.0495328 -0.00074596 0)
(-0.0493586 -0.00128726 0)
(-0.0490919 -0.00182541 0)
(-0.0487334 -0.00235865 0)
(-0.0482841 -0.00288518 0)
(-0.0477452 -0.00340322 0)
(-0.0471184 -0.00391093 0)
(-0.0464056 -0.00440649 0)
(-0.0456089 -0.00488804 0)
(-0.044731 -0.00535373 0)