/*--------------------------------*- C++ -*----------------------------------*\
| =========                 |                                                 |
| \\      /  F ield         | OpenFOAM: The Open Source CFD Toolbox           |
|  \\    /   O peration     | Version:  2212                                  |
|   \\  /    A nd           | Website:  www.openfoam.com                      |
|    \\/     M anipulation  |                                                 |
\*---------------------------------------------------------------------------*/
FoamFile
{
    version     2.0;
    format      ascii;
    arch        "LSB;label=32;scalar=64";
    class       volVectorField;
    location    "0.039";
    object      U_0;
}
// * * * * * * * * * * * * * * * * * * * * * * * * * * * * * * * * * * * * * //

dimensions      [0 1 -1 0 0 0 0];

internalField   nonuniform List<vector> 
10000
(
(2.1585e-06 -3.33971e-06 0)
(1.31271e-05 -7.37684e-06 0)
(2.87352e-05 -7.57974e-06 0)
(4.30721e-05 -6.18869e-06 0)
(5.11556e-05 -3.81843e-06 0)
(5.15611e-05 -1.00718e-06 0)
(4.33428e-05 1.96184e-06 0)
(2.61287e-05 4.93016e-06 0)
(-9.10304e-08 7.80807e-06 0)
(-3.50885e-05 1.05492e-05 0)
(-7.8501e-05 1.31287e-05 0)
(-0.000129873 1.55295e-05 0)
(-0.000188683 1.77388e-05 0)
(-0.000254371 1.9751e-05 0)
(-0.000326358 2.1569e-05 0)
(-0.000404052 2.31992e-05 0)
(-0.000486855 2.46449e-05 0)
(-0.000574172 2.59067e-05 0)
(-0.000665409 2.69873e-05 0)
(-0.000759987 2.78915e-05 0)
(-0.000857332 2.86256e-05 0)
(-0.000956893 2.91978e-05 0)
(-0.00105813 2.96115e-05 0)
(-0.00116051 2.98707e-05 0)
(-0.00126353 2.99831e-05 0)
(-0.0013667 2.9954e-05 0)
(-0.00146954 2.97887e-05 0)
(-0.00157161 2.94945e-05 0)
(-0.00167246 2.90765e-05 0)
(-0.00177167 2.85382e-05 0)
(-0.00186885 2.78858e-05 0)
(-0.00196362 2.71262e-05 0)
(-0.00205562 2.62658e-05 0)
(-0.0021445 2.53104e-05 0)
(-0.00222994 2.42654e-05 0)
(-0.00231163 2.31346e-05 0)
(-0.00238929 2.19222e-05 0)
(-0.00246264 2.06348e-05 0)
(-0.00253144 1.92787e-05 0)
(-0.00259546 1.78581e-05 0)
(-0.00265446 1.6377e-05 0)
(-0.00270826 1.48407e-05 0)
(-0.00275668 1.32561e-05 0)
(-0.00279955 1.16281e-05 0)
(-0.00283673 9.9603e-06 0)
(-0.00286808 8.2571e-06 0)
(-0.00289351 6.52421e-06 0)
(-0.00291292 4.76795e-06 0)
(-0.00292623 2.99356e-06 0)
(-0.00293339 1.20527e-06 0)
(-0.00293436 -5.91736e-07 0)
(-0.00292913 -2.39132e-06 0)
(-0.0029177 -4.18728e-06 0)
(-0.00290009 -5.97395e-06 0)
(-0.00287634 -7.74649e-06 0)
(-0.00284652 -9.49983e-06 0)
(-0.00281069 -1.12275e-05 0)
(-0.00276898 -1.29228e-05 0)
(-0.0027215 -1.45795e-05 0)
(-0.00266839 -1.61913e-05 0)
(-0.00260983 -1.77526e-05 0)
(-0.002546 -1.92574e-05 0)
(-0.00247711 -2.06989e-05 0)
(-0.00240339 -2.207e-05 0)
(-0.00232511 -2.33641e-05 0)
(-0.00224253 -2.45748e-05 0)
(-0.00215597 -2.56952e-05 0)
(-0.00206574 -2.67188e-05 0)
(-0.00197219 -2.76392e-05 0)
(-0.00187569 -2.84494e-05 0)
(-0.00177663 -2.91421e-05 0)
(-0.00167543 -2.97108e-05 0)
(-0.00157252 -3.01486e-05 0)
(-0.00146835 -3.04492e-05 0)
(-0.00136341 -3.06066e-05 0)
(-0.00125819 -3.06154e-05 0)
(-0.0011532 -3.047e-05 0)
(-0.00104897 -3.01645e-05 0)
(-0.000946062 -2.96932e-05 0)
(-0.000845023 -2.90516e-05 0)
(-0.000746433 -2.82355e-05 0)
(-0.000650878 -2.7241e-05 0)
(-0.000558948 -2.6065e-05 0)
(-0.000471243 -2.47046e-05 0)
(-0.000388363 -2.31577e-05 0)
(-0.00031091 -2.14228e-05 0)
(-0.000239474 -1.95002e-05 0)
(-0.000174636 -1.73917e-05 0)
(-0.000116953 -1.51013e-05 0)
(-6.69513e-05 -1.26358e-05 0)
(-2.51066e-05 -1.00067e-05 0)
(8.17547e-06 -7.23363e-06 0)
(3.25936e-05 -4.34913e-06 0)
(4.80036e-05 -1.40876e-06 0)
(5.45045e-05 1.49015e-06 0)
(5.25725e-05 4.1767e-06 0)
(4.32524e-05 6.34893e-06 0)
(2.85641e-05 7.45699e-06 0)
(1.27055e-05 6.53951e-06 0)
(2.6049e-06 2.60646e-06 0)
(5.79469e-06 -1.27599e-05 0)
(2.50183e-05 -2.68148e-05 0)
(5.01501e-05 -2.67946e-05 0)
(6.83081e-05 -1.87686e-05 0)
(7.16603e-05 -5.81513e-06 0)
(5.59637e-05 9.8677e-06 0)
(1.8642e-05 2.68815e-05 0)
(-4.16278e-05 4.4332e-05 0)
(-0.000125235 6.16404e-05 0)
(-0.000231931 7.84328e-05 0)
(-0.00036102 9.44629e-05 0)
(-0.000511484 0.000109571 0)
(-0.000682094 0.000123647 0)
(-0.000871463 0.000136619 0)
(-0.00107811 0.000148447 0)
(-0.00130049 0.000159113 0)
(-0.00153701 0.000168612 0)
(-0.00178607 0.000176948 0)
(-0.00204608 0.000184129 0)
(-0.00231543 0.000190175 0)
(-0.00259256 0.000195109 0)
(-0.00287591 0.00019896 0)
(-0.003164 0.00020176 0)
(-0.00345534 0.000203539 0)
(-0.0037485 0.000204327 0)
(-0.0040421 0.00020416 0)
(-0.00433482 0.000203075 0)
(-0.00462534 0.000201107 0)
(-0.00491244 0.000198293 0)
(-0.00519493 0.000194667 0)
(-0.00547167 0.000190268 0)
(-0.00574158 0.000185133 0)
(-0.00600362 0.000179299 0)
(-0.00625681 0.000172805 0)
(-0.00650023 0.000165686 0)
(-0.006733 0.000157978 0)
(-0.00695428 0.000149716 0)
(-0.00716331 0.000140935 0)
(-0.00735936 0.000131671 0)
(-0.00754177 0.00012196 0)
(-0.0077099 0.000111838 0)
(-0.0078632 0.000101339 0)
(-0.00800114 9.04991e-05 0)
(-0.00812325 7.93542e-05 0)
(-0.00822912 6.79376e-05 0)
(-0.00831838 5.62847e-05 0)
(-0.00839073 4.4432e-05 0)
(-0.0084459 3.24163e-05 0)
(-0.00848368 2.02741e-05 0)
(-0.00850392 8.04104e-06 0)
(-0.00850651 -4.2453e-06 0)
(-0.00849142 -1.65456e-05 0)
(-0.00845864 -2.8821e-05 0)
(-0.00840825 -4.10331e-05 0)
(-0.00834037 -5.31432e-05 0)
(-0.00825517 -6.51116e-05 0)
(-0.0081529 -7.68967e-05 0)
(-0.00803385 -8.8456e-05 0)
(-0.00789839 -9.97473e-05 0)
(-0.00774692 -0.000110729 0)
(-0.00757994 -0.000121357 0)
(-0.00739799 -0.000131588 0)
(-0.00720167 -0.000141379 0)
(-0.00699165 -0.000150683 0)
(-0.00676868 -0.000159457 0)
(-0.00653354 -0.000167655 0)
(-0.0062871 -0.000175233 0)
(-0.00603028 -0.000182146 0)
(-0.00576409 -0.000188349 0)
(-0.00548956 -0.000193798 0)
(-0.00520782 -0.000198447 0)
(-0.00492004 -0.000202256 0)
(-0.00462744 -0.00020518 0)
(-0.00433133 -0.000207182 0)
(-0.00403304 -0.00020822 0)
(-0.00373398 -0.00020826 0)
(-0.00343558 -0.000207266 0)
(-0.00313935 -0.000205206 0)
(-0.0028468 -0.000202051 0)
(-0.0025595 -0.000197774 0)
(-0.00227904 -0.000192353 0)
(-0.00200704 -0.000185772 0)
(-0.00174514 -0.000178018 0)
(-0.00149495 -0.000169085 0)
(-0.00125813 -0.000158975 0)
(-0.00103626 -0.000147698 0)
(-0.000830923 -0.000135277 0)
(-0.000643626 -0.000121752 0)
(-0.000475788 -0.000107181 0)
(-0.000328704 -9.16514e-05 0)
(-0.000203495 -7.52904e-05 0)
(-0.000101038 -5.82818e-05 0)
(-2.18673e-05 -4.08952e-05 0)
(3.3953e-05 -2.35317e-05 0)
(6.70335e-05 -6.7976e-06 0)
(7.8931e-05 8.38125e-06 0)
(7.24662e-05 2.05841e-05 0)
(5.22396e-05 2.76209e-05 0)
(2.62235e-05 2.62235e-05 0)
(6.52846e-06 1.26941e-05 0)
(7.08885e-06 -2.82389e-05 0)
(2.62959e-05 -5.10933e-05 0)
(4.64134e-05 -4.68266e-05 0)
(5.32256e-05 -2.43692e-05 0)
(3.71597e-05 9.77061e-06 0)
(-7.46858e-06 5.09825e-05 0)
(-8.42898e-05 9.60386e-05 0)
(-0.000195344 0.000142706 0)
(-0.00034142 0.000189436 0)
(-0.000522356 0.000235147 0)
(-0.000737309 0.000279094 0)
(-0.000984928 0.000320759 0)
(-0.00126349 0.000359779 0)
(-0.00157098 0.000395908 0)
(-0.00190523 0.000428983 0)
(-0.00226393 0.000458909 0)
(-0.00264467 0.000485634 0)
(-0.00304501 0.000509144 0)
(-0.00346248 0.00052945 0)
(-0.00389462 0.000546583 0)
(-0.00433898 0.000560597 0)
(-0.00479315 0.000571556 0)
(-0.00525476 0.000579531 0)
(-0.00572149 0.000584607 0)
(-0.00619109 0.000586869 0)
(-0.00666136 0.000586408 0)
(-0.00713017 0.000583319 0)
(-0.00759549 0.000577703 0)
(-0.00805532 0.00056966 0)
(-0.00850778 0.000559291 0)
(-0.00895106 0.0005467 0)
(-0.0093834 0.000531992 0)
(-0.00980316 0.00051527 0)
(-0.0102088 0.00049664 0)
(-0.0105987 0.000476205 0)
(-0.0109716 0.000454068 0)
(-0.0113261 0.000430331 0)
(-0.011661 0.000405098 0)
(-0.0119751 0.00037847 0)
(-0.0122673 0.000350552 0)
(-0.0125367 0.000321443 0)
(-0.0127822 0.000291247 0)
(-0.0130032 0.000260066 0)
(-0.0131987 0.000228002 0)
(-0.0133682 0.000195158 0)
(-0.0135111 0.000161634 0)
(-0.0136269 0.000127538 0)
(-0.0137151 9.29723e-05 0)
(-0.0137755 5.8044e-05 0)
(-0.0138077 2.28596e-05 0)
(-0.0138117 -1.24727e-05 0)
(-0.0137873 -4.78419e-05 0)
(-0.0137346 -8.31363e-05 0)
(-0.0136536 -0.000118244 0)
(-0.0135447 -0.000153051 0)
(-0.013408 -0.000187441 0)
(-0.0132439 -0.000221294 0)
(-0.013053 -0.000254492 0)
(-0.0128359 -0.000286913 0)
(-0.0125931 -0.000318433 0)
(-0.0123255 -0.00034893 0)
(-0.012034 -0.000378276 0)
(-0.0117195 -0.000406345 0)
(-0.0113831 -0.000433011 0)
(-0.011026 -0.000458144 0)
(-0.0106495 -0.000481616 0)
(-0.010255 -0.000503301 0)
(-0.00984386 -0.000523071 0)
(-0.00941779 -0.000540799 0)
(-0.00897843 -0.00055636 0)
(-0.00852757 -0.000569632 0)
(-0.00806707 -0.000580495 0)
(-0.0075989 -0.000588833 0)
(-0.00712511 -0.000594533 0)
(-0.00664783 -0.000597491 0)
(-0.00616929 -0.000597606 0)
(-0.00569176 -0.000594784 0)
(-0.0052176 -0.00058894 0)
(-0.00474921 -0.000579999 0)
(-0.00428905 -0.000567895 0)
(-0.00383961 -0.000552576 0)
(-0.00340343 -0.000534004 0)
(-0.00298302 -0.000512159 0)
(-0.00258092 -0.000487042 0)
(-0.00219964 -0.000458678 0)
(-0.00184162 -0.000427123 0)
(-0.00150924 -0.000392474 0)
(-0.00120475 -0.000354873 0)
(-0.000930242 -0.000314531 0)
(-0.000687581 -0.000271743 0)
(-0.000478329 -0.00022692 0)
(-0.000303639 -0.000180636 0)
(-0.000164122 -0.000133694 0)
(-5.96659e-05 -8.72224e-05 0)
(1.08096e-05 -4.28222e-05 0)
(4.96627e-05 -2.76994e-06 0)
(6.08408e-05 2.97045e-05 0)
(5.03234e-05 5.00844e-05 0)
(2.77286e-05 5.22626e-05 0)
(7.4628e-06 2.85507e-05 0)
(5.99929e-06 -4.18488e-05 0)
(1.89876e-05 -6.90792e-05 0)
(2.50985e-05 -5.36764e-05 0)
(1.01597e-05 -9.06688e-06 0)
(-3.5706e-05 5.50109e-05 0)
(-0.000118799 0.000131393 0)
(-0.000243267 0.00021483 0)
(-0.000411535 0.00030151 0)
(-0.000624623 0.000388673 0)
(-0.000882442 0.000474316 0)
(-0.00118405 0.000556989 0)
(-0.00152784 0.000635654 0)
(-0.00191174 0.000709569 0)
(-0.00233327 0.000778209 0)
(-0.0027897 0.000841211 0)
(-0.00327809 0.000898343 0)
(-0.00379538 0.000949464 0)
(-0.0043384 0.00099451 0)
(-0.00490396 0.00103348 0)
(-0.00548883 0.0010664 0)
(-0.00608982 0.00109335 0)
(-0.00670373 0.00111444 0)
(-0.00732744 0.0011298 0)
(-0.00795788 0.00113956 0)
(-0.00859203 0.00114388 0)
(-0.00922698 0.00114293 0)
(-0.0098599 0.00113689 0)
(-0.010488 0.00112595 0)
(-0.0111087 0.00111028 0)
(-0.0117195 0.0010901 0)
(-0.0123178 0.00106559 0)
(-0.0129013 0.00103695 0)
(-0.0134679 0.00100439 0)
(-0.0140153 0.000968096 0)
(-0.0145416 0.00092828 0)
(-0.0150449 0.000885139 0)
(-0.0155234 0.000838873 0)
(-0.0159754 0.000789683 0)
(-0.0163993 0.000737768 0)
(-0.0167936 0.000683328 0)
(-0.0171571 0.000626562 0)
(-0.0174885 0.000567673 0)
(-0.0177866 0.000506857 0)
(-0.0180504 0.000444318 0)
(-0.0182791 0.000380254 0)
(-0.0184718 0.000314869 0)
(-0.0186279 0.000248367 0)
(-0.0187468 0.000180952 0)
(-0.0188281 0.000112833 0)
(-0.0188714 4.42193e-05 0)
(-0.0188765 -2.46749e-05 0)
(-0.0188433 -9.36357e-05 0)
(-0.0187719 -0.000162445 0)
(-0.0186624 -0.000230883 0)
(-0.0185152 -0.000298724 0)
(-0.0183305 -0.000365741 0)
(-0.0181089 -0.000431703 0)
(-0.0178511 -0.000496376 0)
(-0.0175579 -0.000559524 0)
(-0.0172301 -0.000620907 0)
(-0.0168689 -0.000680282 0)
(-0.0164755 -0.000737406 0)
(-0.0160511 -0.000792032 0)
(-0.0155972 -0.000843912 0)
(-0.0151154 -0.0008928 0)
(-0.0146075 -0.000938446 0)
(-0.0140753 -0.000980605 0)
(-0.0135208 -0.00101903 0)
(-0.0129462 -0.00105348 0)
(-0.0123536 -0.00108372 0)
(-0.0117455 -0.0011095 0)
(-0.0111245 -0.00113061 0)
(-0.0104931 -0.00114682 0)
(-0.00985408 -0.00115792 0)
(-0.00921029 -0.00116371 0)
(-0.0085647 -0.00116401 0)
(-0.00792034 -0.00115864 0)
(-0.00728034 -0.00114745 0)
(-0.0066479 -0.0011303 0)
(-0.00602625 -0.00110707 0)
(-0.00541871 -0.00107769 0)
(-0.00482858 -0.0010421 0)
(-0.00425918 -0.00100027 0)
(-0.00371382 -0.000952235 0)
(-0.00319574 -0.000898072 0)
(-0.00270811 -0.00083792 0)
(-0.00225396 -0.000771999 0)
(-0.00183615 -0.000700631 0)
(-0.0014573 -0.000624265 0)
(-0.00111971 -0.000543516 0)
(-0.00082528 -0.000459221 0)
(-0.000575339 -0.000372512 0)
(-0.000370542 -0.000284925 0)
(-0.000210649 -0.000198544 0)
(-9.42815e-05 -0.000116204 0)
(-1.86343e-05 -4.17642e-05 0)
(2.08089e-05 1.95428e-05 0)
(3.06606e-05 6.07467e-05 0)
(2.09944e-05 7.27475e-05 0)
(6.41439e-06 4.33383e-05 0)
(3.86911e-06 -5.04066e-05 0)
(6.71827e-06 -7.31022e-05 0)
(-7.76122e-06 -3.83199e-05 0)
(-5.20307e-05 3.65255e-05 0)
(-0.00013538 0.000138713 0)
(-0.000264177 0.000258643 0)
(-0.000442663 0.000389065 0)
(-0.00067335 0.00052454 0)
(-0.000957311 0.000661005 0)
(-0.00129443 0.000795421 0)
(-0.00168366 0.000925527 0)
(-0.00212318 0.00104964 0)
(-0.00261062 0.00116654 0)
(-0.00314311 0.00127534 0)
(-0.00371748 0.0013754 0)
(-0.00433026 0.00146629 0)
(-0.00497784 0.00154774 0)
(-0.00565645 0.00161961 0)
(-0.00636225 0.00168184 0)
(-0.00709139 0.00173446 0)
(-0.00783998 0.00177757 0)
(-0.00860417 0.00181129 0)
(-0.00938015 0.00183581 0)
(-0.0101642 0.00185135 0)
(-0.0109526 0.00185814 0)
(-0.0117418 0.00185643 0)
(-0.0125283 0.00184651 0)
(-0.0133087 0.00182866 0)
(-0.0140798 0.00180318 0)
(-0.0148384 0.00177037 0)
(-0.0155816 0.00173056 0)
(-0.0163064 0.00168405 0)
(-0.01701 0.00163117 0)
(-0.0176899 0.00157223 0)
(-0.0183435 0.00150757 0)
(-0.0189685 0.0014375 0)
(-0.0195627 0.00136236 0)
(-0.0201239 0.00128245 0)
(-0.0206503 0.00119812 0)
(-0.02114 0.00110968 0)
(-0.0215912 0.00101746 0)
(-0.0220026 0.000921779 0)
(-0.0223727 0.00082297 0)
(-0.0227002 0.000721357 0)
(-0.022984 0.00061727 0)
(-0.0232231 0.000511038 0)
(-0.0234167 0.000402992 0)
(-0.0235642 0.000293469 0)
(-0.0236649 0.000182808 0)
(-0.0237184 7.13511e-05 0)
(-0.0237245 -4.05547e-05 0)
(-0.0236831 -0.00015256 0)
(-0.0235942 -0.000264309 0)
(-0.0234581 -0.000375443 0)
(-0.023275 -0.000485596 0)
(-0.0230455 -0.000594397 0)
(-0.0227702 -0.000701472 0)
(-0.0224499 -0.000806441 0)
(-0.0220858 -0.000908921 0)
(-0.0216788 -0.00100852 0)
(-0.0212303 -0.00110485 0)
(-0.0207417 -0.00119751 0)
(-0.0202149 -0.00128611 0)
(-0.0196514 -0.00137024 0)
(-0.0190534 -0.00144951 0)
(-0.0184229 -0.00152352 0)
(-0.0177623 -0.00159186 0)
(-0.0170741 -0.00165415 0)
(-0.0163609 -0.00170999 0)
(-0.0156254 -0.00175901 0)
(-0.0148707 -0.00180083 0)
(-0.0140998 -0.00183508 0)
(-0.013316 -0.00186143 0)
(-0.0125226 -0.00187953 0)
(-0.0117232 -0.00188907 0)
(-0.0109213 -0.00188976 0)
(-0.0101207 -0.00188134 0)
(-0.00932532 -0.00186356 0)
(-0.0085389 -0.00183623 0)
(-0.00776546 -0.00179918 0)
(-0.00700899 -0.00175229 0)
(-0.00627352 -0.0016955 0)
(-0.00556304 -0.00162881 0)
(-0.00488152 -0.00155229 0)
(-0.00423286 -0.00146609 0)
(-0.00362082 -0.00137049 0)
(-0.00304899 -0.00126589 0)
(-0.00252074 -0.00115284 0)
(-0.00203912 -0.00103212 0)
(-0.0016068 -0.000904753 0)
(-0.00122592 -0.00077211 0)
(-0.000897995 -0.000636003 0)
(-0.000623752 -0.000498823 0)
(-0.000402922 -0.000363725 0)
(-0.000234029 -0.000234873 0)
(-0.000114135 -0.000117757 0)
(-3.85808e-05 -1.95872e-05 0)
(-6.46598e-07 5.03032e-05 0)
(9.29343e-06 7.99401e-05 0)
(4.34599e-06 5.29727e-05 0)
(1.2534e-06 -5.15573e-05 0)
(-8.3384e-06 -5.86759e-05 0)
(-4.77517e-05 4.94129e-06 0)
(-0.000126629 0.000118671 0)
(-0.000252996 0.00026719 0)
(-0.000432862 0.00043869 0)
(-0.000670233 0.000624033 0)
(-0.000967442 0.000816191 0)
(-0.00132543 0.00100979 0)
(-0.00174394 0.0012007 0)
(-0.00222177 0.00138578 0)
(-0.00275687 0.00156266 0)
(-0.00334659 0.00172955 0)
(-0.00398773 0.00188512 0)
(-0.00467672 0.00202841 0)
(-0.00540967 0.00215876 0)
(-0.00618246 0.0022757 0)
(-0.00699081 0.00237898 0)
(-0.00783036 0.00246847 0)
(-0.00869664 0.00254417 0)
(-0.00958522 0.00260618 0)
(-0.0104916 0.00265466 0)
(-0.0114115 0.00268985 0)
(-0.0123404 0.00271202 0)
(-0.0132741 0.0027215 0)
(-0.0142085 0.00271866 0)
(-0.0151394 0.00270386 0)
(-0.016063 0.00267753 0)
(-0.0169753 0.00264007 0)
(-0.0178728 0.00259193 0)
(-0.0187518 0.00253356 0)
(-0.0196091 0.00246542 0)
(-0.0204412 0.00238795 0)
(-0.0212452 0.00230164 0)
(-0.0220181 0.00220694 0)
(-0.0227571 0.00210434 0)
(-0.0234596 0.0019943 0)
(-0.0241231 0.00187729 0)
(-0.0247454 0.0017538 0)
(-0.0253242 0.00162429 0)
(-0.0258577 0.00148924 0)
(-0.0263439 0.00134913 0)
(-0.0267813 0.00120443 0)
(-0.0271683 0.00105563 0)
(-0.0275037 0.000903208 0)
(-0.0277862 0.000747648 0)
(-0.0280149 0.00058944 0)
(-0.028189 0.000429076 0)
(-0.0283079 0.000267053 0)
(-0.0283709 0.000103875 0)
(-0.028378 -5.99514e-05 0)
(-0.0283288 -0.000223911 0)
(-0.0282236 -0.000387483 0)
(-0.0280624 -0.00055014 0)
(-0.0278458 -0.000711347 0)
(-0.0275743 -0.000870561 0)
(-0.0272488 -0.00102723 0)
(-0.0268701 -0.00118081 0)
(-0.0264396 -0.00133073 0)
(-0.0259584 -0.00147642 0)
(-0.0254283 -0.00161731 0)
(-0.0248508 -0.00175283 0)
(-0.0242281 -0.00188239 0)
(-0.0235621 -0.00200541 0)
(-0.0228553 -0.00212132 0)
(-0.0221102 -0.00222952 0)
(-0.0213294 -0.00232946 0)
(-0.020516 -0.00242054 0)
(-0.019673 -0.00250222 0)
(-0.0188037 -0.00257394 0)
(-0.0179115 -0.00263516 0)
(-0.0170001 -0.00268537 0)
(-0.0160733 -0.00272406 0)
(-0.015135 -0.00275076 0)
(-0.0141894 -0.00276504 0)
(-0.0132406 -0.00276646 0)
(-0.0122929 -0.00275468 0)
(-0.011351 -0.00272935 0)
(-0.0104192 -0.0026902 0)
(-0.00950211 -0.00263703 0)
(-0.00860444 -0.00256968 0)
(-0.00773078 -0.0024881 0)
(-0.00688575 -0.00239231 0)
(-0.00607389 -0.00228247 0)
(-0.00529965 -0.00215883 0)
(-0.00456733 -0.00202184 0)
(-0.00388099 -0.00187213 0)
(-0.00324444 -0.00171055 0)
(-0.00266111 -0.00153825 0)
(-0.00213397 -0.00135676 0)
(-0.00166543 -0.00116806 0)
(-0.00125719 -0.000974703 0)
(-0.000910116 -0.000780016 0)
(-0.000624035 -0.000588271 0)
(-0.000397566 -0.000404975 0)
(-0.000227903 -0.000237207 0)
(-0.000110583 -9.40437e-05 0)
(-3.91927e-05 1.30129e-05 0)
(-5.22282e-06 6.94385e-05 0)
(1.80139e-06 5.55373e-05 0)
(-1.54517e-06 -4.43866e-05 0)
(-2.48153e-05 -2.31696e-05 0)
(-9.18166e-05 7.98633e-05 0)
(-0.000208747 0.00024172 0)
(-0.000381933 0.000444969 0)
(-0.000616691 0.000675888 0)
(-0.000916522 0.000923642 0)
(-0.00128336 0.00117973 0)
(-0.00171783 0.00143749 0)
(-0.00221945 0.00169173 0)
(-0.00278674 0.00193841 0)
(-0.00341742 0.00217441 0)
(-0.00410853 0.00239734 0)
(-0.00485657 0.0026054 0)
(-0.0056576 0.00279725 0)
(-0.00650734 0.00297194 0)
(-0.00740124 0.00312879 0)
(-0.00833456 0.0032674 0)
(-0.00930246 0.00338756 0)
(-0.0103 0.00348921 0)
(-0.0113221 0.00357243 0)
(-0.012364 0.00363742 0)
(-0.0134205 0.00368444 0)
(-0.0144869 0.00371386 0)
(-0.0155583 0.00372609 0)
(-0.01663 0.00372159 0)
(-0.0176975 0.00370085 0)
(-0.0187562 0.00366443 0)
(-0.0198018 0.00361287 0)
(-0.0208301 0.00354676 0)
(-0.0218372 0.0034667 0)
(-0.0228192 0.00337331 0)
(-0.0237723 0.0032672 0)
(-0.0246931 0.00314901 0)
(-0.0255782 0.00301936 0)
(-0.0264244 0.00287891 0)
(-0.0272287 0.00272829 0)
(-0.0279884 0.00256814 0)
(-0.0287008 0.00239913 0)
(-0.0293634 0.00222188 0)
(-0.029974 0.00203706 0)
(-0.0305305 0.00184532 0)
(-0.0310311 0.00164731 0)
(-0.031474 0.00144369 0)
(-0.0318578 0.00123511 0)
(-0.032181 0.00102225 0)
(-0.0324427 0.000805779 0)
(-0.0326418 0.000586365 0)
(-0.0327776 0.000364692 0)
(-0.0328497 0.00014145 0)
(-0.0328576 -8.26656e-05 0)
(-0.0328012 -0.00030695 0)
(-0.0326805 -0.00053069 0)
(-0.032496 -0.000753161 0)
(-0.0322479 -0.000973633 0)
(-0.0319371 -0.00119136 0)
(-0.0315644 -0.00140561 0)
(-0.031131 -0.0016156 0)
(-0.0306381 -0.00182057 0)
(-0.0300874 -0.00201976 0)
(-0.0294806 -0.00221237 0)
(-0.0288197 -0.00239762 0)
(-0.0281069 -0.00257473 0)
(-0.0273447 -0.0027429 0)
(-0.0265358 -0.00290134 0)
(-0.0256829 -0.00304927 0)
(-0.0247893 -0.0031859 0)
(-0.0238582 -0.00331047 0)
(-0.0228931 -0.00342221 0)
(-0.0218978 -0.00352038 0)
(-0.0208762 -0.00360426 0)
(-0.0198325 -0.00367315 0)
(-0.0187709 -0.00372638 0)
(-0.0176958 -0.00376333 0)
(-0.0166121 -0.0037834 0)
(-0.0155243 -0.00378605 0)
(-0.0144374 -0.00377079 0)
(-0.0133564 -0.00373721 0)
(-0.0122865 -0.00368496 0)
(-0.0112327 -0.00361378 0)
(-0.0102002 -0.0035235 0)
(-0.00919432 -0.00341408 0)
(-0.0082201 -0.0032856 0)
(-0.00728261 -0.00313829 0)
(-0.00638682 -0.00297257 0)
(-0.00553747 -0.00278908 0)
(-0.00473907 -0.00258871 0)
(-0.0039958 -0.00237267 0)
(-0.00331145 -0.00214254 0)
(-0.00268931 -0.00190039 0)
(-0.00213204 -0.00164885 0)
(-0.0016416 -0.00139129 0)
(-0.00121905 -0.00113196 0)
(-0.000864445 -0.000876263 0)
(-0.000576679 -0.000631001 0)
(-0.000353302 -0.000404745 0)
(-0.000190316 -0.000208264 0)
(-8.19286e-05 -5.49543e-05 0)
(-2.12e-05 3.85471e-05 0)
(-9.28461e-07 5.00619e-05 0)
(-4.3698e-06 -2.84817e-05 0)
(-4.18696e-05 3.48889e-05 0)
(-0.000137908 0.000188764 0)
(-0.000294969 0.000408527 0)
(-0.000517417 0.00067514 0)
(-0.000809648 0.000973296 0)
(-0.00117443 0.0012907 0)
(-0.00161314 0.00161751 0)
(-0.00212593 0.0019459 0)
(-0.00271195 0.00226963 0)
(-0.0033694 0.00258378 0)
(-0.00409569 0.00288448 0)
(-0.00488755 0.00316873 0)
(-0.00574114 0.00343422 0)
(-0.00665218 0.00367921 0)
(-0.00761602 0.00390241 0)
(-0.00862771 0.00410295 0)
(-0.00968212 0.00428022 0)
(-0.0107739 0.0044339 0)
(-0.0118978 0.00456388 0)
(-0.0130482 0.00467019 0)
(-0.0142197 0.00475306 0)
(-0.0154069 0.0048128 0)
(-0.0166045 0.00484982 0)
(-0.017807 0.00486465 0)
(-0.0190094 0.00485783 0)
(-0.0202066 0.00483001 0)
(-0.0213935 0.00478185 0)
(-0.0225655 0.00471407 0)
(-0.0237179 0.00462741 0)
(-0.0248462 0.00452263 0)
(-0.0259462 0.00440052 0)
(-0.0270137 0.00426187 0)
(-0.0280448 0.0041075 0)
(-0.0290359 0.00393823 0)
(-0.0299833 0.00375489 0)
(-0.0308838 0.00355831 0)
(-0.0317341 0.00334933 0)
(-0.0325315 0.00312878 0)
(-0.0332731 0.00289752 0)
(-0.0339565 0.00265639 0)
(-0.0345793 0.00240624 0)
(-0.0351395 0.00214792 0)
(-0.0356351 0.0018823 0)
(-0.0360645 0.00161022 0)
(-0.0364261 0.00133257 0)
(-0.0367189 0.00105022 0)
(-0.0369416 0.000764042 0)
(-0.0370935 0.000474934 0)
(-0.037174 0.000183794 0)
(-0.0371827 -0.00010847 0)
(-0.0371195 -0.000400939 0)
(-0.0369845 -0.000692681 0)
(-0.0367779 -0.000982754 0)
(-0.0365003 -0.0012702 0)
(-0.0361525 -0.00155407 0)
(-0.0357355 -0.00183336 0)
(-0.0352505 -0.00210711 0)
(-0.034699 -0.00237431 0)
(-0.0340828 -0.00263395 0)
(-0.0334038 -0.00288501 0)
(-0.0326643 -0.00312649 0)
(-0.0318668 -0.00335735 0)
(-0.0310138 -0.00357658 0)
(-0.0301086 -0.00378314 0)
(-0.0291541 -0.00397602 0)
(-0.0281539 -0.00415422 0)
(-0.0271117 -0.00431673 0)
(-0.0260313 -0.00446258 0)
(-0.0249169 -0.00459082 0)
(-0.0237729 -0.0047005 0)
(-0.0226038 -0.00479076 0)
(-0.0214144 -0.00486072 0)
(-0.0202096 -0.0049096 0)
(-0.0189946 -0.00493663 0)
(-0.0177746 -0.00494115 0)
(-0.0165551 -0.00492254 0)
(-0.0153415 -0.00488029 0)
(-0.0141395 -0.00481397 0)
(-0.0129547 -0.00472329 0)
(-0.0117928 -0.00460806 0)
(-0.0106595 -0.00446826 0)
(-0.00956039 -0.00430405 0)
(-0.00850108 -0.00411577 0)
(-0.00748692 -0.003904 0)
(-0.0065231 -0.00366962 0)
(-0.00561451 -0.00341382 0)
(-0.00476571 -0.00313818 0)
(-0.00398084 -0.00284476 0)
(-0.00326348 -0.00253619 0)
(-0.00261662 -0.00221578 0)
(-0.0020425 -0.00188771 0)
(-0.00154249 -0.00155717 0)
(-0.001117 -0.00123064 0)
(-0.000765316 -0.000916124 0)
(-0.000485544 -0.000623559 0)
(-0.000274356 -0.00036519 0)
(-0.000126809 -0.000155998 0)
(-3.77985e-05 -1.42693e-05 0)
(-3.68759e-06 3.61033e-05 0)
(-7.1406e-06 -3.75535e-06 0)
(-5.90007e-05 0.000116165 0)
(-0.0001847 0.000332877 0)
(-0.000382967 0.000620769 0)
(-0.000656089 0.000959638 0)
(-0.00100739 0.00133293 0)
(-0.00143875 0.00172713 0)
(-0.00195082 0.00213122 0)
(-0.0025432 0.00253632 0)
(-0.00321455 0.00293523 0)
(-0.00396266 0.00332218 0)
(-0.00478458 0.00369258 0)
(-0.00567667 0.00404282 0)
(-0.00663475 0.00437006 0)
(-0.0076542 0.00467216 0)
(-0.00873 0.0049475 0)
(-0.00985683 0.00519492 0)
(-0.0110292 0.00541366 0)
(-0.0122413 0.00560325 0)
(-0.0134874 0.00576349 0)
(-0.0147616 0.0058944 0)
(-0.0160581 0.0059962 0)
(-0.0173709 0.00606923 0)
(-0.0186943 0.00611399 0)
(-0.0200225 0.00613106 0)
(-0.0213498 0.00612114 0)
(-0.0226709 0.00608498 0)
(-0.0239802 0.0060234 0)
(-0.0252726 0.00593726 0)
(-0.0265431 0.00582749 0)
(-0.0277867 0.00569501 0)
(-0.0289988 0.00554081 0)
(-0.030175 0.00536587 0)
(-0.031311 0.00517121 0)
(-0.0324026 0.00495785 0)
(-0.033446 0.00472681 0)
(-0.0344376 0.00447915 0)
(-0.035374 0.00421591 0)
(-0.0362519 0.00393814 0)
(-0.0370684 0.00364691 0)
(-0.0378207 0.00334328 0)
(-0.0385063 0.00302831 0)
(-0.0391228 0.00270308 0)
(-0.0396683 0.00236866 0)
(-0.0401409 0.00202615 0)
(-0.040539 0.00167664 0)
(-0.0408611 0.00132122 0)
(-0.0411062 0.000961009 0)
(-0.0412734 0.000597125 0)
(-0.041362 0.0002307 0)
(-0.0413716 -0.000137123 0)
(-0.0413021 -0.000505187 0)
(-0.0411535 -0.00087232 0)
(-0.0409262 -0.00123734 0)
(-0.0406208 -0.00159904 0)
(-0.0402381 -0.00195622 0)
(-0.0397792 -0.00230765 0)
(-0.0392456 -0.00265208 0)
(-0.0386387 -0.00298827 0)
(-0.0379606 -0.00331495 0)
(-0.0372135 -0.00363085 0)
(-0.0363996 -0.0039347 0)
(-0.0355219 -0.00422521 0)
(-0.0345831 -0.00450111 0)
(-0.0335866 -0.00476111 0)
(-0.0325359 -0.00500394 0)
(-0.0314347 -0.00522836 0)
(-0.030287 -0.00543311 0)
(-0.0290971 -0.00561699 0)
(-0.0278696 -0.00577879 0)
(-0.0266092 -0.00591739 0)
(-0.0253208 -0.00603167 0)
(-0.0240096 -0.00612058 0)
(-0.022681 -0.00618313 0)
(-0.0213407 -0.00621842 0)
(-0.0199942 -0.00622561 0)
(-0.0186475 -0.00620396 0)
(-0.0173066 -0.00615287 0)
(-0.0159775 -0.00607184 0)
(-0.0146664 -0.00596052 0)
(-0.0133794 -0.00581873 0)
(-0.0121227 -0.00564648 0)
(-0.0109023 -0.00544401 0)
(-0.00972419 -0.00521178 0)
(-0.0085942 -0.00495058 0)
(-0.00751788 -0.00466152 0)
(-0.00650054 -0.00434612 0)
(-0.0055471 -0.00400637 0)
(-0.00466204 -0.0036448 0)
(-0.00384929 -0.00326462 0)
(-0.00311219 -0.00286985 0)
(-0.00245332 -0.00246543 0)
(-0.00187445 -0.00205746 0)
(-0.00137643 -0.00165343 0)
(-0.000959105 -0.00126247 0)
(-0.000621249 -0.000895684 0)
(-0.000360362 -0.000566588 0)
(-0.000172494 -0.000291431 0)
(-5.45097e-05 -8.97242e-05 0)
(-6.39582e-06 1.35472e-05 0)
(-9.8183e-06 2.97038e-05 0)
(-7.59124e-05 0.000220782 0)
(-0.000231361 0.000512686 0)
(-0.000471204 0.000879263 0)
(-0.000795639 0.00129953 0)
(-0.00120684 0.00175599 0)
(-0.00170572 0.00223413 0)
(-0.00229206 0.00272196 0)
(-0.00296482 0.00320963 0)
(-0.00372208 0.0036891 0)
(-0.00456116 0.00415382 0)
(-0.00547865 0.0045985 0)
(-0.00647055 0.00501892 0)
(-0.00753229 0.00541177 0)
(-0.00865888 0.00577447 0)
(-0.00984493 0.00610506 0)
(-0.0110848 0.00640213 0)
(-0.0123725 0.0066647 0)
(-0.013702 0.00689216 0)
(-0.015067 0.00708424 0)
(-0.0164615 0.0072409 0)
(-0.0178789 0.00736236 0)
(-0.0193131 0.00744901 0)
(-0.0207579 0.0075014 0)
(-0.022207 0.0075202 0)
(-0.0236546 0.00750624 0)
(-0.0250946 0.00746038 0)
(-0.0265212 0.00738361 0)
(-0.027929 0.00727697 0)
(-0.0293125 0.00714153 0)
(-0.0306664 0.00697843 0)
(-0.0319857 0.00678885 0)
(-0.0332656 0.00657398 0)
(-0.0345015 0.00633504 0)
(-0.035689 0.00607328 0)
(-0.0368239 0.00578994 0)
(-0.0379024 0.00548629 0)
(-0.0389206 0.00516362 0)
(-0.0398752 0.0048232 0)
(-0.0407629 0.00446633 0)
(-0.0415808 0.0040943 0)
(-0.0423262 0.00370842 0)
(-0.0429964 0.00331 0)
(-0.0435894 0.00290037 0)
(-0.0441031 0.00248084 0)
(-0.0445358 0.00205277 0)
(-0.044886 0.00161748 0)
(-0.0451525 0.00117635 0)
(-0.0453343 0.000730735 0)
(-0.0454307 0.000282031 0)
(-0.0454413 -0.000168367 0)
(-0.0453659 -0.000619043 0)
(-0.0452046 -0.00106856 0)
(-0.0449577 -0.00151549 0)
(-0.044626 -0.00195834 0)
(-0.0442103 -0.00239565 0)
(-0.0437119 -0.00282591 0)
(-0.0431321 -0.00324761 0)
(-0.0424728 -0.00365922 0)
(-0.0417361 -0.00405921 0)
(-0.0409242 -0.00444602 0)
(-0.0400398 -0.0048181 0)
(-0.0390858 -0.00517389 0)
(-0.0380655 -0.00551184 0)
(-0.0369822 -0.00583038 0)
(-0.0358398 -0.00612798 0)
(-0.0346424 -0.00640311 0)
(-0.0333942 -0.00665426 0)
(-0.0320999 -0.00687997 0)
(-0.0307643 -0.00707881 0)
(-0.0293926 -0.00724937 0)
(-0.02799 -0.00739034 0)
(-0.0265622 -0.00750045 0)
(-0.0251149 -0.00757853 0)
(-0.0236541 -0.00762347 0)
(-0.0221859 -0.0076343 0)
(-0.0207167 -0.00761015 0)
(-0.0192528 -0.0075503 0)
(-0.0178008 -0.00745419 0)
(-0.0163673 -0.00732142 0)
(-0.0149587 -0.00715181 0)
(-0.0135817 -0.00694542 0)
(-0.0122427 -0.00670258 0)
(-0.0109482 -0.00642389 0)
(-0.00970433 -0.00611033 0)
(-0.00851705 -0.00576329 0)
(-0.00739205 -0.00538462 0)
(-0.00633463 -0.0049767 0)
(-0.00534962 -0.00454259 0)
(-0.00444135 -0.00408605 0)
(-0.00361354 -0.00361177 0)
(-0.00286918 -0.00312545 0)
(-0.00221053 -0.00263405 0)
(-0.00163896 -0.00214597 0)
(-0.00115496 -0.00167133 0)
(-0.000758086 -0.00122228 0)
(-0.00044677 -0.000813354 0)
(-0.000218133 -0.000461801 0)
(-7.1035e-05 -0.000187994 0)
(-9.01466e-06 -1.75298e-05 0)
(-1.23846e-05 7.16957e-05 0)
(-9.24466e-05 0.000348541 0)
(-0.000277376 0.000728168 0)
(-0.000558696 0.00118422 0)
(-0.000934546 0.00169524 0)
(-0.00140593 0.00224304 0)
(-0.0019727 0.00281234 0)
(-0.00263377 0.00339032 0)
(-0.00338731 0.00396634 0)
(-0.00423078 0.00453157 0)
(-0.00516094 0.00507876 0)
(-0.00617391 0.00560199 0)
(-0.00726524 0.00609647 0)
(-0.00842997 0.00655841 0)
(-0.00966268 0.00698481 0)
(-0.0109576 0.0073734 0)
(-0.0123088 0.00772248 0)
(-0.0137098 0.00803088 0)
(-0.0151543 0.00829784 0)
(-0.0166357 0.008523 0)
(-0.0181473 0.00870627 0)
(-0.0196826 0.00884787 0)
(-0.0212347 0.00894822 0)
(-0.0227972 0.00900792 0)
(-0.0243634 0.00902777 0)
(-0.0259271 0.00900868 0)
(-0.027482 0.00895167 0)
(-0.0290218 0.00885788 0)
(-0.0305407 0.00872852 0)
(-0.0320328 0.00856487 0)
(-0.0334927 0.00836825 0)
(-0.0349149 0.00814006 0)
(-0.0362944 0.00788169 0)
(-0.0376261 0.00759461 0)
(-0.0389055 0.00728027 0)
(-0.040128 0.00694018 0)
(-0.0412896 0.00657583 0)
(-0.0423861 0.00618876 0)
(-0.0434141 0.00578048 0)
(-0.04437 0.00535254 0)
(-0.0452506 0.0049065 0)
(-0.046053 0.0044439 0)
(-0.0467746 0.00396632 0)
(-0.047413 0.00347534 0)
(-0.047966 0.00297254 0)
(-0.0484319 0.00245952 0)
(-0.048809 0.0019379 0)
(-0.049096 0.00140929 0)
(-0.0492918 0.000875347 0)
(-0.0493959 0.000337715 0)
(-0.0494076 -0.000201926 0)
(-0.0493267 -0.000741886 0)
(-0.0491535 -0.00128045 0)
(-0.0488882 -0.00181589 0)
(-0.0485316 -0.00234646 0)
(-0.0480846 -0.00287038 0)
(-0.0475485 -0.00338587 0)
(-0.046925 -0.00389112 0)
(-0.0462158 -0.0043843 0)
(-0.0454232 -0.00486359 0)
(-0.0445497 -0.00532713 0)
(-0.043598 -0.00577307 0)