/*--------------------------------*- C++ -*----------------------------------*\
| =========                 |                                                 |
| \\      /  F ield         | OpenFOAM: The Open Source CFD Toolbox           |
|  \\    /   O peration     | Version:  2212                                  |
|   \\  /    A nd           | Website:  www.openfoam.com                      |
|    \\/     M anipulation  |                                                 |
\*---------------------------------------------------------------------------*/
FoamFile
{
    version     2.0;
    format      ascii;
    arch        "LSB;label=32;scalar=64";
    class       volScalarField;
    location    "0.0195";
    object      p;
}
// * * * * * * * * * * * * * * * * * * * * * * * * * * * * * * * * * * * * * //

dimensions      [0 2 -2 0 0 0 0];

internalField   nonuniform List<scalar> 
10000
(
-1.25458e-07
2.4743e-05
-0.000165524
-0.000544855
-0.00110312
-0.00182072
-0.00265678
-0.00356796
-0.00451543
-0.00546573
-0.00639053
-0.00726546
-0.00807036
-0.00878857
-0.00940563
-0.00991004
-0.0102929
-0.0105463
-0.0106635
-0.01064
-0.0104728
-0.0101598
-0.00970013
-0.00909387
-0.00834163
-0.00744494
-0.0064065
-0.00522924
-0.00391556
-0.00246796
-0.000890196
0.000812891
0.00263603
0.00457385
0.00662092
0.00877194
0.0110221
0.0133662
0.0157985
0.0183124
0.0209011
0.0235583
0.0262775
0.0290519
0.0318749
0.0347396
0.0376391
0.0405658
0.0435121
0.0464707
0.0494348
0.0523972
0.0553507
0.0582879
0.0612017
0.0640853
0.0669319
0.069734
0.0724844
0.0751762
0.0778027
0.0803573
0.0828331
0.0852233
0.0875212
0.0897207
0.0918156
0.0937995
0.0956663
0.0974105
0.0990266
0.10051
0.101855
0.103057
0.104114
0.105022
0.105779
0.106385
0.106839
0.107139
0.107286
0.107283
0.107133
0.10684
0.106411
0.105853
0.105175
0.104389
0.103508
0.102549
0.101532
0.100479
0.0994179
0.0983808
0.0974058
0.0965364
0.0958212
0.0953132
0.0950676
0.095079
8.78154e-06
0.000116713
-1.09026e-05
-0.000321034
-0.000788831
-0.00139597
-0.00210606
-0.00288249
-0.00369199
-0.00450633
-0.00530016
-0.0060514
-0.0067422
-0.00735625
-0.00787975
-0.0083021
-0.00861376
-0.00880664
-0.00887464
-0.00881239
-0.00861595
-0.00828338
-0.00781372
-0.00720656
-0.00646195
-0.0055806
-0.00456447
-0.00341617
-0.00213826
-0.00073352
0.000794616
0.0024423
0.00420534
0.00607882
0.00805737
0.0101358
0.0123094
0.0145733
0.0169221
0.0193493
0.0218489
0.0244146
0.02704
0.0297187
0.0324442
0.0352102
0.0380097
0.0408353
0.0436796
0.0465358
0.0493971
0.0522567
0.0551076
0.0579424
0.0607546
0.0635376
0.0662845
0.0689882
0.0716419
0.074239
0.076773
0.0792377
0.0816265
0.0839327
0.0861501
0.0882732
0.0902959
0.0922119
0.0940156
0.0957022
0.0972666
0.0987041
0.10001
0.101181
0.102214
0.103105
0.103855
0.104463
0.104927
0.105247
0.105425
0.105463
0.105365
0.105136
0.104782
0.10431
0.103731
0.103054
0.102294
0.101466
0.100589
0.0996837
0.0987757
0.0978933
0.0970685
0.0963366
0.0957344
0.0952992
0.0950785
0.0950898
0.000323136
0.00044018
0.000327537
4.42797e-05
-0.000379211
-0.000922873
-0.00155527
-0.00224372
-0.00296046
-0.00368068
-0.00438143
-0.00504383
-0.00565067
-0.00618698
-0.00664056
-0.00700029
-0.00725687
-0.00740287
-0.00743198
-0.00733864
-0.00711902
-0.00677054
-0.00629218
-0.0056837
-0.00494488
-0.00407589
-0.00307794
-0.00195289
-0.000703238
0.000667856
0.00215688
0.00376048
0.00547517
0.00729649
0.00921938
0.0112391
0.013351
0.0155503
0.0178313
0.0201883
0.0226154
0.0251066
0.0276557
0.0302565
0.0329028
0.0355886
0.0383067
0.0410499
0.0438113
0.0465844
0.0493626
0.052139
0.0549066
0.0576586
0.0603887
0.0630904
0.0657568
0.068381
0.0709565
0.0734774
0.0759372
0.0783298
0.0806487
0.0828877
0.085041
0.087103
0.089068
0.0909298
0.0926833
0.0943239
0.0958473
0.0972488
0.0985242
0.09967
0.100684
0.101563
0.102307
0.102916
0.103388
0.103724
0.103926
0.103997
0.10394
0.103761
0.103465
0.10306
0.102555
0.10196
0.10129
0.100558
0.0997815
0.0989809
0.0981783
0.0973987
0.0966695
0.0960201
0.0954798
0.0950784
0.0948579
0.0948448
0.000970972
0.00100825
0.000854185
0.000552086
0.000131459
-0.000388357
-0.000979901
-0.0016169
-0.00227472
-0.0029313
-0.003568
-0.00416672
-0.00471175
-0.00519046
-0.00559077
-0.00590228
-0.0061163
-0.00622518
-0.00622279
-0.00610431
-0.0058658
-0.00550449
-0.00501902
-0.00440886
-0.00367404
-0.00281497
-0.00183233
-0.000727121
0.000498567
0.00184164
0.00329871
0.0048664
0.00654107
0.00831861
0.0101946
0.0121649
0.0142252
0.0163701
0.0185942
0.0208921
0.023258
0.0256863
0.0281708
0.0307057
0.0332853
0.0359032
0.0385523
0.0412258
0.0439174
0.0466206
0.0493288
0.052035
0.0547327
0.0574153
0.0600767
0.0627103
0.0653091
0.0678668
0.0703773
0.0728347
0.0752328
0.0775654
0.0798264
0.0820099
0.0841102
0.0861219
0.0880391
0.089856
0.0915679
0.0931708
0.0946604
0.0960322
0.0972823
0.0984077
0.0994059
0.100275
0.101015
0.101624
0.102103
0.102452
0.102673
0.102769
0.102746
0.102606
0.102356
0.102003
0.101555
0.101023
0.100419
0.099757
0.099053
0.098325
0.0975927
0.0968779
0.0962043
0.0955966
0.0950793
0.0946776
0.0944239
0.0943397
0.00184813
0.00174945
0.00151565
0.00116912
0.000728353
0.00021077
-0.00036175
-0.000967361
-0.0015847
-0.00219573
-0.0027836
-0.00333244
-0.0038288
-0.00426052
-0.00461661
-0.00488788
-0.0050659
-0.00514312
-0.00511357
-0.00497308
-0.00471797
-0.00434571
-0.00385451
-0.0032433
-0.00251208
-0.00166145
-0.000691977
0.000395394
0.00159886
0.00291587
0.0043436
0.0058787
0.00751712
0.00925487
0.0110883
0.0130135
0.0150261
0.017121
0.0192929
0.0215365
0.0238462
0.0262163
0.0286412
0.0311157
0.0336337
0.0361889
0.0387744
0.0413838
0.0440111
0.0466502
0.0492939
0.0519357
0.0545693
0.0571885
0.0597869
0.062358
0.0648951
0.0673921
0.0698435
0.0722434
0.0745852
0.0768632
0.0790718
0.081205
0.0832574
0.0852235
0.0870974
0.0888738
0.0905482
0.092117
0.0935761
0.0949212
0.0961485
0.0972553
0.0982395
0.0990997
0.099835
0.100445
0.100929
0.101289
0.101526
0.101646
0.101651
0.101545
0.101334
0.101024
0.100623
0.100143
0.0995935
0.0989875
0.0983397
0.0976661
0.0969843
0.0963129
0.0956719
0.0950818
0.0945633
0.0941375
0.0938226
0.0936284
0.00286802
0.00260651
0.00227162
0.00186414
0.00138699
0.00085374
0.00028286
-0.000307852
-0.000901714
-0.00148238
-0.00203525
-0.00254733
-0.00300648
-0.00340139
-0.00372232
-0.00396069
-0.00410882
-0.00415975
-0.00410766
-0.00394851
-0.00367916
-0.00329736
-0.00280133
-0.00218991
-0.00146273
-0.00061982
0.000338243
0.00141006
0.00259383
0.00388758
0.00528871
0.00679395
0.00839946
0.0101015
0.0118968
0.0137814
0.0157508
0.0178003
0.0199248
0.022119
0.0243775
0.0266948
0.0290658
0.0314852
0.0339471
0.036445
0.0389726
0.0415239
0.0440931
0.0466737
0.0492587
0.0518421
0.0544177
0.0569794
0.0595208
0.0620354
0.0645167
0.0669591
0.0693573
0.0717052
0.0739965
0.0762255
0.0783868
0.0804751
0.0824846
0.0844098
0.086245
0.0879851
0.0896262
0.0911648
0.0925968
0.0939179
0.0951246
0.0962148
0.0971866
0.0980384
0.0987693
0.099379
0.0998678
0.100237
0.100489
0.100628
0.100657
0.100579
0.100399
0.100125
0.099763
0.0993238
0.0988167
0.0982532
0.0976465
0.0970109
0.0963617
0.0957147
0.0950865
0.0944939
0.0939545
0.0934856
0.0930888
0.0927603
0.00397723
0.00354377
0.00309556
0.00261583
0.00208836
0.00152474
0.000940884
0.000349621
-0.000235193
-0.000799373
-0.00133075
-0.00181814
-0.00225069
-0.00261869
-0.00291316
-0.00312597
-0.00325028
-0.00327994
-0.00320987
-0.00303586
-0.00275506
-0.00236531
-0.0018652
-0.00125381
-0.000530457
0.000305224
0.00125275
0.00231072
0.00347745
0.00475107
0.00612881
0.00760737
0.00918355
0.0108541
0.0126156
0.0144641
0.0163952
0.0184042
0.0204864
0.0226364
0.0248489
0.0271191
0.0294422
0.0318125
0.034224
0.0366706
0.0391466
0.041646
0.0441631
0.0466913
0.049224
0.0517552
0.0542791
0.0567896
0.0592801
0.0617443
0.0641762
0.0665704
0.0689214
0.0712232
0.0734695
0.075655
0.0777748
0.0798234
0.081795
0.083684
0.0854853
0.0871939
0.0888061
0.0903183
0.0917264
0.0930262
0.0942148
0.0952903
0.0962511
0.0970954
0.0978224
0.098432
0.0989246
0.0993018
0.0995661
0.0997205
0.0997679
0.0997119
0.0995571
0.09931
0.0989785
0.0985703
0.0980943
0.0975606
0.0969809
0.096368
0.0957352
0.0950958
0.0944634
0.0938516
0.0932752
0.0927481
0.0922556
0.09178
0.00513612
0.00453038
0.00396379
0.00340282
0.00281493
0.00220971
0.00159987
0.000995767
0.000408329
-0.000151506
-0.000673026
-0.0011462
-0.00156184
-0.00191157
-0.00218723
-0.00238125
-0.00248749
-0.00250065
-0.00241632
-0.00223087
-0.00194142
-0.0015458
-0.00104281
-0.000431662
0.000288492
0.00111785
0.00205581
0.0031014
0.00425327
0.0055093
0.00686656
0.00832183
0.0098724
0.0115154
0.0132472
0.0150638
0.0169611
0.0189346
0.0209793
0.0230901
0.0252622
0.027491
0.0297716
0.0320985
0.0344654
0.0368666
0.039297
0.0417508
0.0442218
0.0467035
0.0491897
0.0516749
0.0541534
0.0566186
0.0590641
0.061484
0.0638727
0.0662246
0.0685342
0.0707953
0.0730021
0.0751496
0.0772331
0.079247
0.0811854
0.083043
0.0848148
0.0864963
0.0880836
0.0895731
0.0909604
0.0922419
0.0934147
0.0944775
0.0954286
0.0962665
0.0969902
0.0975996
0.0980955
0.0984792
0.0987528
0.0989191
0.0989808
0.0989414
0.0988054
0.0985792
0.0982695
0.0978832
0.0974279
0.0969124
0.0963474
0.0957442
0.0951141
0.0944684
0.0938181
0.0931737
0.0925478
0.0919519
0.0913553
0.0907274
0.00631275
0.00553963
0.00485268
0.00420543
0.00355048
0.00289423
0.00224845
0.00162144
0.00102087
0.000455394
-6.5705e-05
-0.00053386
-0.000941189
-0.0012801
-0.00154349
-0.0017248
-0.00181836
-0.00181962
-0.00172463
-0.00153045
-0.00123457
-0.000835072
-0.000330584
0.000279908
0.000997077
0.00182086
0.0027506
0.00378563
0.00492465
0.00616518
0.00750446
0.00893981
0.0104685
0.0120875
0.0137935
0.0155825
0.0174504
0.0193928
0.0214048
0.0234814
0.0256184
0.0278113
0.030055
0.0323436
0.0346714
0.0370334
0.0394243
0.0418381
0.0442686
0.0467097
0.0491557
0.0516009
0.0540397
0.0564653
0.0588718
0.0612536
0.063605
0.0659203
0.0681939
0.0704198
0.0725925
0.0747073
0.0767595
0.0787435
0.0806533
0.082484
0.0842309
0.0858894
0.0874557
0.0889257
0.0902954
0.0915612
0.0927209
0.0937731
0.0947162
0.0955486
0.0962695
0.0968789
0.0973775
0.0977661
0.0980466
0.0982214
0.0982935
0.0982662
0.0981438
0.097932
0.0976368
0.097264
0.09682
0.0963127
0.0957517
0.0951472
0.0945086
0.0938453
0.0931658
0.0924783
0.0917938
0.0911217
0.090417
0.0896366
0.00748115
0.00654724
0.0057411
0.00500556
0.00427815
0.00356485
0.00287583
0.00221702
0.00159443
0.0010151
0.000486351
1.52688e-05
-0.000390981
-0.000725605
-0.000982556
-0.00115634
-0.00124202
-0.00123557
-0.00113358
-0.000933408
-0.000633118
-0.000231187
0.000273919
0.000883329
0.00159738
0.00241607
0.00333902
0.00436524
0.00549318
0.00672046
0.00804439
0.00946273
0.0109729
0.0125716
0.0142555
0.0160209
0.0178638
0.0197793
0.021763
0.0238106
0.0259179
0.02808
0.0302917
0.0325475
0.0348422
0.0371707
0.0395277
0.0419071
0.044303
0.0467095
0.0491211
0.0515323
0.0539371
0.0563291
0.0587025
0.061052
0.0633719
0.0656562
0.0678992
0.0700953
0.0722393
0.0743267
0.0763526
0.0783112
0.080197
0.0820053
0.0837315
0.0853711
0.0869198
0.0883737
0.0897289
0.090982
0.0921312
0.0931748
0.0941115
0.0949396
0.0956583
0.0962675
0.0967679
0.0971599
0.0974452
0.097626
0.0977052
0.0976858
0.097572
0.0973689
0.0970814
0.0967145
0.0962735
0.0957657
0.0951999
0.0945848
0.0939284
0.093238
0.0925203
0.0917817
0.0910319
0.0902793
0.0894652
0.0885354
0.00862001
0.00753312
0.00661103
0.0057855
0.00498291
0.00420844
0.00347044
0.00277315
0.0021216
0.00152126
0.000977869
0.000497494
8.63164e-05
-0.000249841
-0.000505658
-0.000676481
-0.000758417
-0.000747876
-0.000642082
-0.000438763
-0.000136225
0.000266951
0.000772075
0.00138007
0.00209113
0.00290535
0.00382264
0.0048416
0.00596007
0.00717616
0.00848768
0.00989201
0.0113865
0.0129683
0.014634
0.0163797
0.0182013
0.0200943
0.0220546
0.024078
0.0261603
0.0282966
0.0304815
0.0327099
0.034977
0.0372776
0.0396064
0.041957
0.044324
0.0467019
0.0490851
0.0514679
0.0538445
0.0562087
0.058555
0.0608781
0.063172
0.0654306
0.0676485
0.0698204
0.0719411
0.0740062
0.0760106
0.0779486
0.0798149
0.0816051
0.0833147
0.0849389
0.0864736
0.0879146
0.0892585
0.090502
0.0916431
0.0926805
0.0936124
0.0944371
0.0951539
0.0957628
0.0962641
0.0966584
0.0969467
0.0971312
0.0972144
0.0971993
0.0970897
0.0968898
0.0966038
0.0962358
0.0957908
0.0952755
0.0946975
0.0940641
0.0933819
0.0926567
0.0918938
0.0910981
0.0902788
0.0894435
0.0885207
0.0874459
0.00971273
0.00848069
0.00744557
0.00653087
0.0056517
0.00481245
0.0040212
0.00328078
0.00259474
0.00196737
0.00140369
0.000908826
0.000487652
0.000145102
-0.000114234
-0.000286408
-0.000368224
-0.000356821
-0.000249975
-4.59501e-05
0.000256929
0.00066021
0.00116467
0.00177083
0.00247936
0.00329023
0.00420268
0.0052154
0.0063264
0.00753362
0.00883504
0.0102282
0.0117104
0.0132785
0.0149294
0.0166592
0.0184634
0.0203382
0.0222796
0.0242837
0.0263458
0.0284609
0.030624
0.0328305
0.0350754
0.0373536
0.0396594
0.0419869
0.0443309
0.046686
0.0490466
0.0514067
0.0537608
0.056103
0.058428
0.0607303
0.0630036
0.065242
0.0674403
0.0695934
0.0716963
0.0737441
0.0757318
0.0776539
0.0795052
0.0812814
0.0829782
0.0845908
0.0861147
0.0875463
0.088882
0.0901189
0.0912547
0.0922878
0.0932162
0.0940384
0.0947537
0.0953622
0.0958642
0.0962596
0.0965495
0.0967356
0.0968202
0.096806
0.0966964
0.0964947
0.0962048
0.0958302
0.0953756
0.0948467
0.0942503
0.0935923
0.0928778
0.0921117
0.0912982
0.0904414
0.0895501
0.0886311
0.0876011
0.0863867
0.0107456
0.00937498
0.00823093
0.00722875
0.00627197
0.0053658
0.00451837
0.00373113
0.00300628
0.00234745
0.00175888
0.0012449
0.00080946
0.000456498
0.000189704
1.23669e-05
-7.26103e-05
-6.33644e-05
4.19175e-05
0.000244831
0.000546724
0.000948838
0.00145196
0.0020564
0.00276275
0.00357101
0.00447985
0.00548756
0.00659269
0.00779344
0.0090874
0.010472
0.0119448
0.0135027
0.0151424
0.0168596
0.0186505
0.0205114
0.0224386
0.0244278
0.0264743
0.0285729
0.0307195
0.0329093
0.0351373
0.0373983
0.0396865
0.0419965
0.0443233
0.0466614
0.0490048
0.0513479
0.0536852
0.0560113
0.0583206
0.0606075
0.0628657
0.0650893
0.0672735
0.0694134
0.0715036
0.0735392
0.075515
0.0774257
0.0792664
0.0810329
0.0827208
0.0843251
0.0858418
0.0872672
0.0885981
0.0898314
0.0909643
0.091995
0.0929213
0.0937419
0.0944563
0.0950647
0.095567
0.0959629
0.096253
0.0964388
0.0965224
0.0965062
0.0963927
0.0961851
0.0958868
0.0955012
0.0950322
0.0944849
0.0938647
0.0931765
0.0924247
0.091613
0.0907453
0.0898246
0.0888597
0.0878567
0.0867219
0.0853736
0.011707
0.0102045
0.00895532
0.00786659
0.00683269
0.00585869
0.00495276
0.00411575
0.00334914
0.00265565
0.00203855
0.00150155
0.00104806
0.000681078
0.000403512
0.000217902
0.000126595
0.000131079
0.000232579
0.000432666
0.000732554
0.0011327
0.00163384
0.00223686
0.00294182
0.00374792
0.00465393
0.0056584
0.00675977
0.00795606
0.00924492
0.0106239
0.0120904
0.0136414
0.015273
0.0169814
0.0187631
0.0206147
0.022532
0.0245107
0.0265458
0.028633
0.0307681
0.0329464
0.0351626
0.0374114
0.0396876
0.0419859
0.0443012
0.0466278
0.0489596
0.0512913
0.0536176
0.0559332
0.0582324
0.0605093
0.0627576
0.064972
0.0671477
0.0692797
0.0713624
0.0733906
0.0753594
0.0772634
0.0790981
0.0808591
0.0825419
0.0841416
0.0856544
0.0870772
0.0884065
0.0896389
0.0907712
0.0918011
0.0927268
0.093547
0.0942615
0.0948702
0.0953726
0.0957682
0.0960572
0.0962411
0.0963215
0.0963004
0.09618
0.0959631
0.0956529
0.0952523
0.0947649
0.0941947
0.0935463
0.0928237
0.0920304
0.0911698
0.0902451
0.0892587
0.0882193
0.0871327
0.0858959
0.0844193
0.0125877
0.0109594
0.00960801
0.00843455
0.00732431
0.00628201
0.00531613
0.00442728
0.00361655
0.00288581
0.00223743
0.0016744
0.00119956
0.000815331
0.00052405
0.000327577
0.000227152
0.000224487
0.000320735
0.000516642
0.000813079
0.00121079
0.00171032
0.00231212
0.00301592
0.00382069
0.00472516
0.00572804
0.00682757
0.00802164
0.00930799
0.0106842
0.0121476
0.0136946
0.0153217
0.0170252
0.0188019
0.0206483
0.02256
0.0245324
0.026561
0.0286417
0.0307704
0.0329421
0.0351515
0.0373935
0.0396632
0.0419554
0.0442647
0.0465852
0.048911
0.0512369
0.053558
0.0558688
0.0581633
0.0604354
0.0626794
0.0648901
0.0670627
0.069192
0.0712722
0.073298
0.0752645
0.0771668
0.079
0.0807597
0.0824412
0.0840401
0.0855528
0.0869764
0.0883071
0.0895409
0.0906746
0.0917056
0.0926324
0.0934537
0.0941693
0.0947787
0.095281
0.0956755
0.0959623
0.0961426
0.0962179
0.0961895
0.0960596
0.0958307
0.0955055
0.0950867
0.0945772
0.0939803
0.0933
0.0925394
0.0917016
0.0907896
0.0898059
0.0887525
0.0876381
0.0864689
0.0851329
0.0835335
0.0133795
0.0116305
0.0101805
0.00892404
0.00773795
0.00662753
0.00560119
0.00465921
0.0038023
0.00303205
0.00235008
0.00175845
0.00125963
0.000855615
0.000547828
0.000337762
0.000226437
0.000214928
0.000304242
0.000494866
0.00078723
0.00118221
0.00168035
0.00228132
0.00298441
0.00378876
0.00469321
0.00569621
0.00679585
0.00799008
0.00927667
0.0106531
0.0121161
0.0136624
0.0152884
0.0169912
0.0187671
0.0206125
0.0225226
0.0244931
0.0265201
0.0285994
0.0307266
0.0328966
0.0351043
0.0373449
0.0396137
0.0419053
0.0442139
0.0465337
0.048859
0.0511849
0.0535065
0.0558179
0.0581129
0.0603858
0.062631
0.0648435
0.0670183
0.0691499
0.0712324
0.0732606
0.07523
0.0771353
0.0789716
0.0807342
0.0824185
0.0840204
0.0855368
0.0869643
0.0882991
0.0895368
0.0906738
0.0917081
0.0926378
0.0934619
0.0941796
0.0947899
0.0952919
0.0956846
0.0959682
0.0961437
0.0962122
0.0961749
0.0960334
0.0957901
0.0954472
0.0950071
0.0944722
0.0938456
0.0931303
0.0923291
0.0914445
0.090479
0.0894349
0.0883137
0.0871244
0.0858738
0.0844413
0.082724
0.0140752
0.0122105
0.0106654
0.00932738
0.00806619
0.00688785
0.00580091
0.00480507
0.00390049
0.00308866
0.00237099
0.00174875
0.00122364
0.00079741
0.000470996
0.00024515
0.000121176
9.96204e-05
0.000180775
0.000365118
0.00065327
0.00104575
0.00154252
0.00214289
0.0028461
0.00365137
0.00455735
0.00556221
0.00666407
0.00786101
0.0091506
0.0105299
0.0119955
0.0135444
0.0151734
0.0168794
0.0186586
0.0205068
0.0224197
0.0243932
0.0264234
0.0285061
0.0306366
0.0328099
0.0350212
0.0372659
0.0395392
0.0418353
0.0441485
0.046473
0.0488036
0.0511353
0.0534628
0.05578
0.0580809
0.0603601
0.062612
0.0648316
0.0670136
0.0691523
0.0712419
0.0732776
0.0752547
0.0771679
0.0790118
0.0807816
0.0824729
0.0840819
0.0856055
0.0870402
0.0883817
0.0896256
0.0907685
0.0918082
0.092743
0.0935713
0.094292
0.0949037
0.0954053
0.0957959
0.0960757
0.0962456
0.0963063
0.0962586
0.0961038
0.0958439
0.0954808
0.0950168
0.0944541
0.0937953
0.0930428
0.0921988
0.0912654
0.090245
0.0891395
0.0879502
0.0866865
0.0853554
0.083829
0.081998
0.0146692
0.0126931
0.0110555
0.00963794
0.0083027
0.0070566
0.00590867
0.00485821
0.00390502
0.00305005
0.00229465
0.00163994
0.00108676
0.000636109
0.000289097
4.6272e-05
-9.17908e-05
-0.000124794
-5.25932e-05
0.000125256
0.000409253
0.000799296
0.0012948
0.00189513
0.00259963
0.00340725
0.00431631
0.00532496
0.00643146
0.00763372
0.00892891
0.0103138
0.0117852
0.0133404
0.0149763
0.0166895
0.0184757
0.0203309
0.022251
0.0242323
0.0262708
0.0283616
0.0305002
0.0326819
0.0349022
0.0371564
0.0394394
0.0417453
0.0440683
0.0464031
0.0487446
0.0510875
0.0534262
0.0557546
0.0580669
0.0603577
0.0626217
0.0648535
0.0670475
0.069198
0.0712998
0.073348
0.0753378
0.0772635
0.0791195
0.0809009
0.0826036
0.0842238
0.0857581
0.0872031
0.0885541
0.0898069
0.0909583
0.092006
0.0929479
0.0937821
0.0945066
0.0951203
0.0956217
0.0960104
0.0962864
0.0964504
0.0965026
0.0964434
0.0962737
0.0959953
0.0956102
0.0951204
0.094528
0.093835
0.0930433
0.0921547
0.0911709
0.0900945
0.0889271
0.0876695
0.0863318
0.0849213
0.0833032
0.081362
0.0151577
0.0130728
0.011345
0.00984965
0.00844132
0.00712759
0.00591826
0.00481246
0.00380962
0.00291041
0.0021158
0.00142664
0.000843567
0.000367153
-1.87455e-06
-0.000262954
-0.000416237
-0.000461561
-0.000398627
-0.000227204
5.26009e-05
0.000440202
0.000934931
0.00153624
0.00224329
0.00305464
0.00396852
0.00498321
0.00609687
0.00730694
0.00861026
0.0100036
0.0114844
0.0130497
0.0146963
0.0164202
0.0182174
0.020084
0.0220162
0.0240102
0.0260614
0.0281651
0.0303169
0.0325123
0.034747
0.037016
0.0393138
0.0416346
0.043973
0.0463237
0.0486816
0.051041
0.0533961
0.055741
0.0580701
0.0603782
0.0626595
0.0649083
0.0671191
0.0692866
0.0714055
0.0734711
0.0754783
0.0774211
0.0792937
0.0810913
0.0828097
0.0844452
0.0859942
0.0874527
0.0888163
0.090081
0.0912437
0.0923018
0.0932529
0.0940944
0.094824
0.0954404
0.0959426
0.09633
0.0966026
0.0967606
0.0968037
0.0967319
0.096546
0.0962477
0.0958392
0.0953224
0.0946986
0.0939697
0.0931369
0.0922021
0.0911669
0.0900337
0.0888038
0.087478
0.0860665
0.0845776
0.0828695
0.0808212
0.0155363
0.0133451
0.0115289
0.00995668
0.00847604
0.00709489
0.00582367
0.00466176
0.00360834
0.00266377
0.00182868
0.00110361
0.000489148
-1.41644e-05
-0.000406157
-0.000686734
-0.000856008
-0.000913853
-0.000860181
-0.000695276
-0.000419749
-3.42606e-05
0.00046062
0.00106411
0.00177494
0.00259156
0.00351235
0.0045355
0.00565869
0.00687892
0.00819306
0.00959827
0.011092
0.0126711
0.014332
0.0160704
0.0178827
0.0197653
0.0217144
0.0237256
0.0257942
0.0279158
0.030086
0.0323007
0.034555
0.0368438
0.0391616
0.0415027
0.0438621
0.0462344
0.048614
0.0509951
0.0533719
0.0557388
0.0580904
0.060421
0.0627247
0.0649955
0.0672282
0.0694176
0.0715588
0.0736468
0.075676
0.0776404
0.0795342
0.0813525
0.0830912
0.0847461
0.0863135
0.0877892
0.0891688
0.0904486
0.0916254
0.0926965
0.0936587
0.094509
0.0952452
0.0958657
0.0963699
0.096757
0.0970268
0.0971787
0.0972121
0.0971269
0.0969239
0.0966051
0.0961724
0.0956273
0.0949708
0.094204
0.0933286
0.0923462
0.0912586
0.0900679
0.0887752
0.0873808
0.0858956
0.0843289
0.0825323
0.0803791
0.015801
0.013506
0.0116024
0.00995383
0.00840103
0.00695258
0.00561911
0.0044002
0.00329528
0.00230427
0.00142749
0.000665497
1.87885e-05
-0.000512472
-0.000928362
-0.00122914
-0.00141465
-0.00148496
-0.00144061
-0.00128237
-0.00101088
-0.000626681
-0.000130572
0.000476208
0.00119223
0.00201607
0.00294607
0.00397995
0.00511485
0.00634775
0.00767582
0.00909644
0.0106067
0.0122031
0.0138817
0.0156387
0.0174706
0.0193739
0.0213443
0.0233772
0.0254681
0.0276126
0.0298067
0.0320459
0.0343251
0.0366388
0.0389819
0.0413491
0.0437352
0.0461345
0.0485411
0.0509492
0.0533532
0.0557477
0.0581272
0.0604857
0.0628169
0.065115
0.0673748
0.0695915
0.0717599
0.073875
0.0759309
0.0779214
0.0798409
0.0816846
0.0834481
0.0851267
0.0867164
0.088213
0.0896123
0.0909106
0.0921045
0.0931909
0.0941663
0.0950273
0.0957718
0.0963984
0.0969062
0.0972942
0.0975616
0.0977074
0.0977309
0.0976319
0.0974117
0.0970721
0.0966146
0.0960401
0.0953494
0.0945434
0.093624
0.0925929
0.0914519
0.0902029
0.0888465
0.087383
0.0858242
0.08418
0.0822957
0.0800393
0.0159483
0.0135506
0.0115606
0.00983596
0.00821068
0.00669457
0.00529872
0.00402221
0.00286467
0.0018262
0.000906938
0.000107305
-0.000572441
-0.00113247
-0.00157291
-0.00189393
-0.00209563
-0.00217857
-0.00214369
-0.00199186
-0.00172363
-0.00133973
-0.000841379
-0.000230034
0.000493008
0.00132629
0.00226765
0.00331427
0.0044632
0.0057117
0.00705716
0.00849664
0.0100268
0.0116437
0.0133439
0.0151237
0.0169798
0.0189082
0.0209044
0.0229636
0.0250818
0.0272547
0.0294779
0.0317468
0.0340558
0.0363998
0.0387739
0.041173
0.0435913
0.046023
0.0484619
0.0509025
0.0533394
0.0557672
0.0581801
0.0605717
0.0629357
0.0652664
0.0675589
0.0698082
0.072009
0.0741559
0.076243
0.0782642
0.0802142
0.082088
0.0838807
0.0855873
0.0872035
0.088725
0.0901477
0.0914677
0.0926818
0.0937862
0.0947771
0.0956511
0.0964062
0.0970409
0.0975541
0.0979442
0.0982098
0.0983498
0.0983635
0.0982513
0.0980142
0.0976538
0.097171
0.0965661
0.0958398
0.0949935
0.0940291
0.0929484
0.091753
0.0904445
0.0890234
0.0874903
0.0858574
0.0841357
0.0821641
0.0798051
0.0159745
0.0134746
0.0113984
0.00959773
0.0078998
0.00631539
0.0048566
0.00352195
0.00231097
0.00122428
0.000261988
-0.000575942
-0.00128952
-0.00187872
-0.00234378
-0.00268494
-0.00290294
-0.00299868
-0.00297308
-0.00282691
-0.00256097
-0.0021764
-0.00167463
-0.00105699
-0.000324802
0.000519994
0.00147463
0.00253613
0.00370186
0.0049693
0.00633551
0.00779705
0.00935023
0.0109914
0.0127173
0.0145244
0.016409
0.0183667
0.020393
0.0224836
0.0246342
0.0268406
0.0290981
0.0314015
0.0337457
0.0361256
0.0385366
0.0409731
0.0434292
0.0458985
0.0483752
0.050854
0.0533295
0.0557962
0.0582479
0.060678
0.0630804
0.0654495
0.0677803
0.0700677
0.0723059
0.0744894
0.0766123
0.0786691
0.0806544
0.082563
0.0843894
0.0861284
0.0877752
0.0893257
0.0907756
0.092121
0.0933583
0.0944835
0.0954926
0.0963824
0.0971506
0.0977957
0.0983159
0.0987092
0.0989738
0.0991087
0.0991137
0.098989
0.0987357
0.0983545
0.0978457
0.0972096
0.096447
0.0955596
0.0945493
0.0934179
0.0921669
0.0907976
0.0893107
0.0877069
0.0859993
0.0841997
0.0821406
0.0796789
0.0158762
0.013274
0.0111111
0.00923427
0.00746345
0.00580998
0.00428717
0.00289376
0.00162897
0.000493485
-0.000512565
-0.00138942
-0.00213712
-0.00275555
-0.00324513
-0.00360661
-0.00384104
-0.00394933
-0.00393229
-0.00379089
-0.00352631
-0.00313992
-0.00263306
-0.00200706
-0.00126372
-0.000405612
0.000564305
0.00164335
0.00282911
0.00411878
0.00550887
0.00699557
0.0085753
0.0102448
0.0120007
0.0138393
0.0157565
0.0177478
0.0198089
0.0219358
0.0241241
0.026369
0.0286656
0.0310087
0.0333934
0.0358151
0.0382686
0.040748
0.0432471
0.0457596
0.0482798
0.0508026
0.0533225
0.0558336
0.0583295
0.0608037
0.0632503
0.0656637
0.0680387
0.0703695
0.0726502
0.0748753
0.0770393
0.0791368
0.0811623
0.0831103
0.0849749
0.0867505
0.0884323
0.0900159
0.091497
0.0928715
0.0941353
0.0952844
0.0963147
0.0972231
0.0980072
0.0986648
0.0991936
0.0995914
0.0998563
0.0999875
0.0999849
0.0998488
0.0995796
0.0991774
0.0986423
0.0979745
0.0971752
0.0962461
0.0951891
0.0940058
0.0926975
0.091266
0.0897119
0.0880361
0.0862528
0.0843744
0.0822272
0.0796622
0.0156506
0.0129452
0.0106947
0.00874085
0.00689648
0.00517317
0.0035854
0.00213253
0.000813447
-0.000371496
-0.00142201
-0.00233812
-0.00311986
-0.00376756
-0.00428186
-0.00466386
-0.00491449
-0.00503461
-0.00502526
-0.00488774
-0.00462341
-0.00423356
-0.00371956
-0.00308325
-0.00232705
-0.00145373
-0.000465965
0.000633774
0.0018428
0.00315774
0.00457473
0.00609
0.00770027
0.0094023
0.0111924
0.0130665
0.0150204
0.0170498
0.0191508
0.0213191
0.0235499
0.0258381
0.0281787
0.0305669
0.0329979
0.0354669
0.0379683
0.0404959
0.0430434
0.0456048
0.0481745
0.0507472
0.0533171
0.0558781
0.0584238
0.0609482
0.063445
0.0659088
0.0683335
0.0707132
0.0730418
0.0753139
0.0775244
0.0796679
0.0817388
0.0837309
0.0856381
0.0874548
0.0891759
0.090797
0.0923135
0.0937208
0.0950146
0.0961909
0.0972458
0.0981759
0.0989784
0.0996507
0.10019
0.100594
0.100861
0.10099
0.100981
0.100835
0.10055
0.100126
0.0995649
0.0988654
0.0980291
0.0970576
0.0959528
0.0947161
0.0933491
0.0918536
0.0902307
0.0884815
0.086621
0.0846629
0.0824261
0.0797568
0.0152944
0.0124848
0.0101453
0.00811283
0.00619381
0.00440003
0.00274655
0.00123325
-0.00014101
-0.00137606
-0.00247139
-0.0034269
-0.0042429
-0.00492011
-0.00545939
-0.00586169
-0.00612788
-0.00625903
-0.00625652
-0.00612179
-0.00585612
-0.00546085
-0.00493785
-0.00428958
-0.00351869
-0.00262767
-0.00161898
-0.000495362
0.000739906
0.00208306
0.00353028
0.00507805
0.00672307
0.00846176
0.0102901
0.0122037
0.0141988
0.0162713
0.0184171
0.0206317
0.0229098
0.0252462
0.027636
0.0300748
0.0325577
0.0350794
0.037634
0.0402152
0.0428168
0.0454329
0.048058
0.0506864
0.0533119
0.0559285
0.0585301
0.0611106
0.0636639
0.0661838
0.068664
0.0710982
0.0734805
0.0758056
0.0780685
0.0802635
0.0823848
0.0844259
0.0863804
0.0882428
0.090008
0.0916711
0.0932271
0.0946712
0.0959989
0.0972061
0.0982889
0.0992437
0.100067
0.100757
0.101309
0.101721
0.101992
0.102121
0.102108
0.101951
0.101651
0.101207
0.100619
0.0998877
0.099014
0.0979994
0.0968456
0.0955542
0.0941268
0.0925656
0.090872
0.0890476
0.0871085
0.0850689
0.0827411
0.0799652
0.0148041
0.0118889
0.00945894
0.00734605
0.00535097
0.00348576
0.00176557
0.000190587
-0.00123982
-0.00252541
-0.00366585
-0.00466118
-0.00551202
-0.00621904
-0.00678315
-0.0072052
-0.00748627
-0.00762772
-0.007631
-0.00749752
-0.00722865
-0.00682621
-0.00629265
-0.00563066
-0.00484267
-0.00393096
-0.00289825
-0.00174785
-0.000483465
0.000891178
0.0023725
0.00395696
0.00564085
0.00742014
0.00929064
0.0112483
0.0132895
0.0154102
0.0176058
0.0198713
0.0222015
0.0245912
0.027036
0.029531
0.0320712
0.0346508
0.0372638
0.0399042
0.0425658
0.0452427
0.0479291
0.0506187
0.0533056
0.0559837
0.0586473
0.0612902
0.063906
0.0664879
0.0690295
0.0715242
0.0739664
0.0763509
0.0786722
0.0809244
0.0831013
0.0851964
0.0872034
0.0891166
0.0909307
0.0926405
0.0942405
0.0957256
0.0970912
0.0983331
0.0994474
0.10043
0.101278
0.101987
0.102555
0.102978
0.103256
0.103386
0.103369
0.103203
0.102888
0.102424
0.10181
0.101047
0.100135
0.0990767
0.0978729
0.0965253
0.0950359
0.0934072
0.0916411
0.0897397
0.08772
0.0855969
0.083176
0.0802906
0.0141766
0.0111536
0.00863157
0.00643662
0.00436349
0.00242519
0.000636963
-0.00100082
-0.00248827
-0.00382507
-0.00501127
-0.00604718
-0.00693328
-0.00767015
-0.00825868
-0.00869995
-0.00899528
-0.00914606
-0.00915372
-0.00901979
-0.00874609
-0.00833501
-0.00778921
-0.00711119
-0.00630317
-0.00536774
-0.00430818
-0.00312822
-0.0018315
-0.000421561
0.001098
0.00272322
0.00444991
0.00627383
0.00819098
0.0101976
0.0122899
0.0144636
0.0167138
0.0190351
0.0214226
0.0238713
0.0263766
0.0289334
0.0315361
0.0341789
0.0368559
0.0395613
0.042289
0.0450326
0.0477859
0.0505427
0.053297
0.0560429
0.0587747
0.0614862
0.0641703
0.0668202
0.0694291
0.0719908
0.0744996
0.0769499
0.0793357
0.0816509
0.0838889
0.0860434
0.0881083
0.0900777
0.091946
0.0937074
0.0953559
0.0968863
0.098294
0.0995747
0.100724
0.101738
0.102613
0.103345
0.103931
0.104369
0.104655
0.104788
0.104769
0.104595
0.104266
0.103782
0.103143
0.102347
0.101397
0.100294
0.0990392
0.0976341
0.096081
0.0943829
0.0925424
0.090562
0.0884595
0.0862505
0.0837333
0.0807349
0.0134092
0.010275
0.00765882
0.00537997
0.00322643
0.00121287
-0.000644821
-0.00234643
-0.00389203
-0.00528125