/*--------------------------------*- C++ -*----------------------------------*\
| =========                 |                                                 |
| \\      /  F ield         | OpenFOAM: The Open Source CFD Toolbox           |
|  \\    /   O peration     | Version:  2212                                  |
|   \\  /    A nd           | Website:  www.openfoam.com                      |
|    \\/     M anipulation  |                                                 |
\*---------------------------------------------------------------------------*/
FoamFile
{
    version     2.0;
    format      ascii;
    arch        "LSB;label=32;scalar=64";
    class       surfaceScalarField;
    location    "0.0195";
    object      phi_0;
}
// * * * * * * * * * * * * * * * * * * * * * * * * * * * * * * * * * * * * * //

dimensions      [0 3 -1 0 0 0 0];

oriented        oriented;

internalField   nonuniform List<scalar> 
19800
(
6.11688e-11
-6.12319e-11
2.02064e-10
-1.40887e-10
3.04447e-10
-1.02386e-10
3.53066e-10
-4.861e-11
3.27593e-10
2.54688e-11
2.21211e-10
1.06383e-10
3.26161e-11
1.8859e-10
-2.36397e-10
2.69015e-10
-5.82207e-10
3.45809e-10
-1.00016e-09
4.17954e-10
-1.4849e-09
4.84745e-10
-2.03068e-09
5.45787e-10
-2.63164e-09
6.00961e-10
-3.28194e-09
6.50307e-10
-3.9758e-09
6.93863e-10
-4.70752e-09
7.31727e-10
-5.47156e-09
7.64042e-10
-6.26256e-09
7.91001e-10
-7.07538e-09
8.12825e-10
-7.90513e-09
8.2975e-10
-8.74716e-09
8.42024e-10
-9.59702e-09
8.49859e-10
-1.04505e-08
8.5346e-10
-1.13035e-08
8.53042e-10
-1.21524e-08
8.48837e-10
-1.29934e-08
8.41069e-10
-1.38234e-08
8.29964e-10
-1.46392e-08
8.15759e-10
-1.54378e-08
7.98632e-10
-1.62165e-08
7.78711e-10
-1.69727e-08
7.56198e-10
-1.7704e-08
7.31304e-10
-1.84082e-08
7.04156e-10
-1.90831e-08
6.74895e-10
-1.97268e-08
6.4373e-10
-2.03376e-08
6.10823e-10
-2.09139e-08
5.76273e-10
-2.14541e-08
5.4021e-10
-2.19569e-08
5.02803e-10
-2.24211e-08
4.64165e-10
-2.28454e-08
4.24369e-10
-2.3229e-08
3.83529e-10
-2.35708e-08
3.41796e-10
-2.387e-08
2.99281e-10
-2.41261e-08
2.56046e-10
-2.43382e-08
2.12165e-10
-2.4506e-08
1.6775e-10
-2.46289e-08
1.2292e-10
-2.47067e-08
7.77464e-11
-2.4739e-08
3.22919e-11
-2.47256e-08
-1.33555e-11
-2.46665e-08
-5.90831e-11
-2.45617e-08
-1.04776e-10
-2.44114e-08
-1.50338e-10
-2.42157e-08
-1.9568e-10
-2.3975e-08
-2.40698e-10
-2.36898e-08
-2.85275e-10
-2.33605e-08
-3.29293e-10
-2.29878e-08
-3.72631e-10
-2.25727e-08
-4.15164e-10
-2.21159e-08
-4.56759e-10
-2.16186e-08
-4.97263e-10
-2.10821e-08
-5.36534e-10
-2.05077e-08
-5.74438e-10
-1.98968e-08
-6.10834e-10
-1.92513e-08
-6.45564e-10
-1.85728e-08
-6.78464e-10
-1.78634e-08
-7.09357e-10
-1.71254e-08
-7.38067e-10
-1.6361e-08
-7.64425e-10
-1.55727e-08
-7.88262e-10
-1.47633e-08
-8.0938e-10
-1.39358e-08
-8.27562e-10
-1.30932e-08
-8.42588e-10
-1.22389e-08
-8.54234e-10
-1.13767e-08
-8.62267e-10
-1.05102e-08
-8.66464e-10
-9.64358e-09
-8.66617e-10
-8.78106e-09
-8.62526e-10
-7.92707e-09
-8.53992e-10
-7.08626e-09
-8.40809e-10
-6.26349e-09
-8.22762e-10
-5.46386e-09
-7.99634e-10
-4.69264e-09
-7.71222e-10
-3.9553e-09
-7.37341e-10
-3.25747e-09
-6.97831e-10
-2.6049e-09
-6.52574e-10
-2.0034e-09
-6.01502e-10
-1.4588e-09
-5.44605e-10
-9.76864e-10
-4.81935e-10
-5.63213e-10
-4.13654e-10
-2.23086e-10
-3.40127e-10
3.89714e-11
-2.62058e-10
2.19661e-10
-1.80691e-10
3.17797e-10
-9.8137e-11
3.3585e-10
-1.80526e-11
2.82548e-10
5.33018e-11
1.77625e-10
1.04925e-10
6.08289e-11
1.16796e-10
6.08284e-11
9.07233e-11
-1.51948e-10
2.53027e-10
-3.0321e-10
3.61921e-10
-2.11273e-10
3.30107e-10
-1.68008e-11
1.20422e-10
2.35162e-10
-2.88645e-10
5.15447e-10
-9.05403e-10
8.05354e-10
-1.72942e-09
1.09303e-09
-2.75456e-09
1.37094e-09
-3.97096e-09
1.63435e-09
-5.3664e-09
1.88017e-09
-6.92711e-09
2.1065e-09
-8.63845e-09
2.3123e-09
-1.04853e-08
2.49715e-09
-1.24524e-08
2.66099e-09
-1.45247e-08
2.804e-09
-1.66873e-08
2.92659e-09
-1.89256e-08
3.02931e-09
-2.12256e-08
3.11285e-09
-2.35738e-08
3.17795e-09
-2.59571e-08
3.22538e-09
-2.83632e-08
3.25593e-09
-3.07801e-08
3.2704e-09
-3.31966e-08
3.26957e-09
-3.56021e-08
3.25427e-09
-3.79863e-08
3.22533e-09
-4.03399e-08
3.18355e-09
-4.26538e-08
3.12969e-09
-4.49197e-08
3.06449e-09
-4.71297e-08
2.98867e-09
-4.92763e-08
2.90286e-09
-5.13528e-08
2.80773e-09
-5.33525e-08
2.70395e-09
-5.52698e-08
2.59211e-09
-5.70989e-08
2.47281e-09
-5.88347e-08
2.34664e-09
-6.04726e-08
2.21415e-09
-6.20082e-08
2.07585e-09
-6.34376e-08
1.93222e-09
-6.47571e-08
1.78371e-09
-6.59635e-08
1.63075e-09
-6.70538e-08
1.4738e-09
-6.80253e-08
1.31331e-09
-6.88757e-08
1.14966e-09
-6.96029e-08
9.83231e-10
-7.02051e-08
8.14378e-10
-7.06808e-08
6.43476e-10
-7.10288e-08
4.70887e-10
-7.1248e-08
2.9696e-10
-7.13378e-08
1.22038e-10
-7.12976e-08
-5.35097e-11
-7.11274e-08
-2.293e-10
-7.08272e-08
-4.04951e-10
-7.03975e-08
-5.80075e-10
-6.98389e-08
-7.54283e-10
-6.91524e-08
-9.27164e-10
-6.83394e-08
-1.09829e-09
-6.74015e-08
-1.2672e-09
-6.63407e-08
-1.43346e-09
-6.51593e-08
-1.59656e-09
-6.386e-08
-1.75599e-09
-6.24461e-08
-1.91123e-09
-6.09209e-08
-2.06174e-09
-5.92883e-08
-2.20696e-09
-5.75528e-08
-2.34633e-09
-5.57192e-08
-2.47923e-09
-5.37926e-08
-2.60503e-09
-5.17789e-08
-2.72308e-09
-4.96842e-08
-2.83272e-09
-4.75154e-08
-2.93326e-09
-4.52796e-08
-3.02401e-09
-4.29848e-08
-3.10422e-09
-4.06393e-08
-3.17311e-09
-3.8252e-08
-3.22987e-09
-3.58325e-08
-3.2737e-09
-3.3391e-08
-3.30377e-09
-3.09382e-08
-3.31928e-09
-2.84854e-08
-3.31944e-09
-2.60444e-08
-3.30346e-09
-2.36278e-08
-3.27061e-09
-2.12485e-08
-3.22011e-09
-1.892e-08
-3.15124e-09
-1.66564e-08
-3.06329e-09
-1.4472e-08
-2.95561e-09
-1.23817e-08
-2.82764e-09
-1.04006e-08
-2.67895e-09
-8.54387e-09
-2.50928e-09
-6.82682e-09
-2.31856e-09
-5.26443e-09
-2.107e-09
-3.87117e-09
-1.8752e-09
-2.6605e-09
-1.62433e-09
-1.64424e-09
-1.35639e-09
-8.31613e-10
-1.07468e-09
-2.27851e-10
-7.84447e-10
1.67912e-10
-4.93898e-10
3.65744e-10
-2.15888e-10
3.89491e-10
2.95533e-11
2.82914e-10
2.11496e-10
1.16664e-10
2.83034e-10
1.775e-10
1.02315e-10
-2.54266e-10
1.92924e-10
-3.93818e-10
1.66203e-10
-1.84556e-10
-7.03877e-11
2.19795e-10
-5.7004e-10
7.34803e-10
-1.3627e-09
1.30812e-09
-2.46193e-09
1.90458e-09
-3.86939e-09
2.5005e-09
-5.57839e-09
3.07995e-09
-7.57622e-09
3.63219e-09
-9.8462e-09
4.15017e-09
-1.23689e-08
4.62922e-09
-1.51232e-08
5.06658e-09
-1.80868e-08
5.46078e-09
-2.12371e-08
5.81123e-09
-2.45511e-08
6.118e-09
-2.80062e-08
6.3817e-09
-3.15801e-08
6.60324e-09
-3.52511e-08
6.78385e-09
-3.89981e-08
6.92498e-09
-4.28009e-08
7.02811e-09
-4.66398e-08
7.09485e-09
-5.04962e-08
7.12683e-09
-5.43524e-08
7.12573e-09
-5.81913e-08
7.09325e-09
-6.19971e-08
7.03107e-09
-6.57544e-08
6.94089e-09
-6.94491e-08
6.82436e-09
-7.30676e-08
6.68302e-09
-7.65973e-08
6.51838e-09
-8.00264e-08
6.33196e-09
-8.33439e-08
6.12519e-09
-8.65394e-08
5.89942e-09
-8.96032e-08
5.65599e-09
-9.25266e-08
5.3962e-09
-9.53013e-08
5.12131e-09
-9.79197e-08
4.83249e-09
-1.00375e-07
4.53085e-09
-1.0266e-07
4.21747e-09
-1.0477e-07
3.89336e-09
-1.06698e-07
3.5595e-09
-1.08441e-07
3.21684e-09
-1.09994e-07
2.86633e-09
-1.11354e-07
2.50885e-09
-1.12516e-07
2.14524e-09
-1.13478e-07
1.77633e-09
-1.14237e-07
1.40293e-09
-1.14792e-07
1.02584e-09
-1.15141e-07
6.45865e-10
-1.15283e-07
2.6379e-10
-1.15217e-07
-1.19584e-10
-1.14942e-07
-5.03433e-10
-1.1446e-07
-8.86919e-10
-1.13771e-07
-1.26919e-09
-1.12876e-07
-1.64936e-09
-1.11777e-07
-2.02654e-09
-1.10475e-07
-2.3998e-09
-1.08974e-07
-2.76817e-09
-1.07277e-07
-3.13063e-09
-1.05388e-07
-3.48614e-09
-1.0331e-07
-3.83357e-09
-1.01049e-07
-4.17181e-09
-9.86115e-08
-4.49967e-09
-9.60026e-08
-4.81594e-09
-9.32296e-08
-5.11934e-09
-9.03002e-08
-5.40855e-09
-8.72231e-08
-5.6822e-09
-8.40073e-08
-5.93888e-09
-8.06629e-08
-6.17712e-09
-7.72007e-08
-6.39543e-09
-7.36324e-08
-6.59228e-09
-6.99706e-08
-6.76605e-09
-6.62286e-08
-6.9151e-09
-6.24207e-08
-7.03775e-09
-5.85621e-08
-7.13228e-09
-5.46689e-08
-7.19698e-09
-5.0758e-08
-7.23017e-09
-4.68473e-08
-7.23015e-09
-4.29555e-08
-7.19529e-09
-3.91021e-08
-7.12397e-09
-3.53076e-08
-7.01466e-09
-3.15929e-08
-6.86589e-09
-2.79799e-08
-6.67628e-09
-2.44909e-08
-6.44463e-09
-2.11486e-08
-6.16994e-09
-1.7976e-08
-5.85153e-09
-1.49962e-08
-5.48908e-09
-1.2232e-08
-5.08281e-09
-9.70541e-09
-4.63357e-09
-7.43743e-09
-4.14319e-09
-5.44701e-09
-3.61475e-09
-3.75019e-09
-3.05321e-09
-2.35869e-09
-2.46617e-09
-1.27805e-09
-1.86508e-09
-5.05059e-10
-1.2669e-09
-2.42363e-11
-6.96711e-10
1.96676e-10
-1.9135e-10
2.12146e-10
1.96025e-10
1.04912e-10
3.9027e-10
2.82412e-10
5.15844e-11
-3.05837e-10
1.95232e-11
-3.61765e-10
-2.11683e-10
4.66563e-11
-7.28689e-10
7.36798e-10
-1.58717e-09
1.59329e-09
-2.8197e-09
2.54064e-09
-4.44158e-09
3.52646e-09
-6.45518e-09
4.5141e-09
-8.85307e-09
5.47783e-09
-1.16206e-08
6.39973e-09
-1.47379e-08
7.26745e-09
-1.81813e-08
8.07263e-09
-2.19247e-08
8.80993e-09
-2.59401e-08
9.47623e-09
-3.01989e-08
1.007e-08
-3.46719e-08
1.0591e-08
-3.933e-08
1.10398e-08
-4.41443e-08
1.14175e-08
-4.90865e-08
1.17261e-08
-5.41291e-08
1.19675e-08
-5.92452e-08
1.21443e-08
-6.44093e-08
1.22589e-08
-6.95965e-08
1.2314e-08
-7.47832e-08
1.23124e-08
-7.99469e-08
1.22569e-08
-8.50662e-08
1.21504e-08
-9.01208e-08
1.19955e-08
-9.50914e-08
1.1795e-08
-9.99601e-08
1.15517e-08
-1.0471e-07
1.12681e-08
-1.09325e-07
1.09468e-08
-1.1379e-07
1.05901e-08
-1.18091e-07
1.02006e-08
-1.22215e-07
9.78045e-09
-1.26151e-07
9.33188e-09
-1.29887e-07
8.85702e-09
-1.33412e-07
8.35791e-09
-1.36718e-07
7.83651e-09
-1.39795e-07
7.29464e-09
-1.42636e-07
6.7341e-09
-1.45233e-07
6.1566e-09
-1.4758e-07
5.5638e-09
-1.49671e-07
4.9573e-09
-1.515e-07
4.33863e-09
-1.53065e-07
3.70931e-09
-1.54359e-07
3.07077e-09
-1.55381e-07
2.42446e-09
-1.56126e-07
1.77177e-09
-1.56595e-07
1.11411e-09
-1.56784e-07
4.52876e-10
-1.56693e-07
-2.10524e-10
-1.56322e-07
-8.74667e-10
-1.5567e-07
-1.5381e-09
-1.5474e-07
-2.19933e-09
-1.53533e-07
-2.85684e-09
-1.5205e-07
-3.50906e-09
-1.50296e-07
-4.15437e-09
-1.48273e-07
-4.79109e-09
-1.45986e-07
-5.41748e-09
-1.4344e-07
-6.03171e-09
-1.40642e-07
-6.6319e-09
-1.37598e-07
-7.21608e-09
-1.34315e-07
-7.7822e-09
-1.30803e-07
-8.32816e-09
-1.27071e-07
-8.85177e-09
-1.23128e-07
-9.35075e-09
-1.18988e-07
-9.82272e-09
-1.14662e-07
-1.02652e-08
-1.10163e-07
-1.06758e-08
-1.05506e-07
-1.10518e-08
-1.00708e-07
-1.13907e-08
-9.57845e-08
-1.16896e-08
-9.07538e-08
-1.19458e-08
-8.5635e-08
-1.21565e-08
-8.04485e-08
-1.23188e-08
-7.52157e-08
-1.24298e-08
-6.99593e-08
-1.24866e-08
-6.47028e-08
-1.24866e-08
-5.94712e-08
-1.24269e-08
-5.42902e-08
-1.23049e-08
-4.91868e-08
-1.21181e-08
-4.41886e-08
-1.18641e-08
-3.93241e-08
-1.15408e-08
-3.46223e-08
-1.11464e-08
-3.01127e-08
-1.06796e-08
-2.58249e-08
-1.01394e-08
-2.17882e-08
-9.52576e-09
-1.80315e-08
-8.83949e-09
-1.45825e-08
-8.08259e-09
-1.14669e-08
-7.25874e-09
-8.70787e-09
-6.37383e-09
-6.32426e-09
-5.43682e-09
-4.32956e-09
-4.46088e-09
-2.72961e-09
-3.46503e-09
-1.5201e-09
-2.47641e-09
-6.83328e-10
-1.53347e-09
-1.84319e-10
-6.90361e-10
3.36705e-11
-2.19649e-11
5.4351e-11
3.69592e-10
3.36758e-10
-1.67455e-11
-2.89094e-10
-2.18704e-10
-1.59798e-10
-7.065e-10
5.34443e-10
-1.5575e-09
1.58781e-09
-2.82395e-09
2.85974e-09
-4.53702e-09
4.25372e-09
-6.71122e-09
5.70066e-09
-9.34803e-09
7.15092e-09
-1.24387e-08
8.56854e-09
-1.59667e-08
9.92771e-09
-1.99094e-08
1.12101e-08
-2.42397e-08
1.2403e-08
-2.89277e-08
1.34979e-08
-3.39409e-08
1.44894e-08
-3.92456e-08
1.53748e-08
-4.48076e-08
1.6153e-08
-5.05922e-08
1.68244e-08
-5.6565e-08
1.73903e-08
-6.26921e-08
1.78532e-08
-6.89404e-08
1.82158e-08
-7.52774e-08
1.84813e-08
-8.16721e-08
1.86535e-08
-8.80942e-08
1.87362e-08
-9.4515e-08
1.87333e-08
-1.00907e-07
1.86489e-08
-1.07244e-07
1.84872e-08
-1.13501e-07
1.82522e-08
-1.19654e-07
1.79481e-08
-1.25681e-07
1.75788e-08
-1.31561e-07
1.71482e-08
-1.37274e-07
1.66602e-08
-1.42802e-07
1.61184e-08
-1.48128e-07
1.55264e-08
-1.53235e-07
1.48877e-08
-1.58109e-07
1.42056e-08
-1.62735e-07
1.34833e-08
-1.67102e-07
1.2724e-08
-1.71196e-07
1.19305e-08
-1.75007e-07
1.11057e-08
-1.78525e-07
1.02524e-08
-1.81741e-07
9.37306e-09
-1.84648e-07
8.47034e-09
-1.87237e-07
7.54664e-09
-1.89503e-07
6.60432e-09
-1.91439e-07
5.6457e-09
-1.93042e-07
4.67301e-09
-1.94306e-07
3.68844e-09
-1.95228e-07
2.69418e-09
-1.95806e-07
1.69237e-09
-1.96038e-07
6.85162e-10
-1.95924e-07
-3.2526e-10
-1.95462e-07
-1.33671e-09
-1.94653e-07
-2.34698e-09
-1.93498e-07
-3.35377e-09
-1.92e-07
-4.35477e-09
-1.90162e-07
-5.34757e-09
-1.87987e-07
-6.32971e-09
-1.85479e-07
-7.2986e-09
-1.82645e-07
-8.25161e-09
-1.79491e-07
-9.18595e-09
-1.76024e-07
-1.00988e-08
-1.72253e-07
-1.0987e-08
-1.68187e-07
-1.18477e-08
-1.63838e-07
-1.26776e-08
-1.59217e-07
-1.34732e-08
-1.54336e-07
-1.42313e-08
-1.49211e-07
-1.49481e-08
-1.43856e-07
-1.562e-08
-1.38289e-07
-1.62432e-08
-1.32527e-07
-1.68138e-08
-1.26589e-07
-1.73278e-08
-1.20498e-07
-1.77811e-08
-1.14274e-07
-1.81695e-08
-1.07942e-07
-1.84888e-08
-1.01526e-07
-1.87348e-08
-9.50526e-08
-1.89032e-08
-8.85494e-08
-1.89898e-08
-8.20454e-08
-1.89906e-08
-7.55709e-08
-1.89014e-08
-6.91573e-08
-1.87186e-08
-6.2837e-08
-1.84384e-08
-5.66435e-08
-1.80576e-08
-5.0611e-08
-1.75733e-08
-4.47744e-08
-1.6983e-08
-3.91687e-08
-1.62852e-08
-3.38291e-08
-1.5479e-08
-2.87902e-08
-1.45647e-08
-2.40857e-08
-1.3544e-08
-1.97478e-08
-1.24206e-08
-1.5806e-08
-1.12005e-08
-1.22865e-08
-9.89324e-09
-9.21095e-09
-8.5124e-09
-6.59433e-09
-7.07751e-09
-4.4435e-09
-5.61586e-09
-2.75474e-09
-4.16516e-09
-1.51106e-09
-2.77715e-09
-6.79104e-10
-1.52233e-09
-2.05884e-10
-4.95181e-10
-1.50761e-11
1.78782e-10
3.21683e-10
-9.44858e-11
-1.94605e-10
-4.90363e-10
2.36076e-10
-1.26676e-09
1.31084e-09
-2.48668e-09
2.80773e-09
-4.1942e-09
4.56726e-09
-6.41574e-09
6.47527e-09
-9.16276e-09
8.44768e-09
-1.24344e-08
1.04225e-08
-1.62197e-08
1.23539e-08
-2.04999e-08
1.42079e-08
-2.52497e-08
1.59599e-08
-3.04391e-08
1.75925e-08
-3.60347e-08
1.90935e-08
-4.20004e-08
2.04551e-08
-4.82985e-08
2.16728e-08
-5.489e-08
2.27446e-08
-6.1736e-08
2.36703e-08
-6.87972e-08
2.44515e-08
-7.60349e-08
2.50909e-08
-8.3411e-08
2.55919e-08
-9.08884e-08
2.59588e-08
-9.84311e-08
2.61962e-08
-1.06004e-07
2.63093e-08
-1.13574e-07
2.63034e-08
-1.21109e-07
2.6184e-08
-1.28579e-07
2.59566e-08
-1.35953e-07
2.56268e-08
-1.43206e-07
2.52003e-08
-1.50309e-07
2.46824e-08
-1.5724e-07
2.40786e-08
-1.63974e-07
2.33942e-08
-1.7049e-07
2.26343e-08
-1.76767e-07
2.18039e-08
-1.82787e-07
2.09077e-08
-1.88532e-07
1.99505e-08
-1.93986e-07
1.89367e-08
-1.99132e-07
1.78707e-08
-2.03958e-07
1.67566e-08
-2.08451e-07
1.55983e-08
-2.12598e-07
1.43997e-08
-2.1639e-07
1.31646e-08
-2.19816e-07
1.18964e-08
-2.22868e-07
1.05986e-08
-2.25538e-07
9.27457e-09
-2.2782e-07
7.92754e-09
-2.29708e-07
6.5607e-09
-2.31196e-07
5.17716e-09
-2.32282e-07
3.77999e-09
-2.32962e-07
2.37226e-09
-2.33234e-07
9.57014e-10
-2.33096e-07
-4.62682e-10
-2.32549e-07
-1.88372e-09
-2.31593e-07
-3.30296e-09
-2.3023e-07
-4.71719e-09
-2.28462e-07
-6.12311e-09
-2.26292e-07
-7.51736e-09
-2.23725e-07
-8.89644e-09
-2.20767e-07
-1.02567e-08
-2.17424e-07
-1.15945e-08
-2.13704e-07
-1.29059e-08
-2.09616e-07
-1.41869e-08
-2.0517e-07
-1.54332e-08
-2.00377e-07
-1.66406e-08
-1.9525e-07
-1.78045e-08
-1.89803e-07
-1.89203e-08
-1.84051e-07
-1.99831e-08
-1.78011e-07
-2.09879e-08
-1.71702e-07
-2.19296e-08
-1.65142e-07
-2.28029e-08
-1.58353e-07
-2.36023e-08
-1.51359e-07
-2.43223e-08
-1.44183e-07
-2.49572e-08
-1.36851e-07
-2.55012e-08
-1.29391e-07
-2.59486e-08
-1.21832e-07
-2.62936e-08
-1.14205e-07
-2.65303e-08
-1.06542e-07
-2.66531e-08
-9.88763e-08
-2.66563e-08
-9.12431e-08
-2.65346e-08
-8.36788e-08
-2.62829e-08
-7.62209e-08
-2.58963e-08
-6.89078e-08
-2.53707e-08
-6.17787e-08
-2.47024e-08
-5.48733e-08
-2.38884e-08
-4.82317e-08
-2.29269e-08
-4.18935e-08
-2.18172e-08
-3.58978e-08
-2.05604e-08
-3.02824e-08
-1.91594e-08
-2.50831e-08
-1.76199e-08
-2.03328e-08
-1.59508e-08
-1.60606e-08
-1.41654e-08
-1.22904e-08
-1.22826e-08
-9.03927e-09
-1.03286e-08
-6.31617e-09
-8.33897e-09
-4.11962e-09
-6.36172e-09
-2.43581e-09
-4.46097e-09
-1.2364e-09
-2.72174e-09
-4.76476e-10
-1.25509e-09
-9.2608e-11
-2.05088e-10
2.29081e-10
-1.75091e-10
-1.95176e-11
-7.75476e-10
8.36474e-10
-1.85685e-09
2.39222e-09
-3.46522e-09
4.4161e-09
-5.63336e-09
6.73541e-09
-8.38029e-09
9.22221e-09
-1.17124e-08
1.17797e-08
-1.56249e-08
1.43351e-08
-2.01039e-08
1.68329e-08
-2.51278e-08
1.92317e-08
-3.06685e-08
2.15006e-08
-3.66933e-08
2.36172e-08
-4.31653e-08
2.55656e-08
-5.00454e-08
2.73352e-08
-5.72921e-08
2.89195e-08
-6.48629e-08
3.03154e-08
-7.27147e-08
3.15221e-08
-8.08042e-08
3.25411e-08
-8.90886e-08
3.33753e-08
-9.75255e-08
3.40288e-08
-1.06074e-07
3.45068e-08
-1.14693e-07
3.48151e-08
-1.23343e-07
3.49601e-08
-1.31988e-07
3.49485e-08
-1.40592e-07
3.47873e-08
-1.49119e-07
3.44837e-08
-1.57537e-07
3.40448e-08
-1.65814e-07
3.34778e-08
-1.73922e-07
3.279e-08
-1.81832e-07
3.19882e-08
-1.89517e-07
3.10796e-08
-1.96953e-07
3.00706e-08
-2.04117e-07
2.8968e-08
-2.10988e-07
2.7778e-08
-2.17544e-07
2.65069e-08
-2.23768e-07
2.51604e-08
-2.29641e-07
2.37443e-08
-2.35149e-07
2.22642e-08
-2.40276e-07
2.07253e-08
-2.45009e-07
1.91327e-08
-2.49336e-07
1.74913e-08
-2.53245e-07
1.58059e-08
-2.56727e-07
1.4081e-08
-2.59774e-07
1.23212e-08
-2.62377e-07
1.05307e-08
-2.6453e-07
8.71383e-09
-2.66228e-07
6.87475e-09
-2.67466e-07
5.01757e-09
-2.6824e-07
3.14639e-09
-2.68548e-07
1.26529e-09
-2.68389e-07
-6.2164e-10
-2.67762e-07
-2.51024e-09
-2.66669e-07
-4.3963e-09
-2.65111e-07
-6.27555e-09
-2.6309e-07
-8.1436e-09
-2.60612e-07
-9.99593e-09
-2.5768e-07
-1.18279e-08
-2.54302e-07
-1.36348e-08
-2.50485e-07
-1.54115e-08
-2.46238e-07
-1.71529e-08
-2.41572e-07
-1.88536e-08
-2.36497e-07
-2.05082e-08
-2.31026e-07
-2.21109e-08
-2.25175e-07
-2.36556e-08
-2.18959e-07
-2.51363e-08
-2.12396e-07
-2.65464e-08
-2.05504e-07
-2.78794e-08
-1.98306e-07
-2.91286e-08
-1.90822e-07
-3.02869e-08
-1.83077e-07
-3.13471e-08
-1.75097e-07
-3.23021e-08
-1.6691e-07
-3.31443e-08
-1.58545e-07
-3.38662e-08
-1.50033e-07
-3.44604e-08
-1.41408e-07
-3.49192e-08
-1.32703e-07
-3.52351e-08
-1.23955e-07
-3.54009e-08
-1.15202e-07
-3.54093e-08
-1.06483e-07
-3.52535e-08
-9.7839e-08
-3.4927e-08
-8.93115e-08
-3.44238e-08
-8.09435e-08
-3.37387e-08
-7.27785e-08
-3.28673e-08
-6.48605e-08
-3.18063e-08
-5.72337e-08
-3.05537e-08
-4.99418e-08
-2.91091e-08
-4.30275e-08
-2.74746e-08
-3.65324e-08
-2.56546e-08
-3.04954e-08
-2.36569e-08
-2.49525e-08
-2.14937e-08
-1.99356e-08
-1.91823e-08
-1.54712e-08
-1.67471e-08
-1.15792e-08
-1.42206e-08
-8.2715e-09
-1.16467e-08
-5.55046e-09
-9.08276e-09
-3.4075e-09
-6.60393e-09
-1.82176e-09
-4.30747e-09
-7.59233e-10
-2.31762e-09
-1.72322e-10
-7.91994e-10
5.67617e-11
-2.54871e-10
2.35355e-10
-1.06188e-09
1.64349e-09
-2.45361e-09
3.78394e-09
-4.45827e-09
6.42076e-09
-7.09568e-09
9.37282e-09
-1.03756e-08
1.25021e-08
-1.42977e-08
1.57018e-08
-1.88522e-08
1.88896e-08
-2.40211e-08
2.20018e-08
-2.97793e-08
2.499e-08
-3.60958e-08
2.78171e-08
-4.29347e-08
3.0456e-08
-5.02562e-08
3.28871e-08
-5.80179e-08
3.50969e-08
-6.61753e-08
3.70769e-08
-7.46824e-08
3.88225e-08
-8.34927e-08
4.03324e-08
-9.25592e-08
4.16076e-08
-1.01835e-07
4.26515e-08
-1.11275e-07
4.34687e-08
-1.20834e-07
4.40653e-08
-1.30467e-07
4.44481e-08
-1.40132e-07
4.46249e-08
-1.49787e-07
4.46039e-08
-1.59393e-07
4.43936e-08
-1.68912e-07
4.40029e-08
-1.78308e-07
4.34406e-08
-1.87546e-07
4.27158e-08
-1.96594e-07
4.18374e-08
-2.05419e-07
4.08141e-08
-2.13995e-07
3.96546e-08
-2.22291e-07
3.83675e-08
-2.30284e-07
3.69609e-08
-2.37949e-07
3.54429e-08
-2.45263e-07
3.38213e-08
-2.52207e-07
3.21035e-08
-2.58759e-07
3.02968e-08
-2.64903e-07
2.84083e-08
-2.70622e-07
2.64446e-08
-2.75902e-07
2.44123e-08
-2.80728e-07
2.23176e-08
-2.85089e-07
2.01666e-08
-2.88973e-07
1.79651e-08
-2.92371e-07
1.57189e-08
-2.95274e-07
1.34336e-08
-2.97675e-07
1.11145e-08
-2.99567e-07
8.76711e-09
-3.00946e-07
6.3966e-09
-3.01808e-07
4.00827e-09
-3.0215e-07
1.60734e-09
-3.01971e-07
-8.00905e-10
-3.0127e-07
-3.21116e-09
-3.00048e-07
-5.61805e-09
-2.98307e-07
-8.01607e-09
-2.96051e-07
-1.03996e-08
-2.93284e-07
-1.27629e-08
-2.90012e-07
-1.51e-08
-2.86242e-07
-1.74048e-08
-2.81983e-07
-1.9671e-08
-2.77244e-07
-2.18919e-08
-2.72037e-07
-2.40607e-08
-2.66374e-07
-2.61705e-08
-2.60272e-07
-2.82137e-08
-2.53744e-07
-3.0183e-08
-2.4681e-07
-3.20704e-08
-2.39489e-07
-3.38677e-08
-2.31802e-07
-3.55667e-08
-2.23771e-07
-3.71587e-08
-2.15423e-07
-3.86349e-08
-2.06784e-07
-3.99863e-08
-1.97883e-07
-4.12036e-08
-1.88749e-07
-4.22776e-08
-1.79417e-07
-4.31988e-08
-1.69919e-07
-4.39578e-08
-1.60293e-07
-4.45451e-08
-1.50577e-07
-4.49514e-08
-1.4081e-07
-4.51677e-08
-1.31035e-07
-4.51851e-08
-1.21293e-07
-4.49951e-08
-1.1163e-07
-4.459e-08
-1.02091e-07
-4.39624e-08
-9.27237e-08
-4.31063e-08
-8.35746e-08
-4.20165e-08
-7.46917e-08
-4.06892e-08
-6.61228e-08
-3.91225e-08
-5.79153e-08
-3.73167e-08
-5.01152e-08
-3.52747e-08
-4.27672e-08
-3.30025e-08
-3.59136e-08
-3.05105e-08
-2.95932e-08
-2.78141e-08
-2.38408e-08
-2.49347e-08
-1.8686e-08
-2.19018e-08
-1.41522e-08
-1.87545e-08
-1.02552e-08
-1.55437e-08
-7.00252e-09
-1.23354e-08
-4.39233e-09
-9.21412e-09
-2.41289e-09
-6.2869e-09
-1.04266e-09
-3.68786e-09
-2.50973e-10
-1.58367e-09
-1.94216e-10
-3.32002e-10
5.67355e-10
-1.34251e-09
2.654e-09
-3.0426e-09
5.48405e-09
-5.44311e-09
8.82126e-09
-8.55019e-09
1.24799e-08
-1.23633e-08
1.63152e-08
-1.68743e-08
2.02128e-08
-2.20672e-08
2.40825e-08
-2.79194e-08
2.7854e-08
-3.44014e-08
3.1472e-08
-4.14789e-08
3.48946e-08
-4.91126e-08
3.80897e-08
-5.72598e-08
4.10343e-08
-6.58749e-08
4.3712e-08
-7.49103e-08
4.61123e-08
-8.4317e-08
4.82292e-08
-9.40451e-08
5.00605e-08
-1.04045e-07
5.16072e-08
-1.14266e-07
5.28726e-08
-1.24659e-07
5.3862e-08
-1.35176e-07
5.45822e-08
-1.45769e-07
5.50414e-08
-1.56393e-07
5.52485e-08
-1.67002e-07
5.52132e-08
-1.77554e-07
5.49459e-08
-1.88008e-07
5.44569e-08
-1.98325e-07
5.37572e-08
-2.08467e-07
5.28573e-08
-2.18397e-07
5.17683e-08
-2.28084e-07
5.05007e-08
-2.37495e-07
4.90652e-08
-2.46599e-07
4.7472e-08
-2.5537e-07
4.57314e-08
-2.6378e-07
4.3853e-08
-2.71805e-07
4.18465e-08
-2.79423e-07
3.9721e-08
-2.86611e-07
3.74856e-08
-2.93352e-07
3.51487e-08
-2.99626e-07
3.27188e-08
-3.05418e-07
3.02039e-08
-3.10712e-07
2.76117e-08
-3.15495e-07
2.49498e-08
-3.19755e-07
2.22253e-08
-3.23482e-07
1.94455e-08
-3.26665e-07
1.66171e-08
-3.29298e-07
1.3747e-08
-3.31372e-07
1.08418e-08
-3.32884e-07
7.90804e-09
-3.33828e-07
4.95228e-09
-3.34201e-07
1.98103e-09
-3.34003e-07
-9.99176e-10
-3.33233e-07
-3.98174e-09
-3.31891e-07
-6.95997e-09
-3.2998e-07
-9.92707e-09
-3.27503e-07
-1.28761e-08
-3.24466e-07
-1.57998e-08
-3.20875e-07
-1.8691e-08
-3.16738e-07
-2.1542e-08
-3.12064e-07
-2.43449e-08
-3.06864e-07
-2.70917e-08
-3.01151e-07
-2.97738e-08
-2.94939e-07
-3.23827e-08
-2.88244e-07
-3.49093e-08
-2.81082e-07
-3.73441e-08
-2.73475e-07
-3.96776e-08
-2.65443e-07
-4.18997e-08
-2.5701e-07
-4.40003e-08
-2.482e-07
-4.59686e-08
-2.39041e-07
-4.77939e-08
-2.29562e-07
-4.94652e-08
-2.19794e-07
-5.09712e-08
-2.09771e-07
-5.23004e-08
-1.99529e-07
-5.34416e-08
-1.89103e-07
-5.43831e-08
-1.78535e-07
-5.51137e-08
-1.67864e-07
-5.56219e-08
-1.57135e-07
-5.58969e-08
-1.46392e-07
-5.59281e-08
-1.35681e-07
-5.57055e-08
-1.25052e-07
-5.52197e-08
-1.14552e-07
-5.44624e-08
-1.04232e-07
-5.34263e-08
-9.41428e-08
-5.21056e-08
-8.43356e-08
-5.04964e-08
-7.48614e-08
-4.85967e-08
-6.57709e-08
-4.64073e-08
-5.71132e-08
-4.39323e-08
-4.89362e-08
-4.11795e-08
-4.12851e-08
-3.81617e-08
-3.42018e-08
-3.48973e-08
-2.77245e-08
-3.1412e-08
-2.18862e-08
-2.77401e-08
-1.67143e-08
-2.39264e-08
-1.22296e-08
-2.00284e-08
-8.44554e-09
-1.61195e-08
-5.36815e-09
-1.22915e-08
-2.9958e-09
-8.65926e-09
-1.31999e-09
-5.36367e-09
-3.26874e-10
-2.57678e-09
-5.21091e-10
-4.0551e-10
9.72865e-10
-1.61333e-09
3.86183e-09
-3.61524e-09
7.48596e-09
-6.40545e-09
1.16115e-08
-9.97673e-09
1.60512e-08
-1.43177e-08
2.06562e-08
-1.94116e-08
2.53067e-08
-2.52359e-08
2.99068e-08
-3.17621e-08
3.43801e-08
-3.89563e-08
3.86663e-08
-4.67801e-08
4.27183e-08
-5.51907e-08
4.65004e-08
-6.41422e-08
4.99858e-08
-7.35858e-08
5.31556e-08
-8.3471e-08
5.59974e-08
-9.37456e-08
5.85038e-08
-1.04357e-07
6.06719e-08
-1.15252e-07
6.25022e-08
-1.26378e-07
6.39983e-08
-1.37682e-07
6.5166e-08
-1.49113e-07
6.60131e-08
-1.6062e-07
6.65487e-08
-1.72155e-07
6.67833e-08
-1.8367e-07
6.6728e-08
-1.95119e-07
6.63949e-08
-2.06458e-07
6.57962e-08
-2.17645e-07
6.49446e-08
-2.28641e-07
6.38528e-08
-2.39406e-07
6.25336e-08
-2.49905e-07
6.09998e-08
-2.60104e-07
5.92638e-08
-2.6997e-07
5.7338e-08
-2.79473e-07
5.52344e-08
-2.88585e-07
5.29649e-08
-2.97279e-07
5.05408e-08
-3.05531e-07
4.79732e-08
-3.13319e-07
4.52728e-08
-3.2062e-07
4.24501e-08
-3.27416e-07
3.95149e-08
-3.33689e-07
3.6477e-08
-3.39423e-07
3.33457e-08
-3.44603e-07
3.01301e-08
-3.49217e-07
2.6839e-08
-3.53252e-07
2.3481e-08
-3.567e-07
2.00643e-08
-3.5955e-07
1.65973e-08
-3.61796e-07
1.30879e-08
-3.63432e-07
9.54401e-09
-3.64453e-07
5.97364e-09
-3.64857e-07
2.38464e-09
-3.64641e-07
-1.21506e-09
-3.63805e-07
-4.81747e-09
-3.62351e-07
-8.41452e-09
-3.6028e-07
-1.1998e-08
-3.57597e-07
-1.55594e-08
-3.54306e-07
-1.90901e-08
-3.50416e-07
-2.25813e-08
-3.45934e-07
-2.60237e-08
-3.40871e-07
-2.9408e-08
-3.35239e-07
-3.27243e-08
-3.2905e-07
-3.59624e-08
-3.22321e-07
-3.9112e-08
-3.15068e-07
-4.2162e-08
-3.07311e-07
-4.51013e-08
-2.9907e-07
-4.79182e-08
-2.90369e-07
-5.06007e-08
-2.81233e-07
-5.31366e-08
-2.71688e-07
-5.55132e-08
-2.61765e-07
-5.77174e-08
-2.51494e-07
-5.97362e-08
-2.40909e-07
-6.15561e-08
-2.30046e-07
-6.31635e-08
-2.18943e-07
-6.45449e-08
-2.07639e-07
-6.56866e-08
-1.96178e-07
-6.65751e-08
-1.84602e-07
-6.71972e-08
-1.72959e-07
-6.75399e-08
-1.61297e-07
-6.75908e-08
-1.49664e-07
-6.73383e-08
-1.38112e-07
-6.67716e-08
-1.26693e-07
-6.58811e-08
-1.15461e-07
-6.46585e-08
-1.04469e-07
-6.30973e-08
-9.37723e-08
-6.11933e-08
-8.34243e-08
-5.89447e-08
-7.34788e-08
-5.63528e-08
-6.39883e-08
-5.34228e-08
-5.50035e-08
-5.01644e-08
-4.65727e-08
-4.65925e-08
-3.87413e-08
-4.27287e-08
-3.15508e-08
-3.86025e-08
-2.50383e-08
-3.42526e-08
-1.92358e-08
-2.97289e-08
-1.41695e-08
-2.50947e-08
-9.85983e-09
-2.04291e-08
-6.32109e-09
-1.58302e-08
-3.56214e-09
-1.14182e-08
-1.58747e-09
-7.33833e-09
-3.9922e-10
-3.76504e-09
-9.20305e-10
-4.75134e-10
1.448e-09
-1.87246e-09
5.25914e-09
-4.16675e-09
9.78026e-09
-7.33702e-09
1.47817e-08
-1.13631e-08
2.00772e-08
-1.62227e-08
2.55158e-08
-2.18902e-08
3.09743e-08
-2.83358e-08
3.63524e-08
-3.5525e-08
4.15693e-08
-4.34188e-08
4.65601e-08
-5.19743e-08
5.12738e-08
-6.1145e-08
5.56711e-08
-7.08813e-08
5.97222e-08
-8.11315e-08
6.34058e-08
-9.18417e-08
6.67076e-08
-1.02957e-07
6.96191e-08
-1.14422e-07
7.21366e-08
-1.2618e-07
7.42604e-08
-1.38176e-07
7.59943e-08
-1.50355e-07
7.73446e-08
-1.62662e-07
7.83199e-08
-1.75043e-07
7.89307e-08
-1.87449e-07
7.91886e-08
-1.99827e-07
7.91066e-08
-2.12131e-07
7.86983e-08
-2.24312e-07
7.79779e-08
-2.36328e-07
7.696e-08
-2.48134e-07
7.56593e-08
-2.59691e-07
7.40908e-08
-2.70961e-07
7.22691e-08
-2.81906e-07
7.02091e-08
-2.92493e-07
6.79249e-08
-3.02689e-07
6.54309e-08
-3.12465e-07
6.27407e-08
-3.21792e-07
5.98679e-08
-3.30644e-07
5.68253e-08
-3.38997e-07
5.36257e-08
-3.46828e-07
5.02812e-08
-3.54117e-07
4.68037e-08
-3.60845e-07
4.32045e-08
-3.66994e-07
3.94948e-08
-3.72549e-07
3.56853e-08
-3.77496e-07
3.17864e-08
-3.81824e-07
2.78082e-08
-3.8552e-07
2.37606e-08
-3.88576e-07
1.96533e-08
-3.90984e-07
1.54959e-08
-3.92738e-07
1.12978e-08
-3.93832e-07
7.06831e-09
-3.94265e-07
2.8169e-09
-3.94033e-07
-1.44709e-09
-3.93136e-07
-5.71417e-09
-3.91576e-07
-9.97476e-09
-3.89355e-07
-1.42191e-08
-3.86477e-07
-1.84372e-08
-3.82948e-07
-2.26188e-08
-3.78776e-07
-2.67534e-08
-3.7397e-07
-3.08301e-08
-3.6854e-07
-3.48379e-08
-3.62499e-07
-3.8765e-08
-3.55862e-07
-4.25995e-08
-3.48645e-07
-4.6329e-08
-3.40866e-07
-4.99407e-08
-3.32546e-07
-5.34213e-08
-3.23708e-07
-5.67571e-08
-3.14374e-07
-5.99341e-08
-3.04573e-07
-6.29376e-08
-2.94333e-07
-6.5753e-08
-2.83686e-07
-6.83649e-08
-2.72664e-07
-7.07579e-08
-2.61304e-07
-7.29163e-08
-2.49643e-07
-7.48243e-08
-2.37722e-07
-7.64659e-08
-2.25584e-07
-7.78253e-08
-2.13272e-07
-7.88868e-08
-2.00834e-07
-7.96351e-08
-1.88319e-07
-8.00551e-08
-1.75777e-07
-8.01327e-08
-1.63261e-07
-7.98545e-08
-1.50824e-07
-7.92081e-08
-1.38523e-07
-7.81827e-08
-1.26412e-07
-7.6769e-08
-1.14549e-07
-7.49598e-08
-1.02992e-07
-7.27506e-08
-9.17972e-08
-7.01397e-08
-8.10211e-08
-6.71289e-08
-7.07193e-08
-6.37246e-08
-6.09457e-08
-5.99379e-08
-5.1752e-08
-5.57862e-08
-4.31869e-08
-5.12938e-08
-3.52959e-08
-4.64936e-08
-2.81204e-08
-4.14281e-08
-2.16974e-08
-3.61519e-08
-1.60592e-08
-3.07328e-08
-1.12335e-08
-2.52549e-08
-7.24305e-09
-1.98206e-08
-4.10732e-09
-1.45539e-08
-1.84328e-09
-9.60237e-09
-4.67719e-10
-5.14061e-09
-1.38802e-09
-5.40915e-10
1.98892e-09
-2.11929e-09
6.83752e-09
-4.69517e-09
1.23561e-08
-8.23371e-09
1.83203e-08
-1.27026e-08
2.45461e-08
-1.8069e-08
3.08823e-08
-2.42985e-08
3.72038e-08
-3.13536e-08
4.34075e-08
-3.91934e-08
4.94091e-08
-4.77735e-08
5.51402e-08
-5.70464e-08
6.05467e-08
-6.69612e-08
6.55859e-08
-7.74649e-08
7.02258e-08
-8.85021e-08
7.4443e-08
-1.00016e-07
7.82215e-08
-1.11949e-07
8.15517e-08
-1.24241e-07
8.44294e-08
-1.36836e-07
8.68547e-08
-1.49673e-07
8.88315e-08
-1.62695e-07
9.03669e-08
-1.75846e-07
9.14705e-08
-1.89069e-07
9.21537e-08
-2.0231e-07
9.24299e-08
-2.15517e-07
9.23135e-08
-2.28638e-07
9.18199e-08
-2.41626e-07
9.09654e-08
-2.54432e-07
8.97664e-08
-2.67013e-07
8.824e-08
-2.79325e-07
8.6403e-08
-2.91329e-07
8.42725e-08
-3.02985e-07
8.18653e-08
-3.14258e-07
7.91979e-08
-3.25114e-07
7.62867e-08
-3.35521e-07
7.31476e-08
-3.45449e-07
6.9796e-08
-3.5487e-07
6.6247e-08
-3.6376e-07
6.25153e-08
-3.72094e-07
5.86151e-08
-3.7985e-07
5.45599e-08
-3.87009e-07
5.03632e-08
-3.93552e-07
4.60378e-08
-3.99463e-07
4.15961e-08
-4.04726e-07
3.70502e-08
-4.0933e-07
3.2412e-08
-4.13263e-07
2.76931e-08
-4.16514e-07
2.29046e-08
-4.19076e-07
1.80578e-08
-4.20942e-07
1.31636e-08
-4.22107e-07
8.23302e-09
-4.22567e-07
3.27691e-09
-4.2232e-07
-1.69373e-09
-4.21366e-07
-6.66787e-09
-4.19707e-07
-1.16343e-08
-4.17344e-07
-1.65817e-08
-4.14283e-07
-2.14984e-08
-4.10529e-07
-2.63724e-08
-4.06091e-07
-3.11916e-08
-4.00978e-07