/*--------------------------------*- C++ -*----------------------------------*\
| =========                 |                                                 |
| \\      /  F ield         | OpenFOAM: The Open Source CFD Toolbox           |
|  \\    /   O peration     | Version:  2212                                  |
|   \\  /    A nd           | Website:  www.openfoam.com                      |
|    \\/     M anipulation  |                                                 |
\*---------------------------------------------------------------------------*/
FoamFile
{
    version     2.0;
    format      ascii;
    arch        "LSB;label=32;scalar=64";
    class       volVectorField;
    location    "0.0195";
    object      U_0;
}
// * * * * * * * * * * * * * * * * * * * * * * * * * * * * * * * * * * * * * //

dimensions      [0 1 -1 0 0 0 0];

internalField   nonuniform List<vector> 
10000
(
(-1.59085e-07 -6.01543e-06 0)
(1.27994e-05 -9.72915e-06 0)
(2.45477e-05 -6.64636e-06 0)
(3.48121e-05 -4.26392e-06 0)
(3.59501e-05 -1.46283e-06 0)
(2.93799e-05 1.4142e-06 0)
(1.46098e-05 4.23465e-06 0)
(-8.33391e-06 6.91649e-06 0)
(-3.91736e-05 9.41839e-06 0)
(-7.74779e-05 1.17231e-05 0)
(-0.000122736 1.38142e-05 0)
(-0.000174393 1.56966e-05 0)
(-0.000231863 1.73896e-05 0)
(-0.000294565 1.89063e-05 0)
(-0.000361913 2.02455e-05 0)
(-0.000433325 2.14014e-05 0)
(-0.00050824 2.23745e-05 0)
(-0.000586115 2.31728e-05 0)
(-0.000666424 2.38098e-05 0)
(-0.000748667 2.43027e-05 0)
(-0.000832368 2.46597e-05 0)
(-0.000917068 2.48854e-05 0)
(-0.00100234 2.49858e-05 0)
(-0.00108775 2.49627e-05 0)
(-0.00117293 2.48265e-05 0)
(-0.00125751 2.45909e-05 0)
(-0.00134115 2.42605e-05 0)
(-0.0014235 2.38391e-05 0)
(-0.00150429 2.33332e-05 0)
(-0.00158323 2.27444e-05 0)
(-0.00166003 2.20776e-05 0)
(-0.00173446 2.13429e-05 0)
(-0.00180629 2.05462e-05 0)
(-0.00187529 1.96902e-05 0)
(-0.00194126 1.87792e-05 0)
(-0.00200403 1.78167e-05 0)
(-0.00206343 1.68054e-05 0)
(-0.00211928 1.57508e-05 0)
(-0.00217147 1.46601e-05 0)
(-0.00221985 1.35357e-05 0)
(-0.0022643 1.23766e-05 0)
(-0.00230472 1.11863e-05 0)
(-0.00234101 9.97202e-06 0)
(-0.00237308 8.73721e-06 0)
(-0.00240086 7.48103e-06 0)
(-0.00242428 6.20398e-06 0)
(-0.00244329 4.91138e-06 0)
(-0.00245784 3.60921e-06 0)
(-0.00246788 2.29887e-06 0)
(-0.00247338 9.78648e-07 0)
(-0.00247433 -3.51364e-07 0)
(-0.00247071 -1.68678e-06 0)
(-0.00246252 -3.02083e-06 0)
(-0.00244976 -4.34854e-06 0)
(-0.00243245 -5.66819e-06 0)
(-0.00241062 -6.97947e-06 0)
(-0.00238431 -8.2814e-06 0)
(-0.00235357 -9.57049e-06 0)
(-0.00231845 -1.08407e-05 0)
(-0.00227904 -1.20862e-05 0)
(-0.00223542 -1.33026e-05 0)
(-0.00218769 -1.44867e-05 0)
(-0.00213597 -1.56362e-05 0)
(-0.00208039 -1.67479e-05 0)
(-0.00202108 -1.78167e-05 0)
(-0.00195822 -1.88361e-05 0)
(-0.00189197 -1.98007e-05 0)
(-0.00182253 -2.0707e-05 0)
(-0.00175011 -2.15519e-05 0)
(-0.00167492 -2.23316e-05 0)
(-0.00159722 -2.304e-05 0)
(-0.00151727 -2.36688e-05 0)
(-0.00143535 -2.421e-05 0)
(-0.00135176 -2.46577e-05 0)
(-0.00126684 -2.50065e-05 0)
(-0.00118092 -2.52499e-05 0)
(-0.00109439 -2.538e-05 0)
(-0.00100764 -2.53893e-05 0)
(-0.000921079 -2.52716e-05 0)
(-0.000835144 -2.50212e-05 0)
(-0.000750289 -2.46319e-05 0)
(-0.000666991 -2.40971e-05 0)
(-0.000585749 -2.34096e-05 0)
(-0.000507079 -2.25617e-05 0)
(-0.000431521 -2.15445e-05 0)
(-0.00035963 -2.035e-05 0)
(-0.000291977 -1.89725e-05 0)
(-0.000229139 -1.74092e-05 0)
(-0.000171701 -1.56575e-05 0)
(-0.000120246 -1.37126e-05 0)
(-7.53489e-05 -1.15702e-05 0)
(-3.75584e-05 -9.23123e-06 0)
(-7.37397e-06 -6.70841e-06 0)
(1.47957e-05 -4.03268e-06 0)
(2.87024e-05 -1.26506e-06 0)
(3.43702e-05 1.47332e-06 0)
(3.22643e-05 3.94496e-06 0)
(2.3677e-05 5.67843e-06 0)
(1.18797e-05 5.75955e-06 0)
(2.88559e-06 2.88593e-06 0)
(1.76546e-06 -1.09976e-05 0)
(1.5717e-05 -2.49108e-05 0)
(3.26969e-05 -1.84346e-05 0)
(3.85359e-05 -7.39257e-06 0)
(2.72208e-05 6.79345e-06 0)
(-3.39864e-06 2.2352e-05 0)
(-5.46133e-05 3.82578e-05 0)
(-0.000126746 5.3899e-05 0)
(-0.000219399 6.88914e-05 0)
(-0.00033175 8.30157e-05 0)
(-0.000462663 9.61171e-05 0)
(-0.000610808 0.000108116 0)
(-0.000774769 0.00011898 0)
(-0.000953049 0.000128708 0)
(-0.00114412 0.000137311 0)
(-0.00134646 0.000144803 0)
(-0.00155856 0.000151205 0)
(-0.00177895 0.000156553 0)
(-0.0020062 0.000160886 0)
(-0.00223894 0.00016425 0)
(-0.00247583 0.000166696 0)
(-0.0027156 0.000168262 0)
(-0.00295703 0.000168991 0)
(-0.00319898 0.000168926 0)
(-0.00344033 0.000168109 0)
(-0.00368006 0.000166585 0)
(-0.00391718 0.000164401 0)
(-0.00415077 0.0001616 0)
(-0.00437996 0.000158214 0)
(-0.00460394 0.000154279 0)
(-0.00482195 0.000149829 0)
(-0.00503327 0.000144901 0)
(-0.00523723 0.000139529 0)
(-0.00543322 0.000133742 0)
(-0.00562067 0.000127574 0)
(-0.00579904 0.000121056 0)
(-0.00596783 0.000114214 0)
(-0.00612661 0.000107073 0)
(-0.00627495 9.96615e-05 0)
(-0.00641249 9.20008e-05 0)
(-0.00653886 8.41122e-05 0)
(-0.00665376 7.60192e-05 0)
(-0.00675692 6.77463e-05 0)
(-0.00684807 5.93138e-05 0)
(-0.00692699 5.07383e-05 0)
(-0.0069935 4.20371e-05 0)
(-0.00704743 3.32304e-05 0)
(-0.00708865 2.43381e-05 0)
(-0.00711703 1.53772e-05 0)
(-0.00713249 6.3631e-06 0)
(-0.00713497 -2.68613e-06 0)
(-0.00712446 -1.17505e-05 0)
(-0.00710093 -2.08093e-05 0)
(-0.00706442 -2.98422e-05 0)
(-0.00701498 -3.88292e-05 0)
(-0.0069527 -4.77494e-05 0)
(-0.00687769 -5.65807e-05 0)
(-0.0067901 -6.5301e-05 0)
(-0.00669011 -7.38865e-05 0)
(-0.00657794 -8.23117e-05 0)
(-0.00645383 -9.05492e-05 0)
(-0.00631809 -9.85706e-05 0)
(-0.00617104 -0.000106348 0)
(-0.00601305 -0.000113854 0)
(-0.00584454 -0.000121061 0)
(-0.00566595 -0.000127936 0)
(-0.0054778 -0.000134447 0)
(-0.00528064 -0.000140559 0)
(-0.00507507 -0.000146239 0)
(-0.00486172 -0.000151452 0)
(-0.00464131 -0.000156164 0)
(-0.00441457 -0.000160335 0)
(-0.00418234 -0.000163923 0)
(-0.00394547 -0.000166883 0)
(-0.00370489 -0.000169174 0)
(-0.00346159 -0.000170751 0)
(-0.0032166 -0.000171571 0)
(-0.00297104 -0.000171593 0)
(-0.00272605 -0.000170774 0)
(-0.00248286 -0.000169076 0)
(-0.00224273 -0.000166458 0)
(-0.00200701 -0.000162878 0)
(-0.00177705 -0.000158296 0)
(-0.0015543 -0.000152675 0)
(-0.0013402 -0.000145979 0)
(-0.00113626 -0.00013818 0)
(-0.000943996 -0.000129256 0)
(-0.000764942 -0.000119197 0)
(-0.000600615 -0.000108005 0)
(-0.000452496 -9.56965e-05 0)
(-0.000321998 -8.23155e-05 0)
(-0.000210402 -6.79467e-05 0)
(-0.000118791 -5.27434e-05 0)
(-4.79269e-05 -3.69674e-05 0)
(1.91685e-06 -2.10523e-05 0)
(3.12046e-05 -5.71815e-06 0)
(4.14639e-05 7.84424e-06 0)
(3.58295e-05 1.76646e-05 0)
(2.05207e-05 2.05325e-05 0)
(5.74262e-06 1.18751e-05 0)
(4.55419e-06 -2.24716e-05 0)
(1.5904e-05 -3.74272e-05 0)
(2.15816e-05 -2.42459e-05 0)
(1.05533e-05 3.84188e-06 0)
(-2.51394e-05 4.01245e-05 0)
(-8.92121e-05 8.05452e-05 0)
(-0.000183628 0.000122481 0)
(-0.000309029 0.000164229 0)
(-0.000465094 0.000204687 0)
(-0.000650802 0.000243123 0)
(-0.000864644 0.000279075 0)
(-0.00110478 0.000312231 0)
(-0.00136916 0.000342421 0)
(-0.00165561 0.000369571 0)
(-0.00196186 0.000393659 0)
(-0.00228564 0.00041471 0)
(-0.00262465 0.000432779 0)
(-0.00297664 0.000447937 0)
(-0.00333942 0.000460279 0)
(-0.00371084 0.000469906 0)
(-0.00408881 0.000476927 0)
(-0.00447137 0.000481463 0)
(-0.00485659 0.000483626 0)
(-0.00524265 0.000483529 0)
(-0.00562781 0.000481298 0)
(-0.00601044 0.000477048 0)
(-0.00638895 0.000470893 0)
(-0.0067619 0.000462952 0)
(-0.00712789 0.000453334 0)
(-0.0074856 0.000442137 0)
(-0.00783382 0.000429463 0)
(-0.00817142 0.000415412 0)
(-0.00849731 0.000400074 0)
(-0.0088105 0.00038354 0)
(-0.00911008 0.000365903 0)
(-0.00939518 0.000347247 0)
(-0.00966501 0.000327651 0)
(-0.00991885 0.000307191 0)
(-0.010156 0.00028594 0)
(-0.0103759 0.000263965 0)
(-0.0105779 0.00024133 0)
(-0.0107616 0.000218101 0)
(-0.0109265 0.000194345 0)
(-0.0110722 0.00017012 0)
(-0.0111984 0.000145483 0)
(-0.0113046 0.000120486 0)
(-0.0113908 9.5185e-05 0)
(-0.0114565 6.96334e-05 0)
(-0.0115018 4.38847e-05 0)
(-0.0115263 1.79918e-05 0)
(-0.0115301 -7.99046e-06 0)
(-0.0115131 -3.40065e-05 0)
(-0.0114753 -6.00013e-05 0)
(-0.0114167 -8.59182e-05 0)
(-0.0113375 -0.000111698 0)
(-0.0112377 -0.000137278 0)
(-0.0111176 -0.000162594 0)
(-0.0109774 -0.00018758 0)
(-0.0108174 -0.00021217 0)
(-0.010638 -0.000236293 0)
(-0.0104395 -0.000259874 0)
(-0.0102224 -0.000282833 0)
(-0.00998737 -0.00030509 0)
(-0.00973486 -0.000326563 0)
(-0.00946558 -0.000347166 0)
(-0.00918026 -0.000366812 0)
(-0.00887972 -0.000385406 0)
(-0.00856483 -0.000402852 0)
(-0.00823656 -0.00041905 0)
(-0.00789596 -0.000433899 0)
(-0.00754413 -0.000447294 0)
(-0.00718231 -0.000459128 0)
(-0.00681177 -0.000469286 0)
(-0.00643391 -0.000477651 0)
(-0.0060502 -0.000484103 0)
(-0.00566221 -0.000488525 0)
(-0.00527157 -0.000490797 0)
(-0.00488004 -0.000490804 0)
(-0.00448944 -0.000488432 0)
(-0.00410168 -0.00048357 0)
(-0.00371877 -0.000476108 0)
(-0.00334278 -0.000465941 0)
(-0.00297586 -0.000452967 0)
(-0.0026202 -0.000437098 0)
(-0.00227807 -0.000418256 0)
(-0.00195176 -0.000396384 0)
(-0.00164358 -0.000371449 0)
(-0.00135582 -0.000343448 0)
(-0.00109075 -0.000312427 0)
(-0.000850537 -0.000278487 0)
(-0.000637187 -0.000241821 0)
(-0.000452485 -0.000202744 0)
(-0.000297856 -0.000161764 0)
(-0.000174219 -0.000119667 0)
(-8.17574e-05 -7.76564e-05 0)
(-1.96263e-05 -3.75719e-05 0)
(1.43958e-05 -2.20124e-06 0)
(2.4408e-05 2.42933e-05 0)
(1.76894e-05 3.58318e-05 0)
(5.65802e-06 2.36444e-05 0)
(3.42144e-06 -2.87768e-05 0)
(7.07075e-06 -4.1284e-05 0)
(-3.86901e-06 -1.27228e-05 0)
(-3.93442e-05 4.00215e-05 0)
(-0.000106945 0.000106712 0)
(-0.000210878 0.000180854 0)
(-0.000353374 0.00025806 0)
(-0.000535216 0.000335322 0)
(-0.000756062 0.000410581 0)
(-0.00101476 0.000482441 0)
(-0.00130955 0.000549955 0)
(-0.0016382 0.000612496 0)
(-0.00199821 0.000669669 0)
(-0.00238685 0.000721252 0)
(-0.00280128 0.000767151 0)
(-0.00323859 0.000807368 0)
(-0.00369586 0.000841972 0)
(-0.00417019 0.000871072 0)
(-0.00465871 0.000894817 0)
(-0.00515863 0.000913387 0)
(-0.00566721 0.000926967 0)
(-0.00618185 0.000935764 0)
(-0.00670001 0.000939995 0)
(-0.00721928 0.000939877 0)
(-0.00773735 0.000935624 0)
(-0.00825201 0.000927461 0)
(-0.0087612 0.000915604 0)
(-0.00926293 0.000900265 0)
(-0.00975533 0.000881652 0)
(-0.0102367 0.000859969 0)
(-0.0107053 0.000835408 0)
(-0.0111596 0.000808156 0)
(-0.0115983 0.000778397 0)
(-0.0120198 0.000746305 0)
(-0.0124231 0.000712048 0)
(-0.012807 0.000675791 0)
(-0.0131703 0.000637693 0)
(-0.0135121 0.0005979 0)
(-0.0138314 0.000556552 0)
(-0.0141275 0.000513783 0)
(-0.0143996 0.000469725 0)
(-0.0146469 0.000424504 0)
(-0.014869 0.000378242 0)
(-0.0150651 0.000331056 0)
(-0.0152349 0.000283059 0)
(-0.0153779 0.000234364 0)
(-0.0154938 0.000185075 0)
(-0.0155822 0.0001353 0)
(-0.015643 8.51413e-05 0)
(-0.0156759 3.47082e-05 0)
(-0.0156808 -1.58918e-05 0)
(-0.0156577 -6.65501e-05 0)
(-0.0156066 -0.000117157 0)
(-0.0155275 -0.000167603 0)
(-0.0154205 -0.000217771 0)
(-0.015286 -0.00026754 0)
(-0.015124 -0.000316787 0)
(-0.014935 -0.000365383 0)
(-0.0147194 -0.000413196 0)
(-0.0144777 -0.000460088 0)
(-0.0142103 -0.000505914 0)
(-0.013918 -0.000550524 0)
(-0.0136015 -0.00059376 0)
(-0.0132615 -0.000635463 0)
(-0.012899 -0.000675463 0)
(-0.012515 -0.000713589 0)
(-0.0121106 -0.00074966 0)
(-0.0116869 -0.000783489 0)
(-0.0112453 -0.000814881 0)
(-0.0107872 -0.000843639 0)
(-0.0103141 -0.00086956 0)
(-0.00982752 -0.000892435 0)
(-0.00932934 -0.000912049 0)
(-0.00882138 -0.000928182 0)
(-0.0083056 -0.000940611 0)
(-0.00778409 -0.000949112 0)
(-0.00725905 -0.000953464 0)
(-0.0067328 -0.000953449 0)
(-0.00620777 -0.000948852 0)
(-0.00568649 -0.000939466 0)
(-0.00517159 -0.000925092 0)
(-0.00466581 -0.000905541 0)
(-0.00417197 -0.000880639 0)
(-0.00369293 -0.000850234 0)
(-0.00323163 -0.000814209 0)
(-0.00279102 -0.000772482 0)
(-0.00237408 -0.000725028 0)
(-0.00198371 -0.000671885 0)
(-0.00162276 -0.000613187 0)
(-0.00129393 -0.000549192 0)
(-0.000999677 -0.000480331 0)
(-0.00074214 -0.000407278 0)
(-0.000522981 -0.000331047 0)
(-0.000343222 -0.000253136 0)
(-0.000203008 -0.000175728 0)
(-0.000101325 -0.000101988 0)
(-3.56658e-05 -3.64748e-05 0)
(-1.60127e-06 1.43752e-05 0)
(8.07433e-06 4.16121e-05 0)
(3.96515e-06 3.2266e-05 0)
(1.28542e-06 -3.11945e-05 0)
(-5.81228e-06 -3.04042e-05 0)
(-3.82406e-05 2.22854e-05 0)
(-0.000103583 0.000107413 0)
(-0.000208389 0.000211993 0)
(-0.000356775 0.000327324 0)
(-0.000550928 0.000447285 0)
(-0.000791573 0.000567549 0)
(-0.00107827 0.000685018 0)
(-0.00140969 0.000797519 0)
(-0.00178383 0.000903534 0)
(-0.0021982 0.00100203 0)
(-0.00264989 0.00109233 0)
(-0.00313577 0.00117401 0)
(-0.00365251 0.00124688 0)
(-0.0041967 0.00131085 0)
(-0.00476489 0.001366 0)
(-0.00535361 0.00141245 0)
(-0.00595944 0.00145042 0)
(-0.00657902 0.00148015 0)
(-0.00720908 0.00150192 0)
(-0.00784643 0.00151605 0)
(-0.00848799 0.00152284 0)
(-0.00913084 0.00152265 0)
(-0.00977216 0.00151581 0)
(-0.0104092 0.00150266 0)
(-0.0110395 0.00148354 0)
(-0.0116606 0.00145879 0)
(-0.0122701 0.00142874 0)
(-0.012866 0.0013937 0)
(-0.0134461 0.001354 0)
(-0.0140087 0.00130992 0)
(-0.0145518 0.00126178 0)
(-0.0150738 0.00120984 0)
(-0.0155732 0.00115438 0)
(-0.0160486 0.00109566 0)
(-0.0164985 0.00103394 0)
(-0.0169218 0.000969446 0)
(-0.0173173 0.000902419 0)
(-0.017684 0.000833078 0)
(-0.0180209 0.000761633 0)
(-0.0183273 0.000688291 0)
(-0.0186022 0.00061325 0)
(-0.0188451 0.0005367 0)
(-0.0190554 0.000458829 0)
(-0.0192324 0.000379816 0)
(-0.0193758 0.00029984 0)
(-0.0194852 0.000219076 0)
(-0.0195603 0.000137698 0)
(-0.0196009 5.58804e-05 0)
(-0.0196068 -2.62039e-05 0)
(-0.0195779 -0.000108378 0)
(-0.0195144 -0.000190458 0)
(-0.0194161 -0.000272261 0)
(-0.0192835 -0.000353598 0)
(-0.0191166 -0.000434276 0)
(-0.0189158 -0.000514095 0)
(-0.0186815 -0.000592848 0)
(-0.0184143 -0.000670316 0)
(-0.0181147 -0.000746274 0)
(-0.0177834 -0.000820488 0)
(-0.0174213 -0.000892717 0)
(-0.0170292 -0.000962709 0)
(-0.0166082 -0.0010302 0)
(-0.0161593 -0.00109493 0)
(-0.0156839 -0.0011566 0)
(-0.0151832 -0.00121492 0)
(-0.0146588 -0.0012696 0)
(-0.0141123 -0.00132032 0)
(-0.0135454 -0.00136677 0)
(-0.0129599 -0.00140862 0)
(-0.0123579 -0.00144553 0)
(-0.0117416 -0.00147715 0)
(-0.0111132 -0.00150316 0)
(-0.0104752 -0.00152318 0)
(-0.00983002 -0.00153688 0)
(-0.00918049 -0.0015439 0)
(-0.0085294 -0.0015439 0)
(-0.00787971 -0.00153656 0)
(-0.0072345 -0.00152154 0)
(-0.00659698 -0.00149855 0)
(-0.00597045 -0.0014673 0)
(-0.0053583 -0.00142755 0)
(-0.00476398 -0.00137907 0)
(-0.00419099 -0.00132173 0)
(-0.00364286 -0.00125542 0)
(-0.00312309 -0.00118016 0)
(-0.0026351 -0.00109605 0)
(-0.0021822 -0.00100338 0)
(-0.00176752 -0.000902622 0)
(-0.00139386 -0.000794519 0)
(-0.00106366 -0.000680193 0)
(-0.000778767 -0.000561268 0)
(-0.000540346 -0.000440048 0)
(-0.000348612 -0.000319776 0)
(-0.000202604 -0.000204978 0)
(-9.98801e-05 -0.000101922 0)
(-3.61607e-05 -1.91484e-05 0)
(-5.12708e-06 3.18327e-05 0)
(1.57287e-06 3.45606e-05 0)
(-1.26075e-06 -2.58676e-05 0)
(-2.06578e-05 -9.32436e-07 0)
(-7.74414e-05 8.49659e-05 0)
(-0.000176105 0.000210353 0)
(-0.000321603 0.00036008 0)
(-0.000517569 0.000523507 0)
(-0.00076585 0.000692921 0)
(-0.00106693 0.00086271 0)
(-0.00142016 0.00102876 0)
(-0.00182398 0.00118809 0)
(-0.00227616 0.00133854 0)
(-0.00277392 0.00147861 0)
(-0.00331404 0.00160728 0)
(-0.00389302 0.00172391 0)
(-0.00450716 0.00182813 0)
(-0.00515261 0.0019198 0)
(-0.00582546 0.00199893 0)
(-0.00652179 0.00206567 0)
(-0.00723769 0.00212028 0)
(-0.00796932 0.00216306 0)
(-0.0087129 0.0021944 0)
(-0.00946479 0.00221472 0)
(-0.0102214 0.00222446 0)
(-0.0109794 0.00222407 0)
(-0.0117355 0.00221404 0)
(-0.0124864 0.00219485 0)
(-0.0132293 0.00216698 0)
(-0.0139613 0.0021309 0)
(-0.0146798 0.00208709 0)
(-0.015382 0.00203601 0)
(-0.0160658 0.00197811 0)
(-0.0167289 0.00191382 0)
(-0.017369 0.00184357 0)
(-0.0179844 0.00176776 0)
(-0.018573 0.0016868 0)
(-0.0191333 0.00160107 0)
(-0.0196637 0.00151092 0)
(-0.0201627 0.00141671 0)
(-0.0206289 0.00131878 0)
(-0.0210612 0.00121744 0)
(-0.0214584 0.00111302 0)
(-0.0218195 0.00100582 0)
(-0.0221436 0.000896115 0)
(-0.0224299 0.000784199 0)
(-0.0226776 0.000670342 0)
(-0.0228863 0.00055481 0)
(-0.0230552 0.000437868 0)
(-0.023184 0.000319775 0)
(-0.0232724 0.000200789 0)
(-0.02332 8.11655e-05 0)
(-0.0233267 -3.88389e-05 0)
(-0.0232925 -0.000158963 0)
(-0.0232173 -0.000278942 0)
(-0.0231013 -0.000398502 0)
(-0.0229446 -0.000517366 0)
(-0.0227476 -0.00063525 0)
(-0.0225107 -0.000751861 0)
(-0.0222343 -0.000866894 0)
(-0.0219191 -0.000980034 0)
(-0.0215657 -0.00109095 0)
(-0.0211751 -0.0011993 0)
(-0.0207481 -0.00130473 0)
(-0.0202858 -0.00140688 0)
(-0.0197895 -0.00150535 0)
(-0.0192604 -0.00159977 0)
(-0.0187001 -0.00168971 0)
(-0.0181101 -0.00177475 0)
(-0.0174921 -0.00185446 0)
(-0.0168481 -0.00192838 0)
(-0.0161802 -0.00199605 0)
(-0.0154904 -0.002057 0)
(-0.0147813 -0.00211075 0)
(-0.0140552 -0.0021568 0)
(-0.013315 -0.00219467 0)
(-0.0125633 -0.00222384 0)
(-0.0118032 -0.00224382 0)
(-0.0110379 -0.00225412 0)
(-0.0102706 -0.00225427 0)
(-0.00950472 -0.00224379 0)
(-0.00874393 -0.00222223 0)
(-0.00799187 -0.00218918 0)
(-0.00725235 -0.00214427 0)
(-0.00652926 -0.00208716 0)
(-0.00582654 -0.00201759 0)
(-0.0051482 -0.00193537 0)
(-0.00449823 -0.00184044 0)
(-0.00388058 -0.00173284 0)
(-0.00329911 -0.00161281 0)
(-0.00275751 -0.00148081 0)
(-0.00225926 -0.00133758 0)
(-0.00180747 -0.00118424 0)
(-0.00140484 -0.00102241 0)
(-0.00105344 -0.000854386 0)
(-0.000754626 -0.000683305 0)
(-0.000508822 -0.000513472 0)
(-0.000315329 -0.00035071 0)
(-0.000172056 -0.000202846 0)
(-7.52365e-05 -8.02437e-05 0)
(-1.99922e-05 3.48514e-06 0)
(-1.05574e-06 2.9314e-05 0)
(-3.87687e-06 -1.24723e-05 0)
(-3.61788e-05 4.87071e-05 0)
(-0.000118723 0.000177602 0)
(-0.00025256 0.000351465 0)
(-0.000440765 0.000553554 0)
(-0.000686186 0.000771666 0)
(-0.000990106 0.000996687 0)
(-0.00135257 0.00122184 0)
(-0.0017726 0.00144204 0)
(-0.00224836 0.00165351 0)
(-0.00277735 0.00185345 0)
(-0.00335649 0.00203988 0)
(-0.00398228 0.00221139 0)
(-0.00465089 0.00236708 0)
(-0.00535827 0.00250639 0)
(-0.00610021 0.00262907 0)
(-0.00687242 0.00273509 0)
(-0.00767057 0.00282459 0)
(-0.00849032 0.00289785 0)
(-0.00932743 0.00295526 0)
(-0.0101777 0.00299729 0)
(-0.011037 0.00302447 0)
(-0.0119015 0.00303735 0)
(-0.0127672 0.00303656 0)
(-0.0136305 0.0030227 0)
(-0.0144879 0.00299642 0)
(-0.0153359 0.00295834 0)
(-0.0161714 0.00290911 0)
(-0.0169914 0.00284935 0)
(-0.0177929 0.00277968 0)
(-0.0185733 0.0027007 0)
(-0.01933 0.00261301 0)
(-0.0200606 0.00251717 0)
(-0.0207628 0.00241375 0)
(-0.0214346 0.00230327 0)
(-0.0220741 0.00218625 0)
(-0.0226794 0.0020632 0)
(-0.0232488 0.00193458 0)
(-0.0237809 0.00180086 0)
(-0.0242742 0.00166248 0)
(-0.0247275 0.00151987 0)
(-0.0251396 0.00137344 0)
(-0.0255094 0.00122359 0)
(-0.025836 0.0010707 0)
(-0.0261187 0.000915155 0)
(-0.0263567 0.00075732 0)
(-0.0265493 0.000597554 0)
(-0.0266962 0.000436216 0)
(-0.0267968 0.00027366 0)
(-0.026851 0.000110239 0)
(-0.0268585 -5.36921e-05 0)
(-0.0268192 -0.000217773 0)
(-0.0267332 -0.000381641 0)
(-0.0266006 -0.000544925 0)
(-0.0264215 -0.000707243 0)
(-0.0261964 -0.000868204 0)
(-0.0259258 -0.00102741 0)
(-0.0256102 -0.00118443 0)
(-0.0252502 -0.00133885 0)
(-0.0248468 -0.00149021 0)
(-0.0244008 -0.00163805 0)
(-0.0239134 -0.00178188 0)
(-0.0233858 -0.00192121 0)
(-0.0228194 -0.00205552 0)
(-0.0222156 -0.00218426 0)
(-0.0215762 -0.00230687 0)
(-0.020903 -0.0024228 0)
(-0.0201979 -0.00253143 0)
(-0.0194632 -0.00263216 0)
(-0.0187011 -0.00272436 0)
(-0.0179142 -0.0028074 0)
(-0.0171052 -0.00288063 0)
(-0.0162768 -0.00294338 0)
(-0.0154322 -0.002995 0)
(-0.0145745 -0.00303482 0)
(-0.0137071 -0.00306218 0)
(-0.0128335 -0.00307643 0)
(-0.0119575 -0.00307693 0)
(-0.0110829 -0.00306307 0)
(-0.0102137 -0.00303428 0)
(-0.00935409 -0.00299002 0)
(-0.00850824 -0.00292982 0)
(-0.0076805 -0.00285326 0)
(-0.00687526 -0.00276004 0)
(-0.00609692 -0.00264996 0)
(-0.00534991 -0.00252297 0)
(-0.00463855 -0.00237921 0)
(-0.00396707 -0.00221906 0)
(-0.00333953 -0.00204318 0)
(-0.00275969 -0.00185261 0)
(-0.00223097 -0.0016489 0)
(-0.00175632 -0.0014342 0)
(-0.00133809 -0.00121145 0)
(-0.000977921 -0.000984637 0)
(-0.000676552 -0.000759061 0)
(-0.000433733 -0.000541718 0)
(-0.000247949 -0.000341785 0)
(-0.000116208 -0.000171111 0)
(-3.53949e-05 -4.49049e-05 0)
(-3.6952e-06 1.6106e-05 0)
(-6.42476e-06 9.02364e-06 0)
(-5.1645e-05 0.00011906 0)
(-0.000160349 0.000301214 0)
(-0.000330052 0.000532034 0)
(-0.000561816 0.000793737 0)
(-0.000857546 0.00107293 0)
(-0.00121777 0.00135937 0)
(-0.00164194 0.00164525 0)
(-0.00212865 0.00192459 0)
(-0.00267571 0.00219287 0)
(-0.00328029 0.00244669 0)
(-0.003939 0.00268357 0)
(-0.00464804 0.00290172 0)
(-0.00540329 0.00309994 0)
(-0.00620038 0.00327749 0)
(-0.00703476 0.00343397 0)
(-0.00790179 0.0035693 0)
(-0.0087968 0.00368359 0)
(-0.00971509 0.00377716 0)
(-0.010652 0.00385046 0)
(-0.0116031 0.00390403 0)
(-0.0125637 0.00393852 0)
(-0.0135296 0.00395463 0)
(-0.0144967 0.0039531 0)
(-0.0154607 0.00393472 0)
(-0.0164179 0.00390027 0)
(-0.0173645 0.00385057 0)
(-0.0182971 0.00378641 0)
(-0.0192121 0.0037086 0)
(-0.0201066 0.00361793 0)
(-0.0209773 0.00351517 0)
(-0.0218216 0.00340108 0)
(-0.0226367 0.00327639 0)
(-0.0234201 0.00314182 0)
(-0.0241696 0.00299807 0)
(-0.024883 0.00284579 0)
(-0.0255582 0.00268564 0)
(-0.0261935 0.00251823 0)
(-0.0267871 0.00234417 0)
(-0.0273374 0.00216403 0)
(-0.027843 0.00197836 0)
(-0.0283026 0.00178771 0)
(-0.0287151 0.00159259 0)
(-0.0290794 0.00139351 0)
(-0.0293947 0.00119096 0)
(-0.02966 0.00098543 0)
(-0.0298748 0.000777383 0)
(-0.0300385 0.000567289 0)
(-0.0301506 0.000355611 0)
(-0.0302109 0.000142813 0)
(-0.030219 -7.06388e-05 0)
(-0.030175 -0.000284273 0)
(-0.0300789 -0.000497614 0)
(-0.0299307 -0.000710177 0)
(-0.0297307 -0.000921467 0)
(-0.0294795 -0.00113097 0)
(-0.0291774 -0.00133816 0)
(-0.0288251 -0.0015425 0)
(-0.0284233 -0.00174342 0)
(-0.0279731 -0.00194034 0)
(-0.0274755 -0.00213265 0)
(-0.0269317 -0.00231974 0)
(-0.0263431 -0.00250093 0)
(-0.0257112 -0.00267558 0)
(-0.0250376 -0.00284296 0)
(-0.0243243 -0.00300237 0)
(-0.0235734 -0.00315306 0)
(-0.0227869 -0.00329425 0)
(-0.0219673 -0.00342518 0)
(-0.0211173 -0.00354502 0)
(-0.0202395 -0.00365296 0)
(-0.019337 -0.00374817 0)
(-0.0184129 -0.0038298 0)
(-0.0174705 -0.00389701 0)
(-0.0165134 -0.00394895 0)
(-0.0155453 -0.00398479 0)
(-0.0145701 -0.00400369 0)
(-0.0135919 -0.00400487 0)
(-0.012615 -0.00398757 0)
(-0.0116436 -0.00395106 0)
(-0.0106824 -0.00389469 0)
(-0.0097359 -0.00381788 0)
(-0.00880888 -0.00372017 0)
(-0.00790609 -0.00360119 0)
(-0.00703232 -0.00346074 0)
(-0.00619233 -0.00329884 0)
(-0.00539081 -0.00311569 0)
(-0.00463233 -0.00291185 0)
(-0.00392123 -0.00268822 0)
(-0.0032616 -0.00244615 0)
(-0.00265716 -0.00218762 0)
(-0.00211113 -0.00191529 0)
(-0.00162621 -0.00163278 0)
(-0.00120437 -0.00134484 0)
(-0.000846808 -0.00105766 0)
(-0.000553862 -0.000779279 0)
(-0.000324753 -0.000519962 0)
(-0.000157431 -0.000292709 0)
(-5.06916e-05 -0.00011384 0)
(-6.23949e-06 -5.07913e-06 0)
(-8.84795e-06 3.84084e-05 0)
(-6.66779e-05 0.000210033 0)
(-0.00020127 0.000455908 0)
(-0.000406727 0.000752382 0)
(-0.000682068 0.00108103 0)
(-0.00102815 0.00142766 0)
(-0.00144466 0.00178112 0)
(-0.00193034 0.00213277 0)
(-0.00248325 0.00247585 0)
(-0.00310075 0.00280517 0)
(-0.00377965 0.00311676 0)
(-0.00451623 0.00340766 0)
(-0.00530638 0.00367572 0)
(-0.00614566 0.00391945 0)
(-0.00702939 0.00413789 0)
(-0.00795273 0.00433052 0)
(-0.00891072 0.00449716 0)
(-0.00989835 0.00463792 0)
(-0.0109106 0.00475312 0)
(-0.0119426 0.00484327 0)
(-0.0129893 0.004909 0)
(-0.0140459 0.00495108 0)
(-0.0151079 0.00497033 0)
(-0.0161706 0.00496765 0)
(-0.0172298 0.00494397 0)
(-0.0182811 0.00490027 0)
(-0.0193206 0.00483752 0)
(-0.0203444 0.00475672 0)
(-0.0213489 0.00465884 0)
(-0.0223306 0.00454485 0)
(-0.0232862 0.00441572 0)
(-0.0242127 0.00427238 0)
(-0.0251071 0.00411576 0)
(-0.0259668 0.00394673 0)
(-0.0267891 0.00376616 0)
(-0.0275718 0.00357488 0)
(-0.0283126 0.0033737 0)
(-0.0290096 0.0031634 0)
(-0.0296607 0.00294473 0)
(-0.0302644 0.0027184 0)
(-0.030819 0.00248513 0)
(-0.0313232 0.00224558 0)
(-0.0317757 0.00200041 0)
(-0.0321753 0.00175025 0)
(-0.032521 0.00149573 0)
(-0.032812 0.00123746 0)
(-0.0330475 0.000976025 0)
(-0.0332269 0.000712021 0)
(-0.0333498 0.000446034 0)
(-0.0334157 0.000178647 0)
(-0.0334245 -8.955e-05 0)
(-0.0333761 -0.000357965 0)
(-0.0332704 -0.000625997 0)
(-0.0331077 -0.000893034 0)
(-0.0328882 -0.00115845 0)
(-0.0326124 -0.00142161 0)
(-0.0322808 -0.00168184 0)
(-0.0318942 -0.00193846 0)
(-0.0314534 -0.00219076 0)
(-0.0309594 -0.00243802 0)
(-0.0304134 -0.00267948 0)
(-0.0298168 -0.00291434 0)
(-0.029171 -0.0031418 0)
(-0.0284777 -0.003361 0)
(-0.0277388 -0.00357109 0)
(-0.0269562 -0.00377115 0)
(-0.0261323 -0.00396026 0)
(-0.0252695 -0.00413746 0)
(-0.0243704 -0.00430177 0)
(-0.0234377 -0.0044522 0)
(-0.0224746 -0.00458772 0)
(-0.0214842 -0.00470731 0)
(-0.02047 -0.00480991 0)
(-0.0194357 -0.0048945 0)
(-0.018385 -0.00496002 0)
(-0.0173219 -0.00500546 0)
(-0.0162509 -0.00502981 0)
(-0.0151761 -0.0050321 0)
(-0.0141023 -0.00501142 0)
(-0.0130341 -0.0049669 0)
(-0.0119763 -0.00489777 0)
(-0.0109341 -0.00480335 0)
(-0.00991235 -0.0046831 0)
(-0.00891626 -0.00453663 0)
(-0.00795092 -0.00436375 0)
(-0.00702144 -0.0041645 0)
(-0.00613282 -0.00393924 0)
(-0.00528992 -0.00368866 0)
(-0.00449742 -0.00341392 0)
(-0.0037597 -0.00311671 0)
(-0.00308078 -0.00279938 0)
(-0.00246424 -0.00246515 0)
(-0.00191312 -0.00211821 0)
(-0.00142985 -0.00176402 0)
(-0.00101617 -0.00140958 0)
(-0.000673084 -0.00106373 0)
(-0.000400672 -0.000737638 0)
(-0.000197911 -0.000445116 0)
(-6.553e-05 -0.000203184 0)
(-8.64382e-06 -3.40269e-05 0)
(-1.11231e-05 7.53477e-05 0)
(-8.10697e-05 0.000321099 0)
(-0.000240888 0.000641197 0)
(-0.000481447 0.00101212 0)
(-0.000799798 0.00141515 0)
(-0.0011957 0.00183555 0)
(-0.00166795 0.00226157 0)
(-0.0022145 0.00268385 0)
(-0.0028328 0.00309503 0)
(-0.00351973 0.0034893 0)
(-0.00427165 0.0038622 0)
(-0.00508447 0.00421032 0)
(-0.00595376 0.00453117 0)
(-0.00687476 0.00482297 0)
(-0.00784248 0.00508458 0)
(-0.00885178 0.00531532 0)
(-0.0098974 0.00551494 0)
(-0.010974 0.00568352 0)
(-0.0120764 0.00582139 0)
(-0.0131992 0.00592911 0)
(-0.0143372 0.00600742 0)
(-0.0154853 0.00605718 0)
(-0.0166387 0.00607935 0)
(-0.0177923 0.00607498 0)
(-0.0189416 0.00604518 0)
(-0.0200821 0.00599109 0)
(-0.0212095 0.00591388 0)
(-0.0223196 0.00581472 0)
(-0.0234085 0.0056948 0)
(-0.0244726 0.00555527 0)
(-0.0255084 0.00539729 0)
(-0.0265124 0.00522199 0)
(-0.0274815 0.00503049 0)
(-0.028413 0.00482384 0)
(-0.0293039 0.00460311 0)
(-0.0301518 0.0043693 0)
(-0.0309544 0.00412338 0)
(-0.0317093 0.00386632 0)
(-0.0324146 0.00359902 0)
(-0.0330685 0.00332236 0)
(-0.0336692 0.00303719 0)
(-0.0342153 0.00274435 0)
(-0.0347053 0.00244463 0)
(-0.035138 0.00213882 0)
(-0.0355124 0.00182767 0)
(-0.0358275 0.00151192 0)
(-0.0360825 0.00119232 0)
(-0.0362767 0.000869574 0)
(-0.0364096 0.000544412 0)
(-0.036481 0.00021755 0)
(-0.0364904 -0.000110292 0)
(-0.0364378 -0.000438388 0)
(-0.0363232 -0.000766001 0)
(-0.0361469 -0.00109238 0)
(-0.035909 -0.00141676 0)
(-0.0356102 -0.00173836 0)
(-0.035251 -0.00205636 0)
(-0.0348322 -0.00236993 0)
(-0.0343546 -0.00267821 0)
(-0.0338195 -0.0029803 0)
(-0.0332281 -0.00327528 0)
(-0.0325818 -0.00356219 0)
(-0.0318823 -0.00384004 0)
(-0.0311313 -0.0041078 0)
(-0.0303308 -0.00436441 0)
(-0.0294832 -0.00460878 0)
(-0.0285906 -0.00483977 0)
(-0.0276559 -0.00505624 0)
(-0.0266817 -0.00525698 0)
(-0.0256712 -0.00544081 0)
(-0.0246275 -0.00560648 0)
(-0.0235542 -0.00575275 0)
(-0.0224549 -0.00587838 0)
(-0.0213336 -0.0059821 0)
(-0.0201942 -0.00606268 0)
(-0.0190413 -0.00611889 0)
(-0.0178792 -0.00614954 0)
(-0.0167127 -0.00615349 0)
(-0.0155467 -0.00612965 0)
(-0.0143861 -0.00607701 0)
(-0.0132363 -0.00599468 0)
(-0.0121024 -0.00588188 0)
(-0.0109898 -0.00573801 0)
(-0.00990406 -0.00556263 0)
(-0.00885047 -0.00535558 0)
(-0.00783447 -0.00511696 0)
(-0.00686138 -0.00484723 0)
(-0.00593637 -0.00454726 0)
(-0.00506441 -0.00421845 0)
(-0.00425021 -0.0038628 0)
(-0.00349813 -0.00348308 0)
(-0.00281212 -0.00308295 0)
(-0.00219563 -0.00266716 0)
(-0.00165161 -0.00224178 0)
(-0.00118238 -0.00181445 0)
(-0.000789719 -0.00139473 0)
(-0.000474605 -0.000994405 0)
(-0.000237075 -0.000627836 0)
(-7.97309e-05 -0.000312416 0)
(-1.08936e-05 -7.04053e-05 0)
(-1.32575e-05 0.000119457 0)
(-9.4755e-05 0.000451535 0)
(-0.000278892 0.000856245 0)
(-0.000553567 0.0013104 0)
(-0.000913977 0.00179528 0)
(-0.00135878 0.00229585 0)
(-0.00188583 0.00279991 0)
(-0.0024923 0.00329762 0)
(-0.00317496 0.00378109 0)
(-0.00393013 0.00424403 0)
(-0.00475371 0.00468153 0)
(-0.00564122 0.0050898 0)
(-0.00658784 0.00546602 0)
(-0.00758849 0.00580818 0)
(-0.00863787 0.00611492 0)
(-0.00973053 0.00638545 0)
(-0.0108609 0.00661944 0)
(-0.0120235 0.00681692 0)
(-0.0132126 0.00697827 0)
(-0.0144227 0.00710408 0)
(-0.0156483 0.00719518 0)
(-0.016884 0.00725255 0)
(-0.0181247 0.0072773 0)
(-0.0193651 0.00727061 0)
(-0.0206004 0.00723378 0)
(-0.0218258 0.00716813 0)
(-0.0230367 0.00707502 0)
(-0.0242288 0.00695582 0)
(-0.025398 0.00681191 0)
(-0.0265403 0.00664467 0)
(-0.0276519 0.00645545 0)
(-0.0287293 0.00624558 0)
(-0.0297693 0.00601638 0)
(-0.0307686 0.00576912 0)
(-0.0317244 0.00550503 0)
(-0.032634 0.00522533 0)
(-0.0334948 0.00493116 0)
(-0.0343046 0.00462367 0)
(-0.0350611 0.00430394 0)
(-0.0357623 0.00397302 0)
(-0.0364066 0.00363193 0)
(-0.0369921 0.00328165 0)
(-0.0375176 0.00292315 0)
(-0.0379816 0.00255736 0)
(-0.038383 0.00218519 0)
(-0.0387209 0.00180752 0)
(-0.0389943 0.00142525 0)
(-0.0392025 0.00103922 0)
(-0.039345 0.000650308 0)
(-0.0394214 0.000259373 0)
(-0.0394315 -0.000132723 0)
(-0.039375 -0.000525109 0)
(-0.0392521 -0.000916904 0)
(-0.039063 -0.00130721 0)
(-0.0388079 -0.00169511 0)
(-0.0384874 -0.00207966 0)
(-0.0381022 -0.00245989 0)
(-0.037653 -0.00283481 0)