/*--------------------------------*- C++ -*----------------------------------*\
| =========                 |                                                 |
| \\      /  F ield         | OpenFOAM: The Open Source CFD Toolbox           |
|  \\    /   O peration     | Version:  2212                                  |
|   \\  /    A nd           | Website:  www.openfoam.com                      |
|    \\/     M anipulation  |                                                 |
\*---------------------------------------------------------------------------*/
FoamFile
{
    version     2.0;
    format      ascii;
    arch        "LSB;label=32;scalar=64";
    class       surfaceScalarField;
    location    "0.087";
    object      phi;
}
// * * * * * * * * * * * * * * * * * * * * * * * * * * * * * * * * * * * * * //

dimensions      [0 3 -1 0 0 0 0];

oriented        oriented;

internalField   nonuniform List<scalar> 
19800
(
7.04493e-11
-7.03084e-11
2.41933e-10
-1.71485e-10
4.30905e-10
-1.88973e-10
5.79263e-10
-1.4837e-10
6.53765e-10
-7.45055e-11
6.3606e-10
1.77057e-11
5.16946e-10
1.19104e-10
2.93031e-10
2.23905e-10
-3.53955e-11
3.28421e-10
-4.65669e-10
4.30271e-10
-9.93574e-10
5.27905e-10
-1.61385e-09
6.2028e-10
-2.32054e-09
7.06696e-10
-3.10724e-09
7.86707e-10
-3.96728e-09
8.6004e-10
-4.89382e-09
9.26534e-10
-5.87994e-09
9.86116e-10
-6.91872e-09
1.03878e-09
-8.00329e-09
1.08456e-09
-9.12685e-09
1.12356e-09
-1.02827e-08
1.15589e-09
-1.14644e-08
1.18168e-09
-1.26655e-08
1.20108e-09
-1.38798e-08
1.21427e-09
-1.51012e-08
1.22142e-09
-1.63239e-08
1.22272e-09
-1.75423e-08
1.21837e-09
-1.87509e-08
1.20856e-09
-1.99444e-08
1.19351e-09
-2.11178e-08
1.17343e-09
-2.22663e-08
1.14851e-09
-2.33853e-08
1.11898e-09
-2.44703e-08
1.08504e-09
-2.55173e-08
1.04692e-09
-2.65221e-08
1.00483e-09
-2.74811e-08
9.58978e-10
-2.83907e-08
9.09581e-10
-2.92475e-08
8.56855e-10
-3.00486e-08
8.01023e-10
-3.07909e-08
7.42305e-10
-3.14718e-08
6.80922e-10
-3.20889e-08
6.171e-10
-3.26399e-08
5.51055e-10
-3.31229e-08
4.83011e-10
-3.35361e-08
4.13204e-10
-3.3878e-08
3.4186e-10
-3.41472e-08
2.69214e-10
-3.43427e-08
1.95513e-10
-3.44637e-08
1.20987e-10
-3.45096e-08
4.58792e-11
-3.448e-08
-2.955e-11
-3.4375e-08
-1.05059e-10
-3.41946e-08
-1.80403e-10
-3.39393e-08
-2.5531e-10
-3.36097e-08
-3.29518e-10
-3.3207e-08
-4.02775e-10
-3.27322e-08
-4.74802e-10
-3.21868e-08
-5.45318e-10
-3.15728e-08
-6.14066e-10
-3.0892e-08
-6.8077e-10
-3.01469e-08
-7.45135e-10
-2.934e-08
-8.06881e-10
-2.84743e-08
-8.65739e-10
-2.75528e-08
-9.21424e-10
-2.65792e-08
-9.73645e-10
-2.55571e-08
-1.02213e-09
-2.44904e-08
-1.06662e-09
-2.33836e-08
-1.10683e-09
-2.22411e-08
-1.14248e-09
-2.10678e-08
-1.17334e-09
-1.98687e-08
-1.19914e-09
-1.8649e-08
-1.21964e-09
-1.74144e-08
-1.2346e-09
-1.61706e-08
-1.2438e-09
-1.49236e-08
-1.24703e-09
-1.36795e-08
-1.24409e-09
-1.24447e-08
-1.23481e-09
-1.12257e-08
-1.21902e-09
-1.00291e-08
-1.19659e-09
-8.86173e-09
-1.16738e-09
-7.73042e-09
-1.1313e-09
-6.64212e-09
-1.08829e-09
-5.6038e-09
-1.03832e-09
-4.62239e-09
-9.8141e-10
-3.70478e-09
-9.17611e-10
-2.85774e-09
-8.47036e-10
-2.08785e-09
-7.6988e-10
-1.40142e-09
-6.86431e-10
-8.04329e-10
-5.97099e-10
-3.01861e-10
-5.02464e-10
1.01495e-10
-4.03351e-10
4.02425e-10
-3.0093e-10
5.99308e-10
-1.96887e-10
6.93026e-10
-9.37184e-11
6.88238e-10
4.79884e-12
5.95443e-10
9.28069e-11
4.34219e-10
1.61224e-10
2.38743e-10
1.95464e-10
6.70574e-11
1.71676e-10
6.70623e-11
1.71535e-10
-2.41846e-10
4.71542e-10
-4.71493e-10
7.59412e-10
-4.76849e-10
9.33218e-10
-3.22177e-10
9.22136e-10
-6.34367e-11
6.80804e-10
2.59044e-10
1.82744e-10
6.17165e-10
-5.84922e-10
9.91574e-10
-1.62546e-09
1.36896e-09
-2.9353e-09
1.74011e-09
-4.50603e-09
2.09863e-09
-6.32579e-09
2.44003e-09
-8.38028e-09
2.76119e-09
-1.06535e-08
3.05995e-09
-1.31283e-08
3.33485e-09
-1.57868e-08
3.58497e-09
-1.86104e-08
3.80978e-09
-2.15807e-08
4.009e-09
-2.46787e-08
4.18264e-09
-2.7886e-08
4.33086e-09
-3.11841e-08
4.45395e-09
-3.45547e-08
4.55232e-09
-3.79801e-08
4.62647e-09
-4.14428e-08
4.67696e-09
-4.49258e-08
4.70441e-09
-4.84126e-08
4.7095e-09
-5.18871e-08
4.69292e-09
-5.5334e-08
4.65541e-09
-5.87382e-08
4.59773e-09
-6.20854e-08
4.52065e-09
-6.53619e-08
4.42496e-09
-6.85543e-08
4.31145e-09
-7.16502e-08
4.18094e-09
-7.46375e-08
4.03423e-09
-7.75048e-08
3.87215e-09
-8.02414e-08
3.69553e-09
-8.2837e-08
3.50521e-09
-8.52822e-08
3.30201e-09
-8.75679e-08
3.08677e-09
-8.9686e-08
2.86037e-09
-9.16287e-08
2.62364e-09
-9.33891e-08
2.37746e-09
-9.49607e-08
2.1227e-09
-9.63379e-08
1.86024e-09
-9.75157e-08
1.59096e-09
-9.84896e-08
1.31576e-09
-9.92559e-08
1.03556e-09
-9.98117e-08
7.51271e-10
-1.00155e-07
4.63849e-10
-1.00283e-07
1.74228e-10
-1.00196e-07
-1.16633e-10
-9.98931e-08
-4.07743e-10
-9.93754e-08
-6.98121e-10
-9.86439e-08
-9.86777e-10
-9.77008e-08
-1.27268e-09
-9.65487e-08
-1.55481e-09
-9.51914e-08
-1.83214e-09
-9.36331e-08
-2.10362e-09
-9.1879e-08
-2.36816e-09
-8.9935e-08
-2.62472e-09
-8.78079e-08
-2.87223e-09
-8.55052e-08
-3.1096e-09
-8.30352e-08
-3.33574e-09
-8.0407e-08
-3.5496e-09
-7.76306e-08
-3.75012e-09
-7.47165e-08
-3.93621e-09
-7.16763e-08
-4.10684e-09
-6.85221e-08
-4.26099e-09
-6.52669e-08
-4.39765e-09
-6.19244e-08
-4.51584e-09
-5.85089e-08
-4.61459e-09
-5.50356e-08
-4.69302e-09
-5.15199e-08
-4.75023e-09
-4.79783e-08
-4.7854e-09
-4.44276e-08
-4.79775e-09
-4.08851e-08
-4.78659e-09
-3.73687e-08
-4.75127e-09
-3.38965e-08
-4.69122e-09
-3.04871e-08
-4.60595e-09
-2.71594e-08
-4.49508e-09
-2.39323e-08
-4.35835e-09
-2.0825e-08
-4.1956e-09
-1.78565e-08
-4.00683e-09
-1.50457e-08
-3.79225e-09
-1.2411e-08
-3.55224e-09
-9.97058e-09
-3.28747e-09
-7.74157e-09
-2.99889e-09
-5.74013e-09
-2.68788e-09
-3.98088e-09
-2.35635e-09
-2.47642e-09
-2.00693e-09
-1.23658e-09
-1.64319e-09
-2.67482e-10
-1.27005e-09
4.29907e-10
-8.94294e-10
8.61647e-10
-5.25465e-10
1.04354e-09
-1.77091e-10
1.00487e-09
1.31477e-10
7.93492e-10
3.72601e-10
4.81794e-10
5.07157e-10
1.71586e-10
4.81888e-10
2.38654e-10
1.89601e-10
-4.31448e-10
4.78906e-10
-7.60806e-10
6.94942e-10
-6.92892e-10
7.14965e-10
-3.42208e-10
4.50028e-10
2.01496e-10
-1.6056e-10
8.69614e-10
-1.15478e-09
1.61137e-09
-2.55306e-09
2.38986e-09
-4.3625e-09
3.1784e-09
-6.58013e-09
3.95775e-09
-9.19546e-09
4.71395e-09
-1.21924e-08
5.43696e-09
-1.55507e-08
6.11951e-09
-1.92472e-08
6.75642e-09
-2.32564e-08
7.34407e-09
-2.75514e-08
7.88e-09
-3.21043e-08
8.36265e-09
-3.68865e-08
8.79115e-09
-4.1869e-08
9.16519e-09
-4.7023e-08
9.48487e-09
-5.23197e-08
9.75063e-09
-5.77305e-08
9.96317e-09
-6.32275e-08
1.01234e-08
-6.8783e-08
1.02325e-08
-7.43702e-08
1.02916e-08
-7.99629e-08
1.03022e-08
-8.55356e-08
1.02656e-08
-9.10636e-08
1.01834e-08
-9.65232e-08
1.00573e-08
-1.01891e-07
9.88874e-09
-1.07146e-07
9.67954e-09
-1.12266e-07
9.43137e-09
-1.17231e-07
9.14599e-09
-1.22022e-07
8.82514e-09
-1.2662e-07
8.47063e-09
-1.31009e-07
8.08424e-09
-1.35172e-07
7.6678e-09
-1.39093e-07
7.22315e-09
-1.42758e-07
6.75212e-09
-1.46154e-07
6.2566e-09
-1.49269e-07
5.73845e-09
-1.52091e-07
5.19956e-09
-1.5461e-07
4.64188e-09
-1.56817e-07
4.06733e-09
-1.58704e-07
3.47786e-09
-1.60264e-07
2.87546e-09
-1.61491e-07
2.26214e-09
-1.62379e-07
1.63993e-09
-1.62926e-07
1.01087e-09
-1.63129e-07
3.7707e-10
-1.62986e-07
-2.59366e-10
-1.62498e-07
-8.96303e-10
-1.61664e-07
-1.53156e-09
-1.60488e-07
-2.16292e-09
-1.58973e-07
-2.78819e-09
-1.57122e-07
-3.4051e-09
-1.54943e-07
-4.01138e-09
-1.52442e-07
-4.60473e-09
-1.49627e-07
-5.18285e-09
-1.46509e-07
-5.7434e-09
-1.43097e-07
-6.28402e-09
-1.39404e-07
-6.80239e-09
-1.35444e-07
-7.29617e-09
-1.3123e-07
-7.76302e-09
-1.2678e-07
-8.20061e-09
-1.22109e-07
-8.60667e-09
-1.17237e-07
-8.97893e-09
-1.12183e-07
-9.31516e-09
-1.06968e-07
-9.6132e-09
-1.01612e-07
-9.87094e-09
-9.61407e-08
-1.00864e-08
-9.05762e-08
-1.02575e-08
-8.4944e-08
-1.03824e-08
-7.927e-08
-1.04595e-08
-7.35807e-08
-1.0487e-08
-6.79038e-08
-1.04635e-08
-6.22673e-08
-1.03877e-08
-5.67e-08
-1.02585e-08
-5.12312e-08
-1.00748e-08
-4.58903e-08
-9.83601e-09
-4.0707e-08
-9.54163e-09
-3.5711e-08
-9.19152e-09
-3.0932e-08
-8.78589e-09
-2.63989e-08
-8.32535e-09
-2.21401e-08
-7.81102e-09
-1.8183e-08
-7.24459e-09
-1.45533e-08
-6.62852e-09
-1.1275e-08
-5.96617e-09
-8.36926e-09
-5.26212e-09
-5.85374e-09
-4.52245e-09
-3.74159e-09
-3.75534e-09
-2.03993e-09
-2.97169e-09
-7.48045e-10
-2.18618e-09
1.45114e-10
-1.41862e-09
6.64e-10
-6.95981e-10
8.50438e-10
-5.49641e-11
7.68412e-10
4.54626e-10
5.09139e-10
7.66431e-10
1.95955e-10
7.95074e-10
4.34612e-10
1.50659e-10
-5.82116e-10
3.29189e-10
-9.39333e-10
3.53022e-10
-7.16723e-10
9.13091e-11
-8.05015e-11
-5.52055e-10
8.44857e-10
-1.64463e-09
1.96219e-09
-3.23034e-09
3.19707e-09
-5.33398e-09
4.49349e-09
-7.96511e-09
5.80954e-09
-1.11213e-08
7.11391e-09
-1.47906e-08
8.38328e-09
-1.8954e-08
9.60034e-09
-2.35867e-08
1.07523e-08
-2.866e-08
1.18297e-08
-3.41418e-08
1.28259e-08
-3.99978e-08
1.3736e-08
-4.61921e-08
1.4557e-08
-5.26878e-08
1.52868e-08
-5.94473e-08
1.59246e-08
-6.64325e-08
1.64702e-08
-7.36059e-08
1.69239e-08
-8.09295e-08
1.72869e-08
-8.83665e-08
1.75603e-08
-9.58801e-08
1.77461e-08
-1.03434e-07
1.7846e-08
-1.10995e-07
1.78624e-08
-1.18527e-07
1.77977e-08
-1.25998e-07
1.76542e-08
-1.33375e-07
1.74348e-08
-1.40629e-07
1.71422e-08
-1.47728e-07
1.67792e-08
-1.54646e-07
1.63488e-08
-1.61354e-07
1.58539e-08
-1.67826e-07
1.52975e-08
-1.74038e-07
1.46828e-08
-1.79967e-07
1.40128e-08
-1.8559e-07
1.32906e-08
-1.90886e-07
1.25195e-08
-1.95837e-07
1.17027e-08
-2.00423e-07
1.08433e-08
-2.04629e-07
9.9447e-09
-2.0844e-07
9.01014e-09
-2.11841e-07
8.04294e-09
-2.1482e-07
7.04651e-09
-2.17367e-07
6.02424e-09
-2.19471e-07
4.97958e-09
-2.21125e-07
3.91602e-09
-2.22322e-07
2.83712e-09
-2.23057e-07
1.74643e-09
-2.23328e-07
6.47592e-10
-2.23132e-07
-4.55708e-10
-2.22468e-07
-1.55975e-09
-2.21339e-07
-2.66077e-09
-2.19747e-07
-3.75493e-09
-2.17697e-07
-4.83837e-09
-2.15195e-07
-5.90719e-09
-2.12249e-07
-6.95745e-09
-2.08868e-07
-7.98517e-09
-2.05065e-07
-8.98633e-09
-2.00851e-07
-9.95692e-09
-1.96242e-07
-1.08929e-08
-1.91254e-07
-1.17902e-08
-1.85906e-07
-1.26448e-08
-1.80216e-07
-1.34527e-08
-1.74207e-07
-1.421e-08
-1.67901e-07
-1.49125e-08
-1.61323e-07
-1.55566e-08
-1.545e-07
-1.61384e-08
-1.47459e-07
-1.66541e-08
-1.4023e-07
-1.71002e-08
-1.32843e-07
-1.74732e-08
-1.25331e-07
-1.77698e-08
-1.17726e-07
-1.79869e-08
-1.10064e-07
-1.81216e-08
-1.0238e-07
-1.8171e-08
-9.47107e-08
-1.81328e-08
-8.70936e-08
-1.80048e-08
-7.9567e-08
-1.77852e-08
-7.21693e-08
-1.74725e-08
-6.49398e-08
-1.70656e-08
-5.79174e-08
-1.6564e-08
-5.11412e-08
-1.59677e-08
-4.46499e-08
-1.52772e-08
-3.84812e-08
-1.4494e-08
-3.26718e-08
-1.36204e-08
-2.72569e-08
-1.26595e-08
-2.22693e-08
-1.16161e-08
-1.77391e-08
-1.04964e-08
-1.36926e-08
-9.30863e-09
-1.01514e-08
-8.06376e-09
-7.13071e-09
-6.77599e-09
-4.63843e-09
-5.46397e-09
-2.67246e-09
-4.15215e-09
-1.21844e-09
-2.87263e-09
-2.46747e-10
-1.66767e-09
2.91193e-10
-5.92899e-10
4.67059e-10
2.78759e-10
3.80192e-10
8.53296e-10
1.63426e-10
1.01184e-09
5.98037e-10
7.92933e-11
-6.61413e-10
7.76329e-11
-9.37682e-10
-1.78196e-10
-4.60884e-10
-8.16361e-10
5.57655e-10
-1.93236e-09
1.96085e-09
-3.59451e-09
3.62435e-09
-5.84815e-09
5.4507e-09
-8.71938e-09
7.3647e-09
-1.22184e-08
9.30853e-09
-1.63423e-08
1.12379e-08
-2.1078e-08
1.31189e-08
-2.64036e-08
1.49259e-08
-3.22908e-08
1.66395e-08
-3.87062e-08
1.82451e-08
-4.56124e-08
1.9732e-08
-5.29688e-08
2.10925e-08
-6.0733e-08
2.23211e-08
-6.88607e-08
2.34145e-08
-7.73068e-08
2.43707e-08
-8.60257e-08
2.5189e-08
-9.49715e-08
2.58698e-08
-1.04099e-07
2.6414e-08
-1.13362e-07
2.68235e-08
-1.22716e-07
2.71006e-08
-1.32118e-07
2.72481e-08
-1.41525e-07
2.72691e-08
-1.50894e-07
2.7167e-08
-1.60186e-07
2.69456e-08
-1.6936e-07
2.66089e-08
-1.78378e-07
2.61608e-08
-1.87205e-07
2.56056e-08
-1.95804e-07
2.49478e-08
-2.04142e-07
2.41918e-08
-2.12186e-07
2.33421e-08
-2.19907e-07
2.24034e-08
-2.27275e-07
2.13804e-08
-2.34262e-07
2.02779e-08
-2.40843e-07
1.91007e-08
-2.46994e-07
1.78537e-08
-2.52692e-07
1.65417e-08
-2.57918e-07
1.51699e-08
-2.62651e-07
1.37433e-08
-2.66875e-07
1.22669e-08
-2.70574e-07
1.07459e-08
-2.73735e-07
9.18549e-09
-2.76347e-07
7.59102e-09
-2.78398e-07
5.9678e-09
-2.79883e-07
4.32123e-09
-2.80793e-07
2.65681e-09
-2.81125e-07
9.80079e-10
-2.80878e-07
-7.03334e-10
-2.8005e-07
-2.38773e-09
-2.78643e-07
-4.06733e-09
-2.76662e-07
-5.73632e-09
-2.74111e-07
-7.3888e-09
-2.71e-07
-9.0188e-09
-2.67337e-07
-1.06203e-08
-2.63135e-07
-1.21873e-08
-2.58408e-07
-1.37136e-08
-2.53171e-07
-1.51932e-08
-2.47444e-07
-1.66198e-08
-2.41247e-07
-1.79874e-08
-2.34602e-07
-1.92898e-08
-2.27534e-07
-2.0521e-08
-2.20069e-07
-2.16749e-08
-2.12236e-07
-2.27456e-08
-2.04065e-07
-2.37272e-08
-1.9559e-07
-2.4614e-08
-1.86843e-07
-2.54003e-08
-1.77863e-07
-2.60809e-08
-1.68686e-07
-2.66504e-08
-1.59351e-07
-2.71041e-08
-1.49901e-07
-2.74371e-08
-1.40378e-07
-2.76451e-08
-1.30824e-07
-2.77243e-08
-1.21286e-07
-2.76709e-08
-1.11809e-07
-2.74818e-08
-1.0244e-07
-2.71546e-08
-9.32253e-08
-2.66871e-08
-8.42129e-08
-2.6078e-08
-7.54502e-08
-2.53267e-08
-6.69844e-08
-2.44335e-08
-5.88619e-08
-2.33997e-08
-5.11281e-08
-2.22278e-08
-4.38269e-08
-2.09215e-08
-3.7e-08
-1.94864e-08
-3.06861e-08
-1.79299e-08
-2.49205e-08
-1.6262e-08
-1.97336e-08
-1.44955e-08
-1.51502e-08
-1.26472e-08
-1.11877e-08
-1.07385e-08
-7.8547e-09
-8.79696e-09
-5.14888e-09
-6.85798e-09
-3.05457e-09
-4.96694e-09
-1.54013e-09
-3.1821e-09
-5.5484e-10
-1.57819e-09
-2.53424e-11
-2.50744e-10
1.48314e-10
6.79639e-10
9.793e-11
1.06222e-09
6.95965e-10
-9.97967e-12
-6.51427e-10
-2.36755e-10
-7.1091e-10
-8.32965e-10
1.35331e-10
-1.91586e-09
1.64054e-09
-3.57432e-09
3.61931e-09
-5.87274e-09
5.92276e-09
-8.85415e-09
8.43212e-09
-1.25432e-08
1.10537e-08
-1.69487e-08
1.37141e-08
-2.20665e-08
1.63557e-08
-2.78812e-08
1.89336e-08
-3.43686e-08
2.14132e-08
-4.14968e-08
2.37678e-08
-4.92284e-08
2.59768e-08
-5.75213e-08
2.80249e-08
-6.63297e-08
2.99009e-08
-7.56052e-08
3.15966e-08
-8.52975e-08
3.31068e-08
-9.5355e-08
3.44282e-08
-1.05725e-07
3.55591e-08
-1.16355e-07
3.64997e-08
-1.27192e-07
3.72509e-08
-1.38183e-07
3.7815e-08
-1.49278e-07
3.81947e-08
-1.60423e-07
3.83938e-08
-1.7157e-07
3.84162e-08
-1.8267e-07
3.82667e-08
-1.93675e-07
3.79503e-08
-2.04538e-07
3.74722e-08
-2.15216e-07
3.68382e-08
-2.25664e-07
3.6054e-08
-2.35842e-07
3.51256e-08
-2.45709e-07
3.40594e-08
-2.55229e-07
3.28616e-08
-2.64364e-07
3.15387e-08
-2.73081e-07
3.00972e-08
-2.81347e-07
2.8544e-08
-2.89132e-07
2.68856e-08
-2.96407e-07
2.51291e-08
-3.03147e-07
2.32813e-08
-3.09326e-07
2.13492e-08
-3.14923e-07
1.934e-08
-3.19917e-07
1.72608e-08
-3.2429e-07
1.5119e-08
-3.28026e-07
1.29218e-08
-3.31112e-07
1.06767e-08
-3.33536e-07
8.39132e-09
-3.35287e-07
6.07319e-09
-3.36361e-07
3.73006e-09
-3.3675e-07
1.36979e-09
-3.36454e-07
-9.99709e-10
-3.35471e-07
-3.37041e-09
-3.33805e-07
-5.73419e-09
-3.31458e-07
-8.08283e-09
-3.28439e-07
-1.0408e-08
-3.24756e-07
-1.27014e-08
-3.20422e-07
-1.49545e-08
-3.1545e-07
-1.71589e-08
-3.09858e-07
-1.93059e-08
-3.03664e-07
-2.1387e-08
-2.9689e-07
-2.33936e-08
-2.89561e-07
-2.5317e-08
-2.81702e-07
-2.71488e-08
-2.73342e-07
-2.88804e-08
-2.64514e-07
-3.05034e-08
-2.5525e-07
-3.20095e-08
-2.45587e-07
-3.33905e-08
-2.35562e-07
-3.46385e-08
-2.25217e-07
-3.57458e-08
-2.14593e-07
-3.67047e-08
-2.03735e-07
-3.75082e-08
-1.9269e-07
-3.81495e-08
-1.81505e-07
-3.8622e-08
-1.7023e-07
-3.892e-08
-1.58916e-07
-3.90379e-08
-1.47616e-07
-3.8971e-08
-1.36383e-07
-3.87151e-08
-1.25271e-07
-3.82667e-08
-1.14334e-07
-3.76235e-08
-1.03628e-07
-3.67837e-08
-9.32083e-08
-3.57468e-08
-8.31281e-08
-3.45138e-08
-7.34411e-08
-3.30867e-08
-6.41995e-08
-3.14694e-08
-5.54533e-08
-2.96678e-08
-4.72497e-08
-2.76899e-08
-3.96329e-08
-2.55468e-08
-3.26424e-08
-2.32525e-08
-2.63126e-08
-2.08254e-08
-2.0671e-08
-1.82887e-08
-1.57375e-08
-1.5672e-08
-1.15222e-08
-1.30123e-08
-8.02357e-09
-1.03566e-08
-5.22677e-09
-7.76375e-09
-3.10093e-09
-5.30793e-09
-1.59684e-09
-3.08228e-09
-6.44105e-10
-1.20349e-09
-1.48092e-10
1.83623e-10
1.38625e-11
9.00264e-10
7.0983e-10
-1.08488e-10
-5.42935e-10
-5.87622e-10
-2.3179e-10
-1.56409e-09
1.11181e-09
-3.13886e-09
3.21531e-09
-5.38981e-09
5.87024e-09
-8.3737e-09
8.90665e-09
-1.21283e-08
1.21867e-08
-1.66742e-08
1.55997e-08
-2.20175e-08
1.90573e-08
-2.81509e-08
2.24891e-08
-3.50564e-08
2.58391e-08
-4.27066e-08
2.90635e-08
-5.10665e-08
3.21277e-08
-6.00947e-08
3.5005e-08
-6.97448e-08
3.7675e-08
-7.99663e-08
4.01223e-08
-9.07056e-08
4.2336e-08
-1.01907e-07
4.43082e-08
-1.13513e-07
4.60341e-08
-1.25465e-07
4.75112e-08
-1.37704e-07
4.87388e-08
-1.50171e-07
4.97179e-08
-1.62807e-07
5.04509e-08
-1.75553e-07
5.09411e-08
-1.88353e-07
5.11931e-08
-2.01149e-07
5.1212e-08
-2.13885e-07
5.10036e-08
-2.26509e-07
5.05743e-08
-2.38968e-07
4.9931e-08
-2.51211e-07
4.90809e-08
-2.63189e-07
4.80318e-08
-2.74854e-07
4.67914e-08
-2.86163e-07
4.53679e-08
-2.97071e-07
4.37697e-08
-3.07538e-07
4.20052e-08
-3.17524e-07
4.00832e-08
-3.26992e-07
3.80126e-08
-3.35909e-07
3.58023e-08
-3.44241e-07
3.34613e-08
-3.51959e-07
3.0999e-08
-3.59034e-07
2.84247e-08
-3.65442e-07
2.57478e-08
-3.71159e-07
2.29779e-08
-3.76165e-07
2.01246e-08
-3.80441e-07
1.71978e-08
-3.83972e-07
1.42075e-08
-3.86744e-07
1.11636e-08
-3.88747e-07
8.07629e-09
-3.89973e-07
4.95594e-09
-3.90416e-07
1.81296e-09
-3.90074e-07
-1.34209e-09
-3.88945e-07
-4.49852e-09
-3.87034e-07
-7.64552e-09
-3.84345e-07
-1.07722e-08
-3.80885e-07
-1.38674e-08
-3.76667e-07
-1.69201e-08
-3.71702e-07
-1.9919e-08
-3.66008e-07
-2.28529e-08
-3.59604e-07
-2.57104e-08
-3.52511e-07
-2.848e-08
-3.44754e-07
-3.11504e-08
-3.36361e-07
-3.37102e-08
-3.27361e-07
-3.61482e-08
-3.17789e-07
-3.84529e-08
-3.07679e-07
-4.06134e-08
-2.9707e-07
-4.26186e-08
-2.86002e-07
-4.44579e-08
-2.7452e-07
-4.61207e-08
-2.62669e-07
-4.75969e-08
-2.50497e-07
-4.88765e-08
-2.38055e-07
-4.99503e-08
-2.25395e-07
-5.08094e-08
-2.12572e-07
-5.14454e-08
-1.99641e-07
-5.18505e-08
-1.86661e-07
-5.20179e-08
-1.73691e-07
-5.19414e-08
-1.6079e-07
-5.16157e-08
-1.4802e-07
-5.10366e-08
-1.35443e-07
-5.02011e-08
-1.23119e-07
-4.91075e-08
-1.1111e-07
-4.77554e-08
-9.94778e-08
-4.61463e-08
-8.8281e-08
-4.42835e-08
-7.75777e-08
-4.21727e-08
-6.74235e-08
-3.9822e-08
-5.78709e-08
-3.72426e-08
-4.89684e-08
-3.44492e-08
-4.07599e-08
-3.1461e-08
-3.32832e-08
-2.83021e-08
-2.65692e-08
-2.50027e-08
-2.06403e-08
-2.16009e-08
-1.5509e-08
-1.81436e-08
-1.11762e-08
-1.46894e-08
-7.62951e-09
-1.13104e-08
-4.8413e-09
-8.09614e-09
-2.76683e-09
-5.15674e-09
-1.34227e-09
-2.62805e-09
-4.82703e-10
-6.75951e-10
-8.00541e-11
4.97615e-10
6.29781e-10
-2.10987e-10
-3.31938e-10
-9.57516e-10
5.14727e-10
-2.33868e-09
2.49297e-09
-4.43613e-09
5.31275e-09
-7.3137e-09
8.74781e-09
-1.10179e-08
1.26108e-08
-1.55786e-08
1.67474e-08
-2.10109e-08
2.10319e-08
-2.73157e-08
2.53621e-08
-3.44819e-08
2.96553e-08
-4.24879e-08
3.38451e-08
-5.13027e-08
3.78782e-08
-6.08875e-08
4.17125e-08
-7.11971e-08
4.53146e-08
-8.21809e-08
4.86588e-08
-9.37842e-08
5.17256e-08
-1.05949e-07
5.45003e-08
-1.18613e-07
5.69729e-08
-1.31715e-07
5.91364e-08
-1.45191e-07
6.09872e-08
-1.58977e-07
6.25238e-08
-1.73006e-07
6.37471e-08
-1.87214e-07
6.46595e-08
-2.01538e-07
6.52649e-08
-2.15914e-07
6.55686e-08
-2.30278e-07
6.55767e-08
-2.44571e-07
6.52965e-08
-2.58733e-07
6.47357e-08
-2.72705e-07
6.39029e-08
-2.86431e-07
6.28071e-08
-2.99857e-07
6.14578e-08
-3.12931e-07
5.9865e-08
-3.25602e-07
5.8039e-08
-3.37822e-07
5.59901e-08
-3.49546e-07
5.37293e-08
-3.60731e-07
5.12677e-08
-3.71334e-07
4.86163e-08
-3.81319e-07
4.57867e-08
-3.90648e-07
4.27904e-08
-3.99288e-07
3.96392e-08
-4.07208e-07
3.6345e-08
-4.1438e-07
3.292e-08
-4.20779e-07
2.93762e-08
-4.2638e-07
2.57262e-08
-4.31165e-07
2.19824e-08
-4.35115e-07
1.81575e-08
-4.38216e-07
1.42644e-08
-4.40455e-07
1.03161e-08
-4.41825e-07
6.32572e-09
-4.42319e-07
2.3067e-09
-4.41934e-07
-1.72751e-09
-4.40669e-07
-5.76325e-09
-4.38528e-07
-9.78671e-09
-4.35516e-07
-1.37839e-08
-4.31642e-07
-1.77408e-08
-4.26919e-07
-2.16432e-08
-4.21362e-07
-2.54766e-08
-4.14988e-07
-2.92269e-08
-4.07819e-07
-3.28793e-08
-3.99879e-07
-3.64196e-08
-3.91196e-07
-3.98332e-08
-3.81801e-07
-4.31055e-08
-3.71727e-07
-4.62223e-08
-3.61011e-07
-4.91692e-08
-3.49692e-07
-5.19322e-08
-3.37813e-07
-5.44973e-08
-3.2542e-07
-5.6851e-08
-3.12561e-07
-5.898e-08
-2.99286e-07
-6.08715e-08
-2.8565e-07
-6.25131e-08
-2.71707e-07
-6.38929e-08
-2.57517e-07
-6.49998e-08
-2.43139e-07
-6.58235e-08
-2.28635e-07
-6.63542e-08
-2.14069e-07
-6.65834e-08
-1.99507e-07
-6.65035e-08
-1.85015e-07
-6.61081e-08
-1.70659e-07
-6.53923e-08
-1.56508e-07
-6.43523e-08
-1.42629e-07
-6.29865e-08
-1.2909e-07
-6.12949e-08
-1.15956e-07
-5.92797e-08
-1.03294e-07
-5.69457e-08
-9.11663e-08
-5.43004e-08
-7.96336e-08
-5.13547e-08
-6.87531e-08
-4.8123e-08
-5.85779e-08
-4.46245e-08
-4.91557e-08
-4.08832e-08
-4.05282e-08
-3.69296e-08
-3.27297e-08
-3.28012e-08
-2.57859e-08
-2.85447e-08
-1.97127e-08
-2.42169e-08
-1.45144e-08
-1.98876e-08
-1.01829e-08
-1.56419e-08
-6.69586e-09
-1.15832e-08
-4.01532e-09
-7.83728e-09
-2.08672e-09
-4.55665e-09
-8.3788e-10
-1.9248e-09
-1.78455e-10
-1.61809e-10
4.51331e-10
-3.14362e-10
-1.75681e-11
-1.33514e-09
1.53552e-09
-3.13426e-09
4.29207e-09
-5.77275e-09
7.95125e-09
-9.29866e-09
1.22737e-08
-1.37462e-08
1.70584e-08
-1.9136e-08
2.21372e-08
-2.54752e-08
2.73711e-08
-3.27588e-08
3.26457e-08
-4.09706e-08
3.78672e-08
-5.00843e-08
4.29588e-08
-6.00647e-08
4.78586e-08
-7.0869e-08
5.25168e-08
-8.24479e-08
5.68935e-08
-9.47467e-08
6.09576e-08
-1.07706e-07
6.46851e-08
-1.21264e-07
6.80579e-08
-1.35354e-07
7.1063e-08
-1.49909e-07
7.36916e-08
-1.6486e-07
7.59385e-08
-1.80138e-07
7.78016e-08
-1.95672e-07
7.92812e-08
-2.11392e-07
8.03799e-08
-2.2723e-07
8.1102e-08
-2.43115e-07
8.14536e-08
-2.5898e-07
8.14419e-08
-2.74759e-07
8.10754e-08
-2.90386e-07
8.03635e-08
-3.058e-07
7.93164e-08
-3.20938e-07
7.79451e-08
-3.35741e-07
7.62611e-08
-3.50153e-07
7.42765e-08
-3.64118e-07
7.20038e-08
-3.77584e-07
6.94559e-08
-3.905e-07
6.66462e-08
-4.02821e-07
6.3588e-08
-4.145e-07
6.02954e-08
-4.25496e-07
5.67824e-08
-4.35768e-07
5.30632e-08
-4.45282e-07
4.91525e-08
-4.54001e-07
4.50649e-08
-4.61897e-07
4.08154e-08
-4.6894e-07
3.64192e-08
-4.75105e-07
3.18915e-08
-4.80371e-07
2.72479e-08
-4.84718e-07
2.25042e-08
-4.88129e-07
1.76762e-08
-4.90593e-07
1.27801e-08
-4.921e-07
7.83216e-09
-4.92642e-07
2.84896e-09
-4.92217e-07
-2.15279e-09
-4.90824e-07
-7.15619e-09
-4.88466e-07
-1.21441e-08
-4.85151e-07
-1.70994e-08
-4.80887e-07
-2.20045e-08
-4.75689e-07
-2.68418e-08
-4.69572e-07
-3.15938e-08
-4.62556e-07
-3.62425e-08
-4.54665e-07
-4.07702e-08
-4.45926e-07
-4.51589e-08
-4.36368e-07
-4.93908e-08
-4.26026e-07
-5.3448e-08
-4.14935e-07
-5.73129e-08
-4.03136e-07
-6.09678e-08
-3.90673e-07
-6.43955e-08
-3.77592e-07
-6.75788e-08
-3.63942e-07
-7.0501e-08
-3.49776e-07
-7.3146e-08
-3.35149e-07
-7.54979e-08
-3.20121e-07
-7.75417e-08
-3.04751e-07
-7.92629e-08
-2.89102e-07
-8.0648e-08
-2.73242e-07
-8.16842e-08
-2.57236e-07
-8.23601e-08
-2.41154e-07
-8.26652e-08
-2.25067e-07
-8.25904e-08
-2.09047e-07
-8.21283e-08
-1.93166e-07
-8.12728e-08
-1.77498e-07
-8.00201e-08
-1.62117e-07
-7.83683e-08
-1.47094e-07
-7.63179e-08
-1.32501e-07
-7.38721e-08
-1.1841e-07
-7.10372e-08
-1.04887e-07
-6.78228e-08
-9.19994e-08
-6.42425e-08
-7.98078e-08
-6.03147e-08
-6.83696e-08
-5.60626e-08
-5.77369e-08
-5.15159e-08
-4.79552e-08
-4.67113e-08
-3.90627e-08
-4.16937e-08
-3.10892e-08
-3.65182e-08
-2.40546e-08
-3.12515e-08
-1.79682e-08
-2.5974e-08
-1.28275e-08
-2.07827e-08
-8.6168e-09
-1.57939e-08
-5.30698e-09
-1.11471e-08
-2.85461e-09
-7.00902e-09
-1.20205e-09
-3.57736e-09
-2.78104e-10
-1.08575e-09
1.73228e-10
-4.16774e-10
3.99198e-10
-1.71328e-09
2.83203e-09
-3.93571e-09
6.5145e-09
-7.12443e-09
1.11399e-08
-1.13108e-08
1.64601e-08
-1.65156e-08
2.22632e-08
-2.27486e-08
2.83702e-08
-3.00083e-08
3.46308e-08
-3.82823e-08
4.09197e-08
-4.75481e-08
4.7133e-08
-5.77741e-08
5.31848e-08
-6.89203e-08
5.90048e-08
-8.09393e-08
6.45357e-08
-9.37774e-08
6.97316e-08
-1.07376e-07
7.45559e-08
-1.21671e-07
7.898e-08
-1.36595e-07
8.29824e-08
-1.52079e-07
8.65472e-08
-1.68051e-07
8.96635e-08
-1.84437e-07
9.23245e-08
-2.01163e-07
9.45273e-08
-2.18153e-07
9.62716e-08
-2.35334e-07
9.75602e-08
-2.52629e-07
9.83977e-08
-2.69967e-07
9.87911e-08
-2.87274e-07
9.87486e-08
-3.04478e-07
9.828e-08
-3.21511e-07
9.73963e-08
-3.38304e-07
9.61097e-08
-3.54792e-07
9.44329e-08
-3.70911e-07
9.23797e-08
-3.86599e-07
8.99646e-08
-4.01797e-07
8.72023e-08
-4.1645e-07
8.41084e-08
-4.30502e-07
8.06988e-08
-4.43904e-07
7.69896e-08
-4.56606e-07
7.29976e-08
-4.68563e-07
6.87397e-08
-4.79733e-07
6.42332e-08
-4.90076e-07
5.94955e-08
-4.99556e-07
5.45444e-08
-5.08139e-07
4.9398e-08
-5.15794e-07
4.40745e-08
-5.22495e-07
3.85925e-08
-5.28218e-07
3.29707e-08
-5.32941e-07
2.72281e-08
-5.36649e-07
2.1384e-08
-5.39327e-07
1.54578e-08
-5.40964e-07
9.46933e-09
-5.41554e-07
3.43848e-09
-5.41092e-07
-2.61454e-09
-5.39579e-07
-8.6693e-09
-5.37018e-07
-1.47052e-08
-5.33416e-07
-2.07013e-08
-5.28784e-07
-2.66366e-08
-5.23136e-07
-3.249e-08
-5.16489e-07
-3.82401e-08
-5.08866e-07
-4.38655e-08
-5.00292e-07
-4.93446e-08
-4.90795e-07
-5.46559e-08
-4.80408e-07
-5.97779e-08
-4.69167e-07
-6.46891e-08
-4.57111e-07
-6.93684e-08
-4.44285e-07
-7.37944e-08
-4.30734e-07
-7.79465e-08
-4.16508e-07
-8.18042e-08
-4.01662e-07
-8.53475e-08
-3.86251e-07
-8.85568e-08
-3.70335e-07
-9.14135e-08
-3.53978e-07
-9.38993e-08
-3.37243e-07
-9.59973e-08
-3.202e-07
-9.76911e-08
-3.02918e-07
-9.89658e-08
-2.85471e-07
-9.98077e-08
-2.67932e-07
-1.00204e-07
-2.50376e-07
-1.00146e-07
-2.32883e-07
-9.96222e-08
-2.15528e-07
-9.86276e-08
-1.98391e-07
-9.71574e-08
-1.81549e-07
-9.52098e-08
-1.65081e-07
-9.27857e-08
-1.49064e-07
-8.98894e-08
-1.33573e-07
-8.65288e-08
-1.1868e-07
-8.27158e-08
-1.04455e-07
-7.84671e-08
-9.09652e-08
-7.38045e-08
-7.82717e-08
-6.87561e-08
-6.64308e-08
-6.33569e-08
-5.54923e-08
-5.76498e-08
-4.54989e-08
-5.16871e-08
-3.64849e-08
-4.55322e-08
-2.84754e-08
-3.92609e-08
-2.14856e-08
-3.29638e-08
-1.55195e-08
-2.67487e-08
-1.05697e-08
-2.07436e-08
-6.61709e-09
-1.50998e-08
-3.63049e-09
-9.99562e-09
-1.56777e-09
-5.64009e-09
-3.77082e-10
-2.27644e-09
-2.03853e-10
-5.17191e-10
9.16379e-10
-2.08744e-09
4.40229e-09
-4.73317e-09
9.16023e-09
-8.47464e-09
1.48814e-08
-1.33263e-08
2.13118e-08
-1.92951e-08
2.8232e-08
-2.6379e-08
3.5454e-08
-3.45667e-08
4.28184e-08
-4.38376e-08
5.01906e-08
-5.41622e-08
5.74576e-08
-6.55027e-08
6.45253e-08
-7.78136e-08
7.13157e-08
-9.10426e-08
7.77647e-08
-1.05131e-07
8.38202e-08
-1.20016e-07
8.94406e-08
-1.35629e-07
9.45931e-08
-1.51899e-07
9.92523e-08
-1.68751e-07
1.034e-07
-1.8611e-07
1.07022e-07
-2.03897e-07
1.10111e-07
-2.22033e-07
1.12663e-07
-2.40439e-07
1.14678e-07
-2.59035e-07
1.16157e-07
-2.77743e-07
1.17106e-07
-2.96485e-07
1.17532e-07
-3.15183e-07
1.17446e-07
-3.33761e-07
1.16858e-07
-3.52146e-07
1.15781e-07
-3.70265e-07
1.14229e-07
-3.88049e-07
1.12217e-07
-4.05429e-07
1.0976e-07
-4.22341e-07
1.06876e-07
-4.38721e-07
1.03582e-07
-4.54509e-07
9.98964e-08
-4.69647e-07
9.58374e-08
-4.84082e-07
9.14245e-08
-4.97762e-07
8.66772e-08
-5.10637e-07
8.16154e-08
-5.22664e-07
7.62595e-08
-5.33799e-07
7.06303e-08
-5.44003e-07
6.47488e-08
-5.53241e-07
5.86362e-08
-5.61481e-07
5.23142e-08
-5.68693e-07
4.58047e-08
-5.74852e-07
3.91299e-08
-5.79936e-07
3.23124e-08
-5.83927e-07
2.53749e-08
-5.8681e-07
1.83405e-08
-5.88573e-07
1.12326e-08
-5.8921e-07
4.07473e-09
-5.88715e-07
-3.10914e-09
-5.8709e-07
-1.02948e-08
-5.84337e-07
-1.74579e-08
-5.80464e-07
-2.45738e-08
-5.75483e-07
-3.16176e-08
-5.69409e-07
-3.85641e-08
-5.62261e-07
-4.53883e-08
-5.54062e-07
-5.20648e-08
-5.44838e-07
-5.85682e-08
-5.34621e-07
-6.4873e-08
-5.23445e-07
-7.09539e-08
-5.11349e-07
-7.67855e-08
-4.98374e-07
-8.23429e-08
-4.84567e-07
-8.76011e-08
-4.69978e-07
-9.25355e-08
-4.5466e-07
-9.71222e-08
-4.3867e-07
-1.01338e-07
-4.22068e-07
-1.05159e-07
-4.04918e-07
-1.08564e-07
-3.87285e-07
-1.11532e-07
-3.69241e-07
-1.14042e-07
-3.50857e-07
-1.16075e-07
-3.32207e-07
-1.17615e-07
-3.13369e-07
-1.18645e-07
-2.94422e-07
-1.19151e-07
-2.75447e-07
-1.19121e-07
-2.56524e-07
-1.18545e-07
-2.37738e-07
-1.17414e-07
-2.1917e-07
-1.15725e-07
-2.00905e-07
-1.13475e-07
-1.83024e-07
-1.10666e-07
-1.65609e-07
-1.07304e-07
-1.48741e-07
-1.03397e-07
-1.32496e-07
-9.89605e-08
-1.1695e-07
-9.40137e-08
-1.02172e-07
-8.85824e-08
-8.8229e-08
-8.2699e-08
-7.51818e-08
-7.6404e-08
-6.3085e-08
-6.97466e-08
-5.1986e-08
-6.27861e-08
-4.19244e-08
-5.55937e-08
-3.29314e-08
-4.82539e-08
-2.50286e-08
-4.08666e-08
-1.82278e-08
-3.35496e-08
-1.25306e-08
-2.64408e-08
-7.92877e-09
-1.97016e-08
-4.40418e-09
-1.35202e-08
-1.93035e-09
-8.11391e-09
-4.74287e-10
-3.73251e-09
-6.7814e-10
-6.15061e-10
1.53144e-09
-2.45495e-09
6.24219e-09
-5.52037e-09
1.22257e-08
-9.81248e-09
1.91735e-08
-1.53292e-08
2.68285e-08
-2.20632e-08
3.4966e-08
-3.00003e-08
4.33911e-08
-3.91187e-08
5.19369e-08
-4.93891e-08
6.0461e-08
-6.07741e-08
6.88427e-08
-7.32291e-08
7.69804e-08
-8.67026e-08
8.47892e-08
-1.01137e-07
9.21988e-08
-1.16468e-07
9.91515e-08
-1.32628e-07
1.05601e-07
-1.49545e-07
1.1151e-07
-1.67142e-07
1.1685e-07
-1.85341e-07
1.21599e-07
-2.04062e-07
1.25742e-07
-2.23221e-07
1.29271e-07
-2.42736e-07
1.32178e-07
-2.62523e-07
1.34465e-07
-2.82499e-07
1.36132e-07
-3.0258e-07
1.37187e-07
-3.22684e-07
1.37637e-07
-3.4273e-07
1.37492e-07
-3.62638e-07
1.36766e-07
-3.8233e-07
1.35473e-07
-4.01729e-07
1.33629e-07
-4.20763e-07
1.3125e-07
-4.39358e-07
1.28356e-07
-4.57447e-07
1.24965e-07
-4.74963e-07
1.21098e-07
-4.91842e-07
1.16775e-07
-5.08024e-07
1.12019e-07
-5.2345e-07
1.06851e-07
-5.38067e-07
1.01294e-07
-5.51823e-07
9.53715e-08
-5.64671e-07
8.91068e-08
-5.76564e-07
8.25241e-08
-5.87463e-07
7.56477e-08
-5.9733e-07
6.85026e-08
-6.0613e-07
6.11139e-08
-6.13832e-07
5.3507e-08
-6.2041e-07
4.5708e-08
-6.2584e-07
3.77429e-08
-6.30104e-07
2.96383e-08
-6.33184e-07
2.14211e-08
-6.3507e-07
1.31184e-08
-6.35753e-07
4.75789e-09
-6.3523e-07
-3.63273e-09
-6.33499e-07
-1.20253e-08
-6.30566e-07
-2.03914e-08
-6.26437e-07
-2.87023e-08
-6.21126e-07
-3.69291e-08
-6.14647e-07
-4.50426e-08
-6.07022e-07
-5.30137e-08
-5.98274e-07
-6.08127e-08
-5.88432e-07
-6.84102e-08