/*--------------------------------*- C++ -*----------------------------------*\
| =========                 |                                                 |
| \\      /  F ield         | OpenFOAM: The Open Source CFD Toolbox           |
|  \\    /   O peration     | Version:  2212                                  |
|   \\  /    A nd           | Website:  www.openfoam.com                      |
|    \\/     M anipulation  |                                                 |
\*---------------------------------------------------------------------------*/
FoamFile
{
    version     2.0;
    format      ascii;
    arch        "LSB;label=32;scalar=64";
    class       volVectorField;
    location    "0.087";
    object      U;
}
// * * * * * * * * * * * * * * * * * * * * * * * * * * * * * * * * * * * * * //

dimensions      [0 1 -1 0 0 0 0];

internalField   nonuniform List<vector> 
10000
(
(3.00309e-06 -2.99186e-06 0)
(1.49196e-05 -7.71272e-06 0)
(3.39113e-05 -8.91247e-06 0)
(5.17838e-05 -7.69189e-06 0)
(6.35172e-05 -5.18902e-06 0)
(6.66769e-05 -2.06271e-06 0)
(5.99985e-05 1.32305e-06 0)
(4.29042e-05 4.76048e-06 0)
(1.52719e-05 8.13254e-06 0)
(-2.27278e-05 1.13714e-05 0)
(-7.07356e-05 1.4438e-05 0)
(-0.000128267 1.73087e-05 0)
(-0.000194752 1.99695e-05 0)
(-0.00026957 2.24136e-05 0)
(-0.000352063 2.4639e-05 0)
(-0.000441552 2.66456e-05 0)
(-0.000537347 2.84337e-05 0)
(-0.000638754 3.00067e-05 0)
(-0.000745083 3.13687e-05 0)
(-0.00085565 3.25248e-05 0)
(-0.000969781 3.34801e-05 0)
(-0.00108681 3.42392e-05 0)
(-0.0012061 3.48083e-05 0)
(-0.00132702 3.51931e-05 0)
(-0.00144895 3.54002e-05 0)
(-0.00157129 3.54362e-05 0)
(-0.00169348 3.5307e-05 0)
(-0.00181496 3.50189e-05 0)
(-0.00193519 3.45784e-05 0)
(-0.00205365 3.39919e-05 0)
(-0.00216987 3.32657e-05 0)
(-0.00228335 3.24063e-05 0)
(-0.00239366 3.14199e-05 0)
(-0.00250035 3.03133e-05 0)
(-0.00260304 2.90925e-05 0)
(-0.00270132 2.77634e-05 0)
(-0.00279483 2.63328e-05 0)
(-0.00288323 2.48067e-05 0)
(-0.0029662 2.31916e-05 0)
(-0.00304343 2.14936e-05 0)
(-0.00311465 1.97185e-05 0)
(-0.00317961 1.78735e-05 0)
(-0.00323807 1.59648e-05 0)
(-0.00328982 1.39982e-05 0)
(-0.00333467 1.19811e-05 0)
(-0.00337245 9.91957e-06 0)
(-0.00340304 7.81981e-06 0)
(-0.0034263 5.68949e-06 0)
(-0.00344214 3.53536e-06 0)
(-0.00345049 1.36362e-06 0)
(-0.00345131 -8.18044e-07 0)
(-0.00344458 -3.00243e-06 0)
(-0.0034303 -5.18297e-06 0)
(-0.0034085 -7.35176e-06 0)
(-0.00337924 -9.50089e-06 0)
(-0.0033426 -1.16233e-05 0)
(-0.00329869 -1.37114e-05 0)
(-0.00324764 -1.57569e-05 0)
(-0.00318962 -1.77523e-05 0)
(-0.00312483 -1.96896e-05 0)
(-0.00305347 -2.15604e-05 0)
(-0.0029758 -2.33563e-05 0)
(-0.0028921 -2.50695e-05 0)
(-0.00280266 -2.66913e-05 0)
(-0.00270782 -2.82131e-05 0)
(-0.00260794 -2.96274e-05 0)
(-0.0025034 -3.09266e-05 0)
(-0.00239462 -3.21018e-05 0)
(-0.00228204 -3.31445e-05 0)
(-0.00216613 -3.40476e-05 0)
(-0.00204738 -3.48039e-05 0)
(-0.00192631 -3.54058e-05 0)
(-0.00180346 -3.58455e-05 0)
(-0.0016794 -3.61164e-05 0)
(-0.00155472 -3.62121e-05 0)
(-0.00143001 -3.61263e-05 0)
(-0.00130591 -3.58527e-05 0)
(-0.00118306 -3.53859e-05 0)
(-0.00106212 -3.47212e-05 0)
(-0.000943759 -3.38541e-05 0)
(-0.000828661 -3.27802e-05 0)
(-0.000717516 -3.1496e-05 0)
(-0.00061102 -2.99994e-05 0)
(-0.00050987 -2.8289e-05 0)
(-0.00041476 -2.63641e-05 0)
(-0.000326372 -2.42253e-05 0)
(-0.000245378 -2.18748e-05 0)
(-0.000172424 -1.93172e-05 0)
(-0.000108124 -1.65597e-05 0)
(-5.30402e-05 -1.36141e-05 0)
(-7.67e-06 -1.04984e-05 0)
(2.75869e-05 -7.24066e-06 0)
(5.24685e-05 -3.88481e-06 0)
(6.6915e-05 -5.03672e-07 0)
(7.11712e-05 2.77942e-06 0)
(6.59458e-05 5.75315e-06 0)
(5.26352e-05 8.05256e-06 0)
(3.37879e-05 9.03016e-06 0)
(1.44742e-05 7.59181e-06 0)
(2.77899e-06 2.7795e-06 0)
(7.71475e-06 -1.49003e-05 0)
(3.12974e-05 -3.1276e-05 0)
(6.29504e-05 -3.34365e-05 0)
(8.83085e-05 -2.55489e-05 0)
(9.78503e-05 -1.1468e-05 0)
(8.60655e-05 6.1963e-06 0)
(4.95655e-05 2.57377e-05 0)
(-1.35206e-05 4.60426e-05 0)
(-0.000103927 6.63801e-05 0)
(-0.000221583 8.62673e-05 0)
(-0.000365851 0.000105382 0)
(-0.000535687 0.000123506 0)
(-0.000729763 0.000140491 0)
(-0.000946549 0.000156241 0)
(-0.00118438 0.000170693 0)
(-0.00144148 0.00018381 0)
(-0.00171604 0.000195575 0)
(-0.00200619 0.000205982 0)
(-0.00231006 0.000215037 0)
(-0.00262578 0.000222755 0)
(-0.0029515 0.000229158 0)
(-0.00328538 0.000234269 0)
(-0.00362561 0.000238119 0)
(-0.00397044 0.000240738 0)
(-0.00431813 0.000242162 0)
(-0.00466702 0.000242428 0)
(-0.00501548 0.000241574 0)
(-0.00536192 0.000239639 0)
(-0.00570484 0.000236663 0)
(-0.00604276 0.000232688 0)
(-0.00637428 0.000227755 0)
(-0.00669804 0.000221906 0)
(-0.00701276 0.000215182 0)
(-0.00731721 0.000207627 0)
(-0.00761022 0.000199282 0)
(-0.00789067 0.000190191 0)
(-0.00815752 0.000180396 0)
(-0.00840979 0.00016994 0)
(-0.00864655 0.000158867 0)
(-0.00886693 0.000147221 0)
(-0.00907015 0.000135045 0)
(-0.00925547 0.000122383 0)
(-0.00942222 0.000109281 0)
(-0.0095698 9.57832e-05 0)
(-0.00969767 8.19344e-05 0)
(-0.00980535 6.77813e-05 0)
(-0.00989244 5.33702e-05 0)
(-0.00995861 3.87484e-05 0)
(-0.0100036 2.3964e-05 0)
(-0.0100272 9.06537e-06 0)
(-0.0100293 -5.89808e-06 0)
(-0.0100098 -2.08765e-05 0)
(-0.00996872 -3.58197e-05 0)
(-0.00990622 -5.06761e-05 0)
(-0.00982243 -6.53933e-05 0)
(-0.00971759 -7.99193e-05 0)
(-0.00959202 -9.42007e-05 0)
(-0.00944612 -0.000108183 0)
(-0.00928037 -0.000121812 0)
(-0.00909531 -0.000135033 0)
(-0.00889158 -0.000147791 0)
(-0.00866989 -0.000160028 0)
(-0.00843104 -0.00017169 0)
(-0.0081759 -0.000182722 0)
(-0.00790541 -0.000193068 0)
(-0.00762061 -0.000202672 0)
(-0.0073226 -0.000211481 0)
(-0.00701257 -0.000219441 0)
(-0.00669178 -0.0002265 0)
(-0.00636155 -0.000232606 0)
(-0.00602328 -0.000237709 0)
(-0.00567846 -0.000241762 0)
(-0.00532862 -0.000244718 0)
(-0.00497535 -0.000246533 0)
(-0.00462031 -0.000247166 0)
(-0.00426522 -0.000246579 0)
(-0.00391183 -0.000244737 0)
(-0.00356194 -0.000241608 0)
(-0.00321741 -0.000237166 0)
(-0.00288009 -0.000231386 0)
(-0.00255188 -0.000224252 0)
(-0.0022347 -0.000215753 0)
(-0.00193044 -0.000205883 0)
(-0.00164102 -0.000194648 0)
(-0.0013683 -0.000182063 0)
(-0.00111412 -0.000168152 0)
(-0.000880241 -0.000152959 0)
(-0.000668347 -0.000136544 0)
(-0.000479985 -0.000118995 0)
(-0.000316533 -0.000100435 0)
(-0.000179132 -8.10357e-05 0)
(-6.86065e-05 -6.10411e-05 0)
(1.465e-05 -4.07972e-05 0)
(7.08379e-05 -2.08079e-05 0)
(0.000100981 -1.81994e-06 0)
(0.000107243 1.50468e-05 0)
(9.32873e-05 2.81069e-05 0)
(6.4837e-05 3.48188e-05 0)
(3.15123e-05 3.15086e-05 0)
(7.58428e-06 1.44632e-05 0)
(8.93281e-06 -3.39079e-05 0)
(3.35757e-05 -6.29642e-05 0)
(6.18215e-05 -6.15552e-05 0)
(7.64925e-05 -3.84789e-05 0)
(6.60975e-05 -9.34619e-07 0)
(2.3493e-05 4.57028e-05 0)
(-5.60456e-05 9.75667e-05 0)
(-0.000175338 0.000151924 0)
(-0.000335677 0.000206852 0)
(-0.000537195 0.000260997 0)
(-0.000779169 0.000313402 0)
(-0.00106023 0.000363391 0)
(-0.00137852 0.000410483 0)
(-0.00173186 0.000454344 0)
(-0.00211779 0.000494747 0)
(-0.00253368 0.000531542 0)
(-0.00297677 0.000564638 0)
(-0.00344423 0.000593989 0)
(-0.00393318 0.000619586 0)
(-0.00444072 0.000641447 0)
(-0.00496396 0.00065961 0)
(-0.00550004 0.000674132 0)
(-0.00604612 0.000685083 0)
(-0.00659942 0.000692543 0)
(-0.00715721 0.000696601 0)
(-0.00771684 0.000697353 0)
(-0.00827573 0.000694902 0)
(-0.00883137 0.000689355 0)
(-0.00938133 0.000680823 0)
(-0.00992327 0.000669418 0)
(-0.0104549 0.000655257 0)
(-0.0109742 0.000638458 0)
(-0.0114789 0.000619138 0)
(-0.0119672 0.000597419 0)
(-0.0124371 0.000573422 0)
(-0.0128869 0.00054727 0)
(-0.0133148 0.000519084 0)
(-0.0137194 0.000488991 0)
(-0.0140991 0.000457115 0)
(-0.0144525 0.000423581 0)
(-0.0147783 0.000388518 0)
(-0.0150754 0.000352054 0)
(-0.0153427 0.000314317 0)
(-0.0155792 0.000275439 0)
(-0.0157841 0.000235551 0)
(-0.0159566 0.000194788 0)
(-0.0160961 0.000153283 0)
(-0.0162019 0.000111175 0)
(-0.0162738 6.86021e-05 0)
(-0.0163113 2.57053e-05 0)
(-0.0163144 -1.73728e-05 0)
(-0.0162828 -6.04871e-05 0)
(-0.0162166 -0.000103491 0)
(-0.0161161 -0.000146237 0)
(-0.0159814 -0.000188573 0)
(-0.015813 -0.000230348 0)
(-0.0156114 -0.000271408 0)
(-0.0153772 -0.000311598 0)
(-0.0151111 -0.00035076 0)
(-0.0148142 -0.000388737 0)
(-0.0144874 -0.000425369 0)
(-0.0141319 -0.000460497 0)
(-0.0137489 -0.000493963 0)
(-0.0133398 -0.000525607 0)
(-0.0129062 -0.000555272 0)
(-0.0124497 -0.000582802 0)
(-0.0119721 -0.000608042 0)
(-0.0114753 -0.000630842 0)
(-0.0109613 -0.000651052 0)
(-0.0104322 -0.000668527 0)
(-0.00989026 -0.00068313 0)
(-0.00933784 -0.000694724 0)
(-0.00877738 -0.000703182 0)
(-0.00821142 -0.000708382 0)
(-0.00764258 -0.000710212 0)
(-0.00707358 -0.000708569 0)
(-0.0065072 -0.00070336 0)
(-0.0059463 -0.000694502 0)
(-0.00539377 -0.000681927 0)
(-0.00485254 -0.000665581 0)
(-0.0043256 -0.000645427 0)
(-0.00381591 -0.000621447 0)
(-0.00332643 -0.000593648 0)
(-0.00286011 -0.000562063 0)
(-0.00241983 -0.000526756 0)
(-0.00200838 -0.000487832 0)
(-0.00162844 -0.000445443 0)
(-0.00128248 -0.000399803 0)
(-0.000972803 -0.000351208 0)
(-0.000701361 -0.000300058 0)
(-0.00046973 -0.000246895 0)
(-0.000278961 -0.00019246 0)
(-0.000129426 -0.000137763 0)
(-2.06036e-05 -8.42033e-05 0)
(4.92001e-05 -3.37278e-05 0)
(8.3207e-05 1.0939e-05 0)
(8.6506e-05 4.59994e-05 0)
(6.65222e-05 6.62525e-05 0)
(3.49424e-05 6.48599e-05 0)
(9.04061e-06 3.37777e-05 0)
(7.7795e-06 -5.19133e-05 0)
(2.59958e-05 -8.8593e-05 0)
(3.94248e-05 -7.63679e-05 0)
(3.05576e-05 -2.9363e-05 0)
(-1.26598e-05 4.16713e-05 0)
(-9.81128e-05 0.000128434 0)
(-0.000231194 0.000224668 0)
(-0.000415246 0.000325749 0)
(-0.000651904 0.000428276 0)
(-0.000941449 0.000529758 0)
(-0.00128311 0.000628368 0)
(-0.00167529 0.000722772 0)
(-0.00211576 0.000811998 0)
(-0.00260181 0.000895343 0)
(-0.00313039 0.000972311 0)
(-0.00369815 0.00104256 0)
(-0.00430157 0.00110587 0)
(-0.00493699 0.00116211 0)
(-0.00560068 0.00121123 0)
(-0.00628886 0.00125322 0)
(-0.00699773 0.00128814 0)
(-0.0077235 0.00131608 0)
(-0.00846245 0.00133714 0)
(-0.00921088 0.00135147 0)
(-0.00996516 0.00135923 0)
(-0.0107218 0.00136059 0)
(-0.0114772 0.00135573 0)
(-0.0122282 0.00134487 0)
(-0.0129714 0.0013282 0)
(-0.0137037 0.00130594 0)
(-0.014422 0.00127831 0)
(-0.0151236 0.00124554 0)
(-0.0158055 0.00120785 0)
(-0.0164652 0.00116548 0)
(-0.0171 0.00111866 0)
(-0.0177076 0.00106763 0)
(-0.0182857 0.00101263 0)
(-0.0188321 0.000953901 0)
(-0.019345 0.000891686 0)
(-0.0198223 0.000826234 0)
(-0.0202623 0.000757791 0)
(-0.0206635 0.00068661 0)
(-0.0210244 0.000612944 0)
(-0.0213437 0.00053705 0)
(-0.0216202 0.000459186 0)
(-0.021853 0.000379615 0)
(-0.0220411 0.000298603 0)
(-0.0221838 0.000216417 0)
(-0.0222805 0.00013333 0)
(-0.0223309 4.9619e-05 0)
(-0.0223346 -3.44374e-05 0)
(-0.0222916 -0.000118556 0)
(-0.0222019 -0.000202448 0)
(-0.0220658 -0.000285824 0)
(-0.0218835 -0.00036839 0)
(-0.0216557 -0.000449848 0)
(-0.0213831 -0.000529897 0)
(-0.0210665 -0.000608235 0)
(-0.020707 -0.000684555 0)
(-0.0203058 -0.000758551 0)
(-0.0198643 -0.000829913 0)
(-0.019384 -0.000898333 0)
(-0.0188667 -0.000963501 0)
(-0.0183143 -0.00102511 0)
(-0.0177288 -0.00108286 0)
(-0.0171124 -0.00113644 0)
(-0.0164676 -0.00118556 0)
(-0.0157969 -0.00122992 0)
(-0.015103 -0.00126925 0)
(-0.0143888 -0.00130326 0)
(-0.0136572 -0.00133168 0)
(-0.0129114 -0.00135426 0)
(-0.0121547 -0.00137077 0)
(-0.0113905 -0.00138096 0)
(-0.0106223 -0.00138462 0)
(-0.00985371 -0.00138158 0)
(-0.00908845 -0.00137165 0)
(-0.00833031 -0.00135468 0)
(-0.00758313 -0.00133057 0)
(-0.0068508 -0.00129922 0)
(-0.00613724 -0.00126057 0)
(-0.00544635 -0.00121461 0)
(-0.00478202 -0.00116139 0)
(-0.0041481 -0.00110099 0)
(-0.0035483 -0.00103356 0)
(-0.00298625 -0.000959355 0)
(-0.00246535 -0.000878697 0)
(-0.00198876 -0.000792052 0)
(-0.00155933 -0.000700035 0)
(-0.00117948 -0.000603469 0)
(-0.000851097 -0.000503438 0)
(-0.000575377 -0.000401386 0)
(-0.000352661 -0.000299231 0)
(-0.000182197 -0.000199534 0)
(-6.18626e-05 -0.000105722 0)
(1.21675e-05 -2.23939e-05 0)
(4.57263e-05 4.43203e-05 0)
(4.7059e-05 8.63967e-05 0)
(2.85595e-05 9.35963e-05 0)
(8.12584e-06 5.27357e-05 0)
(5.38276e-06 -6.39896e-05 0)
(1.23695e-05 -9.88214e-05 0)
(2.8571e-06 -6.66008e-05 0)
(-3.89628e-05 1.36021e-05 0)
(-0.000124634 0.000127601 0)
(-0.000262156 0.000264261 0)
(-0.000457074 0.000414961 0)
(-0.000712878 0.000573127 0)
(-0.00103131 0.000733775 0)
(-0.00141266 0.000893139 0)
(-0.00185608 0.00104838 0)
(-0.00235976 0.00119737 0)
(-0.00292118 0.00133852 0)
(-0.00353719 0.00147065 0)
(-0.00420424 0.00159291 0)
(-0.0049184 0.00170469 0)
(-0.00567551 0.00180557 0)
(-0.00647121 0.0018953 0)
(-0.00730103 0.00197374 0)
(-0.00816042 0.00204086 0)
(-0.00904479 0.00209669 0)
(-0.00994957 0.00214134 0)
(-0.0108702 0.00217498 0)
(-0.0118022 0.0021978 0)
(-0.0127411 0.00221004 0)
(-0.0136826 0.00221196 0)
(-0.0146224 0.00220386 0)
(-0.0155564 0.00218604 0)
(-0.0164807 0.00215883 0)
(-0.0173912 0.00212256 0)
(-0.0182844 0.00207759 0)
(-0.0191565 0.00202427 0)
(-0.0200042 0.00196298 0)
(-0.0208241 0.00189408 0)
(-0.0216131 0.00181795 0)
(-0.0223682 0.00173498 0)
(-0.0230866 0.00164555 0)
(-0.0237657 0.00155006 0)
(-0.0244028 0.0014489 0)
(-0.0249959 0.00134248 0)
(-0.0255425 0.00123119 0)
(-0.0260409 0.00111546 0)
(-0.0264891 0.00099568 0)
(-0.0268857 0.000872284 0)
(-0.027229 0.000745689 0)
(-0.0275179 0.000616325 0)
(-0.0277513 0.000484623 0)
(-0.0279283 0.000351023 0)
(-0.0280481 0.000215968 0)
(-0.0281103 7.99082e-05 0)
(-0.0281146 -5.66999e-05 0)
(-0.0280608 -0.000193395 0)
(-0.027949 -0.000329709 0)
(-0.0277795 -0.000465169 0)
(-0.0275527 -0.000599295 0)
(-0.0272694 -0.000731606 0)
(-0.0269304 -0.000861612 0)
(-0.0265369 -0.00098882 0)
(-0.02609 -0.00111274 0)
(-0.0255914 -0.00123286 0)
(-0.0250428 -0.0013487 0)
(-0.024446 -0.00145974 0)
(-0.0238033 -0.0015655 0)
(-0.023117 -0.00166547 0)
(-0.0223897 -0.00175917 0)
(-0.021624 -0.00184611 0)
(-0.0208231 -0.0019258 0)
(-0.0199899 -0.00199779 0)
(-0.019128 -0.00206161 0)
(-0.0182407 -0.00211683 0)
(-0.0173318 -0.00216301 0)
(-0.0164053 -0.00219975 0)
(-0.015465 -0.00222666 0)
(-0.0145152 -0.00224339 0)
(-0.0135603 -0.00224961 0)
(-0.0126046 -0.00224502 0)
(-0.0116527 -0.00222935 0)
(-0.0107092 -0.00220239 0)
(-0.00977883 -0.00216396 0)
(-0.0088663 -0.00211394 0)
(-0.00797637 -0.00205227 0)
(-0.00711378 -0.00197895 0)
(-0.00628322 -0.00189409 0)
(-0.00548929 -0.00179786 0)
(-0.00473649 -0.00169055 0)
(-0.00402908 -0.00157259 0)
(-0.00337112 -0.00144457 0)
(-0.00276633 -0.00130728 0)
(-0.00221801 -0.00116177 0)
(-0.00172897 -0.00100938 0)
(-0.00130134 -0.000851876 0)
(-0.000936487 -0.000691552 0)
(-0.000634762 -0.000531375 0)
(-0.000395333 -0.000375204 0)
(-0.000215903 -0.000228062 0)
(-9.24304e-05 -9.64729e-05 0)
(-1.88492e-05 1.11121e-05 0)
(1.32917e-05 8.39145e-05 0)
(1.60497e-05 0.000108357 0)
(5.93855e-06 6.63912e-05 0)
(2.38694e-06 -6.77739e-05 0)
(-4.76421e-06 -8.82425e-05 0)
(-4.27018e-05 -2.5195e-05 0)
(-0.000124143 9.82598e-05 0)
(-0.000259312 0.000264859 0)
(-0.000455832 0.000460859 0)
(-0.000718995 0.000675398 0)
(-0.00105211 0.000900002 0)
(-0.00145679 0.00112809 0)
(-0.00193321 0.00135457 0)
(-0.00248034 0.00157552 0)
(-0.00309614 0.00178792 0)
(-0.00377778 0.00198948 0)
(-0.00452176 0.00217847 0)
(-0.00532408 0.00235358 0)
(-0.00618032 0.00251389 0)
(-0.00708575 0.00265874 0)
(-0.00803541 0.00278769 0)
(-0.0090242 0.00290049 0)
(-0.0100469 0.00299704 0)
(-0.0110982 0.00307735 0)
(-0.0121729 0.00314155 0)
(-0.0132656 0.00318981 0)
(-0.0143711 0.00322242 0)
(-0.0154844 0.00323967 0)
(-0.0166003 0.00324195 0)
(-0.0177138 0.00322964 0)
(-0.0188202 0.00320319 0)
(-0.0199147 0.00316304 0)
(-0.0209929 0.00310969 0)
(-0.0220502 0.00304363 0)
(-0.0230825 0.00296538 0)
(-0.0240858 0.00287547 0)
(-0.025056 0.00277443 0)
(-0.0259897 0.00266282 0)
(-0.0268831 0.00254119 0)
(-0.027733 0.00241011 0)
(-0.0285363 0.00227016 0)
(-0.02929 0.0021219 0)
(-0.0299914 0.00196594 0)
(-0.0306379 0.00180286 0)
(-0.0312272 0.00163326 0)
(-0.0317572 0.00145775 0)
(-0.032226 0.00127694 0)
(-0.0326319 0.00109145 0)
(-0.0329733 0.000901915 0)
(-0.033249 0.000708965 0)
(-0.033458 0.000513247 0)
(-0.0335994 0.000315411 0)
(-0.0336726 0.000116119 0)
(-0.0336773 -8.39614e-05 0)
(-0.0336134 -0.000284151 0)
(-0.0334808 -0.000483765 0)
(-0.03328 -0.000682109 0)
(-0.0330115 -0.000878483 0)
(-0.0326761 -0.00107218 0)
(-0.032275 -0.00126248 0)
(-0.0318093 -0.00144867 0)
(-0.0312807 -0.00163002 0)
(-0.0306908 -0.00180581 0)
(-0.0300419 -0.00197531 0)
(-0.0293361 -0.00213779 0)
(-0.028576 -0.00229253 0)
(-0.0277643 -0.00243879 0)
(-0.0269041 -0.00257588 0)
(-0.0259986 -0.00270308 0)
(-0.0250513 -0.00281971 0)
(-0.0240659 -0.00292508 0)
(-0.0230464 -0.00301853 0)
(-0.0219969 -0.00309943 0)
(-0.0209217 -0.00316716 0)
(-0.0198253 -0.00322115 0)
(-0.0187126 -0.00326083 0)
(-0.0175883 -0.00328571 0)
(-0.0164576 -0.00329532 0)
(-0.0153256 -0.00328923 0)
(-0.0141976 -0.00326709 0)
(-0.013079 -0.0032286 0)
(-0.0119752 -0.00317353 0)
(-0.0108917 -0.00310173 0)
(-0.00983406 -0.00301315 0)
(-0.0088077 -0.00290782 0)
(-0.00781803 -0.00278593 0)
(-0.00687033 -0.00264778 0)
(-0.00596972 -0.00249384 0)
(-0.00512109 -0.00232478 0)
(-0.00432904 -0.00214151 0)
(-0.00359775 -0.00194521 0)
(-0.00293096 -0.00173744 0)
(-0.00233179 -0.00152018 0)
(-0.00180266 -0.00129596 0)
(-0.0013451 -0.001068 0)
(-0.000959601 -0.000840402 0)
(-0.000645389 -0.000618393 0)
(-0.00040024 -0.000408599 0)
(-0.000220218 -0.00021944 0)
(-9.94265e-05 -6.1573e-05 0)
(-2.96873e-05 5.16576e-05 0)
(-8.13517e-08 0.000103646 0)
(3.12073e-06 7.23114e-05 0)
(-8.605e-07 -6.20235e-05 0)
(-2.37957e-05 -5.34571e-05 0)
(-9.36334e-05 5.2663e-05 0)
(-0.000219194 0.000230194 0)
(-0.000408823 0.000459298 0)
(-0.000669384 0.000723942 0)
(-0.00100559 0.00101123 0)
(-0.0014203 0.00131091 0)
(-0.00191478 0.00161485 0)
(-0.00248894 0.00191665 0)
(-0.00314145 0.00221126 0)
(-0.00387002 0.00249476 0)
(-0.00467149 0.00276408 0)
(-0.00554199 0.00301688 0)
(-0.00647711 0.00325138 0)
(-0.00747199 0.00346625 0)
(-0.00852139 0.00366055 0)
(-0.00961984 0.00383363 0)
(-0.0107617 0.00398508 0)
(-0.011941 0.00411472 0)
(-0.0131521 0.00422251 0)
(-0.0143888 0.00430857 0)
(-0.0156454 0.00437311 0)
(-0.016916 0.00441645 0)
(-0.0181947 0.004439 0)
(-0.0194759 0.00444122 0)
(-0.0207539 0.00442363 0)
(-0.0220232 0.0043868 0)
(-0.0232786 0.00433133 0)
(-0.024515 0.00425788 0)
(-0.0257272 0.00416709 0)
(-0.0269105 0.00405968 0)
(-0.0280603 0.00393635 0)
(-0.0291722 0.00379783 0)
(-0.0302419 0.00364486 0)
(-0.0312655 0.0034782 0)
(-0.0322391 0.00329863 0)
(-0.0331592 0.00310692 0)
(-0.0340225 0.00290387 0)
(-0.0348257 0.00269028 0)
(-0.035566 0.00246695 0)
(-0.0362408 0.00223471 0)
(-0.0368476 0.0019944 0)
(-0.0373842 0.00174684 0)
(-0.0378487 0.0014929 0)
(-0.0382394 0.00123342 0)
(-0.0385548 0.000969291 0)
(-0.0387938 0.000701387 0)
(-0.0389554 0.000430604 0)
(-0.039039 0.000157846 0)
(-0.0390441 -0.00011597 0)
(-0.0389705 -0.000389915 0)
(-0.0388185 -0.000663052 0)
(-0.0385883 -0.000934431 0)
(-0.0382806 -0.00120309 0)
(-0.0378964 -0.00146807 0)
(-0.0374368 -0.00172839 0)
(-0.0369035 -0.00198306 0)
(-0.036298 -0.00223111 0)
(-0.0356226 -0.00247153 0)
(-0.0348795 -0.00270334 0)
(-0.0340712 -0.00292555 0)
(-0.0332008 -0.00313717 0)
(-0.0322714 -0.00333722 0)
(-0.0312863 -0.00352472 0)
(-0.0302494 -0.00369874 0)
(-0.0291645 -0.00385832 0)
(-0.0280359 -0.00400255 0)
(-0.0268681 -0.00413053 0)
(-0.0256657 -0.00424142 0)
(-0.0244337 -0.00433439 0)
(-0.0231773 -0.00440865 0)
(-0.0219017 -0.00446348 0)
(-0.0206126 -0.00449819 0)
(-0.0193156 -0.00451217 0)
(-0.0180166 -0.00450487 0)
(-0.0167216 -0.00447582 0)
(-0.0154365 -0.00442465 0)
(-0.0141676 -0.00435107 0)
(-0.012921 -0.00425492 0)
(-0.0117029 -0.00413614 0)
(-0.0105193 -0.00399486 0)
(-0.00937637 -0.00383134 0)
(-0.00827995 -0.00364605 0)
(-0.00723573 -0.00343968 0)
(-0.00624913 -0.00321318 0)
(-0.00532522 -0.00296784 0)
(-0.00446865 -0.0027053 0)
(-0.00368352 -0.00242767 0)
(-0.00297332 -0.00213763 0)
(-0.00234074 -0.00183853 0)
(-0.00178755 -0.00153459 0)
(-0.00131448 -0.00123107 0)
(-0.000920996 -0.000934553 0)
(-0.000605141 -0.000653225 0)
(-0.00036336 -0.000397297 0)
(-0.000190246 -0.000179453 0)
(-7.82721e-05 -1.53134e-05 0)
(-1.8219e-05 7.59491e-05 0)
(2.50334e-08 6.91865e-05 0)
(-4.17119e-06 -4.61294e-05 0)
(-4.37137e-05 7.55041e-06 0)
(-0.000147483 0.000170084 0)
(-0.000320013 0.000413203 0)
(-0.000567422 0.000715038 0)
(-0.000895536 0.00105763 0)
(-0.00130823 0.00142631 0)
(-0.00180769 0.0018092 0)
(-0.00239468 0.00219675 0)
(-0.00306865 0.00258127 0)
(-0.00382792 0.00295664 0)
(-0.00466983 0.00331799 0)
(-0.00559086 0.00366148 0)
(-0.00658678 0.00398412 0)
(-0.00765277 0.00428361 0)
(-0.00878354 0.0045582 0)
(-0.0099734 0.00480662 0)
(-0.0112164 0.00502798 0)
(-0.0125063 0.0052217 0)
(-0.0138368 0.00538747 0)
(-0.0152015 0.00552519 0)
(-0.0165938 0.00563495 0)
(-0.0180073 0.005717 0)
(-0.0194356 0.00577171 0)
(-0.0208721 0.00579956 0)
(-0.0223106 0.00580111 0)
(-0.023745 0.00577702 0)
(-0.0251692 0.00572799 0)
(-0.0265773 0.00565479 0)
(-0.0279636 0.00555825 0)
(-0.0293225 0.0054392 0)
(-0.0306488 0.00529854 0)
(-0.0319373 0.00513717 0)
(-0.033183 0.00495605 0)
(-0.0343814 0.00475613 0)
(-0.0355278 0.0045384 0)
(-0.0366182 0.00430384 0)
(-0.0376486 0.00405349 0)
(-0.0386151 0.00378836 0)
(-0.0395144 0.00350949 0)
(-0.0403431 0.00321796 0)
(-0.0410984 0.00291481 0)
(-0.0417776 0.00260115 0)
(-0.0423781 0.00227806 0)
(-0.0428979 0.00194666 0)
(-0.043335 0.00160806 0)
(-0.0436879 0.00126342 0)
(-0.0439552 0.000913869 0)
(-0.0441358 0.000560588 0)
(-0.0442291 0.000204754 0)
(-0.0442346 -0.000152436 0)
(-0.044152 -0.000509773 0)
(-0.0439816 -0.000866032 0)
(-0.0437238 -0.00121998 0)
(-0.0433793 -0.00157036 0)
(-0.0429491 -0.00191592 0)
(-0.0424347 -0.00225538 0)
(-0.0418376 -0.00258747 0)
(-0.0411599 -0.00291091 0)
(-0.0404038 -0.00322441 0)
(-0.039572 -0.00352668 0)
(-0.0386673 -0.00381643 0)
(-0.0376929 -0.0040924 0)
(-0.0366524 -0.0043533 0)
(-0.0355497 -0.00459788 0)
(-0.0343887 -0.00482492 0)
(-0.0331739 -0.00503319 0)
(-0.0319101 -0.00522152 0)
(-0.0306021 -0.00538875 0)
(-0.0292551 -0.0055338 0)
(-0.0278748 -0.00565559 0)
(-0.0264666 -0.00575314 0)
(-0.0250367 -0.0058255 0)
(-0.023591 -0.00587183 0)
(-0.022136 -0.00589133 0)
(-0.0206779 -0.00588332 0)
(-0.0192236 -0.00584723 0)
(-0.0177795 -0.0057826 0)
(-0.0163524 -0.00568908 0)
(-0.0149493 -0.00556651 0)
(-0.0135767 -0.00541486 0)
(-0.0122414 -0.00523433 0)
(-0.01095 -0.00502531 0)
(-0.00970894 -0.00478845 0)
(-0.00852444 -0.00452469 0)
(-0.00740241 -0.00423532 0)
(-0.00634836 -0.00392201 0)
(-0.00536738 -0.00358693 0)
(-0.00446394 -0.00323279 0)
(-0.00364189 -0.00286299 0)
(-0.00290425 -0.00248174 0)
(-0.00225314 -0.00209426 0)
(-0.0016896 -0.00170696 0)
(-0.00121348 -0.00132773 0)
(-0.0008233 -0.000966237 0)
(-0.000516088 -0.000634325 0)
(-0.000287183 -0.000346475 0)
(-0.000129987 -0.000120244 0)
(-3.73358e-05 2.31419e-05 0)
(-3.1532e-06 5.63509e-05 0)
(-7.44636e-06 -1.98819e-05 0)
(-6.38979e-05 9.58038e-05 0)
(-0.00020262 0.000328867 0)
(-0.000423744 0.000649663 0)
(-0.000730986 0.0010348 0)
(-0.00112894 0.00146477 0)
(-0.00162046 0.00192338 0)
(-0.00220689 0.00239735 0)
(-0.00288831 0.00287581 0)
(-0.00366362 0.00334991 0)
(-0.00453067 0.00381248 0)
(-0.00548635 0.00425773 0)
(-0.00652673 0.00468106 0)
(-0.00764719 0.00507883 0)
(-0.0088425 0.00544817 0)
(-0.0101069 0.00578692 0)
(-0.0114344 0.00609344 0)
(-0.0128184 0.00636658 0)
(-0.0142524 0.00660557 0)
(-0.0157295 0.00680995 0)
(-0.0172427 0.00697955 0)
(-0.018785 0.00711444 0)
(-0.0203495 0.00721486 0)
(-0.0219291 0.00728124 0)
(-0.0235169 0.00731412 0)
(-0.025106 0.0073142 0)
(-0.0266899 0.00728224 0)
(-0.0282618 0.00721911 0)
(-0.0298155 0.00712574 0)
(-0.0313445 0.00700313 0)
(-0.0328431 0.00685233 0)
(-0.0343052 0.00667443 0)
(-0.0357253 0.00647058 0)
(-0.0370982 0.00624194 0)
(-0.0384185 0.0059897 0)
(-0.0396815 0.0057151 0)
(-0.0408826 0.00541938 0)
(-0.0420173 0.00510382 0)
(-0.0430817 0.00476969 0)
(-0.0440719 0.00441832 0)
(-0.0449844 0.00405103 0)
(-0.0458159 0.00366916 0)
(-0.0465634 0.00327408 0)
(-0.0472244 0.00286716 0)
(-0.0477965 0.0024498 0)
(-0.0482776 0.00202343 0)
(-0.0486658 0.00158946 0)
(-0.0489599 0.00114935 0)
(-0.0491586 0.000704563 0)
(-0.0492612 0.000256596 0)
(-0.0492671 -0.000193053 0)
(-0.0491762 -0.000642861 0)
(-0.0489885 -0.00109129 0)
(-0.0487047 -0.00153679 0)
(-0.0483254 -0.00197778 0)
(-0.0478519 -0.00241269 0)
(-0.0472857 -0.00283991 0)
(-0.0466285 -0.00325786 0)
(-0.0458826 -0.00366492 0)
(-0.0450503 -0.00405947 0)
(-0.0441347 -0.00443991 0)
(-0.0431388 -0.00480462 0)
(-0.0420662 -0.00515201 0)
(-0.0409207 -0.00548049 0)
(-0.0397065 -0.0057885 0)
(-0.038428 -0.00607449 0)
(-0.0370902 -0.00633696 0)
(-0.0356981 -0.00657443 0)
(-0.034257 -0.00678548 0)
(-0.0327728 -0.00696875 0)
(-0.0312513 -0.00712292 0)
(-0.0296988 -0.00724676 0)
(-0.0281217 -0.00733912 0)
(-0.0265266 -0.00739895 0)
(-0.0249205 -0.00742529 0)
(-0.0233103 -0.00741732 0)
(-0.0217031 -0.00737433 0)
(-0.0201063 -0.0072958 0)
(-0.018527 -0.00718133 0)
(-0.0169727 -0.00703074 0)
(-0.0154507 -0.00684407 0)
(-0.0139681 -0.00662157 0)
(-0.0125322 -0.00636381 0)
(-0.0111498 -0.00607162 0)
(-0.00982774 -0.00574624 0)
(-0.00857228 -0.00538929 0)
(-0.00738942 -0.0050029 0)
(-0.00628465 -0.00458975 0)
(-0.00526288 -0.00415318 0)
(-0.00432832 -0.00369734 0)
(-0.00348439 -0.0032273 0)
(-0.00273361 -0.00274925 0)
(-0.00207748 -0.00227073 0)
(-0.00151634 -0.00180084 0)
(-0.00104932 -0.00135063 0)
(-0.000674233 -0.000933393 0)
(-0.000387343 -0.000565154 0)
(-0.000183168 -0.000265057 0)
(-5.67909e-05 -5.58952e-05 0)
(-6.30873e-06 3.35512e-05 0)
(-1.06354e-05 1.66916e-05 0)
(-8.39719e-05 0.000211664 0)
(-0.00025798 0.000529875 0)
(-0.00052844 0.000940879 0)
(-0.000896604 0.0014202 0)
(-0.00136573 0.00194714 0)
(-0.00193752 0.00250425 0)
(-0.00261234 0.00307704 0)
(-0.00338946 0.00365348 0)
(-0.00426714 0.00422364 0)
(-0.00524263 0.00477938 0)
(-0.00631233 0.00531407 0)
(-0.00747185 0.00582235 0)
(-0.00871612 0.00629991 0)
(-0.0100395 0.00674338 0)
(-0.0114358 0.00715012 0)
(-0.0128984 0.00751814 0)
(-0.0144207 0.00784601 0)
(-0.0159953 0.00813274 0)
(-0.017615 0.00837774 0)
(-0.0192725 0.00858075 0)
(-0.0209602 0.00874178 0)
(-0.0226706 0.00886108 0)
(-0.0243962 0.00893913 0)
(-0.0261297 0.00897656 0)
(-0.0278637 0.00897415 0)
(-0.029591 0.00893281 0)
(-0.0313046 0.00885356 0)
(-0.0329976 0.00873752 0)
(-0.0346632 0.00858586 0)
(-0.0362951 0.00839986 0)
(-0.037887 0.00818084 0)
(-0.0394327 0.00793015 0)
(-0.0409267 0.00764922 0)
(-0.0423632 0.0073395 0)
(-0.0437372 0.00700248 0)
(-0.0450435 0.00663967 0)
(-0.0462776 0.00625263 0)
(-0.047435 0.00584292 0)
(-0.0485116 0.00541215 0)
(-0.0495036 0.00496193 0)
(-0.0504075 0.00449391 0)
(-0.0512201 0.00400974 0)
(-0.0519386 0.00351113 0)
(-0.0525603 0.00299978 0)
(-0.0530831 0.00247741 0)
(-0.0535051 0.00194578 0)
(-0.0538247 0.00140667 0)
(-0.0540406 0.000861876 0)
(-0.0541521 0.000313207 0)
(-0.0541585 -0.000237492 0)
(-0.0540598 -0.00078836 0)
(-0.0538559 -0.00133752 0)
(-0.0535476 -0.00188307 0)
(-0.0531355 -0.00242309 0)
(-0.0526211 -0.00295565 0)
(-0.0520059 -0.00347881 0)
(-0.0512918 -0.0039906 0)
(-0.0504813 -0.00448908 0)
(-0.049577 -0.00497227 0)
(-0.0485819 -0.00543821 0)
(-0.0474996 -0.00588495 0)
(-0.0463337 -0.00631053 0)
(-0.0450885 -0.00671303 0)
(-0.0437684 -0.00709054 0)
(-0.0423783 -0.00744121 0)
(-0.0409233 -0.00776319 0)
(-0.039409 -0.00805471 0)
(-0.0378411 -0.00831404 0)
(-0.0362259 -0.00853953 0)
(-0.0345696 -0.0087296 0)
(-0.032879 -0.00888277 0)
(-0.031161 -0.00899767 0)
(-0.0294227 -0.00907302 0)
(-0.0276715 -0.0091077 0)
(-0.0259149 -0.00910072 0)
(-0.0241605 -0.00905127 0)
(-0.0224161 -0.00895872 0)
(-0.0206895 -0.00882266 0)
(-0.0189886 -0.00864289 0)
(-0.0173213 -0.00841949 0)
(-0.0156951 -0.00815283 0)
(-0.0141178 -0.00784361 0)
(-0.0125968 -0.00749292 0)
(-0.0111392 -0.00710227 0)
(-0.00975191 -0.00667366 0)
(-0.00844126 -0.00620966 0)
(-0.00721321 -0.00571349 0)
(-0.00607308 -0.00518914 0)
(-0.00502552 -0.00464149 0)
(-0.0040744 -0.00407646 0)
(-0.00322272 -0.00350118 0)
(-0.00247251 -0.00292423 0)
(-0.00182475 -0.00235587 0)
(-0.00127929 -0.00180836 0)
(-0.000834841 -0.00129627 0)
(-0.000488736 -0.000836928 0)
(-0.000236722 -0.000450727 0)
(-7.6192e-05 -0.000161605 0)
(-9.38726e-06 7.81903e-07 0)
(-1.37152e-05 6.34278e-05 0)
(-0.000103715 0.000355066 0)
(-0.000312885 0.000773322 0)
(-0.000632799 0.00128738 0)
(-0.00106227 0.00187205 0)
(-0.00160317 0.00250572 0)
(-0.00225596 0.00316998 0)
(-0.00301995 0.00384928 0)
(-0.0038935 0.00453061 0)
(-0.00487413 0.00520309 0)
(-0.00595843 0.00585768 0)
(-0.00714223 0.00648697 0)
(-0.00842061 0.00708486 0)
(-0.00978801 0.00764646 0)
(-0.0112383 0.00816783 0)
(-0.012765 0.00864591 0)
(-0.0143609 0.00907836 0)
(-0.0160189 0.00946344 0)
(-0.0177314 0.00979996 0)
(-0.0194906 0.0100872 0)
(-0.0212888 0.0103247 0)
(-0.0231179 0.0105125 0)
(-0.02497 0.0106509 0)
(-0.0268371 0.0107404 0)
(-0.0287116 0.0107816 0)
(-0.0305854 0.0107755 0)
(-0.0324511 0.0107232 0)
(-0.0343011 0.0106257 0)
(-0.0361281 0.0104844 0)
(-0.0379249 0.0103007 0)
(-0.0396848 0.0100761 0)
(-0.041401 0.00981205 0)
(-0.0430671 0.00951029 0)
(-0.044677 0.00917244 0)
(-0.0462247 0.00880022 0)
(-0.0477047 0.00839542 0)
(-0.0491117 0.00795983 0)
(-0.0504406 0.0074953 0)
(-0.0516868 0.00700369 0)
(-0.0528459 0.00648693 0)
(-0.0539138 0.00594694 0)
(-0.0548867 0.00538568 0)
(-0.0557614 0.00480515 0)
(-0.0565347 0.00420736 0)
(-0.0572038 0.00359436 0)
(-0.0577665 0.00296821 0)
(-0.0582207 0.00233102 0)
(-0.0585647 0.0016849 0)
(-0.0587972 0.001032 0)
(-0.0589174 0.0003745 0)
(-0.0589245 -0.000285402 0)
(-0.0588184 -0.000945483 0)
(-0.0585994 -0.00160349 0)
(-0.0582679 -0.00225717 0)
(-0.0578249 -0.00290421 0)
(-0.0572717 -0.00354233 0)
(-0.0566101 -0.00416918 0)
(-0.0558421 -0.00478245 0)
(-0.0549702 -0.00537979 0)
(-0.0539973 -0.00595886 0)
(-0.0529268 -0.00651732 0)
(-0.0517621 -0.00705284 0)
(-0.0505075 -0.0075631 0)
(-0.0491672 -0.00804581 0)