/*--------------------------------*- C++ -*----------------------------------*\
| =========                 |                                                 |
| \\      /  F ield         | OpenFOAM: The Open Source CFD Toolbox           |
|  \\    /   O peration     | Version:  2212                                  |
|   \\  /    A nd           | Website:  www.openfoam.com                      |
|    \\/     M anipulation  |                                                 |
\*---------------------------------------------------------------------------*/
FoamFile
{
    version     2.0;
    format      ascii;
    arch        "LSB;label=32;scalar=64";
    class       volVectorField;
    location    "0.087";
    object      U_0;
}
// * * * * * * * * * * * * * * * * * * * * * * * * * * * * * * * * * * * * * //

dimensions      [0 1 -1 0 0 0 0];

internalField   nonuniform List<vector> 
10000
(
(3.00481e-06 -2.99594e-06 0)
(1.49158e-05 -7.70976e-06 0)
(3.39016e-05 -8.90769e-06 0)
(5.17636e-05 -7.6879e-06 0)
(6.34891e-05 -5.18548e-06 0)
(6.66437e-05 -2.0588e-06 0)
(5.99645e-05 1.32592e-06 0)
(4.28742e-05 4.76146e-06 0)
(1.5251e-05 8.13064e-06 0)
(-2.27347e-05 1.13669e-05 0)
(-7.07229e-05 1.44314e-05 0)
(-0.000128228 1.73e-05 0)
(-0.000194683 1.99595e-05 0)
(-0.000269466 2.24032e-05 0)
(-0.000351919 2.46278e-05 0)
(-0.000441365 2.6633e-05 0)
(-0.000537114 2.84206e-05 0)
(-0.000638473 2.99933e-05 0)
(-0.000744752 3.13553e-05 0)
(-0.000855267 3.25105e-05 0)
(-0.000969344 3.34641e-05 0)
(-0.00108632 3.42223e-05 0)
(-0.00120555 3.47909e-05 0)
(-0.00132641 3.51757e-05 0)
(-0.00144828 3.5383e-05 0)
(-0.00157056 3.54189e-05 0)
(-0.00169269 3.52898e-05 0)
(-0.00181411 3.5002e-05 0)
(-0.00193428 3.45617e-05 0)
(-0.00205268 3.39755e-05 0)
(-0.00216884 3.32497e-05 0)
(-0.00228227 3.23907e-05 0)
(-0.00239252 3.14048e-05 0)
(-0.00249917 3.02988e-05 0)
(-0.0026018 2.90785e-05 0)
(-0.00270003 2.77501e-05 0)
(-0.00279349 2.63202e-05 0)
(-0.00288185 2.47949e-05 0)
(-0.00296478 2.31804e-05 0)
(-0.00304198 2.14833e-05 0)
(-0.00311317 1.97095e-05 0)
(-0.00317809 1.78653e-05 0)
(-0.00323652 1.59573e-05 0)
(-0.00328825 1.39916e-05 0)
(-0.00333308 1.19753e-05 0)
(-0.00337085 9.91499e-06 0)
(-0.00340142 7.81725e-06 0)
(-0.00342467 5.68863e-06 0)
(-0.00344051 3.53578e-06 0)
(-0.00344886 1.36559e-06 0)
(-0.00344969 -8.14865e-07 0)
(-0.00344297 -2.99867e-06 0)
(-0.0034287 -5.17835e-06 0)
(-0.00340691 -7.34599e-06 0)
(-0.00337767 -9.49427e-06 0)
(-0.00334105 -1.16159e-05 0)
(-0.00329716 -1.37032e-05 0)
(-0.00324615 -1.57481e-05 0)
(-0.00318816 -1.77432e-05 0)
(-0.0031234 -1.96798e-05 0)
(-0.00305208 -2.15494e-05 0)
(-0.00297446 -2.3344e-05 0)
(-0.00289079 -2.50557e-05 0)
(-0.0028014 -2.66761e-05 0)
(-0.00270661 -2.8197e-05 0)
(-0.00260679 -2.96107e-05 0)
(-0.0025023 -3.09092e-05 0)
(-0.00239358 -3.2084e-05 0)
(-0.00228106 -3.31267e-05 0)
(-0.00216521 -3.40298e-05 0)
(-0.00204652 -3.47859e-05 0)
(-0.00192551 -3.53875e-05 0)
(-0.00180272 -3.58274e-05 0)
(-0.00167872 -3.60988e-05 0)
(-0.0015541 -3.61951e-05 0)
(-0.00142945 -3.61097e-05 0)
(-0.00130541 -3.58365e-05 0)
(-0.00118261 -3.53701e-05 0)
(-0.00106172 -3.47057e-05 0)
(-0.000943415 -3.38388e-05 0)
(-0.000828368 -3.27653e-05 0)
(-0.000717272 -3.14819e-05 0)
(-0.000610823 -2.99861e-05 0)
(-0.000509716 -2.82765e-05 0)
(-0.000414646 -2.63523e-05 0)
(-0.000326296 -2.42144e-05 0)
(-0.000245336 -2.1865e-05 0)
(-0.000172412 -1.93089e-05 0)
(-0.000108138 -1.65531e-05 0)
(-5.3075e-05 -1.36092e-05 0)
(-7.72072e-06 -1.04952e-05 0)
(2.75254e-05 -7.23901e-06 0)
(5.24015e-05 -3.88495e-06 0)
(6.6848e-05 -5.05856e-07 0)
(7.11087e-05 2.7753e-06 0)
(6.58919e-05 5.74754e-06 0)
(5.25932e-05 8.04601e-06 0)
(3.37599e-05 9.02323e-06 0)
(1.44611e-05 7.58522e-06 0)
(2.77565e-06 2.776e-06 0)
(7.7181e-06 -1.49102e-05 0)
(3.12946e-05 -3.12685e-05 0)
(6.2931e-05 -3.34177e-05 0)
(8.82698e-05 -2.55318e-05 0)
(9.77979e-05 -1.14566e-05 0)
(8.60081e-05 6.20069e-06 0)
(4.95159e-05 2.57348e-05 0)
(-1.35487e-05 4.60299e-05 0)
(-0.000103921 6.63568e-05 0)
(-0.00022153 8.62328e-05 0)
(-0.000365736 0.000105336 0)
(-0.000535497 0.000123449 0)
(-0.000729486 0.000140425 0)
(-0.000946173 0.000156166 0)
(-0.00118389 0.000170612 0)
(-0.00144088 0.000183723 0)
(-0.0017153 0.000195482 0)
(-0.00200532 0.000205885 0)
(-0.00230905 0.000214936 0)
(-0.00262462 0.000222651 0)
(-0.00295018 0.000229049 0)
(-0.0032839 0.000234156 0)
(-0.00362397 0.000238002 0)
(-0.00396862 0.000240619 0)
(-0.00431615 0.000242042 0)
(-0.00466487 0.000242308 0)
(-0.00501315 0.000241455 0)
(-0.00535943 0.000239521 0)
(-0.00570217 0.000236548 0)
(-0.00603993 0.000232575 0)
(-0.00637128 0.000227644 0)
(-0.00669489 0.000221798 0)
(-0.00700946 0.000215077 0)
(-0.00731376 0.000207525 0)
(-0.00760662 0.000199184 0)
(-0.00788693 0.000190097 0)
(-0.00815366 0.000180307 0)
(-0.0084058 0.000169857 0)
(-0.00864245 0.00015879 0)
(-0.00886273 0.00014715 0)
(-0.00906585 0.00013498 0)
(-0.00925108 0.000122325 0)
(-0.00941775 0.000109229 0)
(-0.00956526 9.57374e-05 0)
(-0.00969307 8.18959e-05 0)
(-0.0098007 6.77509e-05 0)
(-0.00988776 5.33485e-05 0)
(-0.0099539 3.87357e-05 0)
(-0.00999887 2.39602e-05 0)
(-0.0100225 9.06995e-06 0)
(-0.0100245 -5.88565e-06 0)
(-0.0100051 -2.08567e-05 0)
(-0.00996406 -3.57929e-05 0)
(-0.0099016 -5.06426e-05 0)
(-0.00981786 -6.53531e-05 0)
(-0.00971308 -7.98723e-05 0)
(-0.00958759 -9.4147e-05 0)
(-0.00944177 -0.000108123 0)
(-0.0092761 -0.000121746 0)
(-0.00909114 -0.000134961 0)
(-0.00888752 -0.000147713 0)
(-0.00866596 -0.000159944 0)
(-0.00842723 -0.0001716 0)
(-0.00817222 -0.000182625 0)
(-0.00790187 -0.000192965 0)
(-0.00761722 -0.000202564 0)
(-0.00731936 -0.00021137 0)
(-0.00700949 -0.000219327 0)
(-0.00668886 -0.000226384 0)
(-0.00635879 -0.000232488 0)
(-0.0060207 -0.00023759 0)
(-0.00567605 -0.000241642 0)
(-0.00532638 -0.000244598 0)
(-0.00497328 -0.000246415 0)
(-0.00461841 -0.00024705 0)
(-0.00426348 -0.000246465 0)
(-0.00391025 -0.000244625 0)
(-0.00356053 -0.000241499 0)
(-0.00321615 -0.000237059 0)
(-0.00287898 -0.000231283 0)
(-0.00255093 -0.000224153 0)
(-0.00223388 -0.000215659 0)
(-0.00192976 -0.000205795 0)
(-0.00164046 -0.000194566 0)
(-0.00136786 -0.000181986 0)
(-0.00111378 -0.000168082 0)
(-0.00088 -0.000152896 0)
(-0.000668192 -0.000136489 0)
(-0.000479905 -0.000118949 0)
(-0.000316514 -0.000100398 0)
(-0.000179161 -8.10093e-05 0)
(-6.86719e-05 -6.10246e-05 0)
(1.45613e-05 -4.07901e-05 0)
(7.07378e-05 -2.08101e-05 0)
(0.000100881 -1.83088e-06 0)
(0.000107153 1.50285e-05 0)
(9.32149e-05 2.80834e-05 0)
(6.47871e-05 3.47927e-05 0)
(3.14868e-05 3.14837e-05 0)
(7.57741e-06 1.44496e-05 0)
(8.93398e-06 -3.39136e-05 0)
(3.35682e-05 -6.29449e-05 0)
(6.1797e-05 -6.15161e-05 0)
(7.6452e-05 -3.84435e-05 0)
(6.605e-05 -9.153e-07 0)
(2.34518e-05 4.57006e-05 0)
(-5.60629e-05 9.75408e-05 0)
(-0.000175311 0.000151872 0)
(-0.000335585 0.000206772 0)
(-0.00053702 0.00026089 0)
(-0.000778889 0.000313268 0)
(-0.00105982 0.000363228 0)
(-0.00137798 0.000410295 0)
(-0.00173115 0.000454133 0)
(-0.00211691 0.000494516 0)
(-0.0025326 0.000531292 0)
(-0.00297549 0.000564371 0)
(-0.00344272 0.000593707 0)
(-0.00393144 0.000619292 0)
(-0.00443874 0.000641141 0)
(-0.00496173 0.000659295 0)
(-0.00549755 0.000673808 0)
(-0.00604336 0.000684751 0)
(-0.00659639 0.000692205 0)
(-0.00715391 0.000696259 0)
(-0.00771327 0.00069701 0)
(-0.00827189 0.000694561 0)
(-0.00882725 0.000689017 0)
(-0.00937694 0.000680489 0)
(-0.00991862 0.000669091 0)
(-0.01045 0.000654937 0)
(-0.010969 0.000638145 0)
(-0.0114735 0.000618835 0)
(-0.0119615 0.000597126 0)
(-0.0124312 0.000573141 0)
(-0.0128808 0.000547001 0)
(-0.0133085 0.00051883 0)
(-0.0137129 0.000488753 0)
(-0.0140924 0.000456893 0)
(-0.0144456 0.000423377 0)
(-0.0147713 0.000388332 0)
(-0.0150682 0.000351887 0)
(-0.0153354 0.000314169 0)
(-0.0155718 0.000275311 0)
(-0.0157766 0.000235444 0)
(-0.015949 0.000194702 0)
(-0.0160884 0.000153221 0)
(-0.0161943 0.000111136 0)
(-0.0162661 6.85861e-05 0)
(-0.0163036 2.57124e-05 0)
(-0.0163067 -1.73432e-05 0)
(-0.0162751 -6.04358e-05 0)
(-0.016209 -0.000103419 0)
(-0.0161085 -0.000146143 0)
(-0.0159739 -0.000188459 0)
(-0.0158056 -0.000230214 0)
(-0.0156041 -0.000271255 0)
(-0.01537 -0.000311425 0)
(-0.0151042 -0.000350569 0)
(-0.0148074 -0.000388528 0)
(-0.0144808 -0.000425142 0)
(-0.0141254 -0.000460254 0)
(-0.0137426 -0.000493703 0)
(-0.0133337 -0.000525332 0)
(-0.0129004 -0.000554983 0)
(-0.0124441 -0.0005825 0)
(-0.0119668 -0.000607729 0)
(-0.0114702 -0.00063052 0)
(-0.0109564 -0.000650723 0)
(-0.0104276 -0.000668194 0)
(-0.00988596 -0.000682792 0)
(-0.00933381 -0.000694384 0)
(-0.00877362 -0.000702841 0)
(-0.00820793 -0.000708043 0)
(-0.00763937 -0.000709877 0)
(-0.00707064 -0.000708239 0)
(-0.00650453 -0.000703036 0)
(-0.00594388 -0.000694185 0)
(-0.0053916 -0.000681619 0)
(-0.00485063 -0.000665282 0)
(-0.00432392 -0.00064514 0)
(-0.00381445 -0.000621175 0)
(-0.00332519 -0.000593391 0)
(-0.00285908 -0.000561823 0)
(-0.00241899 -0.000526534 0)
(-0.00200771 -0.00048763 0)
(-0.00162792 -0.000445261 0)
(-0.00128211 -0.000399644 0)
(-0.000972546 -0.000351073 0)
(-0.000701208 -0.000299947 0)
(-0.000469661 -0.000246811 0)
(-0.000278957 -0.000192401 0)
(-0.000129469 -0.000137729 0)
(-2.06769e-05 -8.41932e-05 0)
(4.91136e-05 -3.37391e-05 0)
(8.31218e-05 1.09094e-05 0)
(8.64332e-05 4.59564e-05 0)
(6.64698e-05 6.62021e-05 0)
(3.49146e-05 6.48099e-05 0)
(9.03319e-06 3.37486e-05 0)
(7.78011e-06 -5.19152e-05 0)
(2.59883e-05 -8.85626e-05 0)
(3.94054e-05 -7.63149e-05 0)
(3.05314e-05 -2.93183e-05 0)
(-1.26782e-05 4.16864e-05 0)
(-9.81051e-05 0.000128409 0)
(-0.000231138 0.000224597 0)
(-0.000415117 0.000325628 0)
(-0.000651675 0.000428104 0)
(-0.000941096 0.000529535 0)
(-0.00128261 0.000628095 0)
(-0.00167461 0.00072245 0)
(-0.00211488 0.000811629 0)
(-0.00260071 0.00089493 0)
(-0.00312904 0.000971858 0)
(-0.00369654 0.00104207 0)
(-0.00429967 0.00110535 0)
(-0.0049348 0.00116156 0)
(-0.00559817 0.00121065 0)
(-0.00628602 0.00125262 0)
(-0.00699454 0.00128753 0)
(-0.00771997 0.00131544 0)
(-0.00845855 0.00133649 0)
(-0.00920661 0.00135081 0)
(-0.00996053 0.00135856 0)
(-0.0107167 0.00135992 0)
(-0.0114718 0.00135507 0)
(-0.0122224 0.00134421 0)
(-0.0129652 0.00132755 0)
(-0.0136972 0.0013053 0)
(-0.0144152 0.00127769 0)
(-0.0151164 0.00124493 0)
(-0.015798 0.00120726 0)
(-0.0164573 0.00116491 0)
(-0.0170918 0.00111811 0)
(-0.0176991 0.00106711 0)
(-0.0182769 0.00101214 0)
(-0.0188231 0.000953436 0)
(-0.0193357 0.000891254 0)
(-0.0198128 0.000825835 0)
(-0.0202526 0.000757428 0)
(-0.0206536 0.000686283 0)
(-0.0210143 0.000612656 0)
(-0.0213335 0.000536802 0)
(-0.0216099 0.000458979 0)
(-0.0218425 0.00037945 0)
(-0.0220305 0.00029848 0)
(-0.0221732 0.000216339 0)
(-0.0222699 0.000133296 0)
(-0.0223203 4.96281e-05 0)
(-0.022324 -3.4385e-05 0)
(-0.022281 -0.00011846 0)
(-0.0221914 -0.00020231 0)
(-0.0220553 -0.000285645 0)
(-0.0218732 -0.000368169 0)
(-0.0216455 -0.000449587 0)
(-0.0213731 -0.000529598 0)
(-0.0210567 -0.000607897 0)
(-0.0206974 -0.000684181 0)
(-0.0202964 -0.000758141 0)
(-0.0198551 -0.000829469 0)
(-0.0193751 -0.000897856 0)
(-0.0188581 -0.000962994 0)
(-0.018306 -0.00102458 0)
(-0.0177208 -0.0010823 0)
(-0.0171047 -0.00113585 0)
(-0.0164602 -0.00118495 0)
(-0.0157899 -0.0012293 0)
(-0.0150963 -0.00126861 0)
(-0.0143824 -0.00130261 0)
(-0.0136512 -0.00133102 0)
(-0.0129058 -0.0013536 0)
(-0.0121494 -0.0013701 0)
(-0.0113856 -0.00138029 0)
(-0.0106178 -0.00138397 0)
(-0.00984955 -0.00138093 0)
(-0.00908466 -0.00137101 0)
(-0.00832687 -0.00135406 0)
(-0.00758003 -0.00132996 0)
(-0.00684804 -0.00129863 0)
(-0.00613479 -0.00126001 0)
(-0.00544421 -0.00121408 0)
(-0.00478018 -0.00116089 0)
(-0.00414653 -0.00110052 0)
(-0.003547 -0.00103313 0)
(-0.00298518 -0.000958956 0)
(-0.0024645 -0.000878339 0)
(-0.0019881 -0.000791736 0)
(-0.00155885 -0.000699764 0)
(-0.00117915 -0.000603244 0)
(-0.000850885 -0.000503261 0)
(-0.000575263 -0.000401257 0)
(-0.000352622 -0.000299148 0)
(-0.000182211 -0.000199493 0)
(-6.19097e-05 -0.00010572 0)
(1.21067e-05 -2.24253e-05 0)
(4.56673e-05 4.42638e-05 0)
(4.70134e-05 8.63252e-05 0)
(2.85342e-05 9.35226e-05 0)
(8.11891e-06 5.26912e-05 0)
(5.38209e-06 -6.39868e-05 0)
(1.23652e-05 -9.87845e-05 0)
(2.85048e-06 -6.65461e-05 0)
(-3.89603e-05 1.36381e-05 0)
(-0.000124603 0.000127589 0)
(-0.000262075 0.000264188 0)
(-0.000456916 0.000414816 0)
(-0.000712613 0.000572904 0)
(-0.0010309 0.000733472 0)
(-0.00141209 0.000892757 0)
(-0.00185531 0.00104792 0)
(-0.00235877 0.00119684 0)
(-0.00291992 0.00133791 0)
(-0.00353565 0.00146998 0)
(-0.00420239 0.00159217 0)
(-0.00491622 0.00170389 0)
(-0.00567297 0.00180472 0)
(-0.00646829 0.0018944 0)
(-0.00729771 0.0019728 0)
(-0.00815668 0.00203988 0)
(-0.00904062 0.00209568 0)
(-0.00994496 0.00214031 0)
(-0.0108651 0.00217392 0)
(-0.0117967 0.00219673 0)
(-0.0127351 0.00220896 0)
(-0.0136761 0.00221088 0)
(-0.0146155 0.00220277 0)
(-0.0155491 0.00218496 0)
(-0.0164729 0.00215776 0)
(-0.017383 0.00212151 0)
(-0.0182757 0.00207657 0)
(-0.0191474 0.00202328 0)
(-0.0199946 0.00196201 0)
(-0.0208141 0.00189315 0)
(-0.0216027 0.00181706 0)
(-0.0223575 0.00173413 0)
(-0.0230755 0.00164474 0)
(-0.0237542 0.0015493 0)
(-0.0243911 0.0014482 0)
(-0.0249838 0.00134183 0)
(-0.0255302 0.0012306 0)
(-0.0260284 0.00111492 0)
(-0.0264764 0.000995211 0)
(-0.0268727 0.000871879 0)
(-0.0272159 0.000745352 0)
(-0.0275047 0.000616056 0)
(-0.027738 0.000484423 0)
(-0.0279149 0.000350893 0)
(-0.0280347 0.000215909 0)
(-0.0280969 7.99202e-05 0)
(-0.0281012 -5.66174e-05 0)
(-0.0280475 -0.000193242 0)
(-0.0279357 -0.000329487 0)
(-0.0277663 -0.000464878 0)
(-0.0275397 -0.000598938 0)
(-0.0272565 -0.000731182 0)
(-0.0269177 -0.000861124 0)
(-0.0265244 -0.00098827 0)
(-0.0260778 -0.00111213 0)
(-0.0255795 -0.00123219 0)
(-0.0250311 -0.00134797 0)
(-0.0244347 -0.00145897 0)
(-0.0237924 -0.00156467 0)
(-0.0231064 -0.0016646 0)
(-0.0223794 -0.00175826 0)
(-0.0216142 -0.00184516 0)
(-0.0208136 -0.00192482 0)
(-0.0199809 -0.00199678 0)
(-0.0191194 -0.00206058 0)
(-0.0182326 -0.00211577 0)
(-0.0173241 -0.00216194 0)
(-0.016398 -0.00219867 0)
(-0.0154582 -0.00222558 0)
(-0.0145089 -0.00224232 0)
(-0.0135544 -0.00224854 0)
(-0.0125992 -0.00224396 0)
(-0.0116478 -0.00222831 0)
(-0.0107047 -0.00220137 0)
(-0.00977477 -0.00216296 0)
(-0.00886266 -0.00211298 0)
(-0.00797313 -0.00205135 0)
(-0.00711093 -0.00197808 0)
(-0.00628074 -0.00189326 0)
(-0.00548717 -0.00179708 0)
(-0.00473469 -0.00168983 0)
(-0.00402758 -0.00157193 0)
(-0.0033699 -0.00144398 0)
(-0.00276535 -0.00130676 0)
(-0.00221726 -0.00116131 0)
(-0.00172841 -0.001009 0)
(-0.00130095 -0.000851569 0)
(-0.000936231 -0.000691319 0)
(-0.000634614 -0.000531213 0)
(-0.000395265 -0.00037511 0)
(-0.000215891 -0.000228028 0)
(-9.24517e-05 -9.6491e-05 0)
(-1.88838e-05 1.10536e-05 0)
(1.32592e-05 8.383e-05 0)
(1.60296e-05 0.000108265 0)
(5.93273e-06 6.63331e-05 0)
(2.3848e-06 -6.77675e-05 0)
(-4.76427e-06 -8.82061e-05 0)
(-4.26898e-05 -2.51517e-05 0)
(-0.000124103 9.82667e-05 0)
(-0.00025922 0.000264797 0)
(-0.00045566 0.000460707 0)
(-0.000718713 0.000675144 0)
(-0.00105168 0.00089964 0)
(-0.00145619 0.00112762 0)
(-0.00193239 0.00135399 0)
(-0.00247927 0.00157482 0)
(-0.00309479 0.00178712 0)
(-0.00377612 0.00198857 0)
(-0.00451975 0.00217746 0)
(-0.0053217 0.00235248 0)
(-0.00617753 0.00251271 0)
(-0.00708252 0.00265748 0)
(-0.00803173 0.00278636 0)
(-0.00902004 0.0028991 0)
(-0.0100422 0.0029956 0)
(-0.011093 0.00307587 0)
(-0.0121672 0.00314002 0)
(-0.0132593 0.00318826 0)
(-0.0143644 0.00322084 0)
(-0.0154771 0.00323809 0)
(-0.0165924 0.00324036 0)
(-0.0177054 0.00322805 0)
(-0.0188112 0.00320161 0)
(-0.0199052 0.00316148 0)
(-0.0209828 0.00310816 0)
(-0.0220396 0.00304213 0)
(-0.0230714 0.00296392 0)
(-0.0240742 0.00287405 0)
(-0.025044 0.00277306 0)
(-0.0259771 0.00266151 0)
(-0.0268701 0.00253994 0)
(-0.0277196 0.00240893 0)
(-0.0285225 0.00226904 0)
(-0.0292759 0.00212087 0)
(-0.0299769 0.00196499 0)
(-0.0306231 0.00180199 0)
(-0.0312121 0.00163248 0)
(-0.0317419 0.00145706 0)
(-0.0322105 0.00127635 0)
(-0.0326161 0.00109096 0)
(-0.0329574 0.00090152 0)
(-0.033233 0.000708672 0)
(-0.0334419 0.000513055 0)
(-0.0335833 0.000315323 0)
(-0.0336565 0.000116135 0)
(-0.0336612 -8.38415e-05 0)
(-0.0335973 -0.000283928 0)
(-0.0334648 -0.00048344 0)
(-0.0332641 -0.000681684 0)
(-0.0329958 -0.000877959 0)
(-0.0326607 -0.00107156 0)
(-0.0322597 -0.00126177 0)
(-0.0317943 -0.00144786 0)
(-0.031266 -0.00162913 0)
(-0.0306765 -0.00180483 0)
(-0.0300279 -0.00197425 0)
(-0.0293224 -0.00213665 0)
(-0.0285627 -0.00229132 0)
(-0.0277515 -0.00243752 0)
(-0.0268917 -0.00257455 0)
(-0.0259867 -0.00270169 0)
(-0.0250399 -0.00281827 0)
(-0.024055 -0.00292359 0)
(-0.023036 -0.00301701 0)
(-0.021987 -0.00309788 0)
(-0.0209123 -0.0031656 0)
(-0.0198165 -0.00321957 0)
(-0.0187043 -0.00325925 0)
(-0.0175806 -0.00328413 0)
(-0.0164505 -0.00329375 0)
(-0.015319 -0.00328768 0)
(-0.0141915 -0.00326556 0)
(-0.0130734 -0.0032271 0)
(-0.0119702 -0.00317207 0)
(-0.0108872 -0.00310032 0)
(-0.00983002 -0.00301179 0)
(-0.00880412 -0.00290653 0)
(-0.00781489 -0.00278471 0)
(-0.00686761 -0.00264663 0)
(-0.00596739 -0.00249277 0)
(-0.00511913 -0.0023238 0)
(-0.00432741 -0.00214062 0)
(-0.00359643 -0.00194443 0)
(-0.00292991 -0.00173676 0)
(-0.00233099 -0.0015196 0)
(-0.00180206 -0.00129548 0)
(-0.00134468 -0.00106762 0)
(-0.00095932 -0.000840129 0)
(-0.00064522 -0.000618216 0)
(-0.000400154 -0.00040851 0)
(-0.000220188 -0.000219425 0)
(-9.94285e-05 -6.16179e-05 0)
(-2.97022e-05 5.15719e-05 0)
(-9.44732e-08 0.000103542 0)
(3.11634e-06 7.22432e-05 0)
(-8.62546e-07 -6.20173e-05 0)
(-2.37891e-05 -5.34315e-05 0)
(-9.35994e-05 5.26781e-05 0)
(-0.000219109 0.000230149 0)
(-0.00040866 0.000459157 0)
(-0.00066911 0.000723679 0)
(-0.00100517 0.00101083 0)
(-0.00141969 0.00131036 0)
(-0.00191396 0.00161416 0)
(-0.00248785 0.0019158 0)
(-0.00314007 0.00221027 0)
(-0.0038683 0.00249363 0)
(-0.00466939 0.00276281 0)
(-0.00553948 0.00301548 0)
(-0.00647416 0.00324985 0)
(-0.00746856 0.00346461 0)
(-0.00851747 0.00365881 0)
(-0.00961539 0.00383179 0)
(-0.0107567 0.00398317 0)
(-0.0119354 0.00411274 0)
(-0.0131459 0.00422047 0)
(-0.0143821 0.00430647 0)
(-0.0156381 0.00437097 0)
(-0.016908 0.00441429 0)
(-0.0181861 0.00443682 0)
(-0.0194666 0.00443904 0)
(-0.0207439 0.00442145 0)
(-0.0220127 0.00438463 0)
(-0.0232675 0.00432919 0)
(-0.0245032 0.00425577 0)
(-0.0257148 0.00416503 0)
(-0.0268976 0.00405767 0)
(-0.0280468 0.0039344 0)
(-0.0291581 0.00379595 0)
(-0.0302273 0.00364306 0)
(-0.0312504 0.00347649 0)
(-0.0322235 0.00329701 0)
(-0.0331432 0.0031054 0)
(-0.034006 0.00290246 0)
(-0.0348088 0.00268897 0)
(-0.0355488 0.00246576 0)
(-0.0362232 0.00223365 0)
(-0.0368297 0.00199346 0)
(-0.0373661 0.00174603 0)
(-0.0378304 0.00149222 0)
(-0.0382209 0.00123288 0)
(-0.0385362 0.000968889 0)
(-0.0387751 0.000701125 0)
(-0.0389367 0.000430483 0)
(-0.0390202 0.000157868 0)
(-0.0390253 -0.000115806 0)
(-0.0389518 -0.00038961 0)
(-0.0387999 -0.000662607 0)
(-0.0385698 -0.000933848 0)
(-0.0382623 -0.00120237 0)
(-0.0378784 -0.00146722 0)
(-0.0374191 -0.00172741 0)
(-0.036886 -0.00198196 0)
(-0.0362809 -0.00222988 0)
(-0.0356059 -0.00247019 0)
(-0.0348631 -0.00270189 0)
(-0.0340553 -0.00292399 0)
(-0.0331854 -0.00313551 0)
(-0.0322564 -0.00333547 0)
(-0.0312719 -0.00352289 0)
(-0.0302355 -0.00369683 0)
(-0.0291512 -0.00385634 0)
(-0.0280231 -0.00400052 0)
(-0.0268559 -0.00412846 0)
(-0.0256541 -0.00423931 0)
(-0.0244228 -0.00433224 0)
(-0.023167 -0.00440649 0)
(-0.021892 -0.00446131 0)
(-0.0206036 -0.00449602 0)
(-0.0193072 -0.00451001 0)
(-0.0180088 -0.00450274 0)
(-0.0167144 -0.00447372 0)
(-0.0154299 -0.00442259 0)
(-0.0141616 -0.00434907 0)
(-0.0129156 -0.00425297 0)
(-0.011698 -0.00413428 0)
(-0.010515 -0.00399308 0)
(-0.00937255 -0.00382965 0)
(-0.00827661 -0.00364446 0)
(-0.00723285 -0.0034382 0)
(-0.00624668 -0.00321182 0)
(-0.00532316 -0.0029666 0)
(-0.00446695 -0.00270419 0)
(-0.00368215 -0.0024267 0)
(-0.00297224 -0.0021368 0)
(-0.00233991 -0.00183784 0)
(-0.00178694 -0.00153404 0)
(-0.00131405 -0.00123066 0)
(-0.000920711 -0.000934263 0)
(-0.000604969 -0.000653053 0)
(-0.00036327 -0.000397227 0)
(-0.00019021 -0.000179466 0)
(-7.82659e-05 -1.53862e-05 0)
(-1.82238e-05 7.58443e-05 0)
(2.22566e-08 6.91124e-05 0)
(-4.1713e-06 -4.61283e-05 0)
(-4.36981e-05 7.55251e-06 0)
(-0.000147424 0.000170052 0)
(-0.00031988 0.000413081 0)
(-0.000567183 0.000714788 0)
(-0.000895152 0.00105722 0)
(-0.00130766 0.00142573 0)
(-0.0018069 0.00180843 0)
(-0.00239362 0.00219579 0)
(-0.00306728 0.00258012 0)
(-0.0038262 0.0029553 0)
(-0.00466772 0.00331647 0)
(-0.00558832 0.00365978 0)
(-0.00658377 0.00398226 0)
(-0.00764925 0.00428159 0)
(-0.00877948 0.00455604 0)
(-0.00996877 0.00480433 0)
(-0.0112112 0.00502557 0)
(-0.0125005 0.00521918 0)
(-0.0138303 0.00538486 0)
(-0.0151943 0.0055225 0)
(-0.016586 0.00563221 0)
(-0.0179988 0.00571421 0)
(-0.0194263 0.00576888 0)
(-0.0208621 0.00579671 0)
(-0.0223 0.00579825 0)
(-0.0237337 0.00577417 0)
(-0.0251571 0.00572516 0)
(-0.0265645 0.005652 0)
(-0.0279501 0.0055555 0)
(-0.0293084 0.00543651 0)
(-0.030634 0.00529591 0)
(-0.0319218 0.00513463 0)
(-0.033167 0.0049536 0)
(-0.0343647 0.00475378 0)
(-0.0355106 0.00453616 0)
(-0.0366005 0.00430173 0)
(-0.0376303 0.0040515 0)
(-0.0385964 0.00378651 0)
(-0.0394952 0.00350779 0)
(-0.0403236 0.00321641 0)
(-0.0410785 0.00291342 0)
(-0.0417573 0.00259992 0)
(-0.0423576 0.00227701 0)
(-0.0428771 0.00194578 0)
(-0.043314 0.00160736 0)
(-0.0436668 0.00126289 0)
(-0.0439339 0.000913528 0)
(-0.0441146 0.000560432 0)
(-0.0442078 0.000204783 0)
(-0.0442133 -0.000152222 0)
(-0.0441308 -0.000509374 0)
(-0.0439606 -0.00086545 0)
(-0.0437029 -0.00121921 0)
(-0.0433586 -0.00156942 0)
(-0.0429287 -0.0019148 0)
(-0.0424145 -0.0022541 0)
(-0.0418178 -0.00258603 0)
(-0.0411405 -0.00290931 0)
(-0.0403848 -0.00322266 0)
(-0.0395534 -0.00352478 0)
(-0.0386492 -0.0038144 0)
(-0.0376754 -0.00409023 0)
(-0.0366354 -0.00435102 0)
(-0.0355332 -0.00459549 0)
(-0.0343729 -0.00482243 0)
(-0.0331587 -0.00503061 0)
(-0.0318955 -0.00521887 0)
(-0.0305882 -0.00538604 0)
(-0.0292419 -0.00553103 0)
(-0.0278622 -0.00565279 0)
(-0.0264548 -0.00575031 0)
(-0.0250256 -0.00582267 0)
(-0.0235806 -0.00586899 0)
(-0.0221262 -0.00588851 0)
(-0.0206689 -0.00588053 0)
(-0.0192152 -0.00584448 0)
(-0.0177718 -0.0057799 0)
(-0.0163455 -0.00568645 0)
(-0.0149429 -0.00556396 0)
(-0.013571 -0.00541241 0)
(-0.0122363 -0.00523199 0)
(-0.0109455 -0.00502308 0)
(-0.00970497 -0.00478635 0)
(-0.008521 -0.00452274 0)
(-0.00739945 -0.00423352 0)
(-0.00634586 -0.00392037 0)
(-0.00536529 -0.00358546 0)
(-0.00446223 -0.00323149 0)
(-0.00364052 -0.00286187 0)
(-0.00290318 -0.0024808 0)
(-0.00225233 -0.00209349 0)
(-0.00168901 -0.00170636 0)
(-0.00121307 -0.0013273 0)
(-0.000823034 -0.000965953 0)
(-0.000515932 -0.000634174 0)
(-0.000287104 -0.000346435 0)
(-0.000129957 -0.000120288 0)
(-3.73316e-05 2.30469e-05 0)
(-3.15423e-06 5.62757e-05 0)
(-7.44335e-06 -1.98914e-05 0)
(-6.38716e-05 9.57689e-05 0)
(-0.000202533 0.000328766 0)
(-0.00042356 0.000649438 0)
(-0.000730665 0.00103441 0)
(-0.00112844 0.00146418 0)
(-0.00161974 0.00192257 0)
(-0.0022059 0.00239632 0)
(-0.00288701 0.00287455 0)
(-0.00366196 0.00334841 0)
(-0.0045286 0.00381074 0)
(-0.00548383 0.00425577 0)
(-0.00652373 0.00467889 0)
(-0.00764366 0.00507644 0)
(-0.0088384 0.0054456 0)
(-0.0101022 0.00578417 0)
(-0.011429 0.00609053 0)
(-0.0128124 0.00636352 0)
(-0.0142457 0.00660238 0)
(-0.015722 0.00680665 0)
(-0.0172345 0.00697616 0)
(-0.0187761 0.00711097 0)
(-0.0203398 0.00721133 0)
(-0.0219186 0.00727766 0)
(-0.0235056 0.00731053 0)
(-0.025094 0.0073106 0)
(-0.0266771 0.00727864 0)
(-0.0282483 0.00721554 0)
(-0.0298011 0.00712221 0)
(-0.0313294 0.00699966 0)
(-0.0328272 0.00684893 0)
(-0.0342886 0.00667113 0)
(-0.0357081 0.00646738 0)
(-0.0370802 0.00623885 0)
(-0.0383999 0.00598674 0)
(-0.0396623 0.00571228 0)
(-0.0408628 0.00541672 0)
(-0.041997 0.00510132 0)
(-0.0430608 0.00476737 0)
(-0.0440505 0.00441618 0)
(-0.0449626 0.00404908 0)
(-0.0457937 0.00366741 0)
(-0.0465409 0.00327254 0)
(-0.0472016 0.00286583 0)
(-0.0477734 0.0024487 0)
(-0.0482542 0.00202254 0)
(-0.0486423 0.0015888 0)
(-0.0489363 0.00114892 0)
(-0.049135 0.000704369 0)
(-0.0492375 0.000256634 0)
(-0.0492434 -0.000192782 0)
(-0.0491526 -0.000642358 0)
(-0.0489651 -0.00109056 0)
(-0.0486814 -0.00153583 0)
(-0.0483024 -0.00197659 0)
(-0.0478292 -0.00241128 0)
(-0.0472633 -0.0028383 0)
(-0.0466065 -0.00325604 0)
(-0.0458609 -0.0036629 0)
(-0.0450292 -0.00405726 0)
(-0.044114 -0.00443751 0)
(-0.0431187 -0.00480205 0)
(-0.0420466 -0.00514928 0)
(-0.0409017 -0.00547762 0)
(-0.0396881 -0.00578549 0)
(-0.0384104 -0.00607136 0)
(-0.0370732 -0.00633372 0)
(-0.0356818 -0.00657109 0)
(-0.0342415 -0.00678207 0)
(-0.032758 -0.00696527 0)
(-0.0312373 -0.00711939 0)
(-0.0296855 -0.0072432 0)
(-0.0281092 -0.00733554 0)
(-0.0265149 -0.00739537 0)
(-0.0249095 -0.00742173 0)
(-0.0233001 -0.00741379 0)
(-0.0216937 -0.00737086 0)
(-0.0200976 -0.00729239 0)
(-0.0185191 -0.00717801 0)
(-0.0169655 -0.00702752 0)
(-0.0154441 -0.00684097 0)
(-0.0139623 -0.0066186 0)
(-0.012527 -0.00636098 0)
(-0.0111452 -0.00606896 0)
(-0.00982372 -0.00574375 0)
(-0.00856881 -0.005387 0)
(-0.00738646 -0.0050008 0)
(-0.00628217 -0.00458785 0)
(-0.00526083 -0.0041515 0)
(-0.00432665 -0.00369587 0)
(-0.00348307 -0.00322605 0)
(-0.00273259 -0.00274822 0)
(-0.00207672 -0.00226991 0)
(-0.0015158 -0.00180023 0)
(-0.00104896 -0.0013502 0)
(-0.000674007 -0.000933135 0)
(-0.000387219 -0.000565039 0)
(-0.000183115 -0.000265055 0)
(-5.67773e-05 -5.59689e-05 0)
(-6.30809e-06 3.34798e-05 0)
(-1.06293e-05 1.66655e-05 0)
(-8.3934e-05 0.000211579 0)
(-0.000257865 0.000529685 0)
(-0.000528203 0.000940525 0)
(-0.000896201 0.00141964 0)
(-0.00136511 0.00194633 0)
(-0.00193664 0.00250318 0)
(-0.00261115 0.00307569 0)
(-0.00338791 0.00365185 0)
(-0.00426518 0.00422172 0)
(-0.00524022 0.00477719 0)
(-0.00630942 0.00531161 0)
(-0.00746839 0.00581963 0)
(-0.00871207 0.00629695 0)
(-0.0100348 0.00674019 0)
(-0.0114304 0.00714671 0)
(-0.0128924 0.00751454 0)
(-0.0144139 0.00784224 0)
(-0.0159877 0.00812882 0)
(-0.0176067 0.00837368 0)
(-0.0192633 0.00857657 0)
(-0.0209502 0.00873751 0)
(-0.0226598 0.00885675 0)
(-0.0243846 0.00893475 0)
(-0.0261172 0.00897215 0)
(-0.0278504 0.00896973 0)
(-0.0295768 0.00892841 0)
(-0.0312896 0.00884919 0)
(-0.0329817 0.0087332 0)
(-0.0346466 0.00858161 0)
(-0.0362776 0.00839571 0)
(-0.0378687 0.00817679 0)
(-0.0394137 0.00792623 0)
(-0.0409069 0.00764544 0)
(-0.0423427 0.00733588 0)
(-0.043716 0.00699903 0)
(-0.0450217 0.00663641 0)
(-0.0462552 0.00624957 0)
(-0.0474121 0.00584008 0)
(-0.0484881 0.00540953 0)
(-0.0494797 0.00495954 0)
(-0.0503831 0.00449177 0)
(-0.0511954 0.00400786 0)
(-0.0519135 0.00350951 0)
(-0.0525349 0.00299842 0)
(-0.0530575 0.00247633 0)
(-0.0534793 0.00194498 0)
(-0.0537988 0.00140615 0)
(-0.0540147 0.00086164 0)
(-0.0541261 0.000313257 0)
(-0.0541326 -0.000237157 0)
(-0.0540339 -0.000787742 0)
(-0.0538302 -0.00133662 0)
(-0.053522 -0.00188189 0)
(-0.0531103 -0.00242164 0)
(-0.0525962 -0.00295393 0)
(-0.0519813 -0.00347683 0)
(-0.0512676 -0.00398837 0)
(-0.0504576 -0.00448661 0)
(-0.0495537 -0.00496957 0)
(-0.0485592 -0.00543528 0)
(-0.0474774 -0.00588181 0)
(-0.0463122 -0.00630719 0)
(-0.0450676 -0.00670951 0)
(-0.0437482 -0.00708686 0)
(-0.0423588 -0.00743737 0)
(-0.0409046 -0.00775922 0)
(-0.039391 -0.00805062 0)
(-0.037824 -0.00830985 0)
(-0.0362095 -0.00853526 0)
(-0.0345541 -0.00872528 0)
(-0.0328643 -0.00887841 0)
(-0.0311471 -0.00899328 0)
(-0.0294097 -0.00906863 0)
(-0.0276593 -0.00910333 0)
(-0.0259035 -0.00909639 0)
(-0.02415 -0.00904701 0)
(-0.0224064 -0.00895454 0)
(-0.0206806 -0.00881858 0)
(-0.0189805 -0.00863893 0)
(-0.0173139 -0.00841567 0)
(-0.0156885 -0.00814917 0)
(-0.0141119 -0.00784013 0)
(-0.0125916 -0.00748964 0)
(-0.0111346 -0.00709919 0)
(-0.00974793 -0.0066708 0)
(-0.00843785 -0.00620704 0)
(-0.00721032 -0.00571111 0)
(-0.00607067 -0.00518702 0)
(-0.00502355 -0.00463963 0)
(-0.00407282 -0.00407486 0)
(-0.00322149 -0.00349985 0)
(-0.00247158 -0.00292315 0)
(-0.00182407 -0.00235504 0)
(-0.00127882 -0.00180776 0)
(-0.000834543 -0.00129588 0)
(-0.000488567 -0.000836714 0)
(-0.000236644 -0.000450661 0)
(-7.61693e-05 -0.000161645 0)
(-9.38525e-06 7.18878e-07 0)
(-1.37072e-05 6.33803e-05 0)
(-0.000103666 0.000354915 0)
(-0.000312743 0.000773024 0)
(-0.00063251 0.00128687 0)
(-0.00106178 0.00187128 0)
(-0.00160243 0.00250466 0)
(-0.00225493 0.0031686 0)
(-0.00301856 0.00384758 0)
(-0.00389171 0.00452857 0)
(-0.00487188 0.00520072 0)
(-0.00595567 0.00585499 0)
(-0.00713891 0.00648396 0)
(-0.00841669 0.00708155 0)
(-0.00978345 0.00764286 0)
(-0.0112331 0.00816396 0)
(-0.012759 0.0086418 0)
(-0.0143542 0.00907401 0)
(-0.0160114 0.00945889 0)
(-0.017723 0.00979522 0)
(-0.0194814 0.0100823 0)
(-0.0212787 0.0103197 0)
(-0.0231069 0.0105074 0)
(-0.0249581 0.0106457 0)
(-0.0268244 0.0107351 0)
(-0.0286979 0.0107763 0)
(-0.0305708 0.0107702 0)
(-0.0324356 0.0107179 0)
(-0.0342846 0.0106204 0)
(-0.0361107 0.0104792 0)
(-0.0379067 0.0102956 0)
(-0.0396657 0.0100711 0)
(-0.0413811 0.0098072 0)
(-0.0430464 0.00950559 0)
(-0.0446555 0.00916791 0)
(-0.0462024 0.00879589 0)
(-0.0476817 0.00839129 0)
(-0.049088 0.00795593 0)
(-0.0504163 0.00749163 0)
(-0.0516619 0.00700029 0)
(-0.0528204 0.00648379 0)
(-0.0538878 0.00594408 0)
(-0.0548603 0.00538312 0)
(-0.0557345 0.00480289 0)
(-0.0565075 0.00420542 0)
(-0.0571763 0.00359274 0)
(-0.0577388 0.00296692 0)
(-0.0581928 0.00233006 0)
(-0.0585366 0.00168428 0)
(-0.0587691 0.00103172 0)
(-0.0588892 0.000374562 0)
(-0.0588964 -0.000284998 0)
(-0.0587904 -0.000944739 0)
(-0.0585715 -0.00160241 0)
(-0.0582402 -0.00225576 0)
(-0.0577975 -0.00290248 0)
(-0.0572446 -0.00354027 0)
(-0.0565834 -0.00416681 0)
(-0.0558158 -0.00477978 0)
(-0.0549444 -0.00537683 0)
(-0.0539721 -0.00595562 0)
(-0.0529021 -0.00651381 0)
(-0.0517381 -0.00704908 0)
(-0.0504841 -0.00755911 0)
(-0.0491446 -0.0080416 0)