/*--------------------------------*- C++ -*----------------------------------*\
| =========                 |                                                 |
| \\      /  F ield         | OpenFOAM: The Open Source CFD Toolbox           |
|  \\    /   O peration     | Version:  2212                                  |
|   \\  /    A nd           | Website:  www.openfoam.com                      |
|    \\/     M anipulation  |                                                 |
\*---------------------------------------------------------------------------*/
FoamFile
{
    version     2.0;
    format      ascii;
    arch        "LSB;label=32;scalar=64";
    class       volScalarField;
    location    "0.0815";
    object      p;
}
// * * * * * * * * * * * * * * * * * * * * * * * * * * * * * * * * * * * * * //

dimensions      [0 2 -2 0 0 0 0];

internalField   nonuniform List<scalar> 
10000
(
2.10701e-08
9.27614e-05
-0.000125671
-0.000699136
-0.00157922
-0.00271097
-0.00403873
-0.00550901
-0.0070734
-0.00868915
-0.0103188
-0.0119295
-0.013493
-0.0149844
-0.0163823
-0.0176684
-0.0188268
-0.0198441
-0.0207092
-0.0214125
-0.0219466
-0.0223053
-0.0224842
-0.0224799
-0.0222905
-0.021915
-0.0213536
-0.0206071
-0.0196776
-0.0185677
-0.017281
-0.0158217
-0.0141945
-0.012405
-0.0104589
-0.00836288
-0.00612378
-0.00374902
-0.00124647
0.00137565
0.00410867
0.00694361
0.0098712
0.0128818
0.0159656
0.0191125
0.022312
0.0255538
0.028827
0.0321209
0.0354245
0.0387267
0.0420163
0.0452821
0.048513
0.0516978
0.0548256
0.0578853
0.0608662
0.0637575
0.0665489
0.0692301
0.0717914
0.0742232
0.0765164
0.0786623
0.0806528
0.0824804
0.0841383
0.0856202
0.0869206
0.0880348
0.0889591
0.0896906
0.0902272
0.0905683
0.0907142
0.0906664
0.090428
0.0900033
0.0893981
0.0886197
0.0876773
0.086582
0.0853468
0.0839868
0.0825197
0.0809656
0.0793474
0.0776913
0.076027
0.0743881
0.0728125
0.071343
0.0700271
0.0689165
0.0680642
0.0675205
0.0673276
0.0674345
-9.12424e-05
1.88288e-06
-0.000210059
-0.000722129
-0.00148456
-0.00245876
-0.00360393
-0.00487783
-0.00624032
-0.00765463
-0.00908758
-0.0105095
-0.0118942
-0.0132184
-0.0144618
-0.0156068
-0.0166379
-0.0175422
-0.0183084
-0.0189272
-0.0193908
-0.0196932
-0.0198294
-0.019796
-0.0195906
-0.0192119
-0.0186595
-0.0179342
-0.0170375
-0.0159716
-0.0147396
-0.0133452
-0.0117928
-0.0100873
-0.00823418
-0.00623947
-0.00410963
-0.00185158
0.000527316
0.00301933
0.00561632
0.00830978
0.0110909
0.0139506
0.0168796
0.0198682
0.0229066
0.0259849
0.0290929
0.0322203
0.0353566
0.0384915
0.0416142
0.0447142
0.0477808
0.0508037
0.0537722
0.0566761
0.0595052
0.0622494
0.0648988
0.067444
0.0698757
0.072185
0.0743633
0.0764027
0.0782956
0.0800351
0.0816148
0.0830292
0.0842733
0.0853429
0.0862347
0.0869462
0.087476
0.0878235
0.0879896
0.0879762
0.0877865
0.0874249
0.0868973
0.0862113
0.0853758
0.0844017
0.0833019
0.0820909
0.0807856
0.0794051
0.0779712
0.0765081
0.0750431
0.0736066
0.072232
0.070956
0.0698178
0.0688581
0.0681156
0.0676256
0.0674339
0.0675413
0.000128326
0.000215913
4.10681e-06
-0.000476556
-0.00117226
-0.00205085
-0.00307926
-0.00422231
-0.00544589
-0.00671802
-0.00800923
-0.00929274
-0.0105444
-0.0117429
-0.0128689
-0.0139056
-0.0148386
-0.0156549
-0.0163439
-0.0168962
-0.0173044
-0.0175621
-0.0176645
-0.0176079
-0.0173897
-0.0170084
-0.0164635
-0.0157553
-0.0148851
-0.0138548
-0.0126672
-0.0113255
-0.00983389
-0.00819685
-0.00641946
-0.00450735
-0.00246663
-0.000303823
0.00197411
0.00435983
0.00684562
0.0094234
0.0120848
0.0148211
0.0176234
0.0204826
0.0233893
0.026334
0.0293069
0.0322983
0.0352981
0.0382963
0.0412828
0.0442475
0.0471803
0.0500712
0.0529101
0.0556872
0.0583928
0.0610174
0.0635517
0.0659866
0.0683132
0.0705232
0.0726087
0.0745619
0.0763759
0.0780442
0.0795611
0.0809211
0.0821199
0.0831535
0.0840192
0.0847146
0.0852386
0.0855911
0.0857731
0.0857867
0.0856351
0.0853229
0.084856
0.0842418
0.0834891
0.0826086
0.0816126
0.0805151
0.0793321
0.0780817
0.0767842
0.0754623
0.0741407
0.072847
0.0716108
0.0704639
0.0694398
0.0685726
0.0678935
0.0674324
0.0672414
0.0673493
0.000702208
0.000730062
0.000486673
5.1592e-06
-0.000664893
-0.00149433
-0.00245437
-0.00351462
-0.00464549
-0.00581892
-0.00700874
-0.00819082
-0.00934319
-0.0104461
-0.0114817
-0.0124343
-0.01329
-0.0140367
-0.0146641
-0.0151631
-0.0155265
-0.015748
-0.015823
-0.0157476
-0.0155192
-0.0151361
-0.0145978
-0.0139043
-0.0130566
-0.0120565
-0.0109064
-0.0096095
-0.00816943
-0.00659049
-0.00487744
-0.00303557
-0.00107065
0.0010111
0.00320308
0.00549827
0.00788931
0.0103685
0.0129278
0.0155589
0.0182533
0.0210022
0.0237966
0.0266275
0.0294854
0.032361
0.0352446
0.0381267
0.0409974
0.0438471
0.0466663
0.0494451
0.0521741
0.0548438
0.0574449
0.0599684
0.0624053
0.064747
0.066985
0.0691114
0.0711186
0.0729993
0.0747471
0.0763557
0.0778196
0.0791341
0.0802948
0.0812983
0.0821418
0.0828235
0.0833424
0.0836985
0.083893
0.0839281
0.083807
0.0835342
0.0831157
0.0825585
0.0818712
0.0810642
0.0801491
0.0791392
0.0780497
0.0768975
0.0757016
0.0744827
0.0732635
0.0720688
0.070925
0.0698602
0.0689035
0.0680845
0.0674307
0.0669695
0.0667508
0.066808
0.00158369
0.00149621
0.00118546
0.000675274
2.7686e-06
-0.000806129
-0.00172604
-0.00273091
-0.00379509
-0.00489412
-0.00600489
-0.00710588
-0.00817724
-0.00920094
-0.0101606
-0.0110417
-0.0118313
-0.0125179
-0.0130918
-0.0135443
-0.0138685
-0.0140585
-0.0141094
-0.0140176
-0.0137806
-0.0133965
-0.0128646
-0.012185
-0.0113585
-0.0103866
-0.00927153
-0.00801622
-0.00662409
-0.00509915
-0.00344591
-0.00166937
0.000225016
0.00223134
0.0043433
0.00655422
0.00885704
0.0112444
0.0137087
0.0162418
0.0188357
0.0214819
0.0241718
0.0268967
0.0296476
0.0324155
0.0351911
0.0379652
0.0407284
0.0434715
0.0461851
0.0488601
0.0514872
0.0540575
0.0565619
0.0589918
0.0613387
0.0635943
0.0657505
0.0677998
0.0697348
0.0715489
0.0732355
0.0747891
0.0762044
0.077477
0.0786026
0.0795782
0.0804011
0.0810698
0.0815834
0.0819422
0.0821472
0.0822008
0.0821061
0.0818676
0.0814909
0.0809829
0.080352
0.0796078
0.0787614
0.0778254
0.0768139
0.0757427
0.0746292
0.0734924
0.0723528
0.0712327
0.0701555
0.0691459
0.0682291
0.0674308
0.0667754
0.0662876
0.0660067
0.0659582
0.00272103
0.00247838
0.00207058
0.00150671
0.000806749
-6.7441e-06
-0.000911466
-0.00188524
-0.00290613
-0.00395287
-0.0050052
-0.00604406
-0.00705172
-0.00801188
-0.0089097
-0.00973175
-0.0104661
-0.0111021
-0.0116306
-0.0120436
-0.0123344
-0.0124972
-0.0125277
-0.0124222
-0.0121782
-0.0117939
-0.0112687
-0.0106023
-0.00979556
-0.00884986
-0.00776725
-0.0065504
-0.00520256
-0.00372748
-0.00212943
-0.000413173
0.00141612
0.00335282
0.00539092
0.00752404
0.00974541
0.012048
0.0144245
0.0168671
0.0193682
0.0219197
0.0245132
0.0271404
0.0297926
0.0324612
0.0351373
0.0378119
0.0404762
0.0431212
0.0457379
0.0483174
0.0508509
0.0533299
0.0557457
0.0580899
0.0603544
0.0625312
0.0646126
0.0665913
0.0684605
0.0702135
0.0718444
0.0733478
0.0747188
0.075953
0.0770465
0.0779963
0.0788002
0.0794566
0.0799648
0.0803251
0.0805387
0.0806077
0.0805353
0.0803258
0.0799844
0.079518
0.0789342
0.0782424
0.0774528
0.0765773
0.075629
0.0746223
0.0735732
0.0724989
0.071418
0.0703502
0.0693163
0.0683377
0.0674364
0.0666342
0.0659529
0.0654145
0.0650422
0.0648479
0.0040626
0.00363901
0.00311177
0.00247321
0.00172406
0.000883791
-2.79799e-05
-0.00099262
-0.00199151
-0.00300635
-0.00401949
-0.00501419
-0.00597472
-0.00688647
-0.00773605
-0.00851128
-0.00920122
-0.00979615
-0.0102875
-0.0106679
-0.010931
-0.0110716
-0.0110853
-0.0109688
-0.0107196
-0.0103361
-0.00981757
-0.00916384
-0.00837556
-0.00745402
-0.00640118
-0.00521954
-0.00391216
-0.00248262
-0.000934943
0.000726329
0.00249625
0.00436945
0.00634017
0.00840229
0.0105494
0.0127746
0.015071
0.0174312
0.0198477
0.0223128
0.0248184
0.0273566
0.029919
0.0324972
0.0350827
0.037667
0.0402414
0.0427972
0.0453258
0.0478188
0.0502677
0.0526639
0.0549995
0.0572662
0.0594562
0.0615618
0.0635757
0.0654908
0.0673006
0.0689987
0.0705794
0.0720376
0.0733686
0.0745682
0.0756326
0.0765591
0.0773454
0.0779902
0.0784929
0.0788537
0.0790737
0.079155
0.0791006
0.0789147
0.0786022
0.0781695
0.0776239
0.0769741
0.0762297
0.0754017
0.074502
0.0735439
0.072542
0.0715118
0.0704699
0.0694338
0.0684217
0.0674523
0.0665444
0.0657167
0.0649883
0.0643786
0.0638925
0.0635259
0.00555985
0.00493974
0.00427703
0.00354727
0.0027313
0.00184584
0.000908299
-6.59105e-05
-0.00106117
-0.00206185
-0.00305272
-0.00401916
-0.00494734
-0.00582432
-0.00663809
-0.0073777
-0.00803326
-0.0085959
-0.00905782
-0.00941218
-0.00965316
-0.00977588
-0.00977636
-0.00965146
-0.0093989
-0.00901717
-0.00850549
-0.00786383
-0.00709278
-0.00619355
-0.00516797
-0.00401849
-0.00274798
-0.00135986
0.000142012
0.00175332
0.0034693
0.0052848
0.00719433
0.00919202
0.0112716
0.0134267
0.0156504
0.0179357
0.0202754
0.0226621
0.0250881
0.0275456
0.0300266
0.032523
0.0350266
0.0375291
0.0400222
0.0424975
0.0449468
0.0473617
0.0497341
0.052056
0.0543193
0.0565163
0.0586394
0.0606812
0.0626345
0.0644926
0.0662491
0.0678981
0.0694339
0.0708517
0.0721468
0.0733153
0.0743535
0.0752588
0.0760291
0.076663
0.07716
0.0775201
0.0777445
0.0778353
0.0777951
0.0776277
0.0773381
0.0769319
0.0764161
0.0757988
0.0750889
0.0742963
0.0734321
0.0725084
0.0715383
0.0705358
0.0695156
0.0684931
0.0674844
0.0665054
0.0655723
0.0647006
0.0639077
0.0632101
0.0625939
0.0620389
0.00716971
0.00634466
0.00553574
0.00470231
0.0038056
0.00286004
0.0018812
0.000881668
-0.000125614
-0.00112744
-0.00211075
-0.00306293
-0.0039719
-0.00482626
-0.00561542
-0.00632958
-0.00695987
-0.00749832
-0.00793783
-0.00827225
-0.00849623
-0.00860532
-0.00859591
-0.00846511
-0.00821083
-0.00783175
-0.00732717
-0.00669708
-0.00594209
-0.00506341
-0.0040628
-0.00294257
-0.00170553
-0.000354928
0.00110549
0.00267159
0.00433882
0.00610222
0.00795647
0.00989592
0.0119146
0.0140062
0.0161643
0.0183821
0.0206526
0.0229686
0.0253228
0.0277076
0.0301153
0.0325381
0.034968
0.037397
0.0398171
0.0422202
0.0445982
0.0469432
0.0492473
0.0515025
0.0537013
0.0558361
0.0578996
0.0598845
0.0617838
0.0635912
0.0653004
0.0669057
0.0684017
0.0697835
0.0710468
0.0721875
0.0732023
0.0740886
0.0748443
0.0754679
0.075959
0.0763176
0.0765447
0.0766421
0.0766125
0.0764592
0.0761867
0.0758004
0.0753069
0.0747134
0.0740282
0.0732603
0.0724198
0.0715177
0.0705657
0.0695764
0.0685627
0.0675383
0.0665169
0.0655125
0.0645384
0.0636079
0.0627363
0.0619383
0.061181
0.0604283
0.00885487
0.00782135
0.00685952
0.00591327
0.00492506
0.00390745
0.0028746
0.00183659
0.000803988
-0.000212124
-0.0012007
-0.00215089
-0.00305227
-0.00389489
-0.00466945
-0.00536733
-0.00598063
-0.00650228
-0.00692589
-0.00724594
-0.00745768
-0.00755706
-0.00754083
-0.00740644
-0.00715204
-0.00677645
-0.00627912
-0.00566012
-0.0049201
-0.00406027
-0.00308236
-0.00198861
-0.000781752
0.000535046
0.00195821
0.00348372
0.00510719
0.00682383
0.00862849
0.0105157
0.0124798
0.0145147
0.016614
0.0187713
0.0209798
0.0232326
0.0255226
0.0278424
0.0301847
0.0325417
0.0349059
0.0372694
0.0396245
0.0419633
0.0442781
0.046561
0.0488044
0.0510007
0.0531424
0.0552223
0.057233
0.0591677
0.0610195
0.0627823
0.0644499
0.0660169
0.0674778
0.0688281
0.0700633
0.0711796
0.0721738
0.0730432
0.0737856
0.0743997
0.0748849
0.0752412
0.0754694
0.075571
0.0755486
0.0754051
0.0751447
0.0747725
0.0742942
0.0737166
0.0730473
0.0722943
0.071467
0.070575
0.0696291
0.0686402
0.0676198
0.0665798
0.0655322
0.0644887
0.0634609
0.0624593
0.0614982
0.0605904
0.0596847
0.0587304
0.010583
0.00934086
0.00822239
0.00715699
0.00606913
0.00497006
0.00387286
0.00278546
0.00171634
0.000674717
-0.000330146
-0.00128905
-0.00219305
-0.00303356
-0.00380248
-0.0044923
-0.00509608
-0.00560759
-0.00602123
-0.00633206
-0.00653585
-0.0066291
-0.00660891
-0.00647304
-0.00621991
-0.00584855
-0.00535859
-0.00475017
-0.00402403
-0.00318138
-0.00222398
-0.00115403
2.5802e-05
0.00131244
0.00270241
0.00419179
0.00577633
0.0074514
0.00921201
0.0110529
0.0129685
0.0149529
0.0170001
0.0191038
0.0212574
0.0234542
0.0256873
0.0279497
0.0302341
0.032533
0.0348392
0.037145
0.0394429
0.0417252
0.0439843
0.0462127
0.048403
0.0505477
0.0526396
0.0546714
0.0566362
0.0585272
0.0603378
0.0620619
0.0636935
0.0652272
0.0666579
0.0679808
0.0691919
0.0702871
0.0712633
0.0721178
0.0728484
0.0734538
0.0739332
0.0742866
0.0745145
0.0746182
0.0746
0.0744626
0.0742098
0.0738461
0.0733768
0.0728081
0.0721467
0.0714
0.0705763
0.0696844
0.0687338
0.0677341
0.0666955
0.0656283
0.0645428
0.0634491
0.0623568
0.0612745
0.0602154
0.059191
0.0581329
0.0569761
0.0123264
0.0108775
0.00960083
0.00841204
0.00721853
0.00603067
0.00486085
0.00371513
0.00260016
0.00152352
0.000492919
-0.000483928
-0.00139944
-0.0022463
-0.00301749
-0.00370656
-0.00430753
-0.00481492
-0.00522386
-0.00553007
-0.00572988
-0.00582021
-0.00579859
-0.00566314
-0.00541252
-0.00504602
-0.00456343
-0.00396503
-0.00325163
-0.00242453
-0.00148549
-0.000436703
0.000719212
0.00197922
0.00333992
0.00479751
0.00634783
0.00798637
0.00970828
0.0115085
0.0133815
0.0153218
0.0173233
0.01938
0.0214855
0.0236333
0.0258168
0.0280289
0.0302628
0.0325112
0.0347669
0.0370225
0.0392706
0.0415039
0.0437148
0.0458962
0.0480407
0.0501409
0.0521899
0.0541805
0.056106
0.0579596
0.059735
0.0614262
0.0630273
0.0645328
0.0659378
0.0672377
0.0684282
0.0695056
0.0704665
0.0713082
0.0720287
0.0726263
0.0731002
0.0734502
0.0736766
0.0737806
0.0737641
0.0736295
0.0733802
0.0730202
0.0725544
0.0719881
0.0713276
0.0705794
0.0697509
0.0688502
0.0678855
0.0668653
0.0657986
0.0646941
0.063561
0.0624078
0.0612424
0.0600715
0.058908
0.0577624
0.0565499
0.0551921
0.0140611
0.0124085
0.0109735
0.00965875
0.00835535
0.00707313
0.00582411
0.00461278
0.00344424
0.00232461
0.00126022
0.000257484
-0.000677219
-0.00153775
-0.00231819
-0.00301298
-0.00361699
-0.00412559
-0.00453458
-0.00484028
-0.00503959
-0.00512988
-0.00510907
-0.00497566
-0.00472862
-0.00436743
-0.0038921
-0.00330308
-0.00260129
-0.00178807
-0.000865224
0.000165024
0.00130005
0.00253688
0.00387219
0.0053022
0.00682286
0.00842978
0.0101183
0.0118833
0.0137196
0.0156217
0.0175838
0.0196
0.0216641
0.0237698
0.0259105
0.0280795
0.0302701
0.0324752
0.0346877
0.0369004
0.0391061
0.0412977
0.0434678
0.0456093
0.047715
0.0497777
0.0517906
0.0537467
0.0556393
0.0574618
0.0592079
0.0608717
0.0624475
0.0639299
0.0653139
0.0665948
0.0677686
0.0688314
0.0697797
0.0706109
0.0713228
0.0719136
0.0723825
0.0727289
0.072953
0.0730558
0.0730388
0.0729041
0.0726548
0.0722943
0.0718269
0.0712575
0.0705916
0.0698351
0.0689946
0.0680772
0.0670902
0.0660411
0.0649376
0.0637876
0.0625986
0.0613782
0.0601326
0.0588673
0.0575945
0.0563247
0.0549573
0.0534011
0.0157663
0.0139138
0.0123214
0.0108793
0.00946301
0.00808226
0.00674888
0.0054661
0.00423761
0.00306833
0.00196341
0.000928039
-3.25208e-05
-0.000913099
-0.00170878
-0.00241491
-0.00302717
-0.00354165
-0.00395485
-0.00426367
-0.00446551
-0.00455824
-0.00454021
-0.00441023
-0.00416756
-0.00381198
-0.00334369
-0.00276332
-0.00207187
-0.00127082
-0.000362039
0.000652254
0.00176944
0.00298653
0.0043002
0.00570677
0.00720226
0.0087824
0.0104425
0.0121778
0.013983
0.0158528
0.0177817
0.0197637
0.0217929
0.0238631
0.0259678
0.0281007
0.030255
0.0324238
0.0346002
0.0367772
0.0389477
0.0411047
0.043241
0.0453497
0.0474235
0.0494556
0.051439
0.0533671
0.0552331
0.0570306
0.0587533
0.0603954
0.0619512
0.0634153
0.0647827
0.0660489
0.0672097
0.0682611
0.0691997
0.0700226
0.0707277
0.0713131
0.0717775
0.0721203
0.0723416
0.072442
0.0724227
0.0722856
0.0720331
0.0716684
0.0711952
0.0706177
0.069941
0.0691702
0.0683113
0.0673704
0.066354
0.0652687
0.0641213
0.0629185
0.061667
0.0603729
0.0590415
0.0576769
0.0562916
0.0548957
0.0533737
0.0516225
0.0174238
0.0153755
0.0136273
0.0120571
0.0105262
0.00904388
0.00762217
0.00626321
0.00496963
0.00374519
0.00259402
0.0015203
0.000528286
-0.000377825
-0.00119394
-0.00191627
-0.00254129
-0.00306573
-0.00348672
-0.00380177
-0.0040088
-0.00410611
-0.00409243
-0.00396696
-0.0037293
-0.00337945
-0.0029178
-0.00234519
-0.0016628
-0.000872167
2.47741e-05
0.00102574
0.00212808
0.00332877
0.00462454
0.00601178
0.00748656
0.00904461
0.0106814
0.0123922
0.0141718
0.0160152
0.0179167
0.0198708
0.0218714
0.0239126
0.0259881
0.0280916
0.0302164
0.0323558
0.0345031
0.0366514
0.0387938
0.0409232
0.0430327
0.0451153
0.0471641
0.0491722
0.0511328
0.0530392
0.0548848
0.0566633
0.0583684
0.0599942
0.0615351
0.0629859
0.0643414
0.065597
0.0667485
0.0677918
0.0687236
0.0695408
0.070241
0.0708222
0.0712831
0.0716227
0.071841
0.0719381
0.0719152
0.0717736
0.0715154
0.0711433
0.0706605
0.0700708
0.0693785
0.0685884
0.0677054
0.0667351
0.0656833
0.0645557
0.0633582
0.0620966
0.0607767
0.0594038
0.057982
0.0565147
0.0550144
0.0534913
0.0518159
0.0498733
0.0190176
0.0167777
0.0148755
0.0131775
0.0115306
0.00994458
0.00843156
0.00699275
0.00562987
0.00434577
0.00314364
0.00202676
0.000998535
6.22896e-05
-0.000778736
-0.00152144
-0.00216301
-0.00270089
-0.00313279
-0.00345674
-0.00367113
-0.00377475
-0.00376675
-0.00364664
-0.00341432
-0.00307008
-0.00261456
-0.00204876
-0.00137398
-0.000591886
0.000295473
0.00128573
0.00237619
0.00356388
0.00484551
0.00621747
0.00767585
0.00921646
0.0108348
0.0125263
0.0142859
0.0161085
0.0179886
0.0199207
0.021899
0.0239176
0.0259704
0.028051
0.0301531
0.03227
0.034395
0.0365215
0.0386425
0.0407512
0.0428407
0.0449041
0.0469346
0.0489253
0.0508695
0.0527605
0.0545919
0.0563573
0.0580504
0.0596655
0.0611969
0.0626391
0.0639872
0.0652364
0.0663824
0.0674212
0.0683491
0.0691631
0.0698606
0.0704393
0.0708978
0.0712348
0.07145
0.0715436
0.071516
0.0713683
0.0711023
0.0707201
0.0702246
0.0696191
0.0689073
0.0680933
0.0671816
0.066177
0.0650845
0.0639093
0.0626564
0.0613311
0.0599381
0.058482
0.0569662
0.0553934
0.0537763
0.0521256
0.0502982
0.048168
0.0205337
0.0181063
0.0160521
0.0142266
0.0124632
0.0107719
0.00916532
0.00764382
0.00620828
0.00486083
0.00360387
0.00243989
0.00137142
0.000401125
-0.000468482
-0.00123508
-0.00189649
-0.00245073
-0.00289608
-0.0032311
-0.0034547
-0.00356606
-0.00356469
-0.00345047
-0.00322363
-0.00288473
-0.00243462
-0.00187446
-0.00120575
-0.000430275
0.000449787
0.00143201
0.00251368
0.00369176
0.00496294
0.00632362
0.00776992
0.00929772
0.0109026
0.01258
0.0143248
0.0161321
0.0179966
0.0199127
0.0218749
0.0238772
0.0259136
0.027978
0.0300639
0.0321649
0.0342744
0.0363858
0.0384922
0.040587
0.0426632
0.044714
0.0467328
0.0487126
0.0506468
0.0525288
0.0543521
0.0561103
0.0577972
0.059407
0.0609339
0.0623726
0.0637179
0.0649649
0.0661094
0.0671472
0.0680745
0.068888
0.0695849
0.070163
0.0706204
0.0709557
0.0711684
0.0712581
0.0712252
0.0710704
0.0707948
0.0704005
0.0698898
0.0692655
0.0685308
0.0676892
0.0667447
0.0657015
0.064564
0.0633367
0.0620242
0.0606307
0.0591607
0.057618
0.0560054
0.0543249
0.0525899
0.0508115
0.0488335
0.046519
0.0219595
0.0193482
0.0171441
0.0151919
0.0133118
0.0115143
0.00981238
0.00820593
0.00669512
0.00528139
0.0039664
0.00275201
0.00164009
0.000632515
-0.000268838
-0.00106225
-0.00174615
-0.00231916
-0.00278008
-0.00312798
-0.00336218
-0.0034823
-0.00348823
-0.0033802
-0.00315875
-0.00282467
-0.00237904
-0.00182324
-0.00115895
-0.000388088
0.000487082
0.00146405
0.00254001
0.00371188
0.00497632
0.00632974
0.0077683
0.00928787
0.0108841
0.0125524
0.0142878
0.0160854
0.01794
0.019846
0.0217981
0.0237902
0.0258166
0.0278711
0.0299474
0.0320391
0.0341397
0.0362426
0.0383412
0.0404286
0.0424982
0.0445431
0.0465567
0.0485321
0.0504626
0.0523418
0.054163
0.0559199
0.0576063
0.0592163
0.0607441
0.0621841
0.0635312
0.0647806
0.0659276
0.066968
0.0678979
0.0687138
0.0694128
0.0699922
0.0704502
0.070785
0.0709958
0.071082
0.0710435
0.0708807
0.0705945
0.0701865
0.0696585
0.069013
0.0682526
0.0673804
0.0663997
0.0653143
0.0641281
0.0628451
0.0614691
0.060004
0.0584537
0.0568215
0.0551097
0.05332
0.0514663
0.0495603
0.0474331
0.0449375
0.0232837
0.0204918
0.0181398
0.0160617
0.0140649
0.0121606
0.0103622
0.00866912
0.00708091
0.00559851
0.004223
0.00295556
0.00179746
0.00074998
-0.000185629
-0.00100821
-0.0017168
-0.00231052
-0.00278869
-0.00315082
-0.00339666
-0.00352624
-0.00353986
-0.00343805
-0.00322161
-0.00289162
-0.0024494
-0.00189654
-0.00123486
-0.000466446
0.00040634
0.00138087
0.00245424
0.00362333
0.00488479
0.006235
0.00767013
0.00918606
0.0107784
0.0124427
0.0141739
0.0159673
0.0178176
0.0197194
0.0216673
0.0236554
0.025678
0.0277289
0.029802
0.0318909
0.0339892
0.0360903
0.0381876
0.0402743
0.0423439
0.0443894
0.0464043
0.0483817
0.0503149
0.0521974
0.0540227
0.0557842
0.0574759
0.0590915
0.0606254
0.0620718
0.0634256
0.0646816
0.0658353
0.0668822
0.0678181
0.0686395
0.0693432
0.0699264
0.0703868
0.0707226
0.0709325
0.0710157
0.0709718
0.0708007
0.0705032
0.0700803
0.0695336
0.068865
0.0680767
0.0671713
0.0661517
0.0650213
0.0637833
0.0624414
0.0609989
0.0594593
0.0578259
0.056102
0.0542891
0.0523889
0.0504158
0.0483824
0.0461073
0.0434332
0.0244957
0.0215264
0.0190282
0.016825
0.0147118
0.0127003
0.0108046
0.00902362
0.00735647
0.00580355
0.00436548
0.00304288
0.00183646
0.000746977
-0.000224897
-0.00107856
-0.00181355
-0.00242947
-0.00292612
-0.00330345
-0.00356165
-0.00370111
-0.00372247
-0.00362659
-0.00341457
-0.00308775
-0.00264769
-0.00209615
-0.00143514
-0.000666875
0.000206114
0.00118109
0.00225508
0.00342491
0.00468717
0.00603823
0.00747424
0.00899108
0.0105844
0.0122496
0.013982
0.0157765
0.0176282
0.0195315
0.0214811
0.0234713
0.0254963
0.0275499
0.0296262
0.0317187
0.0338211
0.0359269
0.0380295
0.0401222
0.0421982
0.0442509
0.0462736
0.0482594
0.0502016
0.0520937
0.053929
0.0557012
0.0574038
0.0590307
0.060576
0.062034
0.0633992
0.0646666
0.0658312
0.0668885
0.0678342
0.0686644
0.0693757
0.0699652
0.0704302
0.0707688
0.0709792
0.0710603
0.0710114
0.0708323
0.0705232
0.0700848
0.0695183
0.0688252
0.0680073
0.0670667
0.0660061
0.0648282
0.0635359
0.0621325
0.060621
0.0590044
0.0572859
0.0554681
0.0535527
0.0515408
0.0494479
0.0472871
0.0448652
0.0420148
0.025586
0.0224418
0.0197991
0.0174716
0.0152424
0.0131236
0.0111299
0.0092601
0.00751279
0.00588795
0.00438574
0.00300634
0.00174996
0.000616814
-0.000392898
-0.00127909
-0.00204174
-0.00268095
-0.00319695
-0.00359011
-0.00386102
-0.00401043
-0.00403931
-0.00394885
-0.00374043
-0.00341564
-0.00297626
-0.00242425
-0.00176179
-0.000991297
-0.000115413
0.000863012
0.00194091
0.00311505
0.00438196
0.00573796
0.00717917
0.00870149
0.0103005
0.0119718
0.0137104
0.0155116
0.0173701
0.0192807
0.021238
0.0232362
0.0252697
0.0273323
0.0294181
0.0315207
0.0336337
0.0357507
0.0378651
0.0399702
0.0420593
0.0441256
0.0461625
0.0481631
0.0501207
0.0520286
0.0538802
0.0556689
0.0573883
0.0590321
0.0605943
0.0620691
0.0634509
0.0647343
0.0659144
0.0669862
0.0679455
0.0687879
0.0695101
0.0701087
0.0705809
0.0709242
0.0711368
0.0712172
0.0711643
0.0709776
0.070657
0.0702029
0.069616
0.0688975
0.0680488
0.0670716
0.0659682
0.0647409
0.0633924
0.0619254
0.0603428
0.0586473
0.0568416
0.0549285
0.0529091
0.0507846
0.0485714
0.0462833
0.0437153
0.0406901
0.0265457
0.0232288
0.0204429
0.0179919
0.0156469
0.0134207
0.0113288
0.00936946
0.00754107
0.00584325
0.00427574
0.00283829
0.00153067
0.000352646
-0.000696053
-0.00161578
-0.00240698
-0.00307019
-0.00360606
-0.00401534
-0.00429898
-0.0044581
-0.00449401
-0.00440819
-0.0042023
-0.00387818
-0.00343781
-0.00288336
-0.00221724
-0.00144197
-0.000560373
0.000424605
0.0015098
0.00269186
0.0039673
0.00533238
0.00678318
0.00831557
0.00992517
0.0116074
0.0133576
0.0151707
0.0170417
0.0189653
0.020936
0.0229484
0.0249964
0.0270743
0.0291758
0.0312948
0.0334249
0.0355596
0.0376923
0.0398164
0.0419251
0.0440116
0.0460692
0.048091
0.0500703
0.0520003
0.0538743
0.0556856
0.0574277
0.0590942
0.0606789
0.0621759
0.0635793
0.0648837
0.0660838
0.0671747
0.0681515
0.0690101
0.0697465
0.0703573
0.0708394
0.0711899
0.0714067
0.071488
0.0714324
0.0712391
0.0709076
0.0704379
0.0698305
0.0690861
0.0682058
0.067191
0.0660434
0.0647654
0.0633591
0.061827
0.0601716
0.0583954
0.0565011
0.0544911
0.0523666
0.0501287
0.0477945
0.0453789
0.0426653
0.0394664
0.0273662
0.0238783
0.0209504
0.0183766
0.0159161
0.0135825
0.0113921
0.00934278
0.00743268
0.0056611
0.00402745
0.00253105
0.0011713
-5.24631e-05
-0.00114093
-0.00209486
-0.00291514
-0.00360271
-0.00415859
-0.00458393
-0.00488003
-0.00504837
-0.00509054
-0.00500833
-0.00480367
-0.00447862
-0.00403541
-0.00347641
-0.0028042
-0.0020215
-0.00113123
-0.00013649
0.000959453
0.00215317
0.00344109
0.00481943
0.00628424
0.00783132
0.0094563
0.0111546
0.0129215
0.0147519
0.016641
0.0185832
0.0205734
0.0226057
0.0246745
0.0267737
0.0288974
0.0310392
0.0331928
0.0353516
0.0375092
0.0396588
0.0417936
0.0439068
0.0459916
0.0480412
0.0500486
0.052007
0.0539097
0.0557497
0.0575205
0.0592155
0.0608285
0.0623531
0.0637835
0.065114
0.066339
0.0674534
0.0684522
0.0693308
0.0700853
0.0707117
0.0712067
0.0715671
0.0717905
0.0718747
0.0718182
0.0716195
0.0712781
0.0707935
0.0701658
0.0693954
0.0684831
0.06743
0.0662376
0.0649077
0.0634424
0.0618439
0.0601143
0.0582562
0.0562718
0.0541638
0.0519331
0.0495808
0.0471251
0.0445817
0.0417225
0.0383504
0.0280394
0.0243817
0.0213127
0.0186165
0.0160409
0.0136
0.0113108
0.00917131
0.00717909
0.00533322
0.00363283
0.0020769
0.00066444
-0.00060557
-0.00173424
-0.00272272
-0.00357228
-0.00428423
-0.00485996
-0.00530101
-0.00560902
-0.00578576
-0.00583316
-0.00575329
-0.00554831
-0.00522055
-0.00477246
-0.00420661
-0.00352575
-0.00273277
-0.00183077
-0.000822947
0.000287313
0.00149649
0.00280092
0.00419679
0.00568007
0.00724652
0.00889175
0.0106112
0.0124
0.0142532
0.0161658
0.0181325
0.0201478
0.0222062
0.0243018
0.0264286
0.0285807
0.0307516
0.0329351
0.0351246
0.0373136
0.0394952
0.0416627
0.0438092
0.0459279
0.0480117
0.0500537
0.052047
0.0539846
0.0558596
0.0576652
0.0593948
0.0610418
0.0625998
0.0640627
0.0654245
0.0666795
0.0678222
0.0688475
0.0697506
0.070527
0.0711728
0.071684
0.0720574
0.0722901
0.0723797
0.0723241
0.0721219
0.0717718
0.0712732
0.0706259
0.0698299
0.0688857
0.0677942
0.0665564
0.0651741
0.063649
0.061983
0.0601782
0.0582369
0.0561614
0.0539542
0.0516163
0.0491488
0.0465708
0.043899
0.0408938
0.0373484
0.0285573
0.0247308
0.0215212
0.0187031
0.0160124
0.0134643
0.0110764
0.00884644
0.00677181
0.00485134
0.00308386
0.00146806
2.61062e-06
-0.00131389
-0.00248289
-0.00350594
-0.00438465
-0.0051207
-0.00571585
-0.00617197
-0.00649103
-0.00667513
-0.00672647
-0.0066474
-0.00644036
-0.0061079
-0.00565269
-0.0050775
-0.00438527
-0.00357905
-0.00266209
-0.00163774
-0.000509493
0.000719041
0.00204412
0.00346184
0.00496812
0.00655868
0.00822908
0.00997468
0.0117907
0.0136721
0.0156139
0.0176107
0.0196571
0.0217474
0.0238759
0.0260366
0.0282233
0.0304298
0.0326497
0.0348765
0.0371034
0.0393237
0.0415305
0.0437169
0.0458759
0.0480006
0.0500838
0.0521184
0.0540974
0.0560138
0.0578605
0.0596308
0.0613179
0.0629151
0.0644161
0.0658147
0.067105
0.0682812
0.0693378
0.0702699
0.0710726
0.0717416
0.0722728
0.0726626
0.0729076
0.0730053
0.0729532
0.0727494
0.0723924
0.0718812
0.0712153
0.0703945
0.0694189
0.068289
0.0670059
0.0655708
0.0639852
0.0622511
0.0603703
0.0583449
0.0561773
0.0538699
0.0514238
0.0488399
0.0461388
0.0433378
0.0401859
0.0364666
0.0289123
0.0249174
0.0215676
0.0186277
0.0158221
0.0131668
0.0106801
0.00835958
0.00620241
0.0042072
0.00237251
0.000696734
-0.000821776
-0.00218473
-0.00339393
-0.00445128
-0.00535873
-0.00611832
-0.00673216
-0.00720244
-0.00753143
-0.00772157
-0.00777533
-0.00769533
-0.00748425
-0.00714489
-0.00668011
-0.00609292
-0.00538643
-0.00456385
-0.00362859
-0.00258414
-0.0014341
-0.000182205
0.00116773
0.00261171
0.0041456
0.00576506
0.0074656
0.00924254
0.011091
0.0130061
0.0149827
0.0170153
0.0190987
0.021227
0.0233946
0.0255953
0.027823
0.0300715
0.0323343
0.0346047
0.0368762
0.0391418
0.0413946
0.0436276
0.0458338
0.048006
0.050137
0.0522196
0.0542466
0.0562108
0.058105
0.0599223
0.0616556
0.0632981
0.0648432
0.0662844
0.0676155
0.0688304
0.0699235
0.0708894
0.071723
0.0724196
0.0729748
0.0733847
0.0736456
0.0737545
0.0737086
0.0735056
0.0731438
0.0726218
0.0719388
0.0710942
0.070088
0.0689204
0.0675921
0.0661041
0.064458
0.0626552
0.0606977
0.0585875
0.0563268
0.0539183
0.0513629
0.0486618
0.0458363
0.0429052
0.0396056
0.0357112
0.0290965
0.0249334
0.0214435
0.0183818
0.0154614
0.0126988
0.0101133
0.00770218
0.00546245
0.00339248
0.00149061
-0.000245033
-0.00181642
-0.00322556
-0.00447458
-0.00556569
-0.00650122
-0.00728354
-0.00791507
-0.00839832
-0.00873589
-0.00893049
-0.0089849
-0.00890199
-0.00868469
-0.00833601
-0.00785905
-0.00725701
-0.00653319
-0.00569098
-0.00473394
-0.00366568
-0.00248995
-0.00121056
0.000168546
0.0016433
0.00320949
0.00486271
0.0065984
0.00841187
0.0102982
0.0122525
0.0142695
0.0163438
0.01847
0.0206423
0.022855
0.025102
0.0273771
0.0296741
0.0319862
0.034307
0.0366297
0.0389473
0.0412529
0.0435393
0.0457994
0.0480259
0.0502115
0.0523488
0.0544305
0.0564492
0.0583975
0.0602683
0.0620542
0.0637483
0.0653435
0.0668332
0.0682109
0.0694703
0.0706053
0.0716101
0.0724795
0.0732084
0.0737921
0.0742261
0.0745066
0.0746301
0.0745936
0.0743943
0.0740302
0.0734996
0.0728013
0.0719345
0.0708989
0.0696943
0.0683214
0.0667809
0.0650741
0.0632025
0.0611678
0.0589721
0.0566177
0.054107
0.0514413
0.0486217
0.0456708
0.0426082
0.0391593
0.035088
0.0291024
0.0247709
0.0211406
0.017957
0.0149217
0.0120518
0.0093674
0.00686568
0.00454343
0.00239882
0.000429948
-0.0013653
-0.00298917
-0.004444
-0.00573221
-0.00685635
-0.00781904
-0.008623
-0.00927097
-0.00976577
-0.0101103
-0.0103076
-0.0103606
-0.0102726
-0.0100466
-0.00968605
-0.0091941
-0.00857418
-0.0078298
-0.00696452
-0.00598205
-0.00488614
-0.00368067
-0.00236957
-0.000956871
0.000553248
0.0021565
0.00384841
0.00562438
0.00747964
0.00940928
0.0114082
0.0134713
0.0155931
0.0177681
0.0199906
0.0222546
0.0245542
0.0268831
0.0292349
0.0316031
0.0339809
0.0363615
0.0387379
0.0411031
0.0434498
0.0457707
0.0480584
0.0503055
0.0525044
0.0546477
0.0567276
0.0587368
0.0606676
0.0625128
0.0642648
0.0659166
0.0674612
0.0688916
0.0702012
0.0713837
0.0724331
0.0733435