/*--------------------------------*- C++ -*----------------------------------*\
| =========                 |                                                 |
| \\      /  F ield         | OpenFOAM: The Open Source CFD Toolbox           |
|  \\    /   O peration     | Version:  2212                                  |
|   \\  /    A nd           | Website:  www.openfoam.com                      |
|    \\/     M anipulation  |                                                 |
\*---------------------------------------------------------------------------*/
FoamFile
{
    version     2.0;
    format      ascii;
    arch        "LSB;label=32;scalar=64";
    class       surfaceScalarField;
    location    "0.0545";
    object      phi_0;
}
// * * * * * * * * * * * * * * * * * * * * * * * * * * * * * * * * * * * * * //

dimensions      [0 3 -1 0 0 0 0];

oriented        oriented;

internalField   nonuniform List<scalar> 
19800
(
6.72248e-11
-6.52975e-11
2.24811e-10
-1.576e-10
3.97127e-10
-1.72314e-10
5.29827e-10
-1.32696e-10
5.9252e-10
-6.26981e-11
5.68637e-10
2.38685e-11
4.50074e-10
1.18566e-10
2.34006e-10
2.16075e-10
-7.90233e-11
3.1304e-10
-4.86343e-10
4.07334e-10
-9.83893e-10
4.97553e-10
-1.56666e-09
5.82769e-10
-2.22903e-09
6.62368e-10
-2.96499e-09
7.3595e-10
-3.76829e-09
8.03291e-10
-4.63257e-09
8.6427e-10
-5.55139e-09
9.18819e-10
-6.51834e-09
9.66941e-10
-7.52702e-09
1.00869e-09
-8.57116e-09
1.04414e-09
-9.64458e-09
1.07342e-09
-1.07412e-08
1.09666e-09
-1.18552e-08
1.11398e-09
-1.29808e-08
1.12557e-09
-1.41124e-08
1.1316e-09
-1.52446e-08
1.13224e-09
-1.63723e-08
1.12768e-09
-1.74904e-08
1.11812e-09
-1.85942e-08
1.10376e-09
-1.9679e-08
1.08478e-09
-2.07404e-08
1.06139e-09
-2.17742e-08
1.03379e-09
-2.27764e-08
1.00219e-09
-2.37431e-08
9.66756e-10
-2.46708e-08
9.27699e-10
-2.5556e-08
8.85231e-10
-2.63956e-08
8.39546e-10
-2.71864e-08
7.90831e-10
-2.79257e-08
7.39288e-10
-2.86108e-08
6.85128e-10
-2.92394e-08
6.28552e-10
-2.98092e-08
5.69761e-10
-3.03181e-08
5.08961e-10
-3.07645e-08
4.46362e-10
-3.11467e-08
3.82169e-10
-3.14633e-08
3.16585e-10
-3.17131e-08
2.49813e-10
-3.18951e-08
1.82065e-10
-3.20087e-08
1.13562e-10
-3.20532e-08
4.45293e-11
-3.20284e-08
-2.48099e-11
-3.19342e-08
-9.42356e-11
-3.17707e-08
-1.63522e-10
-3.15382e-08
-2.32431e-10
-3.12375e-08
-3.0072e-10
-3.08694e-08
-3.68152e-10
-3.04349e-08
-4.34495e-10
-2.99353e-08
-4.99514e-10
-2.93724e-08
-5.62959e-10
-2.87478e-08
-6.24572e-10
-2.80637e-08
-6.84092e-10
-2.73225e-08
-7.41261e-10
-2.65266e-08
-7.95826e-10
-2.56791e-08
-8.47531e-10
-2.4783e-08
-8.9612e-10
-2.38417e-08
-9.41335e-10
-2.28587e-08
-9.82918e-10
-2.18381e-08
-1.02062e-09
-2.07839e-08
-1.05419e-09
-1.97005e-08
-1.0834e-09
-1.85926e-08
-1.10799e-09
-1.74648e-08
-1.12775e-09
-1.63223e-08
-1.14245e-09
-1.51705e-08
-1.15187e-09
-1.40147e-08
-1.15581e-09
-1.28606e-08
-1.15407e-09
-1.17141e-08
-1.14648e-09
-1.05813e-08
-1.13288e-09
-9.46813e-09
-1.11313e-09
-8.38102e-09
-1.08711e-09
-7.3263e-09
-1.05472e-09
-6.31043e-09
-1.01588e-09
-5.33988e-09
-9.7055e-10
-4.42116e-09
-9.18722e-10
-3.56073e-09
-8.60434e-10
-2.76495e-09
-7.95778e-10
-2.04004e-09
-7.2491e-10
-1.39197e-09
-6.48072e-10
-8.26346e-10
-5.65618e-10
-3.48281e-10
-4.7806e-10
3.78499e-11
-3.86129e-10
3.28725e-10
-2.90876e-10
5.22549e-10
-1.93826e-10
6.19798e-10
-9.72509e-11
6.24411e-10
-4.61416e-12
5.45706e-10
7.87089e-11
4.01406e-10
1.44302e-10
2.22806e-10
1.786e-10
6.36196e-11
1.59187e-10
6.36168e-11
1.59181e-10
-2.24505e-10
4.3271e-10
-4.31104e-10
6.90101e-10
-4.2972e-10
8.37727e-10
-2.80302e-10
8.10665e-10
-3.56323e-11
5.67775e-10
2.66755e-10
8.53983e-11
6.00928e-10
-6.47661e-10
9.49113e-10
-1.63379e-09
1.29916e-09
-2.86919e-09
1.6427e-09
-4.34561e-09
1.97395e-09
-6.05172e-09
2.28889e-09
-7.97401e-09
2.58468e-09
-1.00975e-08
2.85941e-09
-1.2406e-08
3.11184e-09
-1.48828e-08
3.34115e-09
-1.75109e-08
3.54689e-09
-2.02729e-08
3.72887e-09
-2.31513e-08
3.88713e-09
-2.6129e-08
4.02183e-09
-2.91889e-08
4.13328e-09
-3.23141e-08
4.22188e-09
-3.54882e-08
4.28813e-09
-3.86952e-08
4.33256e-09
-4.19194e-08
4.35576e-09
-4.51455e-08
4.35839e-09
-4.83589e-08
4.34112e-09
-5.15455e-08
4.30464e-09
-5.46914e-08
4.24967e-09
-5.77835e-08
4.17695e-09
-6.08094e-08
4.08722e-09
-6.37568e-08
3.98123e-09
-6.66144e-08
3.85973e-09
-6.93711e-08
3.72349e-09
-7.20166e-08
3.57325e-09
-7.45412e-08
3.40977e-09
-7.69355e-08
3.23383e-09
-7.91908e-08
3.0462e-09
-8.12992e-08
2.84764e-09
-8.3253e-08
2.63895e-09
-8.50454e-08
2.42091e-09
-8.66699e-08
2.1943e-09
-8.81209e-08
1.95992e-09
-8.93931e-08
1.71856e-09
-9.0482e-08
1.47103e-09
-9.13835e-08
1.21815e-09
-9.20944e-08
9.60704e-10
-9.26119e-08
6.99532e-10
-9.29338e-08
4.35481e-10
-9.30587e-08
1.69402e-10
-9.29857e-08
-9.78428e-11
-9.27145e-08
-3.65376e-10
-9.22457e-08
-6.32305e-10
-9.15804e-08
-8.97721e-10
-9.07204e-08
-1.16072e-09
-8.96682e-08
-1.42038e-09
-8.84269e-08
-1.67578e-09
-8.70005e-08
-1.92597e-09
-8.53934e-08
-2.17e-09
-8.36111e-08
-2.40688e-09
-8.16596e-08
-2.63565e-09
-7.95455e-08
-2.85532e-09
-7.72764e-08
-3.06491e-09
-7.48605e-08
-3.26342e-09
-7.23068e-08
-3.44989e-09
-6.96248e-08
-3.62332e-09
-6.6825e-08
-3.78277e-09
-6.39183e-08
-3.92726e-09
-6.09167e-08
-4.05586e-09
-5.78324e-08
-4.16765e-09
-5.46787e-08
-4.26175e-09
-5.14691e-08
-4.33728e-09
-4.82182e-08
-4.39342e-09
-4.49407e-08
-4.42935e-09
-4.16522e-08
-4.44435e-09
-3.83685e-08
-4.43771e-09
-3.51062e-08
-4.40881e-09
-3.1882e-08
-4.35708e-09
-2.87131e-08
-4.28204e-09
-2.56169e-08
-4.18328e-09
-2.26111e-08
-4.0605e-09
-1.97135e-08
-3.91352e-09
-1.69417e-08
-3.74228e-09
-1.43136e-08
-3.54689e-09
-1.18464e-08
-3.32766e-09
-9.55704e-09
-3.08511e-09
-7.4619e-09
-2.82006e-09
-5.57627e-09
-2.5337e-09
-3.91415e-09
-2.22773e-09
-2.48772e-09
-1.90447e-09
-1.3067e-09
-1.56714e-09
-3.77402e-10
-1.22018e-09
2.98547e-10
-8.69776e-10
7.2596e-10
-5.24663e-10
9.18593e-10
-1.97245e-10
9.02741e-10
9.45713e-11
7.21914e-10
3.25143e-10
4.42589e-10
4.57928e-10
1.59087e-10
4.42682e-10
2.22704e-10
1.72718e-10
-3.97214e-10
4.31862e-10
-6.90254e-10
6.16744e-10
-6.14621e-10
6.14536e-10
-2.78113e-10
3.4393e-10
2.34999e-10
-2.50167e-10
8.60864e-10
-1.20183e-09
1.55259e-09
-2.52898e-09
2.27628e-09
-4.23733e-09
3.00752e-09
-6.32338e-09
3.72875e-09
-8.77677e-09
4.42735e-09
-1.15821e-08
5.0942e-09
-1.47202e-08
5.72277e-09
-1.81692e-08
6.30843e-09
-2.19054e-08
6.84797e-09
-2.59035e-08
7.33924e-09
-3.01375e-08
7.78092e-09
-3.45809e-08
8.17229e-09
-3.92069e-08
8.51312e-09
-4.39887e-08
8.8036e-09
-4.88996e-08
9.0442e-09
-5.39133e-08
9.23563e-09
-5.9004e-08
9.37881e-09
-6.41463e-08
9.4748e-09
-6.93153e-08
9.52482e-09
-7.44871e-08
9.53017e-09
-7.96382e-08
9.49223e-09
-8.47461e-08
9.41248e-09
-8.97888e-08
9.29242e-09
-9.47455e-08
9.13359e-09
-9.95958e-08
8.93758e-09
-1.04321e-07
8.70601e-09
-1.08901e-07
8.4405e-09
-1.13321e-07
8.14268e-09
-1.17562e-07
7.81421e-09
-1.21609e-07
7.45676e-09
-1.25447e-07
7.072e-09
-1.29062e-07
6.6616e-09
-1.32442e-07
6.22726e-09
-1.35573e-07
5.77071e-09
-1.38446e-07
5.29366e-09
-1.4105e-07
4.79783e-09
-1.43375e-07
4.28496e-09
-1.45413e-07
3.75682e-09
-1.47157e-07
3.21515e-09
-1.48601e-07
2.66174e-09
-1.49739e-07
2.09841e-09
-1.50566e-07
1.52696e-09
-1.5108e-07
9.4925e-10
-1.51277e-07
3.67146e-10
-1.51158e-07
-2.1745e-10
-1.50721e-07
-8.02608e-10
-1.49967e-07
-1.38637e-09
-1.48897e-07
-1.96678e-09
-1.47516e-07
-2.54181e-09
-1.45827e-07
-3.10946e-09
-1.43835e-07
-3.66767e-09
-1.41547e-07
-4.21439e-09
-1.38969e-07
-4.74751e-09
-1.36111e-07
-5.26493e-09
-1.32983e-07
-5.7645e-09
-1.29594e-07
-6.24409e-09
-1.25957e-07
-6.70156e-09
-1.22086e-07
-7.13478e-09
-1.17994e-07
-7.54161e-09
-1.13697e-07
-7.91993e-09
-1.09213e-07
-8.26766e-09
-1.04557e-07
-8.58272e-09
-9.97499e-08
-8.86308e-09
-9.48107e-08
-9.10679e-09
-8.97606e-08
-9.31191e-09
-8.46213e-08
-9.4766e-09
-7.94156e-08
-9.59908e-09
-7.41673e-08
-9.67768e-09
-6.89008e-08
-9.71081e-09
-6.36415e-08
-9.69705e-09
-5.84152e-08
-9.63508e-09
-5.32485e-08
-9.52377e-09
-4.81684e-08
-9.36214e-09
-4.32023e-08
-9.14943e-09
-3.83777e-08
-8.88511e-09
-3.37223e-08
-8.56893e-09
-2.92636e-08
-8.20096e-09
-2.50289e-08
-7.78163e-09
-2.10447e-08
-7.31183e-09
-1.73368e-08
-6.79298e-09
-1.39297e-08
-6.22719e-09
-1.0846e-08
-5.61742e-09
-8.10598e-09
-4.96771e-09
-5.72692e-09
-4.28353e-09
-3.7218e-09
-3.57226e-09
-2.09819e-09
-2.84379e-09
-8.56445e-10
-2.11152e-09
1.25259e-11
-1.39363e-09
5.30251e-10
-7.1497e-10
7.34287e-10
-1.09466e-10
6.82892e-10
3.76542e-10
4.59799e-10
6.81018e-10
1.79044e-10
7.23427e-10
4.01751e-10
1.34701e-10
-5.31922e-10
2.87141e-10
-8.42668e-10
2.88853e-10
-6.16356e-10
1.97521e-11
-9.016e-12
-6.07869e-10
8.62596e-10
-1.65531e-09
1.9083e-09
-3.16198e-09
3.05927e-09
-5.14971e-09
4.264e-09
-7.62631e-09
5.4841e-09
-1.05886e-08
6.69102e-09
-1.40247e-08
7.86354e-09
-1.79165e-08
8.98595e-09
-2.22404e-08
1.00467e-08
-2.69693e-08
1.10374e-08
-3.20733e-08
1.19519e-08
-3.75202e-08
1.27862e-08
-4.32767e-08
1.35374e-08
-4.93083e-08
1.42039e-08
-5.55802e-08
1.4785e-08
-6.20573e-08
1.52807e-08
-6.87046e-08
1.56915e-08
-7.54874e-08
1.60184e-08
-8.23713e-08
1.62627e-08
-8.93227e-08
1.64262e-08
-9.63086e-08
1.65107e-08
-1.03297e-07
1.65184e-08
-1.10256e-07
1.64516e-08
-1.17156e-07
1.63127e-08
-1.23968e-07
1.61041e-08
-1.30663e-07
1.58286e-08
-1.37214e-07
1.54887e-08
-1.43596e-07
1.50873e-08
-1.49782e-07
1.46271e-08
-1.5575e-07
1.41109e-08
-1.61478e-07
1.35416e-08
-1.66943e-07
1.2922e-08
-1.72126e-07
1.22551e-08
-1.77008e-07
1.15436e-08
-1.81572e-07
1.07907e-08
-1.858e-07
9.99922e-09
-1.89679e-07
9.17216e-09
-1.93193e-07
8.31252e-09
-1.96332e-07
7.42333e-09
-1.99082e-07
6.50763e-09
-2.01436e-07
5.5685e-09
-2.03383e-07
4.60905e-09
-2.04917e-07
3.63242e-09
-2.06032e-07
2.64178e-09
-2.06723e-07
1.64034e-09
-2.06987e-07
6.31376e-10
-2.06823e-07
-3.81816e-10
-2.0623e-07
-1.39589e-09
-2.05209e-07
-2.40747e-09
-2.03762e-07
-3.41311e-09
-2.01895e-07
-4.40933e-09
-1.99611e-07
-5.39263e-09
-1.9692e-07
-6.35945e-09
-1.93828e-07
-7.30621e-09
-1.90346e-07
-8.22928e-09
-1.86486e-07
-9.12502e-09
-1.82261e-07
-9.98973e-09
-1.77685e-07
-1.08197e-08
-1.72775e-07
-1.16114e-08
-1.67549e-07
-1.23609e-08
-1.62026e-07
-1.30647e-08
-1.56227e-07
-1.37191e-08
-1.50174e-07
-1.43206e-08
-1.43891e-07
-1.48655e-08
-1.37404e-07
-1.53505e-08
-1.30738e-07
-1.57722e-08
-1.23923e-07
-1.61272e-08
-1.16987e-07
-1.64125e-08
-1.09961e-07
-1.6625e-08
-1.02877e-07
-1.6762e-08
-9.57668e-08
-1.68209e-08
-8.86648e-08
-1.67991e-08
-8.16053e-08
-1.66946e-08
-7.46235e-08
-1.65056e-08
-6.77552e-08
-1.62304e-08
-6.10366e-08
-1.5868e-08
-5.4504e-08
-1.54177e-08
-4.81937e-08
-1.48792e-08
-4.21418e-08
-1.42529e-08
-3.63837e-08
-1.35398e-08
-3.09537e-08
-1.27418e-08
-2.5885e-08
-1.18617e-08
-2.12087e-08
-1.09035e-08
-1.69534e-08
-9.87275e-09
-1.31442e-08
-8.77683e-09
-9.80224e-09
-7.62554e-09
-6.94275e-09
-6.43176e-09
-4.57408e-09
-5.21246e-09
-2.69561e-09
-3.99e-09
-1.29537e-09
-2.79387e-09
-3.47293e-10
-1.66304e-09
1.92285e-10
-6.49037e-10
3.88533e-10
1.80299e-10
3.32455e-10
7.37095e-10
1.46414e-10
9.09457e-10
5.48166e-10
6.72413e-11
-5.99167e-10
4.97268e-11
-8.25149e-10
-2.11568e-10
-3.55043e-10
-8.33796e-10
6.1321e-10
-1.904e-09
1.9328e-09
-3.48396e-09
3.48827e-09
-5.61431e-09
5.18962e-09
-8.31796e-09
6.96764e-09
-1.16032e-08
8.76935e-09
-1.54665e-08
1.05543e-08
-1.98945e-08
1.22916e-08
-2.48664e-08
1.39579e-08
-3.03555e-08
1.55357e-08
-3.63301e-08
1.7012e-08
-4.27552e-08
1.8377e-08
-4.9593e-08
1.96239e-08
-5.68037e-08
2.07481e-08
-6.43465e-08
2.17466e-08
-7.21793e-08
2.26179e-08
-8.026e-08
2.33614e-08
-8.85461e-08
2.39776e-08
-9.69955e-08
2.44678e-08
-1.05566e-07
2.48336e-08
-1.14218e-07
2.50775e-08
-1.22909e-07
2.52021e-08
-1.31601e-07
2.52104e-08
-1.40255e-07
2.51058e-08
-1.48834e-07
2.48917e-08
-1.57302e-07
2.45719e-08
-1.65624e-07
2.41504e-08
-1.73766e-07
2.3631e-08
-1.81697e-07
2.30178e-08
-1.89385e-07
2.23151e-08
-1.96801e-07
2.15271e-08
-2.03917e-07
2.06581e-08
-2.10708e-07
1.97125e-08
-2.17147e-07
1.86945e-08
-2.23212e-07
1.76088e-08
-2.28881e-07
1.64597e-08
-2.34134e-07
1.52517e-08
-2.38951e-07
1.39895e-08
-2.43316e-07
1.26776e-08
-2.47213e-07
1.13206e-08
-2.50629e-07
9.92312e-09
-2.5355e-07
8.48997e-09
-2.55967e-07
7.02585e-09
-2.5787e-07
5.53557e-09
-2.59253e-07
4.024e-09
-2.60108e-07
2.49606e-09
-2.60434e-07
9.56741e-10
-2.60227e-07
-5.88918e-10
-2.59487e-07
-2.1358e-09
-2.58215e-07
-3.67873e-09
-2.56416e-07
-5.21246e-09
-2.54094e-07
-6.73169e-09
-2.51255e-07
-8.23106e-09
-2.4791e-07
-9.70515e-09
-2.44067e-07
-1.11485e-08
-2.39741e-07
-1.25555e-08
-2.34945e-07
-1.39208e-08
-2.29696e-07
-1.52386e-08
-2.24013e-07
-1.65034e-08
-2.17914e-07
-1.77096e-08
-2.11424e-07
-1.88517e-08
-2.04564e-07
-1.9924e-08
-1.97362e-07
-2.09211e-08
-1.89846e-07
-2.18375e-08
-1.82043e-07
-2.26679e-08
-1.73986e-07
-2.34072e-08
-1.65708e-07
-2.40502e-08
-1.57244e-07
-2.4592e-08
-1.48628e-07
-2.5028e-08
-1.399e-07
-2.53536e-08
-1.31097e-07
-2.55648e-08
-1.2226e-07
-2.56577e-08
-1.1343e-07
-2.56287e-08
-1.0465e-07
-2.54747e-08
-9.59625e-08
-2.51932e-08
-8.7411e-08
-2.4782e-08
-7.90394e-08
-2.42396e-08
-7.0892e-08
-2.35651e-08
-6.30127e-08
-2.27586e-08
-5.54447e-08
-2.18208e-08
-4.82307e-08
-2.07538e-08
-4.14117e-08
-1.95608e-08
-3.5027e-08
-1.82464e-08
-2.91134e-08
-1.68171e-08
-2.37042e-08
-1.52819e-08
-1.88289e-08
-1.36521e-08
-1.45115e-08
-1.1943e-08
-1.07693e-08
-1.0174e-08
-7.61165e-09
-8.3701e-09
-5.03782e-09
-6.56384e-09
-3.0348e-09
-4.7969e-09
-1.57479e-09
-3.12304e-09
-6.12311e-10
-1.61151e-09
-8.08447e-11
-3.51162e-10
1.10853e-10
5.45406e-10
8.36686e-11
9.36637e-10
6.31835e-10
-1.63145e-11
-5.8287e-10
-2.44434e-10
-5.97021e-10
-8.23792e-10
2.24309e-10
-1.86109e-09
1.6505e-09
-3.43699e-09
3.5087e-09
-5.60958e-09
5.66085e-09
-8.41726e-09
7.9973e-09
-1.18815e-08
1.04319e-08
-1.60094e-08
1.28972e-08
-2.07958e-08
1.53407e-08
-2.62256e-08
1.77214e-08
-3.22756e-08
2.00078e-08
-3.89155e-08
2.21757e-08
-4.61102e-08
2.42066e-08
-5.38201e-08
2.60869e-08
-6.20025e-08
2.78063e-08
-7.06122e-08
2.93579e-08
-7.96026e-08
3.0737e-08
-8.89257e-08
3.19409e-08
-9.85328e-08
3.29685e-08
-1.08375e-07
3.382e-08
-1.18404e-07
3.44966e-08
-1.28571e-07
3.50005e-08
-1.38828e-07
3.53346e-08
-1.49128e-07
3.55024e-08
-1.59426e-07
3.55079e-08
-1.69676e-07
3.53556e-08
-1.79834e-07
3.50503e-08
-1.89859e-07
3.45969e-08
-1.9971e-07
3.40008e-08
-2.09346e-07
3.32675e-08
-2.18731e-07
3.24027e-08
-2.27828e-07
3.14121e-08
-2.36602e-07
3.03016e-08
-2.45022e-07
2.90774e-08
-2.53055e-07
2.77453e-08
-2.60672e-07
2.63116e-08
-2.67845e-07
2.47825e-08
-2.7455e-07
2.31644e-08
-2.80762e-07
2.14634e-08
-2.86458e-07
1.96861e-08
-2.9162e-07
1.78388e-08
-2.96227e-07
1.59282e-08
-3.00265e-07
1.39607e-08
-3.03718e-07
1.1943e-08
-3.06574e-07
9.88177e-09
-3.08822e-07
7.78385e-09
-3.10454e-07
5.65608e-09
-3.11463e-07
3.5054e-09
-3.11845e-07
1.33883e-09
-3.11598e-07
-8.36515e-10
-3.1072e-07
-3.01342e-09
-3.09214e-07
-5.1846e-09
-3.07084e-07
-7.34267e-09
-3.04336e-07
-9.48017e-09
-3.00977e-07
-1.15896e-08
-2.97019e-07
-1.36632e-08
-2.92474e-07
-1.56934e-08
-2.87357e-07
-1.76725e-08
-2.81685e-07
-1.95926e-08
-2.75478e-07
-2.14459e-08
-2.68757e-07
-2.32246e-08
-2.61546e-07
-2.49208e-08
-2.53871e-07
-2.65268e-08
-2.4576e-07
-2.80348e-08
-2.37244e-07
-2.94372e-08
-2.28355e-07
-3.07263e-08
-2.19128e-07
-3.18947e-08
-2.096e-07
-3.29353e-08
-1.99809e-07
-3.3841e-08
-1.89796e-07
-3.4605e-08
-1.79603e-07
-3.52208e-08
-1.69275e-07
-3.56824e-08
-1.58856e-07
-3.5984e-08
-1.48393e-07
-3.61203e-08
-1.37935e-07
-3.60867e-08
-1.27531e-07
-3.5879e-08
-1.1723e-07
-3.54936e-08
-1.07084e-07
-3.4928e-08
-9.71436e-08
-3.41802e-08
-8.74591e-08
-3.32495e-08
-7.80816e-08
-3.21361e-08
-6.90608e-08
-3.08417e-08
-6.04453e-08
-2.93692e-08
-5.22823e-08
-2.77238e-08
-4.46163e-08
-2.59124e-08
-3.74889e-08
-2.39445e-08
-3.09378e-08
-2.18329e-08
-2.49959e-08
-1.9594e-08
-1.96903e-08
-1.72487e-08
-1.50404e-08
-1.48238e-08
-1.10571e-08
-1.23534e-08
-7.74075e-09
-9.88021e-09
-5.07903e-09
-7.45862e-09
-3.04504e-09
-5.15702e-09
-1.59487e-09
-3.06169e-09
-6.64932e-10
-1.2811e-09
-1.69219e-10
4.97027e-11
4.17925e-12
7.6324e-10
6.36015e-10
-1.08021e-10
-4.74845e-10
-5.71155e-10
-1.33903e-10
-1.50442e-09
1.15758e-09
-2.99922e-09
3.14531e-09
-5.12584e-09
5.63533e-09
-7.93525e-09
8.47024e-09
-1.14608e-08
1.15229e-08
-1.57205e-08
1.46915e-08
-2.07183e-08
1.78951e-08
-2.64467e-08
2.10691e-08
-3.28879e-08
2.41626e-08
-4.00156e-08
2.71355e-08
-4.77966e-08
2.99568e-08
-5.61921e-08
3.26021e-08
-6.51585e-08
3.50532e-08
-7.46486e-08
3.72965e-08
-8.46127e-08
3.9322e-08
-9.49987e-08
4.11231e-08
-1.05753e-07
4.26956e-08
-1.16823e-07
4.40377e-08
-1.28152e-07
4.5149e-08
-1.39686e-07
4.60308e-08
-1.51371e-07
4.66856e-08
-1.63153e-07
4.71167e-08
-1.74979e-07
4.73287e-08
-1.86798e-07
4.73263e-08
-1.98558e-07
4.71154e-08
-2.10209e-07
4.67019e-08
-2.21705e-07
4.60925e-08
-2.32998e-07
4.5294e-08
-2.44044e-07
4.43135e-08
-2.548e-07
4.31585e-08
-2.65224e-07
4.18365e-08
-2.75278e-07
4.03554e-08
-2.84923e-07
3.87229e-08
-2.94125e-07
3.69473e-08
-3.0285e-07
3.50365e-08
-3.11067e-07
3.2999e-08
-3.18745e-07
3.08429e-08
-3.25859e-07
2.85767e-08
-3.32381e-07
2.6209e-08
-3.38291e-07
2.37482e-08
-3.43566e-07
2.12032e-08
-3.48188e-07
1.85825e-08
-3.5214e-07
1.58952e-08
-3.55408e-07
1.31501e-08
-3.57981e-07
1.03562e-08
-3.59847e-07
7.52273e-09
-3.61001e-07
4.65892e-09
-3.61436e-07
1.77413e-09
-3.6115e-07
-1.12216e-09
-3.60143e-07
-4.02035e-09
-3.58417e-07
-6.91073e-09
-3.55976e-07
-9.78349e-09
-3.52828e-07
-1.26287e-08
-3.48981e-07
-1.54363e-08
-3.44448e-07
-1.81962e-08
-3.39244e-07
-2.08981e-08
-3.33384e-07
-2.35319e-08
-3.2689e-07
-2.60871e-08
-3.19782e-07
-2.85534e-08
-3.12086e-07
-3.09204e-08
-3.0383e-07
-3.31777e-08
-2.95041e-07
-3.53151e-08
-2.85754e-07
-3.73223e-08
-2.76002e-07
-3.91891e-08
-2.65823e-07
-4.09057e-08
-2.55255e-07
-4.24622e-08
-2.44341e-07
-4.38491e-08
-2.33125e-07
-4.50573e-08
-2.21652e-07
-4.60778e-08
-2.09971e-07
-4.69022e-08
-1.98131e-07
-4.75225e-08
-1.86183e-07
-4.79314e-08
-1.74182e-07
-4.8122e-08
-1.6218e-07
-4.80883e-08
-1.50234e-07
-4.78251e-08
-1.384e-07
-4.7328e-08
-1.26734e-07
-4.65936e-08
-1.15294e-07
-4.56201e-08
-1.04137e-07
-4.44064e-08
-9.33197e-08
-4.29536e-08
-8.28974e-08
-4.1264e-08
-7.29243e-08
-3.93423e-08
-6.34527e-08
-3.71954e-08
-5.45319e-08
-3.48331e-08
-4.6208e-08
-3.22684e-08
-3.85227e-08
-2.95183e-08
-3.15122e-08
-2.66045e-08
-2.52065e-08
-2.35544e-08
-1.96279e-08
-2.04025e-08
-1.47894e-08
-1.71919e-08
-1.06936e-08
-1.3976e-08
-7.33069e-09
-1.08215e-08
-4.67685e-09
-7.81084e-09
-2.69247e-09
-5.04607e-09
-1.32023e-09
-2.65333e-09
-4.83417e-10
-7.87107e-10
-8.402e-11
3.63844e-10
5.51994e-10
-2.03128e-10
-2.71709e-10
-9.14486e-10
5.77443e-10
-2.22336e-09
2.46646e-09
-4.20314e-09
5.12509e-09
-6.91102e-09
8.3432e-09
-1.03883e-08
1.19476e-08
-1.46614e-08
1.57959e-08
-1.97425e-08
1.97726e-08
-2.56314e-08
2.3784e-08
-3.23167e-08
2.77544e-08
-3.97772e-08
3.16231e-08
-4.79834e-08
3.53417e-08
-5.68986e-08
3.8872e-08
-6.64802e-08
4.21838e-08
-7.6681e-08
4.5254e-08
-8.74495e-08
4.8065e-08
-9.87317e-08
5.06041e-08
-1.10471e-07
5.28622e-08
-1.22609e-07
5.48336e-08
-1.35086e-07
5.65153e-08
-1.47844e-07
5.79065e-08
-1.60821e-07
5.90082e-08
-1.73959e-07
5.98231e-08
-1.87197e-07
6.03552e-08
-2.00478e-07
6.06097e-08
-2.13745e-07
6.05927e-08
-2.2694e-07
6.03108e-08
-2.4001e-07
5.97718e-08
-2.52901e-07
5.89837e-08
-2.65562e-07
5.79551e-08
-2.77944e-07
5.66948e-08
-2.89997e-07
5.52123e-08
-3.01678e-07
5.3517e-08
-3.12941e-07
5.16188e-08
-3.23746e-07
4.95277e-08
-3.34053e-07
4.72539e-08
-3.43824e-07
4.48078e-08
-3.53025e-07
4.21998e-08
-3.61623e-07
3.94406e-08
-3.69587e-07
3.65408e-08
-3.76889e-07
3.35114e-08
-3.83504e-07
3.03633e-08
-3.89409e-07
2.71076e-08
-3.94582e-07
2.37555e-08
-3.99005e-07
2.03182e-08
-4.02662e-07
1.68073e-08
-4.0554e-07
1.32342e-08
-4.07628e-07
9.61076e-09
-4.08918e-07
5.94868e-09
-4.09404e-07
2.25999e-09
-4.09083e-07
-1.4432e-09
-4.07954e-07
-5.14862e-09
-4.06021e-07
-8.84387e-09
-4.03288e-07
-1.25164e-08
-3.99764e-07
-1.61536e-08
-3.95457e-07
-1.97425e-08
-3.90383e-07
-2.32704e-08
-3.84557e-07
-2.67241e-08
-3.77998e-07
-3.00906e-08
-3.70729e-07
-3.33567e-08
-3.62773e-07
-3.65092e-08
-3.54159e-07
-3.95349e-08
-3.44916e-07
-4.24207e-08
-3.35077e-07
-4.51534e-08
-3.24679e-07
-4.77201e-08
-3.13761e-07
-5.0108e-08
-3.02362e-07
-5.23044e-08
-2.90527e-07
-5.4297e-08
-2.78302e-07
-5.60737e-08
-2.65737e-07
-5.7623e-08
-2.52881e-07
-5.89337e-08
-2.39788e-07
-5.99953e-08
-2.26512e-07
-6.07976e-08
-2.13112e-07
-6.13316e-08
-1.99646e-07
-6.15887e-08
-1.86172e-07
-6.15615e-08
-1.72754e-07
-6.12437e-08
-1.59452e-07
-6.06299e-08
-1.46329e-07
-5.97165e-08
-1.33448e-07
-5.85009e-08
-1.20872e-07
-5.69828e-08
-1.08662e-07
-5.51634e-08
-9.68796e-08
-5.30465e-08
-8.55837e-08
-5.06382e-08
-7.48313e-08
-4.79479e-08
-6.46762e-08
-4.49882e-08
-5.51685e-08
-4.17761e-08
-4.63538e-08
-3.8333e-08
-3.82719e-08
-3.46863e-08
-3.09561e-08
-3.08702e-08
-2.44317e-08
-2.69269e-08
-1.87149e-08
-2.29086e-08
-1.38118e-08
-1.88791e-08
-9.71657e-09
-1.49168e-08
-6.41022e-09
-1.11172e-08
-3.85965e-09
-7.59662e-09
-2.01635e-09
-4.49664e-09
-8.15563e-10
-1.98789e-09
-1.76023e-10
-2.75695e-10
3.75967e-10
-2.98811e-10
2.71057e-11
-1.26417e-09
1.54282e-09
-2.96019e-09
4.16246e-09
-5.44113e-09
7.60602e-09
-8.74952e-09
1.16516e-08
-1.29154e-08
1.61134e-08
-1.79561e-08
2.08367e-08
-2.38771e-08
2.56936e-08
-3.06725e-08
3.05793e-08
-3.83259e-08
3.54078e-08
-4.68121e-08
4.01092e-08
-5.60974e-08
4.46271e-08
-6.61415e-08
4.89161e-08
-7.6898e-08
5.29403e-08
-8.83157e-08
5.66716e-08
-1.00339e-07
6.00886e-08
-1.1291e-07
6.31751e-08
-1.25968e-07
6.59199e-08
-1.3945e-07
6.83153e-08
-1.53291e-07
7.03571e-08
-1.67429e-07
7.20439e-08
-1.81797e-07
7.33764e-08
-1.96331e-07
7.43575e-08
-2.10968e-07
7.49918e-08
-2.25643e-07
7.52851e-08
-2.40295e-07
7.52446e-08
-2.54863e-07
7.48784e-08
-2.69287e-07
7.41955e-08
-2.83508e-07
7.32056e-08
-2.97473e-07
7.19192e-08
-3.11125e-07
7.0347e-08
-3.24413e-07
6.85005e-08
-3.37287e-07
6.63912e-08
-3.497e-07
6.40313e-08
-3.61605e-07
6.1433e-08
-3.7296e-07
5.86088e-08
-3.83724e-07
5.55715e-08
-3.93858e-07
5.23341e-08
-4.03327e-07
4.89096e-08
-4.12097e-07
4.53113e-08
-4.20139e-07
4.15526e-08
-4.27422e-07
3.7647e-08
-4.33923e-07
3.36084e-08
-4.39618e-07
2.94505e-08
-4.44487e-07
2.51874e-08
-4.48513e-07
2.08331e-08
-4.51681e-07
1.64022e-08
-4.53979e-07
1.19089e-08
-4.55399e-07
7.36813e-09
-4.55933e-07
2.79455e-09
-4.5558e-07
-1.79678e-09
-4.54337e-07
-6.39068e-09
-4.5221e-07
-1.09718e-08
-4.49201e-07
-1.55246e-08
-4.45322e-07
-2.00334e-08
-4.40582e-07
-2.44824e-08
-4.34997e-07
-2.88555e-08
-4.28584e-07
-3.31368e-08
-4.21364e-07
-3.731e-08
-4.13362e-07
-4.13589e-08
-4.04604e-07
-4.52672e-08
-3.9512e-07
-4.90187e-08
-3.84944e-07
-5.25971e-08
-3.74111e-07
-5.59863e-08
-3.62661e-07
-5.91704e-08
-3.50635e-07
-6.21335e-08
-3.38079e-07
-6.48602e-08
-3.25041e-07
-6.73353e-08
-3.11571e-07
-6.95442e-08
-2.97721e-07
-7.14726e-08
-2.83548e-07
-7.31069e-08
-2.69109e-07
-7.44341e-08
-2.54464e-07
-7.54423e-08
-2.39676e-07
-7.61201e-08
-2.24807e-07
-7.64575e-08
-2.09923e-07
-7.64455e-08
-1.9509e-07
-7.60764e-08
-1.80376e-07
-7.53443e-08
-1.65848e-07
-7.42447e-08
-1.51574e-07
-7.27751e-08
-1.37621e-07
-7.09352e-08
-1.24058e-07
-6.87271e-08
-1.10948e-07
-6.61558e-08
-9.83571e-08
-6.32294e-08
-8.63454e-08
-5.99595e-08
-7.49715e-08
-5.63622e-08
-6.42893e-08
-5.24582e-08
-5.43484e-08
-4.82739e-08
-4.51924e-08
-4.38424e-08
-3.68582e-08
-3.92045e-08
-2.93748e-08
-3.44103e-08
-2.27626e-08
-2.95207e-08
-1.70321e-08
-2.46097e-08
-1.21825e-08
-1.97663e-08
-8.2016e-09
-1.50981e-08
-5.06427e-09
-1.0734e-08
-2.73248e-09
-6.82843e-09
-1.15515e-09
-3.56522e-09
-2.68909e-10
-1.16194e-09
1.07054e-10
-3.93435e-10
4.20542e-10
-1.61377e-09
2.76315e-09
-3.70135e-09
6.25005e-09
-6.69135e-09
1.0596e-08
-1.06109e-08
1.55711e-08
-1.54776e-08
2.09801e-08
-2.12989e-08
2.6658e-08
-2.8072e-08
3.24667e-08
-3.57841e-08
3.82915e-08
-4.44134e-08
4.40371e-08
-5.39295e-08
4.96253e-08
-6.42942e-08
5.49918e-08
-7.5463e-08
6.00848e-08
-8.73854e-08
6.48627e-08
-1.00006e-07
6.92924e-08
-1.13266e-07
7.33485e-08
-1.27103e-07
7.70116e-08
-1.41451e-07
8.0268e-08
-1.56244e-07
8.31081e-08
-1.71413e-07
8.55265e-08
-1.8689e-07
8.75209e-08
-2.02605e-07
8.90919e-08
-2.1849e-07
9.02424e-08
-2.34476e-07
9.09774e-08
-2.50494e-07
9.13036e-08
-2.66479e-07
9.12293e-08
-2.82364e-07
9.07638e-08
-2.98087e-07
8.99178e-08
-3.13584e-07
8.87026e-08
-3.28795e-07
8.71306e-08
-3.43663e-07
8.52147e-08
-3.58131e-07
8.29683e-08
-3.72145e-07
8.04053e-08
-3.85654e-07
7.75402e-08
-3.98608e-07
7.43877e-08
-4.10962e-07
7.09628e-08
-4.22672e-07
6.72808e-08
-4.33695e-07
6.33573e-08
-4.43993e-07
5.92081e-08
-4.53531e-07
5.48491e-08
-4.62275e-07
5.02966e-08
-4.70195e-07
4.55669e-08
-4.77263e-07
4.06766e-08
-4.83455e-07
3.56424e-08
-4.88749e-07
3.04812e-08
-4.93126e-07
2.52101e-08
-4.9657e-07
1.98465e-08
-4.99069e-07
1.44079e-08
-5.00613e-07
8.91198e-09
-5.01195e-07
3.37668e-09
-5.00812e-07
-2.17987e-09
-4.99463e-07
-7.73932e-09
-4.97152e-07
-1.32831e-08
-4.93884e-07
-1.87926e-08
-4.89669e-07
-2.42487e-08
-4.84519e-07
-2.96324e-08
-4.7845e-07
-3.49245e-08
-4.71481e-07
-4.01055e-08
-4.63635e-07
-4.51559e-08
-4.54938e-07
-5.00562e-08
-4.45418e-07
-5.47868e-08
-4.35109e-07
-5.93282e-08
-4.24045e-07
-6.36607e-08
-4.12266e-07
-6.77651e-08
-3.99815e-07
-7.16222e-08
-3.86735e-07
-7.5213e-08
-3.73076e-07
-7.8519e-08
-3.5889e-07
-8.1522e-08
-3.4423e-07
-8.42044e-08
-3.29153e-07
-8.65493e-08
-3.13719e-07
-8.85405e-08
-2.97991e-07
-9.01625e-08
-2.82032e-07
-9.14009e-08
-2.6591e-07
-9.22426e-08
-2.49692e-07
-9.26755e-08
-2.33448e-07
-9.26892e-08
-2.17249e-07
-9.22749e-08
-2.01168e-07
-9.14253e-08
-1.85277e-07
-9.01358e-08
-1.69649e-07
-8.84035e-08
-1.54355e-07
-8.62286e-08
-1.39468e-07
-8.3614e-08
-1.25058e-07
-8.05659e-08
-1.11193e-07
-7.70944e-08
-9.7939e-08
-7.32139e-08
-8.53577e-08
-6.89434e-08
-7.35079e-08
-6.4308e-08
-6.24428e-08
-5.93389e-08
-5.22103e-08
-5.40749e-08
-4.28512e-08
-4.85635e-08
-3.43992e-08
-4.28623e-08
-2.68794e-08
-3.70406e-08
-2.03075e-08
-3.11816e-08
-1.46893e-08
-2.53845e-08
-1.00201e-08
-1.97674e-08
-6.28405e-09
-1.447e-08
-3.45475e-09
-9.65774e-09
-1.49551e-09
-5.52446e-09
-3.60975e-10
-2.29648e-09
-2.53923e-10
-4.86118e-10
9.06654e-10
-1.95931e-09
4.23634e-09
-4.4381e-09
8.72884e-09
-7.93916e-09
1.40971e-08
-1.24741e-08
2.01061e-08
-1.80476e-08
2.65536e-08
-2.46564e-08
3.32667e-08
-3.22885e-08
4.00988e-08
-4.09237e-08
4.69267e-08
-5.05336e-08
5.3647e-08
-6.1082e-08
6.01736e-08
-7.25257e-08
6.64356e-08
-8.48155e-08
7.23746e-08
-9.78966e-08
7.79437e-08
-1.11709e-07
8.31053e-08
-1.26191e-07
8.78298e-08
-1.41274e-07
9.20948e-08
-1.5689e-07
9.58839e-08
-1.72968e-07
9.91858e-08
-1.89435e-07
1.01994e-07
-2.06218e-07
1.04305e-07
-2.23245e-07
1.06119e-07
-2.40442e-07
1.07439e-07
-2.57735e-07
1.08271e-07
-2.75054e-07
1.08622e-07
-2.92327e-07
1.08502e-07
-3.09484e-07
1.07921e-07
-3.26458e-07
1.06892e-07
-3.43183e-07
1.05427e-07
-3.59594e-07
1.03542e-07
-3.75629e-07
1.0125e-07
-3.91229e-07
9.85684e-08
-4.06337e-07
9.55128e-08
-4.20897e-07
9.21001e-08
-4.34857e-07
8.83477e-08
-4.48167e-07
8.42733e-08
-4.60781e-07
7.9895e-08
-4.72655e-07
7.5231e-08
-4.83747e-07
7.03e-08
-4.94019e-07
6.51209e-08
-5.03435e-07
5.97128e-08
-5.11963e-07
5.40951e-08
-5.19574e-07
4.82874e-08
-5.26241e-07
4.23094e-08
-5.31941e-07
3.61813e-08
-5.36654e-07
2.99233e-08
-5.40363e-07
2.35559e-08
-5.43055e-07
1.70999e-08
-5.4472e-07
1.05761e-08
-5.45349e-07
4.00595e-09
-5.4494e-07
-2.58921e-09
-5.43491e-07
-9.18764e-09
-5.41007e-07
-1.57674e-08
-5.37493e-07
-2.23063e-08
-5.3296e-07
-2.87819e-08
-5.27421e-07
-3.51717e-08
-5.20892e-07
-4.14529e-08
-5.13395e-07
-4.76026e-08
-5.04953e-07
-5.35978e-08
-4.95594e-07
-5.94153e-08
-4.85349e-07
-6.5032e-08
-4.74252e-07
-7.04249e-08
-4.62342e-07
-7.55709e-08
-4.4966e-07
-8.04472e-08
-4.36251e-07
-8.50313e-08
-4.22163e-07
-8.93007e-08
-4.07448e-07
-9.32338e-08
-3.92161e-07
-9.68092e-08
-3.76359e-07
-1.00006e-07
-3.60103e-07
-1.02805e-07
-3.43457e-07
-1.05186e-07
-3.26487e-07
-1.07133e-07
-3.09261e-07
-1.08627e-07
-2.91851e-07
-1.09653e-07
-2.74327e-07
-1.10199e-07
-2.56766e-07
-1.10251e-07
-2.39242e-07
-1.09799e-07
-2.21831e-07
-1.08836e-07
-2.04612e-07
-1.07355e-07
-1.8766e-07
-1.05355e-07
-1.71053e-07
-1.02835e-07
-1.54867e-07
-9.97999e-08
-1.39177e-07
-9.62564e-08
-1.24054e-07
-9.22169e-08
-1.0957e-07
-8.76984e-08
-9.579e-08
-8.27234e-08
-8.27772e-08
-7.73209e-08
-7.05892e-08
-7.15269e-08
-5.92781e-08
-6.5386e-08
-4.88896e-08
-5.8952e-08
-3.94623e-08
-5.22896e-08
-3.10266e-08
-4.54763e-08
-2.36045e-08
-3.86036e-08
-1.72092e-08
-3.17798e-08
-1.18443e-08
-2.51323e-08
-7.50401e-09
-1.88102e-08
-4.17413e-09
-1.29876e-08
-1.83252e-09
-7.86608e-09
-4.51264e-10
-3.67773e-09
-7.05184e-10
-5.76382e-10
1.48303e-09
-2.29852e-09
5.95847e-09
-5.16505e-09
1.15954e-08
-9.17516e-09
1.81072e-08
-1.43252e-08
2.52561e-08
-2.06068e-08
3.28352e-08
-2.80054e-08
4.06653e-08
-3.64996e-08
4.8593e-08
-4.60608e-08
5.64879e-08
-5.66533e-08
6.42395e-08
-6.82349e-08
7.17551e-08
-8.07566e-08
7.89573e-08
-9.41642e-08
8.57822e-08
-1.08398e-07
9.21776e-08
-1.23394e-07
9.81014e-08
-1.39085e-07
1.03521e-07
-1.554e-07
1.0841e-07
-1.72265e-07
1.12749e-07
-1.89607e-07
1.16527e-07
-2.07347e-07
1.19735e-07
-2.25411e-07
1.22368e-07
-2.43719e-07
1.24427e-07
-2.62196e-07
1.25915e-07
-2.80763e-07
1.26839e-07
-2.99346e-07
1.27205e-07
-3.1787e-07
1.27025e-07
-3.3626e-07
1.26312e-07
-3.54446e-07
1.25078e-07
-3.72358e-07
1.23339e-07
-3.89929e-07
1.21112e-07
-4.07091e-07
1.18413e-07
-4.23784e-07
1.15261e-07
-4.39945e-07
1.11674e-07
-4.55517e-07
1.07672e-07
-4.70444e-07
1.03275e-07
-4.84675e-07
9.8504e-08
-4.98159e-07
9.33791e-08
-5.1085e-07
8.79219e-08
-5.22704e-07
8.21541e-08
-5.33681e-07
7.60975e-08
-5.43743e-07
6.97745e-08
-5.52855e-07
6.32076e-08
-5.60987e-07
5.64195e-08
-5.68111e-07
4.94333e-08
-5.74202e-07
4.22724e-08
-5.79239e-07
3.49603e-08
-5.83204e-07
2.7521e-08
-5.86083e-07
1.99787e-08
-5.87865e-07
1.23576e-08
-5.88541e-07
4.68261e-09
-5.88109e-07
-3.02133e-09
-5.86568e-07
-1.07289e-08
-5.8392e-07
-1.84147e-08
-5.80174e-07
-2.60527e-08
-5.75339e-07
-3.3617e-08
-5.69429e-07
-4.10813e-08
-5.62463e-07
-4.84192e-08
-5.54462e-07
-5.56038e-08