/*--------------------------------*- C++ -*----------------------------------*\
| =========                 |                                                 |
| \\      /  F ield         | OpenFOAM: The Open Source CFD Toolbox           |
|  \\    /   O peration     | Version:  2212                                  |
|   \\  /    A nd           | Website:  www.openfoam.com                      |
|    \\/     M anipulation  |                                                 |
\*---------------------------------------------------------------------------*/
FoamFile
{
    version     2.0;
    format      ascii;
    arch        "LSB;label=32;scalar=64";
    class       surfaceScalarField;
    location    "0.08";
    object      phi;
}
// * * * * * * * * * * * * * * * * * * * * * * * * * * * * * * * * * * * * * //

dimensions      [0 3 -1 0 0 0 0];

oriented        oriented;

internalField   nonuniform List<scalar> 
19800
(
6.99569e-11
-6.9831e-11
2.40032e-10
-1.70076e-10
4.2726e-10
-1.87235e-10
5.74056e-10
-1.46805e-10
6.47474e-10
-7.34176e-11
6.29322e-10
1.81386e-11
5.1054e-10
1.18783e-10
2.87765e-10
2.22769e-10
-3.8689e-11
3.26457e-10
-4.66179e-10
4.27489e-10
-9.90492e-10
5.2432e-10
-1.6064e-09
6.15915e-10
-2.308e-09
7.01601e-10
-3.08895e-09
7.80938e-10
-3.9426e-09
8.53648e-10
-4.86216e-09
9.19569e-10
-5.84079e-09
9.78627e-10
-6.87162e-09
1.03083e-09
-7.94783e-09
1.07621e-09
-9.06269e-09
1.11486e-09
-1.02096e-08
1.14689e-09
-1.1382e-08
1.17242e-09
-1.25736e-08
1.19163e-09
-1.37783e-08
1.20466e-09
-1.499e-08
1.21172e-09
-1.6203e-08
1.21298e-09
-1.74116e-08
1.20864e-09
-1.86105e-08
1.19889e-09
-1.97945e-08
1.18394e-09
-2.09585e-08
1.164e-09
-2.20977e-08
1.13928e-09
-2.32077e-08
1.10997e-09
-2.4284e-08
1.07631e-09
-2.53225e-08
1.03849e-09
-2.63193e-08
9.96728e-10
-2.72705e-08
9.51241e-10
-2.81728e-08
9.02245e-10
-2.90227e-08
8.49959e-10
-2.98173e-08
7.94599e-10
-3.05537e-08
7.36382e-10
-3.12292e-08
6.75525e-10
-3.18415e-08
6.12247e-10
-3.23882e-08
5.46773e-10
-3.28675e-08
4.79323e-10
-3.32777e-08
4.10115e-10
-3.36171e-08
3.39388e-10
-3.38844e-08
2.67369e-10
-3.40787e-08
1.94292e-10
-3.41991e-08
1.20406e-10
-3.42451e-08
4.59458e-11
-3.42162e-08
-2.88554e-11
-3.41125e-08
-1.03738e-10
-3.3934e-08
-1.78451e-10
-3.36813e-08
-2.52748e-10
-3.33549e-08
-3.26357e-10
-3.29559e-08
-3.99008e-10
-3.24854e-08
-4.70452e-10
-3.1945e-08
-5.40417e-10
-3.13364e-08
-6.08614e-10
-3.06616e-08
-6.74776e-10
-2.9923e-08
-7.38641e-10
-2.91231e-08
-7.99919e-10
-2.82648e-08
-8.58321e-10
-2.73512e-08
-9.13585e-10
-2.63857e-08
-9.65442e-10
-2.53721e-08
-1.0136e-09
-2.43143e-08
-1.05779e-09
-2.32166e-08
-1.09773e-09
-2.20834e-08
-1.13318e-09
-2.09196e-08
-1.16386e-09
-1.973e-08
-1.18952e-09
-1.85201e-08
-1.20993e-09
-1.72952e-08
-1.22486e-09
-1.60612e-08
-1.23407e-09
-1.48238e-08
-1.23735e-09
-1.35893e-08
-1.23452e-09
-1.23639e-08
-1.22541e-09
-1.1154e-08
-1.20984e-09
-9.96637e-09
-1.18767e-09
-8.8076e-09
-1.15877e-09
-7.68454e-09
-1.12307e-09
-6.60405e-09
-1.08049e-09
-5.57304e-09
-1.031e-09
-4.59841e-09
-9.74615e-10
-3.68702e-09
-9.11391e-10
-2.84558e-09
-8.41438e-10
-2.08065e-09
-7.64937e-10
-1.39848e-09
-6.82169e-10
-8.04934e-10
-5.93543e-10
-3.05299e-10
-4.9964e-10
9.59738e-11
-4.01274e-10
3.95586e-10
-2.99603e-10
5.91904e-10
-1.96302e-10
6.8576e-10
-9.38489e-11
6.81745e-10
4.01306e-12
5.90261e-10
9.14797e-11
4.30715e-10
1.59545e-10
2.3699e-10
1.93726e-10
6.66547e-11
1.70334e-10
6.66513e-11
1.70095e-10
-2.39931e-10
4.67339e-10
-4.67316e-10
7.52191e-10
-4.72079e-10
9.23569e-10
-3.18179e-10
9.11319e-10
-6.11509e-11
6.70467e-10
2.5899e-10
1.74847e-10
6.14407e-10
-5.88282e-10
9.85896e-10
-1.6221e-09
1.36027e-09
-2.92305e-09
1.72842e-09
-4.48274e-09
2.08399e-09
-6.28937e-09
2.42255e-09
-8.32878e-09
2.741e-09
-1.05851e-08
3.03722e-09
-1.30412e-08
3.30978e-09
-1.56793e-08
3.55774e-09
-1.84813e-08
3.78057e-09
-2.14285e-08
3.97804e-09
-2.45024e-08
4.15012e-09
-2.76845e-08
4.29698e-09
-3.09566e-08
4.41892e-09
-3.43005e-08
4.51634e-09
-3.76986e-08
4.58974e-09
-4.11336e-08
4.63969e-09
-4.45887e-08
4.66679e-09
-4.80475e-08
4.67173e-09
-5.1494e-08
4.65519e-09
-5.49131e-08
4.6179e-09
-5.82897e-08
4.56062e-09
-6.16098e-08
4.48411e-09
-6.48597e-08
4.38915e-09
-6.80263e-08
4.27653e-09
-7.1097e-08
4.14705e-09
-7.406e-08
4.00152e-09
-7.69041e-08
3.84076e-09
-7.96184e-08
3.66559e-09
-8.2193e-08
3.47683e-09
-8.46184e-08
3.27533e-09
-8.68857e-08
3.06192e-09
-8.89868e-08
2.83745e-09
-9.0914e-08
2.60275e-09
-9.26604e-08
2.35869e-09
-9.42198e-08
2.10612e-09
-9.55864e-08
1.84593e-09
-9.67553e-08
1.57898e-09
-9.7722e-08
1.30615e-09
-9.8483e-08
1.02837e-09
-9.90352e-08
7.46535e-10
-9.93764e-08
4.61566e-10
-9.95049e-08
1.74419e-10
-9.94198e-08
-1.13964e-10
-9.91209e-08
-4.02627e-10
-9.86088e-08
-6.90578e-10
-9.78847e-08
-9.76824e-10
-9.69507e-08
-1.26037e-09
-9.58095e-08
-1.54019e-09
-9.44647e-08
-1.81525e-09
-9.29206e-08
-2.08452e-09
-9.11823e-08
-2.34694e-09
-8.92556e-08
-2.60146e-09
-8.71472e-08
-2.84701e-09
-8.48646e-08
-3.08254e-09
-8.24159e-08
-3.30698e-09
-7.98102e-08
-3.51925e-09
-7.70574e-08
-3.7183e-09
-7.41679e-08
-3.90309e-09
-7.11531e-08
-4.07258e-09
-6.80251e-08
-4.22574e-09
-6.47967e-08
-4.36155e-09
-6.14815e-08
-4.47906e-09
-5.80937e-08
-4.57732e-09
-5.46482e-08
-4.65541e-09
-5.11606e-08
-4.71247e-09
-4.7647e-08
-4.74768e-09
-4.41241e-08
-4.76028e-09
-4.06091e-08
-4.74954e-09
-3.71196e-08
-4.71484e-09
-3.36738e-08
-4.65561e-09
-3.02901e-08
-4.57136e-09
-2.69872e-08
-4.46172e-09
-2.37839e-08
-4.32639e-09
-2.06991e-08
-4.16526e-09
-1.77518e-08
-3.97831e-09
-1.49607e-08
-3.76571e-09
-1.23443e-08
-3.52785e-09
-9.92031e-09
-3.26536e-09
-7.70601e-09
-2.97922e-09
-5.71741e-09
-2.67077e-09
-3.96906e-09
-2.3419e-09
-2.4735e-09
-1.99521e-09
-1.24054e-09
-1.63424e-09
-2.76302e-10
-1.26386e-09
4.18186e-10
-8.90808e-10
8.48871e-10
-5.24543e-10
1.03137e-09
-1.78476e-10
9.94663e-10
1.28189e-10
7.86179e-10
3.68028e-10
4.77703e-10
5.02199e-10
1.7025e-10
4.77786e-10
2.36898e-10
1.87842e-10
-4.27778e-10
4.74105e-10
-7.53586e-10
6.87232e-10
-6.85208e-10
7.05511e-10
-3.36473e-10
4.40823e-10
2.03541e-10
-1.66962e-10
8.6678e-10
-1.15544e-09
1.60288e-09
-2.54482e-09
2.37527e-09
-4.34205e-09
3.15752e-09
-6.54416e-09
3.93053e-09
-9.1407e-09
4.68052e-09
-1.21157e-08
5.3975e-09
-1.5449e-08
6.0743e-09
-1.91175e-08
6.7058e-09
-2.30961e-08
7.2884e-09
-2.73581e-08
7.81967e-09
-3.18756e-08
8.29809e-09
-3.66204e-08
8.7228e-09
-4.15637e-08
9.09347e-09
-4.6677e-08
9.41023e-09
-5.19315e-08
9.6735e-09
-5.72992e-08
9.884e-09
-6.27521e-08
1.00427e-08
-6.8263e-08
1.01506e-08
-7.38052e-08
1.0209e-08
-7.93526e-08
1.02192e-08
-8.48801e-08
1.01827e-08
-9.03633e-08
1.0101e-08
-9.57784e-08
9.97573e-09
-1.01103e-07
9.80846e-09
-1.06314e-07
9.60086e-09
-1.11393e-07
9.35465e-09
-1.16317e-07
9.07154e-09
-1.21069e-07
8.7533e-09
-1.2563e-07
8.4017e-09
-1.29983e-07
8.01851e-09
-1.34111e-07
7.60556e-09
-1.38001e-07
7.16465e-09
-1.41636e-07
6.69762e-09
-1.45005e-07
6.20633e-09
-1.48095e-07
5.69263e-09
-1.50895e-07
5.1584e-09
-1.53394e-07
4.60552e-09
-1.55584e-07
4.03594e-09
-1.57457e-07
3.45157e-09
-1.59005e-07
2.85439e-09
-1.60223e-07
2.24636e-09
-1.61106e-07
1.62951e-09
-1.6165e-07
1.00586e-09
-1.61853e-07
3.77475e-10
-1.61714e-07
-2.53541e-10
-1.61231e-07
-8.85066e-10
-1.60407e-07
-1.51496e-09
-1.59243e-07
-2.14104e-09
-1.57742e-07
-2.7611e-09
-1.55909e-07
-3.3729e-09
-1.5375e-07
-3.97421e-09
-1.51272e-07
-4.56273e-09
-1.48483e-07
-5.13618e-09
-1.45392e-07
-5.69224e-09
-1.42011e-07
-6.22861e-09
-1.3835e-07
-6.74295e-09
-1.34424e-07
-7.23296e-09
-1.30247e-07
-7.69632e-09
-1.25835e-07
-8.13074e-09
-1.21204e-07
-8.53393e-09
-1.16373e-07
-8.90364e-09
-1.11361e-07
-9.23768e-09
-1.06188e-07
-9.53389e-09
-1.00877e-07
-9.79016e-09
-9.54502e-08
-1.00045e-08
-8.99308e-08
-1.01749e-08
-8.43438e-08
-1.02995e-08
-7.87148e-08
-1.03766e-08
-7.30704e-08
-1.04047e-08
-6.74378e-08
-1.03822e-08
-6.18449e-08
-1.03077e-08
-5.63203e-08
-1.01802e-08
-5.08929e-08
-9.99878e-09
-4.5592e-08
-9.76261e-09
-4.04471e-08
-9.47128e-09
-3.54877e-08
-9.12465e-09
-3.07431e-08
-8.72288e-09
-2.62422e-08
-8.26659e-09
-2.20132e-08
-7.75684e-09
-1.80833e-08
-7.19533e-09
-1.4478e-08
-6.58447e-09
-1.12212e-08
-5.92758e-09
-8.33393e-09
-5.22918e-09
-5.83382e-09
-4.49531e-09
-3.73398e-09
-3.73407e-09
-2.04156e-09
-2.95628e-09
-7.55921e-10
-2.17645e-09
1.3379e-10
-1.41426e-09
6.51744e-10
-6.96433e-10
8.39347e-10
-5.94195e-11
7.60006e-10
4.47361e-10
5.04178e-10
7.58029e-10
1.94219e-10
7.87744e-10
4.31111e-10
1.49077e-10
-5.76856e-10
3.25166e-10
-9.29678e-10
3.47265e-10
-7.07298e-10
8.56581e-11
-7.48735e-11
-5.54873e-10
8.44067e-10
-1.64124e-09
1.95315e-09
-3.21693e-09
3.17857e-09
-5.30647e-09
4.4648e-09
-7.91926e-09
5.7703e-09
-1.10528e-08
7.06406e-09
-1.46953e-08
8.32298e-09
-1.88276e-08
9.52989e-09
-2.34255e-08
1.06721e-08
-2.84601e-08
1.17404e-08
-3.38996e-08
1.2728e-08
-3.97102e-08
1.36302e-08
-4.58561e-08
1.4444e-08
-5.23006e-08
1.51674e-08
-5.90066e-08
1.57994e-08
-6.59363e-08
1.634e-08
-7.30523e-08
1.67895e-08
-8.03172e-08
1.71489e-08
-8.76943e-08
1.74197e-08
-9.51472e-08
1.76035e-08
-1.0264e-07
1.77022e-08
-1.10139e-07
1.7718e-08
-1.1761e-07
1.76534e-08
-1.2502e-07
1.75109e-08
-1.32337e-07
1.7293e-08
-1.39531e-07
1.70026e-08
-1.46573e-07
1.66424e-08
-1.53434e-07
1.62154e-08
-1.60086e-07
1.57244e-08
-1.66506e-07
1.51726e-08
-1.72667e-07
1.4563e-08
-1.78547e-07
1.38986e-08
-1.84124e-07
1.31825e-08
-1.89377e-07
1.24179e-08
-1.94288e-07
1.16081e-08
-1.98837e-07
1.0756e-08
-2.0301e-07
9.86516e-09
-2.0679e-07
8.93865e-09
-2.10165e-07
7.97983e-09
-2.13121e-07
6.99202e-09
-2.15648e-07
5.9786e-09
-2.17736e-07
4.94299e-09
-2.19379e-07
3.88864e-09
-2.20568e-07
2.81904e-09
-2.213e-07
1.73775e-09
-2.21571e-07
6.48347e-10
-2.21379e-07
-4.45529e-10
-2.20724e-07
-1.54018e-09
-2.19607e-07
-2.63187e-09
-2.18031e-07
-3.71682e-09
-2.16001e-07
-4.7912e-09
-2.13523e-07
-5.85115e-09
-2.10604e-07
-6.89274e-09
-2.07255e-07
-7.91206e-09
-2.03486e-07
-8.90513e-09
-1.9931e-07
-9.86796e-09
-1.94742e-07
-1.07965e-08
-1.89798e-07
-1.16869e-08
-1.84496e-07
-1.2535e-08
-1.78856e-07
-1.33368e-08
-1.72898e-07
-1.40885e-08
-1.66646e-07
-1.47861e-08
-1.60124e-07
-1.54257e-08
-1.53358e-07
-1.60037e-08
-1.46376e-07
-1.65162e-08
-1.39206e-07
-1.69597e-08
-1.3188e-07
-1.73308e-08
-1.24428e-07
-1.76262e-08
-1.16885e-07
-1.78428e-08
-1.09284e-07
-1.79775e-08
-1.01661e-07
-1.80278e-08
-9.40518e-08
-1.79912e-08
-8.6494e-08
-1.78656e-08
-7.90253e-08
-1.7649e-08
-7.1684e-08
-1.734e-08
-6.4509e-08
-1.69377e-08
-5.75389e-08
-1.64413e-08
-5.08127e-08
-1.58509e-08
-4.43686e-08
-1.5167e-08
-3.82441e-08
-1.4391e-08
-3.24758e-08
-1.35251e-08
-2.70986e-08
-1.25726e-08
-2.2145e-08
-1.1538e-08
-1.7645e-08
-1.04275e-08
-1.36248e-08
-9.24938e-09
-1.01059e-08
-8.0143e-09
-7.10352e-09
-6.73643e-09
-4.62555e-09
-5.43424e-09
-2.67004e-09
-4.13196e-09
-1.22285e-09
-2.86144e-09
-2.54709e-10
-1.66459e-09
2.82487e-10
-5.96621e-10
4.59764e-10
2.70087e-10
3.75603e-10
8.42195e-10
1.61747e-10
1.0016e-09
5.92852e-10
7.8198e-11
-6.55052e-10
7.53443e-11
-9.26838e-10
-1.8024e-10
-4.51712e-10
-8.15551e-10
5.60436e-10
-1.92522e-09
1.95373e-09
-3.57691e-09
3.60484e-09
-5.81548e-09
5.41714e-09
-8.66673e-09
7.31605e-09
-1.21407e-08
9.24427e-09
-1.62345e-08
1.11579e-08
-2.0935e-08
1.30234e-08
-2.62205e-08
1.48154e-08
-3.20629e-08
1.65145e-08
-3.8429e-08
1.81065e-08
-4.52815e-08
1.95806e-08
-5.25805e-08
2.09292e-08
-6.02836e-08
2.21471e-08
-6.8347e-08
2.32307e-08
-7.67259e-08
2.41784e-08
-8.53751e-08
2.49892e-08
-9.42492e-08
2.56636e-08
-1.03303e-07
2.62026e-08
-1.12491e-07
2.6608e-08
-1.2177e-07
2.68822e-08
-1.31095e-07
2.70278e-08
-1.40425e-07
2.7048e-08
-1.49718e-07
2.69463e-08
-1.58934e-07
2.67263e-08
-1.68033e-07
2.63919e-08
-1.76977e-07
2.59472e-08
-1.85731e-07
2.53963e-08
-1.94259e-07
2.47438e-08
-2.02529e-07
2.39939e-08
-2.10507e-07
2.31512e-08
-2.18165e-07
2.22203e-08
-2.25472e-07
2.12058e-08
-2.32402e-07
2.01126e-08
-2.3893e-07
1.89454e-08
-2.45031e-07
1.77091e-08
-2.50683e-07
1.64084e-08
-2.55866e-07
1.50484e-08
-2.60562e-07
1.36341e-08
-2.64752e-07
1.21705e-08
-2.68423e-07
1.06627e-08
-2.7156e-07
9.11584e-09
-2.74152e-07
7.53519e-09
-2.7619e-07
5.92603e-09
-2.77665e-07
4.2937e-09
-2.7857e-07
2.64363e-09
-2.78903e-07
9.81321e-10
-2.78661e-07
-6.87661e-10
-2.77844e-07
-2.35769e-09
-2.76453e-07
-4.02304e-09
-2.74491e-07
-5.67795e-09
-2.71966e-07
-7.31656e-09
-2.68884e-07
-8.93299e-09
-2.65256e-07
-1.05213e-08
-2.61092e-07
-1.20754e-08
-2.56408e-07
-1.35894e-08
-2.51219e-07
-1.50571e-08
-2.45543e-07
-1.64724e-08
-2.39401e-07
-1.78294e-08
-2.32814e-07
-1.91218e-08
-2.25807e-07
-2.03438e-08
-2.18406e-07
-2.14892e-08
-2.1064e-07
-2.25523e-08
-2.02538e-07
-2.35271e-08
-1.94134e-07
-2.4408e-08
-1.85461e-07
-2.51895e-08
-1.76554e-07
-2.58661e-08
-1.67453e-07
-2.64327e-08
-1.58194e-07
-2.68844e-08
-1.48821e-07
-2.72165e-08
-1.39373e-07
-2.74248e-08
-1.29896e-07
-2.75052e-08
-1.20433e-07
-2.74542e-08
-1.1103e-07
-2.72686e-08
-1.01733e-07
-2.69459e-08
-9.25889e-08
-2.64841e-08
-8.36448e-08
-2.58818e-08
-7.49478e-08
-2.51383e-08
-6.65447e-08
-2.4254e-08
-5.84817e-08
-2.323e-08
-5.08038e-08
-2.20689e-08
-4.35547e-08
-2.07743e-08
-3.67757e-08
-1.93516e-08
-3.05054e-08
-1.78083e-08
-2.47788e-08
-1.61542e-08
-1.96262e-08
-1.44019e-08
-1.50724e-08
-1.25682e-08
-1.11346e-08
-1.06742e-08
-7.82163e-09
-8.74722e-09
-5.13118e-09
-6.82241e-09
-3.04787e-09
-4.94475e-09
-1.54044e-09
-3.17203e-09
-5.58662e-10
-1.5784e-09
-2.98703e-11
-2.58698e-10
1.44987e-10
6.6734e-10
9.65988e-11
1.04998e-09
6.89447e-10
-1.04109e-11
-6.44638e-10
-2.36688e-10
-7.00571e-10
-8.30075e-10
1.41676e-10
-1.90671e-09
1.63707e-09
-3.55467e-09
3.60168e-09
-5.83769e-09
5.88785e-09
-8.79835e-09
8.37781e-09
-1.2461e-08
1.09787e-08
-1.68344e-08
1.36177e-08
-2.19142e-08
1.62377e-08
-2.76852e-08
1.87944e-08
-3.41232e-08
2.12534e-08
-4.11967e-08
2.3588e-08
-4.88685e-08
2.57782e-08
-5.70966e-08
2.78087e-08
-6.58359e-08
2.96684e-08
-7.50381e-08
3.13493e-08
-8.46535e-08
3.28461e-08
-9.46307e-08
3.41555e-08
-1.04918e-07
3.52762e-08
-1.15462e-07
3.6208e-08
-1.26212e-07
3.6952e-08
-1.37114e-07
3.75105e-08
-1.48118e-07
3.78862e-08
-1.59173e-07
3.80827e-08
-1.70229e-07
3.81042e-08
-1.81238e-07
3.79552e-08
-1.92153e-07
3.76407e-08
-2.02927e-07
3.71661e-08
-2.13516e-07
3.65368e-08
-2.23879e-07
3.57588e-08
-2.33973e-07
3.48379e-08
-2.43759e-07
3.37803e-08
-2.53201e-07
3.25924e-08
-2.62261e-07
3.12805e-08
-2.70906e-07
2.98512e-08
-2.79105e-07
2.83111e-08
-2.86826e-07
2.66669e-08
-2.94043e-07
2.49254e-08
-3.00728e-07
2.30935e-08
-3.06857e-07
2.11781e-08
-3.12409e-07
1.91863e-08
-3.17364e-07
1.71252e-08
-3.21703e-07
1.50019e-08
-3.25411e-07
1.28238e-08
-3.28474e-07
1.05982e-08
-3.30881e-07
8.33262e-09
-3.32622e-07
6.03455e-09
-3.3369e-07
3.71167e-09
-3.3408e-07
1.37172e-09
-3.3379e-07
-9.77452e-10
-3.3282e-07
-3.3279e-09
-3.31172e-07
-5.67158e-09
-3.28849e-07
-8.00037e-09
-3.2586e-07
-1.03061e-08
-3.22212e-07
-1.25803e-08
-3.17919e-07
-1.48148e-08
-3.12993e-07
-1.70011e-08
-3.07452e-07
-1.91307e-08
-3.01314e-07
-2.11951e-08
-2.94601e-07
-2.31858e-08
-2.87336e-07
-2.50942e-08
-2.79546e-07
-2.6912e-08
-2.71259e-07
-2.86306e-08
-2.62506e-07
-3.02417e-08
-2.53322e-07
-3.1737e-08
-2.4374e-07
-3.31085e-08
-2.338e-07
-3.43482e-08
-2.23541e-07
-3.54485e-08
-2.13005e-07
-3.64019e-08
-2.02237e-07
-3.72012e-08
-1.91281e-07
-3.78397e-08
-1.80187e-07
-3.8311e-08
-1.69003e-07
-3.86092e-08
-1.57779e-07
-3.87288e-08
-1.46568e-07
-3.86651e-08
-1.35423e-07
-3.8414e-08
-1.24397e-07
-3.7972e-08
-1.13544e-07
-3.73365e-08
-1.0292e-07
-3.65061e-08
-9.25782e-08
-3.54801e-08
-8.25729e-08
-3.42592e-08
-7.29573e-08
-3.28457e-08
-6.37828e-08
-3.12433e-08
-5.50994e-08
-2.94577e-08
-4.69539e-08
-2.74971e-08
-3.93902e-08
-2.53721e-08
-3.24476e-08
-2.30968e-08
-2.61602e-08
-2.06893e-08
-2.05558e-08
-1.81727e-08
-1.56538e-08
-1.55761e-08
-1.14646e-08
-1.29365e-08
-7.98683e-09
-1.03002e-08
-5.20581e-09
-7.72576e-09
-3.09109e-09
-5.28674e-09
-1.59396e-09
-3.07552e-09
-6.44693e-10
-1.20796e-09
-1.49548e-10
1.72191e-10
1.30602e-11
8.87373e-10
7.02506e-10
-1.08149e-10
-5.36485e-10
-5.84803e-10
-2.23928e-10
-1.55547e-09
1.11234e-09
-3.12011e-09
3.20172e-09
-5.35586e-09
5.83743e-09
-8.31893e-09
8.8509e-09
-1.20466e-08
1.21055e-08
-1.65594e-08
1.54915e-08
-2.18631e-08
1.89213e-08
-2.79504e-08
2.23251e-08
-3.48035e-08
2.56475e-08
-4.23951e-08
2.8845e-08
-5.06904e-08
3.18833e-08
-5.96484e-08
3.47362e-08
-6.92228e-08
3.73832e-08
-7.93638e-08
3.98094e-08
-9.00181e-08
4.20036e-08
-1.0113e-07
4.39583e-08
-1.12644e-07
4.56687e-08
-1.245e-07
4.71323e-08
-1.3664e-07
4.83485e-08
-1.49006e-07
4.93182e-08
-1.6154e-07
5.00439e-08
-1.74183e-07
5.0529e-08
-1.86878e-07
5.07777e-08
-1.99569e-07
5.07954e-08
-2.12202e-07
5.05878e-08
-2.24722e-07
5.01612e-08
-2.37079e-07
4.95226e-08
-2.49221e-07
4.8679e-08
-2.611e-07
4.76381e-08
-2.7267e-07
4.64077e-08
-2.83885e-07
4.49958e-08
-2.94704e-07
4.34108e-08
-3.05084e-07
4.16611e-08
-3.14989e-07
3.97554e-08
-3.2438e-07
3.77023e-08
-3.33224e-07
3.55109e-08
-3.41489e-07
3.319e-08
-3.49144e-07
3.0749e-08
-3.56163e-07
2.81969e-08
-3.6252e-07
2.55432e-08
-3.68192e-07
2.27973e-08
-3.73159e-07
1.99688e-08
-3.77402e-07
1.70675e-08
-3.80907e-07
1.41031e-08
-3.8366e-07
1.10856e-08
-3.85651e-07
8.02506e-09
-3.86871e-07
4.93167e-09
-3.87315e-07
1.81578e-09
-3.8698e-07
-1.31218e-09
-3.85866e-07
-4.44163e-09
-3.83976e-07
-7.56186e-09
-3.81314e-07
-1.06621e-08
-3.77889e-07
-1.37313e-08
-3.73711e-07
-1.67585e-08
-3.68793e-07
-1.97326e-08
-3.63152e-07
-2.26425e-08
-3.56806e-07
-2.54767e-08
-3.49776e-07
-2.82241e-08
-3.42089e-07
-3.08734e-08
-3.3377e-07
-3.34133e-08
-3.24849e-07
-3.58325e-08
-3.1536e-07
-3.81199e-08
-3.05337e-07
-4.02645e-08
-2.94819e-07
-4.22555e-08
-2.83845e-07
-4.4082e-08
-2.7246e-07
-4.57337e-08
-2.60707e-07
-4.72006e-08
-2.48637e-07
-4.84728e-08
-2.36297e-07
-4.9541e-08
-2.2374e-07
-5.03963e-08
-2.11021e-07
-5.10305e-08
-1.98194e-07
-5.14358e-08
-1.85317e-07
-5.16054e-08
-1.72449e-07
-5.15331e-08
-1.5965e-07
-5.12136e-08
-1.46979e-07
-5.06428e-08
-1.34498e-07
-4.98175e-08
-1.22268e-07
-4.8736e-08
-1.1035e-07
-4.7398e-08
-9.88044e-08
-4.58049e-08
-8.76902e-08
-4.39598e-08
-7.70651e-08
-4.18684e-08
-6.69841e-08
-3.95387e-08
-5.74995e-08
-3.69817e-08
-4.86595e-08
-3.4212e-08
-4.05078e-08
-3.12485e-08
-3.30819e-08
-2.81151e-08
-2.64127e-08
-2.48419e-08
-2.05225e-08
-2.14663e-08
-1.54238e-08
-1.80351e-08
-1.11177e-08
-1.46063e-08
-7.59203e-09
-1.12514e-08
-4.81955e-09
-8.05923e-09
-2.75597e-09
-5.1391e-09
-1.33812e-09
-2.62581e-09
-4.81888e-10
-6.84044e-10
-8.02182e-11
4.857e-10
6.22284e-10
-2.0983e-10
-3.26654e-10
-9.51732e-10
5.17969e-10
-2.32384e-09
2.48443e-09
-4.40697e-09
5.28485e-09
-7.26433e-09
8.69479e-09
-1.09419e-08
1.25285e-08
-1.54694e-08
1.66329e-08
-2.08613e-08
2.08835e-08
-2.71188e-08
2.51788e-08
-3.42308e-08
2.94371e-08
-4.21756e-08
3.35923e-08
-5.09224e-08
3.75918e-08
-6.04328e-08
4.13938e-08
-7.06619e-08
4.49653e-08
-8.15595e-08
4.82808e-08
-9.30711e-08
5.1321e-08
-1.05139e-07
5.40715e-08
-1.17703e-07
5.65221e-08
-1.307e-07
5.86662e-08
-1.44068e-07
6.05001e-08
-1.57742e-07
6.20225e-08
-1.71658e-07
6.32341e-08
-1.85751e-07
6.41374e-08
-1.99959e-07
6.47364e-08
-2.14217e-07
6.50362e-08
-2.28465e-07
6.5043e-08
-2.42641e-07
6.47639e-08
-2.56686e-07
6.42067e-08
-2.70544e-07
6.33799e-08
-2.84157e-07
6.22925e-08
-2.97473e-07
6.0954e-08
-3.10439e-07
5.9374e-08
-3.23006e-07
5.75629e-08
-3.35127e-07
5.55311e-08
-3.46755e-07
5.32892e-08
-3.57848e-07
5.08483e-08
-3.68365e-07
4.82195e-08
-3.78268e-07
4.54141e-08
-3.87522e-07
4.24435e-08
-3.96092e-07
3.93195e-08
-4.03949e-07
3.60539e-08
-4.11065e-07
3.26585e-08
-4.17413e-07
2.91455e-08
-4.22971e-07
2.55272e-08
-4.2772e-07
2.18159e-08
-4.31641e-07
1.80243e-08
-4.3472e-07
1.4165e-08
-4.36946e-07
1.02509e-08
-4.38309e-07
6.29502e-09
-4.38804e-07
2.31063e-09
-4.38427e-07
-1.68894e-09
-4.37179e-07
-5.69018e-09
-4.35061e-07
-9.67941e-09
-4.32081e-07
-1.36428e-08
-4.28245e-07
-1.75665e-08
-4.23568e-07
-2.14363e-08
-4.18062e-07
-2.5238e-08
-4.11747e-07
-2.89575e-08
-4.04644e-07
-3.25804e-08
-3.96775e-07
-3.60922e-08
-3.8817e-07
-3.94788e-08
-3.78858e-07
-4.27256e-08
-3.68872e-07
-4.58185e-08
-3.58248e-07
-4.87433e-08
-3.47027e-07
-5.14859e-08
-3.3525e-07
-5.40327e-08
-3.22962e-07
-5.63701e-08
-3.10211e-07
-5.8485e-08
-2.97047e-07
-6.03645e-08
-2.83523e-07
-6.19964e-08
-2.69695e-07
-6.33689e-08
-2.5562e-07
-6.4471e-08
-2.41358e-07
-6.52923e-08
-2.26971e-07
-6.58231e-08
-2.12522e-07
-6.6055e-08
-1.98074e-07
-6.59803e-08
-1.83695e-07
-6.55926e-08
-1.69451e-07
-6.4887e-08
-1.55409e-07
-6.38599e-08
-1.41636e-07
-6.25093e-08
-1.28198e-07
-6.08353e-08
-1.15163e-07
-5.88402e-08
-1.02594e-07
-5.65284e-08
-9.05555e-08
-5.39074e-08
-7.91062e-08
-5.09879e-08
-6.83035e-08
-4.77844e-08
-5.82001e-08
-4.43154e-08
-4.88436e-08
-4.06051e-08
-4.02752e-08
-3.66835e-08
-3.25294e-08
-3.25878e-08
-2.56315e-08
-2.83641e-08
-1.95976e-08
-2.4069e-08
-1.44323e-08
-1.97716e-08
-1.01274e-08
-1.55563e-08
-6.66101e-09
-1.15256e-08
-3.99565e-09
-7.80446e-09
-2.07732e-09
-4.54414e-09
-8.34553e-10
-1.92681e-09
-1.7792e-10
-1.70938e-10
4.44359e-10
-3.12354e-10
-1.4302e-11
-1.32628e-09
1.53189e-09
-3.11293e-09
4.27107e-09
-5.73272e-09
7.90464e-09
-9.23318e-09
1.21952e-08
-1.36482e-08
1.69435e-08
-1.8998e-08
2.19827e-08
-2.52896e-08
2.71751e-08
-3.25182e-08
3.24073e-08
-4.06674e-08
3.75862e-08
-4.9711e-08
4.2636e-08
-5.96142e-08
4.7495e-08
-7.03345e-08
5.2114e-08
-8.18228e-08
5.64536e-08
-9.40249e-08
6.04829e-08
-1.06882e-07
6.41782e-08
-1.20332e-07
6.75215e-08
-1.3431e-07
7.05e-08
-1.48749e-07
7.31051e-08
-1.6358e-07
7.53315e-08
-1.78735e-07
7.71773e-08
-1.94144e-07
7.86428e-08
-2.09737e-07
7.97306e-08
-2.25446e-07
8.0445e-08
-2.41201e-07
8.0792e-08
-2.56937e-07
8.07789e-08
-2.72588e-07
8.04141e-08
-2.88088e-07
7.97069e-08
-3.03375e-07
7.86675e-08
-3.1839e-07
7.73067e-08
-3.33072e-07
7.5636e-08
-3.47365e-07
7.36675e-08
-3.61216e-07
7.14135e-08
-3.74571e-07
6.88868e-08
-3.87383e-07
6.61006e-08
-3.99603e-07
6.30683e-08
-4.11187e-07
5.98037e-08
-4.22093e-07
5.63207e-08
-4.32283e-07
5.26335e-08
-4.4172e-07
4.87565e-08
-4.50371e-07
4.47043e-08
-4.58204e-07
4.04916e-08
-4.65192e-07
3.61336e-08
-4.7131e-07
3.16452e-08
-4.76536e-07
2.7042e-08
-4.80851e-07
2.23395e-08
-4.8424e-07
1.75534e-08
-4.86689e-07
1.26997e-08
-4.88188e-07
7.7945e-09
-4.88732e-07
2.85423e-09
-4.88316e-07
-2.1046e-09
-4.86941e-07
-7.06525e-09
-4.84609e-07
-1.20108e-08
-4.81328e-07
-1.69241e-08
-4.77107e-07
-2.1788e-08
-4.71958e-07
-2.65851e-08
-4.65898e-07
-3.12977e-08
-4.58947e-07
-3.59084e-08
-4.51128e-07
-4.03994e-08
-4.42467e-07
-4.4753e-08
-4.32995e-07
-4.89514e-08
-4.22743e-07
-5.2977e-08
-4.1175e-07
-5.68123e-08
-4.00053e-07
-6.04397e-08
-3.87697e-07
-6.38422e-08
-3.74727e-07
-6.70027e-08
-3.61192e-07
-6.99047e-08
-3.47145e-07
-7.25321e-08
-3.3264e-07
-7.48691e-08
-3.17736e-07
-7.69009e-08
-3.02492e-07
-7.8613e-08
-2.86971e-07
-7.99919e-08
-2.71238e-07
-8.10251e-08
-2.5536e-07
-8.17009e-08
-2.39406e-07
-8.20091e-08
-2.23446e-07
-8.19405e-08
-2.07551e-07
-8.14876e-08
-1.91793e-07
-8.06446e-08
-1.76246e-07
-7.94074e-08
-1.60981e-07
-7.77741e-08
-1.46071e-07
-7.57451e-08
-1.31588e-07
-7.33236e-08
-1.17601e-07
-7.05156e-08
-1.04177e-07
-6.73307e-08
-9.13829e-08
-6.37824e-08
-7.92786e-08
-5.98887e-08
-6.79214e-08
-5.56726e-08
-5.73631e-08
-5.11635e-08
-4.76489e-08
-4.63977e-08
-3.88169e-08
-4.14198e-08
-3.08967e-08
-3.62843e-08
-2.39084e-08
-3.10573e-08
-1.78613e-08
-2.58187e-08
-1.27529e-08
-2.06646e-08
-8.56813e-09
-1.57104e-08
-5.278e-09
-1.10946e-08
-2.83966e-09
-6.98248e-09
-1.19609e-09
-3.57038e-09
-2.76845e-10
-1.09019e-09
1.6751e-10
-4.13915e-10
3.99615e-10
-1.7013e-09
2.81928e-09
-3.90782e-09
6.47757e-09
-7.07335e-09
1.10702e-08
-1.12289e-08
1.63508e-08
-1.63951e-08
2.21097e-08
-2.25814e-08
2.8169e-08
-2.97862e-08
3.438e-08
-3.79973e-08
4.06184e-08
-4.71922e-08
4.67811e-08
-5.73394e-08
5.27832e-08
-6.83992e-08
5.85548e-08
-8.03246e-08
6.40394e-08
-9.30623e-08
6.91913e-08
-1.06554e-07
7.39744e-08
-1.20736e-07
7.83603e-08
-1.35542e-07
8.23278e-08
-1.50904e-07
8.58612e-08
-1.66748e-07
8.89496e-08
-1.83003e-07
9.15865e-08
-1.99595e-07
9.37688e-08
-2.16448e-07
9.54966e-08
-2.3349e-07
9.67723e-08
-2.50646e-07
9.76009e-08
-2.67843e-07
9.79891e-08
-2.85009e-07
9.79451e-08
-3.02074e-07
9.74788e-08
-3.18968e-07
9.66011e-08
-3.35625e-07
9.53239e-08
-3.51978e-07
9.36601e-08
-3.67965e-07
9.16232e-08
-3.83525e-07
8.92276e-08
-3.986e-07
8.64881e-08
-4.13133e-07
8.34199e-08
-4.27071e-07
8.00389e-08
-4.40364e-07
7.63611e-08
-4.52964e-07
7.24031e-08
-4.64825e-07
6.81816e-08
-4.75905e-07
6.37138e-08
-4.86166e-07
5.9017e-08
-4.9557e-07
5.41087e-08
-5.04085e-07
4.90069e-08
-5.11681e-07
4.37296e-08
-5.18331e-07
3.82952e-08
-5.24011e-07
3.27222e-08
-5.28701e-07
2.70294e-08
-5.32384e-07
2.1236e-08
-5.35045e-07
1.53611e-08
-5.36675e-07
9.42428e-09
-5.37266e-07
3.44532e-09
-5.36815e-07
-2.55581e-09
-5.35321e-07
-8.55889e-09
-5.32788e-07
-1.45435e-08
-5.29224e-07
-2.0489e-08
-5.24637e-07
-2.63746e-08
-5.19043e-07
-3.21792e-08
-5.12459e-07
-3.78819e-08
-5.04906e-07
-4.34612e-08
-4.96409e-07
-4.8896e-08
-4.86998e-07
-5.41648e-08
-4.76703e-07
-5.92464e-08
-4.6556e-07
-6.41194e-08
-4.5361e-07
-6.87628e-08
-4.40894e-07
-7.31557e-08
-4.27458e-07
-7.72774e-08
-4.13354e-07
-8.11075e-08
-3.98632e-07
-8.46262e-08
-3.8335e-07
-8.78142e-08
-3.67566e-07
-9.06528e-08
-3.51343e-07
-9.3124e-08
-3.34746e-07
-9.52108e-08
-3.17841e-07
-9.6897e-08
-3.00698e-07
-9.81677e-08
-2.83389e-07
-9.90093e-08
-2.65989e-07
-9.94095e-08
-2.48572e-07
-9.93578e-08
-2.31214e-07
-9.88453e-08
-2.13993e-07
-9.78653e-08
-1.96987e-07
-9.64134e-08
-1.80274e-07
-9.44877e-08
-1.6393e-07
-9.2089e-08
-1.48032e-07
-8.92214e-08
-1.32655e-07
-8.58928e-08
-1.17871e-07
-8.21148e-08
-1.03749e-07
-7.7904e-08
-9.0356e-08
-7.32818e-08
-7.77525e-08
-6.82761e-08
-6.59945e-08
-6.29214e-08
-5.51318e-08
-5.72604e-08
-4.52067e-08
-5.13449e-08
-3.62535e-08
-4.52375e-08
-2.82973e-08
-3.90135e-08
-2.13532e-08
-3.27628e-08
-1.54255e-08
-2.65924e-08
-1.05069e-08
-2.0629e-08
-6.57857e-09
-1.50229e-08
-3.60987e-09
-9.95118e-09
-1.55912e-09
-5.62112e-09
-3.75095e-10
-2.27422e-09
-2.07584e-10
-5.13502e-10
9.13106e-10
-2.07237e-09
4.37816e-09
-4.69872e-09
9.10393e-09
-8.41253e-09
1.4784e-08
-1.32281e-08
2.11664e-08
-1.91521e-08
2.80337e-08
-2.61825e-08
3.51994e-08
-3.43081e-08
4.25055e-08
-4.35082e-08
4.98185e-08
-5.37536e-08
5.70266e-08
-6.50068e-08
6.40363e-08
-7.72224e-08
7.07705e-08
-9.03485e-08
7.71655e-08
-1.04327e-07
8.31699e-08
-1.19095e-07
8.87425e-08
-1.34585e-07
9.38506e-08
-1.50727e-07
9.84693e-08
-1.67446e-07
1.0258e-07
-1.84667e-07
1.0617e-07
-2.02312e-07
1.09232e-07
-2.20303e-07
1.1176e-07
-2.38562e-07
1.13755e-07
-2.57009e-07
1.1522e-07
-2.75566e-07
1.16158e-07
-2.94157e-07
1.16579e-07
-3.12703e-07
1.16492e-07
-3.31132e-07
1.15907e-07
-3.49368e-07
1.14837e-07
-3.6734e-07
1.13296e-07
-3.8498e-07
1.113e-07
-4.02219e-07
1.08863e-07
-4.18994e-07
1.06002e-07
-4.35241e-07
1.02735e-07
-4.50901e-07
9.90801e-08
-4.65917e-07
9.50552e-08
-4.80236e-07
9.06796e-08
-4.93805e-07
8.59726e-08
-5.06578e-07
8.09541e-08
-5.18508e-07
7.56443e-08
-5.29555e-07
7.00635e-08
-5.39679e-07
6.42328e-08
-5.48845e-07
5.81731e-08
-5.57021e-07
5.19059e-08
-5.64179e-07
4.54528e-08
-5.70293e-07
3.8836e-08
-5.75341e-07
3.20775e-08
-5.79305e-07
2.52001e-08
-5.8217e-07
1.82264e-08
-5.83926e-07
1.11798e-08
-5.84564e-07
4.08338e-09
-5.8408e-07
-3.039e-09
-5.82476e-07
-1.01635e-08
-5.79753e-07
-1.72659e-08
-5.75921e-07
-2.43218e-08
-5.70989e-07
-3.13066e-08
-5.64973e-07
-3.81954e-08
-5.57891e-07
-4.49634e-08
-5.49767e-07
-5.15854e-08
-5.40627e-07
-5.80362e-08
-5.30501e-07
-6.42907e-08
-5.19423e-07
-7.03237e-08
-5.07433e-07
-7.61101e-08
-4.9457e-07
-8.1625e-08
-4.80882e-07
-8.68438e-08
-4.66417e-07
-9.17422e-08
-4.51229e-07
-9.62962e-08
-4.35372e-07
-1.00482e-07
-4.18908e-07
-1.04278e-07
-4.01899e-07
-1.07662e-07
-3.84411e-07
-1.10612e-07
-3.66514e-07
-1.13109e-07
-3.48277e-07
-1.15133e-07
-3.29777e-07
-1.16668e-07
-3.11089e-07
-1.17698e-07
-2.92291e-07
-1.18207e-07
-2.73463e-07
-1.18185e-07
-2.54688e-07
-1.17621e-07
-2.36045e-07
-1.16508e-07
-2.17619e-07
-1.1484e-07
-1.99492e-07
-1.12615e-07
-1.81745e-07
-1.09836e-07
-1.6446e-07
-1.06507e-07
-1.47716e-07
-1.02637e-07
-1.3159e-07
-9.82411e-08
-1.16155e-07
-9.33383e-08
-1.01483e-07
-8.79539e-08
-8.76391e-08
-8.21203e-08
-7.46834e-08
-7.58771e-08
-6.26704e-08
-6.92734e-08
-5.16475e-08
-6.23678e-08
-4.16542e-08
-5.52308e-08
-3.27213e-08
-4.79464e-08
-2.48707e-08
-4.06135e-08
-1.81141e-08
-3.33489e-08
-1.24535e-08
-2.62896e-08
-7.88067e-09
-1.95958e-08
-4.37788e-09
-1.3454e-08
-1.91905e-09
-8.07996e-09
-4.71583e-10
-3.72168e-09
-6.79165e-10
-6.10558e-10
1.52365e-09
-2.43686e-09
6.20446e-09
-5.47949e-09
1.21466e-08
-9.73953e-09
1.9044e-08
-1.52149e-08
2.66417e-08
-2.18981e-08
3.47169e-08
-2.9775e-08
4.30763e-08
-3.88241e-08
5.15546e-08
-4.9016e-08
6.00104e-08
-6.03137e-08
6.83243e-08
-7.26729e-08
7.63955e-08
-8.60423e-08
8.41399e-08
-1.00365e-07
9.14877e-08
-1.15577e-07
9.8382e-08
-1.31611e-07
1.04777e-07
-1.48395e-07
1.10635e-07
-1.65854e-07
1.15928e-07
-1.8391e-07
1.20636e-07
-2.02482e-07
1.24743e-07
-2.2149e-07
1.28239e-07
-2.4085e-07
1.3112e-07
-2.60479e-07
1.33385e-07
-2.80296e-07
1.35036e-07
-3.00216e-07
1.36079e-07
-3.20159e-07
1.36523e-07
-3.40044e-07
1.36377e-07
-3.59792e-07
1.35655e-07
-3.79326e-07
1.34371e-07
-3.98569e-07
1.3254e-07
-4.17449e-07
1.3018e-07
-4.35895e-07
1.27309e-07
-4.53839e-07
1.23945e-07
-4.71213e-07
1.2011e-07
-4.87957e-07
1.15823e-07
-5.04009e-07
1.11107e-07
-5.19312e-07
1.05983e-07
-5.33812e-07
1.00473e-07
-5.47459e-07
9.46009e-08
-5.60204e-07
8.83899e-08
-5.72005e-07
8.18638e-08
-5.82818e-07
7.50467e-08
-5.92609e-07
6.79633e-08
-6.01341e-07
6.06385e-08
-6.08986e-07
5.30975e-08
-6.15516e-07
4.53659e-08
-6.20908e-07
3.74697e-08
-6.25143e-07
2.94351e-08
-6.28205e-07
2.12887e-08
-6.30083e-07
1.30575e-08
-6.30768e-07
4.7686e-09
-6.30257e-07
-3.55038e-09
-6.28549e-07
-1.18716e-08
-6.25648e-07
-2.01669e-08
-6.21562e-07
-2.8408e-08
-6.16302e-07
-3.65661e-08
-6.09885e-07
-4.46124e-08
-6.0233e-07
-5.2518e-08
-5.93662e-07
-6.02535e-08
-5.83909e-07
-6.77899e-08
-5.73102e-07