/*--------------------------------*- C++ -*----------------------------------*\
| =========                 |                                                 |
| \\      /  F ield         | OpenFOAM: The Open Source CFD Toolbox           |
|  \\    /   O peration     | Version:  2212                                  |
|   \\  /    A nd           | Website:  www.openfoam.com                      |
|    \\/     M anipulation  |                                                 |
\*---------------------------------------------------------------------------*/
FoamFile
{
    version     2.0;
    format      ascii;
    arch        "LSB;label=32;scalar=64";
    class       volVectorField;
    location    "0.08";
    object      U_0;
}
// * * * * * * * * * * * * * * * * * * * * * * * * * * * * * * * * * * * * * //

dimensions      [0 1 -1 0 0 0 0];

internalField   nonuniform List<vector> 
10000
(
(2.98554e-06 -2.9781e-06 0)
(1.48013e-05 -7.64792e-06 0)
(3.36165e-05 -8.82691e-06 0)
(5.12972e-05 -7.61005e-06 0)
(6.28775e-05 -5.12449e-06 0)
(6.59474e-05 -2.02144e-06 0)
(5.92577e-05 1.33763e-06 0)
(4.22391e-05 4.74645e-06 0)
(1.47734e-05 8.08832e-06 0)
(-2.29679e-05 1.1297e-05 0)
(-7.06271e-05 1.43348e-05 0)
(-0.000127723 1.71792e-05 0)
(-0.000193692 1.98164e-05 0)
(-0.000267916 2.22385e-05 0)
(-0.000349744 2.4443e-05 0)
(-0.000438503 2.64305e-05 0)
(-0.00053351 2.82026e-05 0)
(-0.000634077 2.97622e-05 0)
(-0.000739518 3.1112e-05 0)
(-0.000849157 3.22565e-05 0)
(-0.000962323 3.32014e-05 0)
(-0.00107836 3.39522e-05 0)
(-0.00119663 3.45149e-05 0)
(-0.00131651 3.48956e-05 0)
(-0.00143739 3.51003e-05 0)
(-0.00155868 3.51354e-05 0)
(-0.00167981 3.50071e-05 0)
(-0.00180024 3.47215e-05 0)
(-0.00191942 3.42847e-05 0)
(-0.00203686 3.37028e-05 0)
(-0.00215206 3.29821e-05 0)
(-0.00226456 3.21289e-05 0)
(-0.0023739 3.11499e-05 0)
(-0.00247967 3.00519e-05 0)
(-0.00258145 2.88413e-05 0)
(-0.00267887 2.75242e-05 0)
(-0.00277157 2.61064e-05 0)
(-0.0028592 2.45941e-05 0)
(-0.00294144 2.29935e-05 0)
(-0.00301801 2.13108e-05 0)
(-0.00308862 1.9552e-05 0)
(-0.00315302 1.77235e-05 0)
(-0.00321098 1.58317e-05 0)
(-0.0032623 1.38832e-05 0)
(-0.00330678 1.18845e-05 0)
(-0.00334426 9.84182e-06 0)
(-0.00337461 7.76174e-06 0)
(-0.0033977 5.6512e-06 0)
(-0.00341344 3.51654e-06 0)
(-0.00342176 1.36449e-06 0)
(-0.00342262 -7.97612e-07 0)
(-0.003416 -2.96283e-06 0)
(-0.00340189 -5.12393e-06 0)
(-0.00338033 -7.27306e-06 0)
(-0.00335138 -9.40311e-06 0)
(-0.00331511 -1.15071e-05 0)
(-0.00327164 -1.35771e-05 0)
(-0.0032211 -1.56048e-05 0)
(-0.00316365 -1.75827e-05 0)
(-0.00309948 -1.9503e-05 0)
(-0.0030288 -2.13574e-05 0)
(-0.00295187 -2.31379e-05 0)
(-0.00286895 -2.48365e-05 0)
(-0.00278035 -2.64451e-05 0)
(-0.00268639 -2.79553e-05 0)
(-0.00258742 -2.93595e-05 0)
(-0.00248383 -3.06494e-05 0)
(-0.00237603 -3.18167e-05 0)
(-0.00226446 -3.28534e-05 0)
(-0.00214957 -3.37522e-05 0)
(-0.00203186 -3.45052e-05 0)
(-0.00191185 -3.51048e-05 0)
(-0.00179006 -3.55437e-05 0)
(-0.00166705 -3.58152e-05 0)
(-0.00154342 -3.59127e-05 0)
(-0.00141975 -3.58299e-05 0)
(-0.00129668 -3.55612e-05 0)
(-0.00117484 -3.51014e-05 0)
(-0.00105488 -3.44455e-05 0)
(-0.00093747 -3.35887e-05 0)
(-0.000823283 -3.2527e-05 0)
(-0.000713006 -3.12571e-05 0)
(-0.000607328 -2.97765e-05 0)
(-0.000506943 -2.80832e-05 0)
(-0.000412538 -2.61764e-05 0)
(-0.000324792 -2.40573e-05 0)
(-0.000244372 -2.17282e-05 0)
(-0.00017192 -1.91935e-05 0)
(-0.000108045 -1.64599e-05 0)
(-5.33076e-05 -1.35388e-05 0)
(-8.20166e-06 -1.04484e-05 0)
(2.6874e-05 -7.2168e-06 0)
(5.16571e-05 -3.88743e-06 0)
(6.60853e-05 -5.31861e-07 0)
(7.03977e-05 2.72812e-06 0)
(6.52938e-05 5.68317e-06 0)
(5.21543e-05 7.97105e-06 0)
(3.3503e-05 8.94916e-06 0)
(1.43658e-05 7.53134e-06 0)
(2.76279e-06 2.76314e-06 0)
(7.65611e-06 -1.47981e-05 0)
(3.10217e-05 -3.0997e-05 0)
(6.23418e-05 -3.30925e-05 0)
(8.73792e-05 -2.52399e-05 0)
(9.67061e-05 -1.12577e-05 0)
(8.48689e-05 6.26896e-06 0)
(4.85175e-05 2.5651e-05 0)
(-1.41968e-05 4.57842e-05 0)
(-0.000103997 6.59443e-05 0)
(-0.000220808 8.56541e-05 0)
(-0.000363993 0.000104595 0)
(-0.000532516 0.000122554 0)
(-0.000725059 0.000139384 0)
(-0.000940103 0.000154989 0)
(-0.00117599 0.000169307 0)
(-0.00143098 0.000182302 0)
(-0.00170326 0.000193957 0)
(-0.00199098 0.000204265 0)
(-0.00229229 0.000213233 0)
(-0.00260533 0.000220875 0)
(-0.00292827 0.000227213 0)
(-0.00325928 0.00023227 0)
(-0.00359658 0.000236077 0)
(-0.00393843 0.000238667 0)
(-0.00428311 0.000240072 0)
(-0.00462896 0.000240331 0)
(-0.00497437 0.000239481 0)
(-0.00531779 0.000237559 0)
(-0.0056577 0.000234607 0)
(-0.00599266 0.000230663 0)
(-0.00632126 0.00022577 0)
(-0.00664218 0.000219968 0)
(-0.00695413 0.0002133 0)
(-0.0072559 0.000205809 0)
(-0.00754632 0.000197537 0)
(-0.00782431 0.000188526 0)
(-0.00808881 0.00017882 0)
(-0.00833887 0.000168459 0)
(-0.00857355 0.000157488 0)
(-0.00879202 0.000145949 0)
(-0.00899348 0.000133885 0)
(-0.00917721 0.00012134 0)
(-0.00934253 0.000108358 0)
(-0.00948887 9.49848e-05 0)
(-0.00961567 8.12647e-05 0)
(-0.00972248 6.72434e-05 0)
(-0.0098089 5.29664e-05 0)
(-0.00987459 3.84806e-05 0)
(-0.00991928 2.38332e-05 0)
(-0.00994278 9.07185e-06 0)
(-0.00994497 -5.7547e-06 0)
(-0.00992578 -2.05969e-05 0)
(-0.00988525 -3.54047e-05 0)
(-0.00982345 -5.0127e-05 0)
(-0.00974055 -6.47119e-05 0)
(-0.0096368 -7.9108e-05 0)
(-0.0095125 -9.32625e-05 0)
(-0.00936805 -0.000107121 0)
(-0.00920392 -0.000120631 0)
(-0.00902066 -0.000133737 0)
(-0.00881889 -0.000146385 0)
(-0.00859931 -0.000158519 0)
(-0.00836271 -0.000170084 0)
(-0.00810995 -0.000181025 0)
(-0.00784197 -0.000191289 0)
(-0.0075598 -0.000200821 0)
(-0.00726451 -0.000209566 0)
(-0.00695729 -0.000217472 0)
(-0.00663937 -0.000224485 0)
(-0.00631208 -0.000230556 0)
(-0.00597681 -0.000235633 0)
(-0.00563501 -0.000239669 0)
(-0.0052882 -0.000242619 0)
(-0.00493797 -0.000244438 0)
(-0.00458596 -0.000245085 0)
(-0.00423387 -0.000244522 0)
(-0.00388343 -0.000242715 0)
(-0.00353645 -0.000239633 0)
(-0.00319473 -0.000235248 0)
(-0.00286015 -0.000229538 0)
(-0.00253458 -0.000222485 0)
(-0.0022199 -0.000214077 0)
(-0.00191802 -0.00020431 0)
(-0.00163082 -0.000193187 0)
(-0.00136015 -0.000180721 0)
(-0.00110785 -0.000166941 0)
(-0.000875671 -0.000151886 0)
(-0.000665273 -0.000135617 0)
(-0.0004782 -0.000118221 0)
(-0.00031582 -9.98184e-05 0)
(-0.000179272 -8.05801e-05 0)
(-6.93793e-05 -6.07468e-05 0)
(1.34617e-05 -4.06616e-05 0)
(6.94423e-05 -2.08231e-05 0)
(9.95707e-05 -1.97066e-06 0)
(0.000105986 1.47858e-05 0)
(9.23101e-05 2.77743e-05 0)
(6.42141e-05 3.4472e-05 0)
(3.12337e-05 3.12306e-05 0)
(7.52329e-06 1.43541e-05 0)
(8.85441e-06 -3.36307e-05 0)
(3.32447e-05 -6.23577e-05 0)
(6.11434e-05 -6.08613e-05 0)
(7.55325e-05 -3.79083e-05 0)
(6.50349e-05 -6.35477e-07 0)
(2.25787e-05 4.56343e-05 0)
(-5.65082e-05 9.707e-05 0)
(-0.000175014 0.000150965 0)
(-0.000334212 0.000205415 0)
(-0.000534231 0.000259081 0)
(-0.000774345 0.000311016 0)
(-0.00105319 0.00036055 0)
(-0.00136894 0.000407211 0)
(-0.00171941 0.000450668 0)
(-0.00210216 0.000490696 0)
(-0.00251459 0.000527146 0)
(-0.00295397 0.000559928 0)
(-0.00341748 0.000588998 0)
(-0.00390228 0.000614347 0)
(-0.00440548 0.000635991 0)
(-0.00492422 0.00065397 0)
(-0.00545567 0.000668341 0)
(-0.00599702 0.000679173 0)
(-0.0065455 0.000686547 0)
(-0.00709843 0.000690551 0)
(-0.00765316 0.000691281 0)
(-0.00820715 0.000688838 0)
(-0.00875789 0.000683328 0)
(-0.009303 0.000674861 0)
(-0.00984016 0.000663547 0)
(-0.0103671 0.000649503 0)
(-0.0108818 0.000632844 0)
(-0.011382 0.00061369 0)
(-0.011866 0.00059216 0)
(-0.0123317 0.000568375 0)
(-0.0127775 0.000542457 0)
(-0.0132017 0.000514527 0)
(-0.0136027 0.000484709 0)
(-0.013979 0.000453125 0)
(-0.0143293 0.000419902 0)
(-0.0146524 0.000385164 0)
(-0.0149469 0.000349038 0)
(-0.0152119 0.000311652 0)
(-0.0154464 0.000273137 0)
(-0.0156496 0.00023362 0)
(-0.0158207 0.000193237 0)
(-0.0159591 0.00015212 0)
(-0.0160642 0.000110404 0)
(-0.0161356 6.82269e-05 0)
(-0.016173 2.57273e-05 0)
(-0.0161762 -1.69537e-05 0)
(-0.0161451 -5.96726e-05 0)
(-0.0160798 -0.000102284 0)
(-0.0159804 -0.000144641 0)
(-0.0158472 -0.000186595 0)
(-0.0156805 -0.000227995 0)
(-0.0154809 -0.000268688 0)
(-0.015249 -0.000308522 0)
(-0.0149856 -0.000347341 0)
(-0.0146916 -0.000384988 0)
(-0.014368 -0.000421306 0)
(-0.0140158 -0.000456137 0)
(-0.0136364 -0.000489324 0)
(-0.0132312 -0.000520711 0)
(-0.0128016 -0.000550142 0)
(-0.0123494 -0.000577461 0)
(-0.0118761 -0.000602516 0)
(-0.0113838 -0.000625156 0)
(-0.0108745 -0.000645233 0)
(-0.0103501 -0.000662603 0)
(-0.00981301 -0.000677127 0)
(-0.00926545 -0.000688671 0)
(-0.00870989 -0.000697109 0)
(-0.00814882 -0.000702319 0)
(-0.00758487 -0.000704189 0)
(-0.00702071 -0.000702616 0)
(-0.00645911 -0.000697507 0)
(-0.00590288 -0.000688781 0)
(-0.00535491 -0.00067637 0)
(-0.00481811 -0.000660221 0)
(-0.00429542 -0.000640294 0)
(-0.0037898 -0.000616573 0)
(-0.00330418 -0.000589061 0)
(-0.00284148 -0.000557789 0)
(-0.00240456 -0.000522822 0)
(-0.0019962 -0.000484263 0)
(-0.00161905 -0.000442261 0)
(-0.00127559 -0.000397029 0)
(-0.000968076 -0.000348857 0)
(-0.000698471 -0.000298142 0)
(-0.00046834 -0.000245422 0)
(-0.000278736 -0.000191426 0)
(-0.000130035 -0.000137159 0)
(-2.17318e-05 -8.40042e-05 0)
(4.78452e-05 -3.38919e-05 0)
(8.18799e-05 1.04764e-05 0)
(8.54081e-05 4.53338e-05 0)
(6.57844e-05 6.55179e-05 0)
(3.45927e-05 6.42364e-05 0)
(8.95841e-06 3.3491e-05 0)
(7.70388e-06 -5.14523e-05 0)
(2.57005e-05 -8.76744e-05 0)
(3.88759e-05 -7.53953e-05 0)
(2.98901e-05 -2.86717e-05 0)
(-1.31896e-05 4.18375e-05 0)
(-9.81693e-05 0.000127909 0)
(-0.000230383 0.000223345 0)
(-0.000413134 0.000323563 0)
(-0.000648038 0.000425199 0)
(-0.000935366 0.000525783 0)
(-0.00127434 0.00062351 0)
(-0.00166339 0.000717059 0)
(-0.00210028 0.000805468 0)
(-0.00258235 0.000888044 0)
(-0.00310653 0.000964296 0)
(-0.00366954 0.00103389 0)
(-0.00426786 0.00109659 0)
(-0.00489788 0.00115229 0)
(-0.0055559 0.00120093 0)
(-0.00623816 0.00124251 0)
(-0.0069409 0.00127708 0)
(-0.00766038 0.00130472 0)
(-0.00839289 0.00132556 0)
(-0.00913477 0.00133972 0)
(-0.00988244 0.00134737 0)
(-0.0106324 0.00134869 0)
(-0.0113812 0.00134385 0)
(-0.0121255 0.00133306 0)
(-0.0128621 0.00131651 0)
(-0.0135879 0.00129443 0)
(-0.0142999 0.00126704 0)
(-0.0149952 0.00123454 0)
(-0.0156711 0.00119718 0)
(-0.0163249 0.00115519 0)
(-0.0169541 0.00110878 0)
(-0.0175563 0.00105821 0)
(-0.0181292 0.00100371 0)
(-0.0186709 0.000945523 0)
(-0.0191792 0.000883882 0)
(-0.0196523 0.000819035 0)
(-0.0200885 0.000751229 0)
(-0.0204862 0.000680712 0)
(-0.020844 0.000607734 0)
(-0.0211606 0.00053255 0)
(-0.0214348 0.000455415 0)
(-0.0216657 0.000376589 0)
(-0.0218523 0.000296334 0)
(-0.021994 0.000214916 0)
(-0.0220901 0.000132603 0)
(-0.0221403 4.96693e-05 0)
(-0.0221443 -3.36092e-05 0)
(-0.0221019 -0.000116952 0)
(-0.0220134 -0.000200075 0)
(-0.0218788 -0.000282691 0)
(-0.0216985 -0.000364507 0)
(-0.0214731 -0.000445231 0)
(-0.0212032 -0.000524564 0)
(-0.0208898 -0.000602207 0)
(-0.0205339 -0.000677857 0)
(-0.0201366 -0.00075121 0)
(-0.0196994 -0.00082196 0)
(-0.0192237 -0.000889802 0)
(-0.0187114 -0.00095443 0)
(-0.0181641 -0.00101554 0)
(-0.0175841 -0.00107283 0)
(-0.0169734 -0.001126 0)
(-0.0163346 -0.00117475 0)
(-0.01567 -0.0012188 0)
(-0.0149823 -0.00125786 0)
(-0.0142745 -0.00129166 0)
(-0.0135494 -0.00131993 0)
(-0.0128103 -0.00134242 0)
(-0.0120602 -0.00135887 0)
(-0.0113026 -0.00136908 0)
(-0.0105411 -0.00137282 0)
(-0.00977906 -0.00136991 0)
(-0.00902028 -0.00136018 0)
(-0.0082685 -0.00134347 0)
(-0.00752753 -0.00131967 0)
(-0.00680122 -0.00128869 0)
(-0.00609345 -0.00125048 0)
(-0.00540812 -0.00120502 0)
(-0.00474906 -0.00115235 0)
(-0.0041201 -0.00109254 0)
(-0.00352494 -0.00102577 0)
(-0.00296716 -0.000952258 0)
(-0.00245014 -0.00087234 0)
(-0.00197704 -0.000786469 0)
(-0.00155068 -0.000695256 0)
(-0.00117346 -0.000599513 0)
(-0.000847278 -0.000500316 0)
(-0.000573323 -0.000399093 0)
(-0.000351945 -0.000297742 0)
(-0.00018241 -0.000198802 0)
(-6.26272e-05 -0.000105671 0)
(1.11865e-05 -2.29088e-05 0)
(4.48027e-05 4.34031e-05 0)
(4.63879e-05 8.53008e-05 0)
(2.82232e-05 9.26163e-05 0)
(8.04296e-06 5.22513e-05 0)
(5.32207e-06 -6.33807e-05 0)
(1.21715e-05 -9.76974e-05 0)
(2.57923e-06 -6.5531e-05 0)
(-3.91006e-05 1.41536e-05 0)
(-0.000124295 0.000127293 0)
(-0.000260922 0.000262855 0)
(-0.000454467 0.000412299 0)
(-0.000708379 0.000569113 0)
(-0.00102437 0.000728362 0)
(-0.00140274 0.000886318 0)
(-0.00184262 0.00104017 0)
(-0.00234222 0.00118781 0)
(-0.00289903 0.00132767 0)
(-0.00350993 0.00145858 0)
(-0.0041714 0.0015797 0)
(-0.00487953 0.00169042 0)
(-0.00563021 0.00179035 0)
(-0.00641911 0.00187921 0)
(-0.00724179 0.00195689 0)
(-0.00809375 0.00202334 0)
(-0.00897045 0.0020786 0)
(-0.00986735 0.0021228 0)
(-0.0107799 0.00215607 0)
(-0.0117037 0.00217862 0)
(-0.0126344 0.0021907 0)
(-0.0135676 0.00219255 0)
(-0.0144991 0.00218447 0)
(-0.0154248 0.00216677 0)
(-0.0163409 0.00213977 0)
(-0.0172433 0.0021038 0)
(-0.0181285 0.0020592 0)
(-0.0189929 0.00200635 0)
(-0.019833 0.00194559 0)
(-0.0206456 0.0018773 0)
(-0.0214276 0.00180185 0)
(-0.022176 0.00171963 0)
(-0.022888 0.00163102 0)
(-0.023561 0.00153641 0)
(-0.0241926 0.00143619 0)
(-0.0247804 0.00133076 0)
(-0.0253223 0.00122051 0)
(-0.0258163 0.00110585 0)
(-0.0262607 0.000987202 0)
(-0.0266539 0.000864963 0)
(-0.0269944 0.000739557 0)
(-0.0272809 0.000611406 0)
(-0.0275125 0.000480939 0)
(-0.0276882 0.000348589 0)
(-0.0278073 0.000214796 0)
(-0.0278693 8.00029e-05 0)
(-0.0278739 -5.53377e-05 0)
(-0.0278209 -0.000190769 0)
(-0.0277105 -0.000325829 0)
(-0.027543 -0.00046005 0)
(-0.0273187 -0.000592957 0)
(-0.0270383 -0.000724072 0)
(-0.0267028 -0.000852913 0)
(-0.0263132 -0.000978992 0)
(-0.0258708 -0.00110182 0)
(-0.0253771 -0.0012209 0)
(-0.0248337 -0.00133574 0)
(-0.0242427 -0.00144585 0)
(-0.0236062 -0.00155073 0)
(-0.0229263 -0.00164988 0)
(-0.0222058 -0.00174284 0)
(-0.0214473 -0.0018291 0)
(-0.0206537 -0.0019082 0)
(-0.0198282 -0.00197968 0)
(-0.018974 -0.00204307 0)
(-0.0180948 -0.00209794 0)
(-0.017194 -0.00214386 0)
(-0.0162757 -0.00218044 0)
(-0.0153437 -0.00220728 0)
(-0.0144022 -0.00222404 0)
(-0.0134555 -0.00223037 0)
(-0.012508 -0.00222599 0)
(-0.0115642 -0.00221063 0)
(-0.0106287 -0.00218408 0)
(-0.00970607 -0.00214615 0)
(-0.00880108 -0.00209673 0)
(-0.00791842 -0.00203576 0)
(-0.0070628 -0.00196324 0)
(-0.00623888 -0.00187925 0)
(-0.00545122 -0.00178397 0)
(-0.00470427 -0.0016777 0)
(-0.00400229 -0.00156085 0)
(-0.00334929 -0.00143401 0)
(-0.00274898 -0.00129795 0)
(-0.00220465 -0.00115371 0)
(-0.00171907 -0.00100262 0)
(-0.00129439 -0.000846432 0)
(-0.000931953 -0.000687413 0)
(-0.00063214 -0.000528502 0)
(-0.000394132 -0.000373525 0)
(-0.000215666 -0.000227459 0)
(-9.2748e-05 -9.6778e-05 0)
(-1.93751e-05 1.01366e-05 0)
(1.28218e-05 8.25874e-05 0)
(1.57851e-05 0.000107094 0)
(5.86744e-06 6.57333e-05 0)
(2.3486e-06 -6.70803e-05 0)
(-4.82665e-06 -8.70762e-05 0)
(-4.26117e-05 -2.42817e-05 0)
(-0.000123585 9.8333e-05 0)
(-0.000257864 0.000263654 0)
(-0.000452994 0.000458066 0)
(-0.000714208 0.00067081 0)
(-0.00104478 0.000893491 0)
(-0.00144629 0.00111959 0)
(-0.00191891 0.00134407 0)
(-0.0024616 0.00156304 0)
(-0.00307236 0.00177352 0)
(-0.00374836 0.00197324 0)
(-0.00448613 0.00216047 0)
(-0.00528169 0.00233396 0)
(-0.00613066 0.00249276 0)
(-0.00702835 0.00263622 0)
(-0.00796986 0.00276393 0)
(-0.00895012 0.00287563 0)
(-0.00996394 0.00297123 0)
(-0.0110061 0.00305073 0)
(-0.0120714 0.00311426 0)
(-0.0131545 0.003162 0)
(-0.0142503 0.00319423 0)
(-0.0153538 0.00321125 0)
(-0.0164598 0.00321343 0)
(-0.0175635 0.00320117 0)
(-0.01866 0.00317489 0)
(-0.0197448 0.00313505 0)
(-0.0208134 0.00308214 0)
(-0.0218613 0.00301664 0)
(-0.0228844 0.00293906 0)
(-0.0238787 0.00284994 0)
(-0.0248403 0.0027498 0)
(-0.0257656 0.0026392 0)
(-0.0266511 0.00251868 0)
(-0.0274934 0.0023888 0)
(-0.0282896 0.00225014 0)
(-0.0290367 0.00210326 0)
(-0.0297319 0.00194875 0)
(-0.0303727 0.00178719 0)
(-0.030957 0.00161918 0)
(-0.0314824 0.00144532 0)
(-0.0319472 0.00126621 0)
(-0.0323497 0.00108247 0)
(-0.0326883 0.000894714 0)
(-0.0329619 0.000703577 0)
(-0.0331694 0.000509694 0)
(-0.0333099 0.000313709 0)
(-0.0333829 0.000116276 0)
(-0.033388 -8.19434e-05 0)
(-0.033325 -0.000280279 0)
(-0.0331941 -0.000478054 0)
(-0.0329956 -0.00067458 0)
(-0.0327301 -0.000869165 0)
(-0.0323982 -0.00106111 0)
(-0.0320012 -0.0012497 0)
(-0.0315402 -0.00143424 0)
(-0.0310168 -0.001614 0)
(-0.0304328 -0.00178826 0)
(-0.0297902 -0.0019563 0)
(-0.0290912 -0.0021174 0)
(-0.0283383 -0.00227085 0)
(-0.0275343 -0.00241593 0)
(-0.0266822 -0.00255192 0)
(-0.0257851 -0.00267814 0)
(-0.0248466 -0.00279389 0)
(-0.0238702 -0.00289851 0)
(-0.02286 -0.00299132 0)
(-0.0218199 -0.00307171 0)
(-0.0207543 -0.00313907 0)
(-0.0196677 -0.0031928 0)
(-0.0185648 -0.00323238 0)
(-0.0174504 -0.00325729 0)
(-0.0163294 -0.00326706 0)
(-0.0152072 -0.00326127 0)
(-0.0140888 -0.00323958 0)
(-0.0129796 -0.00320168 0)
(-0.011885 -0.00314733 0)
(-0.0108105 -0.0030764 0)
(-0.00976157 -0.00298881 0)
(-0.00874354 -0.00288462 0)
(-0.00776181 -0.00276399 0)
(-0.00682163 -0.00262721 0)
(-0.00592808 -0.00247476 0)
(-0.00508601 -0.00230729 0)
(-0.00429998 -0.0021257 0)
(-0.00357417 -0.00193117 0)
(-0.00291229 -0.00172522 0)
(-0.00231744 -0.00150982 0)
(-0.00179203 -0.00128747 0)
(-0.0013376 -0.00106137 0)
(-0.000954633 -0.000835579 0)
(-0.000642399 -0.000615275 0)
(-0.000398697 -0.00040703 0)
(-0.000219639 -0.000219192 0)
(-9.9393e-05 -6.23356e-05 0)
(-2.98617e-05 5.02988e-05 0)
(-2.35953e-07 0.000102225 0)
(3.0687e-06 7.15294e-05 0)
(-8.72237e-07 -6.13241e-05 0)
(-2.3698e-05 -5.24497e-05 0)
(-9.31119e-05 5.31134e-05 0)
(-0.000217829 0.000229388 0)
(-0.000406102 0.000456711 0)
(-0.000664723 0.000719196 0)
(-0.000998351 0.00100407 0)
(-0.00140981 0.00130118 0)
(-0.00190035 0.00160247 0)
(-0.00246986 0.0019016 0)
(-0.00311704 0.00219358 0)
(-0.00383959 0.00247451 0)
(-0.00463437 0.00274137 0)
(-0.00549755 0.00299183 0)
(-0.00642476 0.00322414 0)
(-0.00741116 0.00343699 0)
(-0.00845158 0.00362944 0)
(-0.00954057 0.00380085 0)
(-0.0106725 0.00395083 0)
(-0.0118416 0.00407919 0)
(-0.0130421 0.00418589 0)
(-0.0142681 0.00427105 0)
(-0.0155136 0.0043349 0)
(-0.016773 0.00437774 0)
(-0.0180404 0.00439998 0)
(-0.0193102 0.00440208 0)
(-0.0205769 0.00438456 0)
(-0.021835 0.00434798 0)
(-0.0230792 0.00429294 0)
(-0.0243046 0.00422009 0)
(-0.025506 0.00413008 0)
(-0.0266787 0.0040236 0)
(-0.0278183 0.00390136 0)
(-0.0289203 0.00376407 0)
(-0.0299805 0.00361249 0)
(-0.0309949 0.00344736 0)
(-0.0319599 0.00326944 0)
(-0.0328719 0.0030795 0)
(-0.0337275 0.00287834 0)
(-0.0345236 0.00266674 0)
(-0.0352575 0.00244551 0)
(-0.0359264 0.00221545 0)
(-0.036528 0.00197739 0)
(-0.0370601 0.00173217 0)
(-0.0375207 0.00148061 0)
(-0.0379082 0.00122358 0)
(-0.0382212 0.000961932 0)
(-0.0384585 0.000696544 0)
(-0.0386191 0.000428297 0)
(-0.0387024 0.000158087 0)
(-0.0387079 -0.000113179 0)
(-0.0386356 -0.000384585 0)
(-0.0384854 -0.000655202 0)
(-0.0382579 -0.000924091 0)
(-0.0379536 -0.0011903 0)
(-0.0375734 -0.00145288 0)
(-0.0371186 -0.00171086 0)
(-0.0365906 -0.00196327 0)
(-0.0359912 -0.00220913 0)
(-0.0353224 -0.00244747 0)
(-0.0345865 -0.00267729 0)
(-0.0337861 -0.00289761 0)
(-0.032924 -0.00310747 0)
(-0.0320033 -0.00330588 0)
(-0.0310275 -0.0034919 0)
(-0.0300002 -0.00366456 0)
(-0.0289253 -0.00382294 0)
(-0.0278071 -0.00396614 0)
(-0.0266499 -0.00409325 0)
(-0.0254584 -0.00420344 0)
(-0.0242374 -0.00429588 0)
(-0.0229921 -0.0043698 0)
(-0.0217278 -0.00442446 0)
(-0.02045 -0.0044592 0)
(-0.0191643 -0.00447339 0)
(-0.0178765 -0.0044665 0)
(-0.0165924 -0.00443805 0)
(-0.0153183 -0.00438766 0)
(-0.01406 -0.00431506 0)
(-0.0128237 -0.00422006 0)
(-0.0116156 -0.00410263 0)
(-0.0104417 -0.00396287 0)
(-0.00930794 -0.00380104 0)
(-0.00822025 -0.00361759 0)
(-0.00718425 -0.00341322 0)
(-0.00620532 -0.00318886 0)
(-0.00528849 -0.00294576 0)
(-0.00443839 -0.00268558 0)
(-0.00365911 -0.00241039 0)
(-0.00295409 -0.00212283 0)
(-0.00232603 -0.00182624 0)
(-0.00177671 -0.00152478 0)
(-0.00130685 -0.00122368 0)
(-0.000915944 -0.000929449 0)
(-0.000602072 -0.000650213 0)
(-0.00036172 -0.000396093 0)
(-0.000189542 -0.000179673 0)
(-7.8088e-05 -1.64529e-05 0)
(-1.82393e-05 7.45376e-05 0)
(-3.70775e-09 6.83454e-05 0)
(-4.15422e-06 -4.55112e-05 0)
(-4.34431e-05 8.17426e-06 0)
(-0.000146493 0.000169731 0)
(-0.00031777 0.000411078 0)
(-0.000563322 0.000710539 0)
(-0.000888909 0.00105032 0)
(-0.00129836 0.0014159 0)
(-0.00179384 0.0017955 0)
(-0.00237608 0.00217966 0)
(-0.00304454 0.00256078 0)
(-0.00379755 0.00293279 0)
(-0.00463246 0.00329087 0)
(-0.00554577 0.00363123 0)
(-0.00653328 0.0039509 0)
(-0.00759022 0.00424759 0)
(-0.00871133 0.0045196 0)
(-0.00989099 0.00476566 0)
(-0.0111233 0.00498489 0)
(-0.012402 0.00517672 0)
(-0.013721 0.00534085 0)
(-0.0150737 0.00547718 0)
(-0.0164539 0.00558581 0)
(-0.017855 0.00566697 0)
(-0.0192706 0.00572104 0)
(-0.0206945 0.00574851 0)
(-0.0221203 0.00574992 0)
(-0.023542 0.00572593 0)
(-0.0249536 0.00567724 0)
(-0.0263491 0.00560462 0)
(-0.0277231 0.00550887 0)
(-0.0290699 0.00539084 0)
(-0.0303844 0.00525141 0)
(-0.0316614 0.00509147 0)
(-0.032896 0.00491198 0)
(-0.0340837 0.00471388 0)
(-0.03522 0.00449813 0)
(-0.0363007 0.00426574 0)
(-0.037322 0.0040177 0)
(-0.03828 0.00375504 0)
(-0.0391714 0.00347879 0)
(-0.0399929 0.00318998 0)
(-0.0407417 0.00288969 0)
(-0.041415 0.00257898 0)
(-0.0420105 0.00225893 0)
(-0.0425259 0.00193065 0)
(-0.0429595 0.00159525 0)
(-0.0433097 0.00125384 0)
(-0.043575 0.000907579 0)
(-0.0437546 0.000557609 0)
(-0.0438476 0.000205102 0)
(-0.0438536 -0.000148762 0)
(-0.0437724 -0.000502784 0)
(-0.0436041 -0.000855755 0)
(-0.0433493 -0.00120645 0)
(-0.0430085 -0.00155364 0)
(-0.0425829 -0.00189607 0)
(-0.0420737 -0.00223248 0)
(-0.0414827 -0.00256162 0)
(-0.0408117 -0.00288221 0)
(-0.0400631 -0.00319298 0)
(-0.0392393 -0.00349266 0)
(-0.0383433 -0.00377996 0)
(-0.0373783 -0.00405362 0)
(-0.0363476 -0.0043124 0)
(-0.0352552 -0.00455503 0)
(-0.034105 -0.0047803 0)
(-0.0329015 -0.00498701 0)
(-0.0316492 -0.00517398 0)
(-0.030353 -0.00534007 0)
(-0.0290183 -0.0054842 0)
(-0.0276502 -0.0056053 0)
(-0.0262546 -0.00570238 0)
(-0.0248373 -0.00577453 0)
(-0.0234042 -0.00582087 0)
(-0.0219618 -0.00584064 0)
(-0.0205163 -0.00583314 0)
(-0.0190743 -0.00579781 0)
(-0.0176424 -0.00573417 0)
(-0.0162274 -0.0056419 0)
(-0.0148358 -0.00552081 0)
(-0.0134745 -0.00537088 0)
(-0.0121501 -0.00519229 0)
(-0.0108692 -0.00498543 0)
(-0.00963802 -0.00475093 0)
(-0.00846287 -0.00448972 0)
(-0.00734959 -0.00420308 0)
(-0.00630367 -0.00389265 0)
(-0.00533014 -0.00356058 0)
(-0.00443348 -0.00320955 0)
(-0.00361749 -0.00284292 0)
(-0.00288519 -0.00246487 0)
(-0.0022387 -0.00208056 0)
(-0.00167908 -0.00169635 0)
(-0.00120619 -0.00132005 0)
(-0.000818557 -0.000961258 0)
(-0.000513276 -0.000631713 0)
(-0.000285735 -0.00034578 0)
(-0.000129405 -0.000120877 0)
(-3.72078e-05 2.19288e-05 0)
(-3.1566e-06 5.5525e-05 0)
(-7.3998e-06 -1.94363e-05 0)
(-6.34478e-05 9.58038e-05 0)
(-0.000201143 0.000327348 0)
(-0.000420586 0.000645749 0)
(-0.000725445 0.00102783 0)
(-0.00112026 0.00145426 0)
(-0.00160786 0.001909 0)
(-0.00218955 0.0023789 0)
(-0.0028654 0.00285318 0)
(-0.00363433 0.00332309 0)
(-0.00449418 0.00378152 0)
(-0.00544187 0.00422275 0)
(-0.00647351 0.00464222 0)
(-0.0075845 0.00503632 0)
(-0.00876964 0.00540223 0)
(-0.0100233 0.00573779 0)
(-0.0113393 0.00604141 0)
(-0.0127114 0.00631193 0)
(-0.014133 0.00654858 0)
(-0.0155972 0.00675095 0)
(-0.0170973 0.00691884 0)
(-0.0186261 0.00705233 0)
(-0.0201769 0.00715167 0)
(-0.0217426 0.00721727 0)
(-0.0233164 0.0072497 0)
(-0.0248916 0.00724962 0)
(-0.0264614 0.00721781 0)
(-0.0280194 0.00715513 0)
(-0.0295593 0.00706249 0)
(-0.0310748 0.0069409 0)
(-0.03256 0.0067914 0)
(-0.0340091 0.00661506 0)
(-0.0354167 0.00641302 0)
(-0.0367773 0.00618643 0)
(-0.0380859 0.00593649 0)
(-0.0393378 0.00566441 0)
(-0.0405282 0.00537142 0)
(-0.041653 0.00505878 0)
(-0.042708 0.00472777 0)
(-0.0436896 0.00437969 0)
(-0.0445941 0.00401584 0)
(-0.0454184 0.00363756 0)
(-0.0461597 0.0032462 0)
(-0.0468151 0.00284311 0)
(-0.0473825 0.00242969 0)
(-0.0478597 0.00200733 0)
(-0.048245 0.00157744 0)
(-0.0485369 0.00114147 0)
(-0.0487345 0.000700855 0)
(-0.0488367 0.000257074 0)
(-0.0488432 -0.000188387 0)
(-0.0487537 -0.000634024 0)
(-0.0485685 -0.00107832 0)
(-0.0482879 -0.00151972 0)
(-0.0479128 -0.0019567 0)
(-0.0474443 -0.00238767 0)
(-0.0468839 -0.00281106 0)
(-0.0462333 -0.00322529 0)
(-0.0454948 -0.00362877 0)
(-0.0446707 -0.00401989 0)
(-0.043764 -0.00439706 0)
(-0.0427777 -0.00475868 0)
(-0.0417152 -0.00510319 0)
(-0.0405805 -0.00542899 0)
(-0.0393777 -0.00573454 0)
(-0.0381111 -0.00601831 0)
(-0.0367856 -0.00627881 0)
(-0.0354061 -0.00651457 0)
(-0.0339782 -0.00672417 0)
(-0.0325073 -0.00690627 0)
(-0.0309994 -0.00705955 0)
(-0.0294606 -0.0071828 0)
(-0.0278974 -0.00727487 0)
(-0.0263162 -0.00733471 0)
(-0.024724 -0.00736136 0)
(-0.0231276 -0.00735401 0)
(-0.0215341 -0.00731195 0)
(-0.0199507 -0.00723464 0)
(-0.0183847 -0.0071217 0)
(-0.0168433 -0.00697294 0)
(-0.0153338 -0.00678838 0)
(-0.0138633 -0.00656829 0)
(-0.0124389 -0.00631318 0)
(-0.0110676 -0.00602391 0)
(-0.00975596 -0.00570168 0)
(-0.00851031 -0.00534809 0)
(-0.00733659 -0.00496525 0)
(-0.00624026 -0.0045558 0)
(-0.00522618 -0.00412306 0)
(-0.00429857 -0.00367113 0)
(-0.00346081 -0.00320503 0)
(-0.00271544 -0.0027309 0)
(-0.00206394 -0.0022562 0)
(-0.00150668 -0.00178997 0)
(-0.00104281 -0.00134313 0)
(-0.000670184 -0.000928894 0)
(-0.000385108 -0.000563144 0)
(-0.000182167 -0.000264876 0)
(-5.65077e-05 -5.67057e-05 0)
(-6.28631e-06 3.28195e-05 0)
(-1.05594e-05 1.68715e-05 0)
(-8.33408e-05 0.000210795 0)
(-0.000256008 0.000526815 0)
(-0.000524351 0.000934696 0)
(-0.000889596 0.00141019 0)
(-0.00135496 0.00193277 0)
(-0.00192213 0.00248517 0)
(-0.00259144 0.00305304 0)
(-0.00336218 0.00362445 0)
(-0.00423259 0.00418957 0)
(-0.00519996 0.00474036 0)
(-0.00626071 0.00527023 0)
(-0.00741046 0.00577387 0)
(-0.0086442 0.00624705 0)
(-0.0099563 0.0066864 0)
(-0.0113407 0.00708932 0)
(-0.0127908 0.00745386 0)
(-0.0142999 0.00777859 0)
(-0.015861 0.00806253 0)
(-0.0174667 0.00830512 0)
(-0.0191097 0.00850608 0)
(-0.0207827 0.00866544 0)
(-0.0224782 0.00878346 0)
(-0.0241887 0.00886061 0)
(-0.025907 0.0088975 0)
(-0.0276257 0.00889494 0)
(-0.0293378 0.0088538 0)
(-0.0310363 0.00877512 0)
(-0.0327143 0.00866 0)
(-0.0343653 0.00850961 0)
(-0.0359827 0.00832521 0)
(-0.0375605 0.0081081 0)
(-0.0390926 0.00785965 0)
(-0.0405733 0.00758125 0)
(-0.0419972 0.00727435 0)
(-0.043359 0.00694042 0)
(-0.0446539 0.00658096 0)
(-0.0458771 0.00619751 0)
(-0.0470244 0.00579162 0)
(-0.0480917 0.00536488 0)
(-0.0490751 0.00491888 0)
(-0.0499713 0.00445526 0)
(-0.050777 0.00397565 0)
(-0.0514894 0.00348174 0)
(-0.0521061 0.0029752 0)
(-0.0526247 0.00245775 0)
(-0.0530435 0.00193113 0)
(-0.0533608 0.00139708 0)
(-0.0535755 0.000857385 0)
(-0.0536866 0.000313841 0)
(-0.0536937 -0.000231733 0)
(-0.0535966 -0.000777498 0)
(-0.0533953 -0.00132159 0)
(-0.0530905 -0.00186214 0)
(-0.052683 -0.00239724 0)
(-0.052174 -0.00292499 0)
(-0.0515651 -0.00344346 0)
(-0.0508582 -0.00395071 0)
(-0.0500557 -0.00444481 0)
(-0.0491602 -0.0049238 0)
(-0.0481748 -0.00538574 0)
(-0.0471028 -0.0058287 0)
(-0.045948 -0.00625075 0)
(-0.0447144 -0.00664997 0)
(-0.0434066 -0.00702448 0)
(-0.0420294 -0.00737242 0)
(-0.0405877 -0.00769198 0)
(-0.0390872 -0.0079814 0)
(-0.0375335 -0.00823895 0)
(-0.0359327 -0.008463 0)
(-0.0342912 -0.00865197 0)
(-0.0326155 -0.00880441 0)
(-0.0309125 -0.00891892 0)
(-0.0291893 -0.00899426 0)
(-0.0274532 -0.00902929 0)
(-0.0257116 -0.00902304 0)
(-0.0239721 -0.00897469 0)
(-0.0222424 -0.00888361 0)
(-0.0205303 -0.00874937 0)
(-0.0188434 -0.00857179 0)
(-0.0171897 -0.00835092 0)
(-0.0155768 -0.00808714 0)
(-0.0140122 -0.00778111 0)
(-0.0125033 -0.00743392 0)
(-0.0110572 -0.00704705 0)
(-0.00968076 -0.00662247 0)
(-0.00838025 -0.00616272 0)
(-0.00716159 -0.005671 0)
(-0.00603007 -0.00515125 0)
(-0.00499033 -0.0046083 0)
(-0.00404622 -0.004048 0)
(-0.00320072 -0.00347743 0)
(-0.00245588 -0.0029051 0)
(-0.00181267 -0.00234116 0)
(-0.00127097 -0.00179777 0)
(-0.000829521 -0.00128939 0)
(-0.000485696 -0.000833187 0)
(-0.000235293 -0.000449409 0)
(-7.57521e-05 -0.000161801 0)
(-9.33962e-06 2.2469e-07 0)
(-1.36103e-05 6.325e-05 0)
(-0.000102905 0.000353081 0)
(-0.000310422 0.000768345 0)
(-0.000627784 0.00127844 0)
(-0.0010538 0.00185841 0)
(-0.00159031 0.00248683 0)
(-0.00223778 0.00314547 0)
(-0.0029955 0.00381894 0)
(-0.00386185 0.00449433 0)
(-0.00483434 0.00516088 0)
(-0.0059096 0.00580965 0)
(-0.00708349 0.00643327 0)
(-0.00835111 0.00702573 0)
(-0.00970696 0.00758218 0)
(-0.011145 0.00809872 0)
(-0.0126586 0.00857234 0)
(-0.0142409 0.00900069 0)
(-0.0158847 0.00938209 0)
(-0.0175825 0.00971535 0)
(-0.0193265 0.00999973 0)
(-0.0211091 0.0102349 0)
(-0.0229223 0.0104208 0)
(-0.0247583 0.0105577 0)
(-0.0266092 0.0106461 0)
(-0.0284672 0.0106867 0)
(-0.0303247 0.0106805 0)
(-0.032174 0.0106284 0)
(-0.0340078 0.0105316 0)
(-0.0358187 0.0103915 0)
(-0.0375998 0.0102093 0)
(-0.0393442 0.00998661 0)
(-0.0410453 0.00972492 0)
(-0.0426967 0.00942585 0)
(-0.0442924 0.00909104 0)
(-0.0458266 0.00872222 0)
(-0.0472936 0.00832113 0)
(-0.0486883 0.00788956 0)
(-0.0500056 0.00742933 0)
(-0.051241 0.00694231 0)
(-0.0523901 0.00643038 0)
(-0.0534488 0.00589544 0)
(-0.0544135 0.00533946 0)
(-0.0552808 0.00476439 0)
(-0.0560477 0.00417222 0)
(-0.0567114 0.00356499 0)
(-0.0572697 0.00294474 0)
(-0.0577204 0.00231353 0)
(-0.058062 0.00167347 0)
(-0.0582932 0.00102668 0)
(-0.058413 0.000375315 0)
(-0.0584208 -0.000278454 0)
(-0.0583165 -0.000932427 0)
(-0.0581002 -0.00158438 0)
(-0.0577726 -0.00223207 0)
(-0.0573344 -0.00287324 0)
(-0.056787 -0.00350559 0)
(-0.0561321 -0.00412684 0)
(-0.0553718 -0.00473467 0)
(-0.0545085 -0.00532677 0)
(-0.0535452 -0.00590081 0)
(-0.0524849 -0.00645449 0)
(-0.0513314 -0.00698549 0)
(-0.0500886 -0.00749152 0)
(-0.0487608 -0.00797031 0)
(-0.047353 -0.00841961 0)