/*--------------------------------*- C++ -*----------------------------------*\
| =========                 |                                                 |
| \\      /  F ield         | OpenFOAM: The Open Source CFD Toolbox           |
|  \\    /   O peration     | Version:  2212                                  |
|   \\  /    A nd           | Website:  www.openfoam.com                      |
|    \\/     M anipulation  |                                                 |
\*---------------------------------------------------------------------------*/
FoamFile
{
    version     2.0;
    format      ascii;
    arch        "LSB;label=32;scalar=64";
    class       surfaceScalarField;
    location    "0.0975";
    object      phi;
}
// * * * * * * * * * * * * * * * * * * * * * * * * * * * * * * * * * * * * * //

dimensions      [0 3 -1 0 0 0 0];

oriented        oriented;

internalField   nonuniform List<scalar> 
19800
(
7.09597e-11
-7.0892e-11
2.41768e-10
-1.70805e-10
4.32544e-10
-1.90793e-10
5.82514e-10
-1.49967e-10
6.58198e-10
-7.56954e-11
6.40985e-10
1.72101e-11
5.21568e-10
1.19413e-10
2.96499e-10
2.25064e-10
-3.39291e-11
3.30423e-10
-4.67033e-10
4.33108e-10
-9.98574e-10
5.31547e-10
-1.62326e-09
6.24679e-10
-2.33506e-09
7.11819e-10
-3.12757e-09
7.92504e-10
-3.99402e-09
8.66454e-10
-4.92752e-09
9.33506e-10
-5.92112e-09
9.93596e-10
-6.96784e-09
1.04671e-09
-8.06075e-09
1.09291e-09
-9.193e-09
1.13226e-09
-1.03579e-08
1.16487e-09
-1.15488e-08
1.19091e-09
-1.27593e-08
1.21051e-09
-1.39831e-08
1.22383e-09
-1.52142e-08
1.23108e-09
-1.64466e-08
1.23243e-09
-1.76747e-08
1.22806e-09
-1.88929e-08
1.21819e-09
-2.00959e-08
1.20304e-09
-2.12787e-08
1.18282e-09
-2.24364e-08
1.15771e-09
-2.35644e-08
1.12794e-09
-2.46581e-08
1.09373e-09
-2.57134e-08
1.0553e-09
-2.67263e-08
1.01285e-09
-2.76929e-08
9.66603e-10
-2.86097e-08
9.16794e-10
-2.94733e-08
8.63639e-10
-3.02807e-08
8.07341e-10
-3.10288e-08
7.48121e-10
-3.1715e-08
6.86217e-10
-3.23369e-08
6.2185e-10
-3.28921e-08
5.55247e-10
-3.33787e-08
4.86627e-10
-3.37949e-08
4.16221e-10
-3.41392e-08
3.44276e-10
-3.44102e-08
2.71027e-10
-3.46069e-08
1.96706e-10
-3.47285e-08
1.2156e-10
-3.47743e-08
4.58325e-11
-3.47441e-08
-3.02337e-11
-3.46377e-08
-1.06381e-10
-3.44554e-08
-1.8235e-10
-3.41975e-08
-2.57887e-10
-3.38647e-08
-3.32723e-10
-3.34582e-08
-4.06582e-10
-3.29789e-08
-4.79201e-10
-3.24286e-08
-5.50307e-10
-3.1809e-08
-6.19606e-10
-3.11222e-08
-6.86817e-10
-3.03705e-08
-7.51669e-10
-2.95567e-08
-8.13876e-10
-2.86835e-08
-8.73156e-10
-2.77543e-08
-9.29233e-10
-2.67724e-08
-9.81829e-10
-2.57418e-08
-1.03066e-09
-2.46664e-08
-1.07543e-09
-2.35505e-08
-1.11589e-09
-2.23987e-08
-1.15176e-09
-2.12159e-08
-1.18278e-09
-2.00072e-08
-1.20869e-09
-1.8778e-08
-1.22926e-09
-1.75337e-08
-1.24426e-09
-1.62802e-08
-1.25346e-09
-1.50236e-08
-1.25663e-09
-1.377e-08
-1.25358e-09
-1.25259e-08
-1.24413e-09
-1.12978e-08
-1.22812e-09
-1.00924e-08
-1.20541e-09
-8.9165e-09
-1.17588e-09
-7.77706e-09
-1.13944e-09
-6.68104e-09
-1.09603e-09
-5.63544e-09
-1.0456e-09
-4.64725e-09
-9.88181e-10
-3.72342e-09
-9.2383e-10
-2.87075e-09
-8.52666e-10
-2.09586e-09
-7.74879e-10
-1.40509e-09
-6.9076e-10
-8.04355e-10
-6.00726e-10
-2.98986e-10
-5.05364e-10
1.06518e-10
-4.05503e-10
4.08842e-10
-3.02324e-10
6.06375e-10
-1.97531e-10
7.00021e-10
-9.36471e-11
6.94498e-10
5.51689e-12
6.00426e-10
9.4063e-11
4.37578e-10
1.62839e-10
2.40425e-10
1.97147e-10
6.74515e-11
1.72972e-10
6.74507e-11
1.7516e-10
-2.46049e-10
4.77967e-10
-4.73585e-10
7.67883e-10
-4.80697e-10
9.43601e-10
-3.25681e-10
9.33259e-10
-6.53315e-11
6.90999e-10
2.59451e-10
1.90126e-10
6.20313e-10
-5.82462e-10
9.9764e-10
-1.63006e-09
1.37802e-09
-2.94912e-09
1.75217e-09
-4.53117e-09
2.11359e-09
-6.36429e-09
2.45779e-09
-8.43409e-09
2.78161e-09
-1.07245e-08
3.08285e-09
-1.32181e-08
3.36008e-09
-1.58969e-08
3.61233e-09
-1.87423e-08
3.83905e-09
-2.17356e-08
4.04e-09
-2.48579e-08
4.21517e-09
-2.80903e-08
4.3647e-09
-3.14143e-08
4.4889e-09
-3.48116e-08
4.58818e-09
-3.82641e-08
4.66304e-09
-4.17544e-08
4.71405e-09
-4.52651e-08
4.74183e-09
-4.87798e-08
4.74707e-09
-5.22822e-08
4.73045e-09
-5.57567e-08
4.69272e-09
-5.91883e-08
4.63464e-09
-6.25624e-08
4.55697e-09
-6.58653e-08
4.46052e-09
-6.90835e-08
4.34611e-09
-7.22043e-08
4.21454e-09
-7.52156e-08
4.06662e-09
-7.81059e-08
3.90319e-09
-8.08644e-08
3.72509e-09
-8.34808e-08
3.53317e-09
-8.59454e-08
3.32826e-09
-8.82493e-08
3.11121e-09
-9.0384e-08
2.88288e-09
-9.2342e-08
2.64414e-09
-9.4116e-08
2.39586e-09
-9.56997e-08
2.13892e-09
-9.70873e-08
1.87421e-09
-9.82737e-08
1.60264e-09
-9.92545e-08
1.3251e-09
-1.00026e-07
1.04253e-09
-1.00585e-07
7.55847e-10
-1.0093e-07
4.65999e-10
-1.01058e-07
1.73946e-10
-1.00969e-07
-1.19344e-10
-1.00662e-07
-4.12901e-10
-1.00139e-07
-7.05719e-10
-9.93998e-08
-9.9678e-10
-9.84474e-08
-1.28507e-09
-9.72844e-08
-1.56955e-09
-9.59145e-08
-1.84916e-09
-9.43419e-08
-2.12282e-09
-9.25721e-08
-2.38948e-09
-9.06108e-08
-2.64804e-09
-8.84651e-08
-2.89744e-09
-8.61423e-08
-3.13659e-09
-8.36511e-08
-3.36442e-09
-8.10005e-08
-3.57984e-09
-7.82005e-08
-3.78176e-09
-7.5262e-08
-3.96914e-09
-7.21966e-08
-4.14092e-09
-6.90164e-08
-4.29605e-09
-6.57346e-08
-4.43352e-09
-6.23651e-08
-4.55235e-09
-5.89222e-08
-4.65159e-09
-5.54212e-08
-4.73031e-09
-5.18778e-08
-4.78764e-09
-4.83085e-08
-4.82275e-09
-4.47302e-08
-4.83487e-09
-4.11605e-08
-4.82328e-09
-3.76173e-08
-4.78732e-09
-3.4119e-08
-4.72644e-09
-3.06843e-08
-4.64015e-09
-2.73321e-08
-4.52808e-09
-2.40815e-08
-4.38996e-09
-2.09519e-08
-4.22564e-09
-1.79624e-08
-4.03515e-09
-1.51319e-08
-3.81866e-09
-1.24791e-08
-3.57658e-09
-1.00222e-08
-3.30957e-09
-7.7785e-09
-3.0186e-09
-5.76417e-09
-2.70509e-09
-3.99396e-09
-2.37095e-09
-2.4805e-09
-2.01883e-09
-1.23368e-09
-1.65233e-09
-2.59589e-10
-1.27641e-09
4.40841e-10
-8.97954e-10
8.73771e-10
-5.26566e-10
1.05519e-09
-1.75886e-10
1.01468e-09
1.34581e-10
8.00528e-10
3.76993e-10
4.8573e-10
5.11944e-10
1.72869e-10
4.8583e-10
2.40319e-10
1.91274e-10
-4.37341e-10
4.84492e-10
-7.66793e-10
7.03304e-10
-6.99519e-10
7.24778e-10
-3.47146e-10
4.59228e-10
2.00204e-10
-1.54536e-10
8.7323e-10
-1.15488e-09
1.62065e-09
-2.56245e-09
2.40522e-09
-4.38445e-09
3.20004e-09
-6.61796e-09
3.98566e-09
-9.25238e-09
4.74803e-09
-1.22716e-08
5.47699e-09
-1.56551e-08
6.16519e-09
-1.93797e-08
6.80742e-09
-2.34196e-08
7.40002e-09
-2.77478e-08
7.94049e-09
-3.23361e-08
8.42728e-09
-3.71556e-08
8.85951e-09
-4.21772e-08
9.23683e-09
-4.73719e-08
9.55934e-09
-5.27105e-08
9.82751e-09
-5.81643e-08
1.0042e-08
-6.37051e-08
1.02038e-08
-6.9305e-08
1.0314e-08
-7.4937e-08
1.03738e-08
-8.05746e-08
1.03846e-08
-8.61921e-08
1.03479e-08
-9.17646e-08
1.02653e-08
-9.72682e-08
1.01382e-08
-1.0268e-07
9.96838e-09
-1.07977e-07
9.75753e-09
-1.13138e-07
9.50737e-09
-1.18143e-07
9.21965e-09
-1.22972e-07
8.89615e-09
-1.27608e-07
8.53868e-09
-1.32032e-07
8.14905e-09
-1.36228e-07
7.72911e-09
-1.4018e-07
7.28069e-09
-1.43875e-07
6.80568e-09
-1.47298e-07
6.30594e-09
-1.50437e-07
5.78337e-09
-1.53281e-07
5.23989e-09
-1.5582e-07
4.67743e-09
-1.58043e-07
4.09797e-09
-1.59944e-07
3.50347e-09
-1.61515e-07
2.89593e-09
-1.6275e-07
2.27738e-09
-1.63644e-07
1.64988e-09
-1.64193e-07
1.0155e-09
-1.64396e-07
3.76339e-10
-1.6425e-07
-2.65464e-10
-1.63755e-07
-9.07743e-10
-1.62912e-07
-1.54831e-09
-1.61724e-07
-2.18495e-09
-1.60194e-07
-2.8154e-09
-1.58326e-07
-3.4374e-09
-1.56126e-07
-4.04864e-09
-1.53602e-07
-4.64679e-09
-1.50762e-07
-5.2295e-09
-1.47616e-07
-5.79443e-09
-1.44174e-07
-6.33923e-09
-1.40449e-07
-6.86154e-09
-1.36455e-07
-7.359e-09
-1.32205e-07
-7.82925e-09
-1.27717e-07
-8.26997e-09
-1.23007e-07
-8.67885e-09
-1.18095e-07
-9.05359e-09
-1.12999e-07
-9.39198e-09
-1.0774e-07
-9.69182e-09
-1.02342e-07
-9.951e-09
-9.68259e-08
-1.01675e-08
-9.1217e-08
-1.03392e-08
-8.55401e-08
-1.04645e-08
-7.98215e-08
-1.05414e-08
-7.40879e-08
-1.05684e-08
-6.83672e-08
-1.0544e-08
-6.26876e-08
-1.04669e-08
-5.70782e-08
-1.03358e-08
-5.15684e-08
-1.015e-08
-4.61879e-08
-9.90859e-09
-4.09666e-08
-9.61122e-09
-3.59345e-08
-9.25774e-09
-3.11213e-08
-8.84835e-09
-2.65563e-08
-8.38369e-09
-2.2268e-08
-7.86489e-09
-1.82838e-08
-7.29366e-09
-1.46299e-08
-6.6725e-09
-1.13302e-08
-6.0048e-09
-8.40599e-09
-5.29518e-09
-5.87503e-09
-4.54978e-09
-3.75051e-09
-3.77686e-09
-2.03951e-09
-2.98741e-09
-7.41226e-10
-2.19624e-09
1.55545e-10
-1.42334e-09
6.75533e-10
-6.95883e-10
8.60975e-10
-5.08675e-11
7.76432e-10
4.61536e-10
5.13876e-10
7.74501e-10
1.97611e-10
8.02098e-10
4.3793e-10
1.52159e-10
-5.89497e-10
3.334e-10
-9.48037e-10
3.58877e-10
-7.24991e-10
9.6812e-11
-8.5083e-11
-5.49697e-10
8.46713e-10
-1.64881e-09
1.97234e-09
-3.24486e-09
3.21671e-09
-5.36294e-09
4.5233e-09
-8.01275e-09
5.84982e-09
-1.11918e-08
7.16472e-09
-1.48882e-08
8.44447e-09
-1.90828e-08
9.67155e-09
-2.37507e-08
1.08331e-08
-2.88628e-08
1.19195e-08
-3.43868e-08
1.29241e-08
-4.02883e-08
1.3842e-08
-4.6531e-08
1.467e-08
-5.30777e-08
1.54062e-08
-5.98904e-08
1.60496e-08
-6.6931e-08
1.66e-08
-7.41613e-08
1.70578e-08
-8.15434e-08
1.74241e-08
-8.90398e-08
1.77002e-08
-9.66137e-08
1.78878e-08
-1.04229e-07
1.79889e-08
-1.1185e-07
1.80058e-08
-1.19443e-07
1.79407e-08
-1.26974e-07
1.77964e-08
-1.34411e-07
1.75754e-08
-1.41723e-07
1.72805e-08
-1.4888e-07
1.69146e-08
-1.55854e-07
1.64807e-08
-1.62616e-07
1.59818e-08
-1.6914e-07
1.54208e-08
-1.75403e-07
1.48009e-08
-1.81379e-07
1.41253e-08
-1.87047e-07
1.33971e-08
-1.92385e-07
1.26194e-08
-1.97375e-07
1.17956e-08
-2.01998e-07
1.09289e-08
-2.06238e-07
1.00226e-08
-2.10078e-07
9.08007e-09
-2.13505e-07
8.10461e-09
-2.16507e-07
7.09964e-09
-2.19072e-07
6.06862e-09
-2.21191e-07
5.01503e-09
-2.22856e-07
3.9424e-09
-2.2406e-07
2.85429e-09
-2.24799e-07
1.75433e-09
-2.25069e-07
6.46193e-10
-2.24868e-07
-4.66432e-10
-2.24196e-07
-1.57977e-09
-2.23054e-07
-2.69001e-09
-2.21446e-07
-3.79328e-09
-2.19376e-07
-4.88571e-09
-2.1685e-07
-5.96332e-09
-2.13876e-07
-7.02213e-09
-2.10465e-07
-8.05813e-09
-2.06627e-07
-9.06727e-09
-2.02376e-07
-1.00455e-08
-1.97727e-07
-1.09887e-08
-1.92695e-07
-1.18929e-08
-1.87301e-07
-1.27539e-08
-1.81562e-07
-1.35677e-08
-1.75502e-07
-1.43303e-08
-1.69143e-07
-1.50378e-08
-1.6251e-07
-1.56862e-08
-1.5563e-07
-1.62717e-08
-1.48532e-07
-1.67906e-08
-1.41244e-07
-1.72392e-08
-1.33797e-07
-1.7614e-08
-1.26224e-07
-1.79119e-08
-1.18559e-07
-1.81295e-08
-1.10837e-07
-1.82639e-08
-1.03093e-07
-1.83124e-08
-9.53643e-08
-1.82727e-08
-8.76888e-08
-1.81424e-08
-8.01049e-08
-1.79197e-08
-7.26516e-08
-1.76033e-08
-6.53682e-08
-1.7192e-08
-5.82941e-08
-1.66853e-08
-5.14686e-08
-1.60832e-08
-4.49306e-08
-1.53864e-08
-3.87181e-08
-1.45962e-08
-3.28681e-08
-1.37149e-08
-2.74159e-08
-1.27459e-08
-2.23946e-08
-1.16938e-08
-1.78344e-08
-1.0565e-08
-1.37617e-08
-9.36786e-09
-1.01982e-08
-8.11333e-09
-7.15922e-09
-6.81579e-09
-4.65256e-09
-5.49407e-09
-2.67601e-09
-4.17279e-09
-1.21501e-09
-2.88433e-09
-2.39601e-10
-1.6713e-09
2.99265e-10
-5.89739e-10
4.7392e-10
2.86877e-10
3.84537e-10
8.63886e-10
1.6502e-10
1.02162e-09
6.02952e-10
8.01964e-11
-6.69693e-10
7.98951e-11
-9.47711e-10
-1.76298e-10
-4.68812e-10
-8.17535e-10
5.56158e-10
-1.94016e-09
1.96933e-09
-3.6131e-09
3.64527e-09
-5.88212e-09
5.48574e-09
-8.7736e-09
7.41479e-09
-1.22979e-08
9.37413e-09
-1.64522e-08
1.13191e-08
-2.12233e-08
1.32155e-08
-2.65891e-08
1.50374e-08
-3.25213e-08
1.67652e-08
-3.89861e-08
1.83843e-08
-4.59457e-08
1.98838e-08
-5.33595e-08
2.12558e-08
-6.11845e-08
2.2495e-08
-6.93763e-08
2.35979e-08
-7.78892e-08
2.45625e-08
-8.66773e-08
2.53881e-08
-9.56944e-08
2.60749e-08
-1.04894e-07
2.66242e-08
-1.14232e-07
2.70376e-08
-1.23662e-07
2.73175e-08
-1.33139e-07
2.74666e-08
-1.42622e-07
2.74882e-08
-1.52067e-07
2.73857e-08
-1.61433e-07
2.71629e-08
-1.70682e-07
2.68236e-08
-1.79773e-07
2.63721e-08
-1.88671e-07
2.58125e-08
-1.9734e-07
2.51494e-08
-2.05745e-07
2.43871e-08
-2.13855e-07
2.35304e-08
-2.21638e-07
2.25839e-08
-2.29065e-07
2.15523e-08
-2.36108e-07
2.04404e-08
-2.42742e-07
1.92532e-08
-2.48942e-07
1.79956e-08
-2.54685e-07
1.66724e-08
-2.59951e-07
1.52889e-08
-2.64721e-07
1.385e-08
-2.68978e-07
1.23609e-08
-2.72705e-07
1.08269e-08
-2.75889e-07
9.25315e-09
-2.78519e-07
7.64501e-09
-2.80585e-07
6.00791e-09
-2.82078e-07
4.3473e-09
-2.82992e-07
2.6687e-09
-2.83324e-07
9.77744e-10
-2.8307e-07
-7.19895e-10
-2.82232e-07
-2.41847e-09
-2.8081e-07
-4.11215e-09
-2.78808e-07
-5.79505e-09
-2.76232e-07
-7.4612e-09
-2.73091e-07
-9.10459e-09
-2.69394e-07
-1.07191e-08
-2.65153e-07
-1.22987e-08
-2.60383e-07
-1.38372e-08
-2.55101e-07
-1.53284e-08
-2.49323e-07
-1.67661e-08
-2.43072e-07
-1.81441e-08
-2.36369e-07
-1.94563e-08
-2.29241e-07
-2.06966e-08
-2.21712e-07
-2.18587e-08
-2.13813e-07
-2.29369e-08
-2.05574e-07
-2.39251e-08
-1.97028e-07
-2.48176e-08
-1.8821e-07
-2.56087e-08
-1.79156e-07
-2.62931e-08
-1.69905e-07
-2.68656e-08
-1.60495e-07
-2.7321e-08
-1.5097e-07
-2.76549e-08
-1.41371e-07
-2.78627e-08
-1.31743e-07
-2.79405e-08
-1.22131e-07
-2.78847e-08
-1.12581e-07
-2.76923e-08
-1.0314e-07
-2.73605e-08
-9.38562e-08
-2.68874e-08
-8.47764e-08
-2.62717e-08
-7.5949e-08
-2.55128e-08
-6.74212e-08
-2.4611e-08
-5.924e-08
-2.35676e-08
-5.1451e-08
-2.23851e-08
-4.40984e-08
-2.10675e-08
-3.72241e-08
-1.96202e-08
-3.08671e-08
-1.80508e-08
-2.50628e-08
-1.63693e-08
-1.98418e-08
-1.45888e-08
-1.5229e-08
-1.27261e-08
-1.12418e-08
-1.08029e-08
-7.88888e-09
-8.84702e-09
-5.16763e-09
-6.89403e-09
-3.06221e-09
-4.98975e-09
-1.54062e-09
-3.19288e-09
-5.5164e-10
-1.57872e-09
-2.1231e-11
-2.43529e-10
1.5141e-10
6.91246e-10
9.91856e-11
1.07385e-09
7.02138e-10
-9.77216e-12
-6.59925e-10
-2.36972e-10
-7.20527e-10
-8.36107e-10
1.30332e-10
-1.92545e-09
1.64551e-09
-3.5947e-09
3.63856e-09
-5.9088e-09
5.95938e-09
-8.91123e-09
8.48814e-09
-1.26269e-08
1.11304e-08
-1.70648e-08
1.38121e-08
-2.22207e-08
1.6475e-08
-2.80793e-08
1.9074e-08
-3.4616e-08
2.15741e-08
-4.17989e-08
2.39482e-08
-4.95903e-08
2.61757e-08
-5.79477e-08
2.82411e-08
-6.6825e-08
3.01331e-08
-7.61734e-08
3.18434e-08
-8.59423e-08
3.33667e-08
-9.60794e-08
3.46996e-08
-1.06532e-07
3.58407e-08
-1.17247e-07
3.67897e-08
-1.2817e-07
3.75479e-08
-1.3925e-07
3.81173e-08
-1.50433e-07
3.85008e-08
-1.61669e-07
3.87021e-08
-1.72906e-07
3.87254e-08
-1.84095e-07
3.85752e-08
-1.95189e-07
3.82566e-08
-2.0614e-07
3.77749e-08
-2.16904e-07
3.7136e-08
-2.27437e-07
3.63455e-08
-2.37697e-07
3.54096e-08
-2.47645e-07
3.43346e-08
-2.57241e-07
3.31268e-08
-2.6645e-07
3.17928e-08
-2.75237e-07
3.03392e-08
-2.8357e-07
2.87728e-08
-2.91417e-07
2.71004e-08
-2.9875e-07
2.53289e-08
-3.05543e-07
2.34652e-08
-3.11771e-07
2.15166e-08
-3.17411e-07
1.94902e-08
-3.22443e-07
1.73932e-08
-3.26849e-07
1.52329e-08
-3.30613e-07
1.30169e-08
-3.3372e-07
1.07526e-08
-3.3616e-07
8.4476e-09
-3.37923e-07
6.10967e-09
-3.39e-07
3.74659e-09
-3.39389e-07
1.36627e-09
-3.39086e-07
-1.02327e-09
-3.3809e-07
-3.41393e-09
-3.36405e-07
-5.79751e-09
-3.34034e-07
-8.16571e-09
-3.30985e-07
-1.05102e-08
-3.27267e-07
-1.28224e-08
-3.22893e-07
-1.50938e-08
-3.17876e-07
-1.73159e-08
-3.12233e-07
-1.948e-08
-3.05984e-07
-2.15775e-08
-2.9915e-07
-2.35996e-08
-2.91756e-07
-2.55378e-08
-2.83829e-07
-2.73833e-08
-2.75398e-07
-2.91276e-08
-2.66495e-07
-3.07623e-08
-2.57153e-07
-3.22789e-08
-2.47409e-07
-3.36692e-08
-2.37301e-07
-3.49253e-08
-2.2687e-07
-3.60393e-08
-2.1616e-07
-3.70037e-08
-2.05214e-07
-3.78113e-08
-1.9408e-07
-3.84552e-08
-1.82806e-07
-3.89289e-08
-1.71442e-07
-3.92266e-08
-1.6004e-07
-3.93428e-08
-1.48652e-07
-3.92727e-08
-1.37332e-07
-3.9012e-08
-1.26135e-07
-3.85575e-08
-1.15116e-07
-3.79065e-08
-1.0433e-07
-3.70576e-08
-9.38325e-08
-3.60102e-08
-8.36783e-08
-3.47652e-08
-7.39211e-08
-3.33248e-08
-6.46132e-08
-3.1693e-08
-5.5805e-08
-2.98757e-08
-4.75442e-08
-2.7881e-08
-3.98749e-08
-2.57201e-08
-3.2837e-08
-2.34072e-08
-2.64651e-08
-2.09608e-08
-2.07868e-08
-1.84044e-08
-1.58219e-08
-1.57678e-08
-1.15805e-08
-1.30884e-08
-8.06112e-09
-1.04134e-08
-5.24849e-09
-7.80238e-09
-3.11144e-09
-5.32992e-09
-1.60026e-09
-3.08991e-09
-6.43869e-10
-1.19991e-09
-1.46824e-10
1.94203e-10
1.4608e-11
9.12416e-10
7.16746e-10
-1.09054e-10
-5.50872e-10
-5.90624e-10
-2.38921e-10
-1.57302e-09
1.11272e-09
-3.15809e-09
3.2306e-09
-5.42444e-09
5.90492e-09
-8.4294e-09
8.96432e-09
-1.2211e-08
1.22698e-08
-1.67904e-08
1.57098e-08
-2.21734e-08
1.9195e-08
-2.83529e-08
2.26545e-08
-3.53108e-08
2.6032e-08
-4.30196e-08
2.92829e-08
-5.1444e-08
3.23725e-08
-6.05422e-08
3.52739e-08
-7.02676e-08
3.79665e-08
-8.05692e-08
4.04347e-08
-9.13931e-08
4.26673e-08
-1.02683e-07
4.46567e-08
-1.14381e-07
4.63977e-08
-1.26428e-07
4.78878e-08
-1.38765e-07
4.91265e-08
-1.51332e-07
5.01146e-08
-1.64069e-07
5.08545e-08
-1.76918e-07
5.13497e-08
-1.8982e-07
5.16046e-08
-2.02719e-07
5.16243e-08
-2.15559e-07
5.14148e-08
-2.28285e-07
5.09826e-08
-2.40845e-07
5.03344e-08
-2.53186e-07
4.94778e-08
-2.65261e-07
4.84202e-08
-2.77021e-07
4.71697e-08
-2.88421e-07
4.57345e-08
-2.99417e-07
4.41229e-08
-3.09968e-07
4.23437e-08
-3.20034e-07
4.04055e-08
-3.29579e-07
3.83173e-08
-3.38567e-07
3.60882e-08
-3.46965e-07
3.37272e-08
-3.54744e-07
3.12439e-08
-3.61875e-07
2.86475e-08
-3.68332e-07
2.59476e-08
-3.74093e-07
2.31539e-08
-3.79136e-07
2.02761e-08
-3.83443e-07
1.73242e-08
-3.86999e-07
1.43082e-08
-3.89789e-07
1.12382e-08
-3.91804e-07
8.12458e-09
-3.93035e-07
4.97765e-09
-3.93477e-07
1.80798e-09
-3.93127e-07
-1.37375e-09
-3.91984e-07
-4.55675e-09
-3.90051e-07
-7.73011e-09
-3.87334e-07
-1.08828e-08
-3.83841e-07
-1.40036e-08
-3.79582e-07
-1.70813e-08
-3.74571e-07
-2.01047e-08
-3.68825e-07
-2.30621e-08
-3.62362e-07
-2.59423e-08
-3.55206e-07
-2.87337e-08
-3.47381e-07
-3.14248e-08
-3.38914e-07
-3.40042e-08
-3.29837e-07
-3.64604e-08
-3.20183e-07
-3.87821e-08
-3.09987e-07
-4.09581e-08
-2.99288e-07
-4.29774e-08
-2.88129e-07
-4.48291e-08
-2.76551e-07
-4.65027e-08
-2.64603e-07
-4.79879e-08
-2.52332e-07
-4.92748e-08
-2.39789e-07
-5.03541e-08
-2.27027e-07
-5.12167e-08
-2.14102e-07
-5.18544e-08
-2.01069e-07
-5.22593e-08
-1.87987e-07
-5.24245e-08
-1.74916e-07
-5.23439e-08
-1.61916e-07
-5.2012e-08
-1.49049e-07
-5.14249e-08
-1.36376e-07
-5.05794e-08
-1.2396e-07
-4.94738e-08
-1.11862e-07
-4.81079e-08
-1.00144e-07
-4.64832e-08
-8.88658e-08
-4.46031e-08
-7.80855e-08
-4.24733e-08
-6.78591e-08
-4.01021e-08
-5.82394e-08
-3.75007e-08
-4.92752e-08
-3.46842e-08
-4.10107e-08
-3.16718e-08
-3.34837e-08
-2.84877e-08
-2.67254e-08
-2.51627e-08
-2.07582e-08
-2.1735e-08
-1.55945e-08
-1.82521e-08
-1.12351e-08
-1.47728e-08
-7.66747e-09
-1.13701e-08
-4.86352e-09
-8.13388e-09
-2.77807e-09
-5.17535e-09
-1.34668e-09
-2.6313e-09
-4.83641e-10
-6.68832e-10
-7.99219e-11
5.08698e-10
6.36825e-10
-2.12359e-10
-3.3852e-10
-9.63521e-10
5.12242e-10
-2.35383e-09
2.50303e-09
-4.46574e-09
5.34252e-09
-7.3637e-09
8.80288e-09
-1.10946e-08
1.26953e-08
-1.56889e-08
1.6864e-08
-2.11614e-08
2.11823e-08
-2.75136e-08
2.55471e-08
-3.47341e-08
2.98751e-08
-4.28012e-08
3.40991e-08
-5.16837e-08
3.81654e-08
-6.13425e-08
4.20314e-08
-7.17323e-08
4.56637e-08
-8.28019e-08
4.90361e-08
-9.44961e-08
5.21289e-08
-1.06756e-07
5.49275e-08
-1.19521e-07
5.74214e-08
-1.32727e-07
5.96039e-08
-1.4631e-07
6.1471e-08
-1.60205e-07
6.30215e-08
-1.74347e-07
6.4256e-08
-1.88669e-07
6.5177e-08
-2.03108e-07
6.57885e-08
-2.17599e-07
6.60956e-08
-2.32079e-07
6.61048e-08
-2.46488e-07
6.5823e-08
-2.60763e-07
6.52583e-08
-2.74848e-07
6.44191e-08
-2.88685e-07
6.33147e-08
-3.02219e-07
6.19547e-08
-3.15399e-07
6.03489e-08
-3.28172e-07
5.85077e-08
-3.40491e-07
5.64418e-08
-3.52309e-07
5.4162e-08
-3.63583e-07
5.16796e-08
-3.74271e-07
4.90057e-08
-3.84335e-07
4.6152e-08
-3.93738e-07
4.31301e-08
-4.02446e-07
3.9952e-08
-4.10428e-07
3.66296e-08
-4.17656e-07
3.31751e-08
-4.24103e-07
2.96009e-08
-4.29746e-07
2.59195e-08
-4.34566e-07
2.21435e-08
-4.38543e-07
1.82859e-08
-4.41665e-07
1.43594e-08
-4.43917e-07
1.03774e-08
-4.45293e-07
6.35311e-09
-4.45785e-07
2.29998e-09
-4.4539e-07
-1.76833e-09
-4.44109e-07
-5.83801e-09
-4.41944e-07
-9.89513e-09
-4.38901e-07
-1.39256e-08
-4.3499e-07
-1.79152e-08
-4.30221e-07
-2.18495e-08
-4.24612e-07
-2.57141e-08
-4.1818e-07
-2.94944e-08
-4.10946e-07
-3.3176e-08
-4.02936e-07
-3.6744e-08
-3.94177e-07
-4.0184e-08
-3.84699e-07
-4.34813e-08
-3.74538e-07
-4.66215e-08
-3.6373e-07
-4.959e-08
-3.52316e-07
-5.23729e-08
-3.40337e-07
-5.49559e-08
-3.27841e-07
-5.73255e-08
-3.14875e-07
-5.94684e-08
-3.01491e-07
-6.13714e-08
-2.87744e-07
-6.30224e-08
-2.73689e-07
-6.44093e-08
-2.59385e-07
-6.55209e-08
-2.44892e-07
-6.63468e-08
-2.30274e-07
-6.68774e-08
-2.15595e-07
-6.7104e-08
-2.0092e-07
-6.70189e-08
-1.86316e-07
-6.6616e-08
-1.71851e-07
-6.589e-08
-1.57592e-07
-6.48375e-08
-1.43609e-07
-6.34568e-08
-1.29969e-07
-6.17479e-08
-1.16739e-07
-5.97132e-08
-1.03985e-07
-5.73575e-08
-9.177e-08
-5.46884e-08
-8.01552e-08
-5.17169e-08
-6.91981e-08
-4.84578e-08
-5.89521e-08
-4.49302e-08
-4.94652e-08
-4.11586e-08
-4.07794e-08
-3.71736e-08
-3.29289e-08
-3.30132e-08
-2.59397e-08
-2.87243e-08
-1.98274e-08
-2.43644e-08
-1.45965e-08
-2.00037e-08
-1.02386e-08
-1.5728e-08
-6.73091e-09
-1.16415e-08
-4.03518e-09
-7.87107e-09
-2.09626e-09
-4.57022e-09
-8.41255e-10
-1.92383e-09
-1.78994e-10
-1.5356e-10
4.57832e-10
-3.16554e-10
-2.19771e-11
-1.34424e-09
1.53993e-09
-3.15586e-09
4.31467e-09
-5.81316e-09
7.9998e-09
-9.36461e-09
1.23543e-08
-1.38448e-08
1.71755e-08
-1.92746e-08
2.22938e-08
-2.56613e-08
2.7569e-08
-3.3e-08
3.28858e-08
-4.12743e-08
3.81494e-08
-5.04577e-08
4.32825e-08
-6.05149e-08
4.82226e-08
-7.14028e-08
5.29193e-08
-8.30717e-08
5.73326e-08
-9.54665e-08
6.14309e-08
-1.08528e-07
6.519e-08
-1.22192e-07
6.85916e-08
-1.36393e-07
7.16227e-08
-1.51063e-07
7.42742e-08
-1.66133e-07
7.6541e-08
-1.81533e-07
7.84208e-08
-1.9719e-07
7.99139e-08
-2.13036e-07
8.10229e-08
-2.29e-07
8.17523e-08
-2.45013e-07
8.2108e-08
-2.61005e-07
8.20973e-08
-2.76911e-07
8.17287e-08
-2.92664e-07
8.10118e-08
-3.08202e-07
7.99567e-08
-3.23462e-07
7.85746e-08
-3.38384e-07
7.6877e-08
-3.52912e-07
7.48762e-08
-3.66989e-07
7.25847e-08
-3.80562e-07
7.00156e-08
-3.93583e-07
6.71823e-08
-4.06001e-07
6.40983e-08
-4.17773e-07
6.07778e-08
-4.28856e-07
5.72348e-08
-4.3921e-07
5.34839e-08
-4.48798e-07
4.95397e-08
-4.57585e-07
4.54171e-08
-4.65541e-07
4.11311e-08
-4.72638e-07
3.66971e-08
-4.78849e-07
3.21306e-08
-4.84152e-07
2.74472e-08
-4.88529e-07
2.26628e-08
-4.91963e-07
1.77935e-08
-4.94442e-07
1.28557e-08
-4.95954e-07
7.86564e-09
-4.96494e-07
2.8402e-09
-4.96059e-07
-2.20377e-09
-4.94648e-07
-7.24921e-09
-4.92264e-07
-1.22788e-08
-4.88914e-07
-1.72752e-08
-4.84609e-07
-2.22207e-08
-4.79361e-07
-2.70977e-08
-4.73187e-07
-3.18881e-08
-4.66107e-07
-3.65742e-08
-4.58145e-07
-4.11378e-08
-4.49328e-07
-4.55609e-08
-4.39687e-07
-4.98256e-08
-4.29254e-07
-5.39137e-08
-4.18068e-07
-5.78075e-08
-4.06169e-07
-6.14893e-08
-3.936e-07
-6.49415e-08
-3.80409e-07
-6.8147e-08
-3.66646e-07
-7.1089e-08
-3.52363e-07
-7.37511e-08
-3.37617e-07
-7.61175e-08
-3.22466e-07
-7.8173e-08
-3.06973e-07
-7.9903e-08
-2.91199e-07
-8.1294e-08
-2.75213e-07
-8.23333e-08
-2.59081e-07
-8.30091e-08
-2.42874e-07
-8.33112e-08
-2.26663e-07
-8.32303e-08
-2.1052e-07
-8.2759e-08
-1.94518e-07
-8.18914e-08
-1.78732e-07
-8.06235e-08
-1.63235e-07
-7.89536e-08
-1.48101e-07
-7.68823e-08
-1.33401e-07
-7.44127e-08
-1.19207e-07
-7.15514e-08
-1.05588e-07
-6.83081e-08
-9.26081e-08
-6.46966e-08
-8.03305e-08
-6.07354e-08
-6.88126e-08
-5.64481e-08
-5.81067e-08
-5.18646e-08
-4.82584e-08
-4.70218e-08
-3.93063e-08
-4.19653e-08
-3.12801e-08
-3.67505e-08
-2.41998e-08
-3.14447e-08
-1.80746e-08
-2.61289e-08
-1.29017e-08
-2.09009e-08
-8.66534e-09
-1.58779e-08
-5.33593e-09
-1.12005e-08
-2.86955e-09
-7.03658e-09
-1.20799e-09
-3.58539e-09
-2.79345e-10
-1.0822e-09
1.78487e-10
-4.19782e-10
3.97808e-10
-1.72546e-09
2.84561e-09
-3.96386e-09
6.55304e-09
-7.17577e-09
1.12117e-08
-1.13929e-08
1.65715e-08
-1.66364e-08
2.2419e-08
-2.29161e-08
2.85734e-08
-3.02305e-08
3.48834e-08
-3.85672e-08
4.12225e-08
-4.79037e-08
4.74859e-08
-5.82081e-08
5.35869e-08
-6.944e-08
5.94546e-08
-8.15519e-08
6.50312e-08
-9.44897e-08
7.02703e-08
-1.08194e-07
7.51351e-08
-1.22601e-07
7.95967e-08
-1.37642e-07
8.36332e-08
-1.53248e-07
8.72287e-08
-1.69346e-07
9.03721e-08
-1.85862e-07
9.30566e-08
-2.0272e-07
9.5279e-08
-2.19845e-07
9.70393e-08
-2.37162e-07
9.834e-08
-2.54596e-07
9.91859e-08
-2.72072e-07
9.95838e-08
-2.89517e-07
9.95422e-08
-3.06859e-07
9.90709e-08
-3.24028e-07
9.81809e-08
-3.40956e-07
9.68844e-08
-3.57576e-07
9.51944e-08
-3.73823e-07
9.31247e-08
-3.89637e-07
9.06898e-08
-4.04957e-07
8.79047e-08
-4.19726e-07
8.4785e-08
-4.33891e-07
8.13467e-08
-4.47399e-07
7.76063e-08
-4.60202e-07
7.35805e-08
-4.72253e-07
6.92864e-08
-4.83511e-07
6.47414e-08
-4.93934e-07
5.99631e-08
-5.03487e-07
5.49697e-08
-5.12135e-07
4.97791e-08
-5.19848e-07
4.441e-08
-5.26598e-07
3.8881e-08
-5.32362e-07
3.3211e-08
-5.37118e-07
2.74193e-08
-5.4085e-07
2.15253e-08
-5.43543e-07
1.55486e-08
-5.45187e-07
9.50928e-09
-5.45774e-07
3.42738e-09
-5.45301e-07
-2.67664e-09
-5.43768e-07
-8.78218e-09
-5.41178e-07
-1.48684e-08
-5.37539e-07
-2.09142e-08
-5.32862e-07
-2.68984e-08
-5.2716e-07
-3.27995e-08
-5.20452e-07
-3.85961e-08
-5.12759e-07
-4.42666e-08
-5.04108e-07
-4.97891e-08
-4.94527e-07
-5.51419e-08
-4.84049e-07
-6.03035e-08
-4.72711e-07
-6.52521e-08
-4.60552e-07
-6.99662e-08
-4.47617e-07
-7.44247e-08
-4.33952e-07
-7.86066e-08
-4.19608e-07
-8.24911e-08
-4.04638e-07
-8.60583e-08
-3.89101e-07
-8.92884e-08
-3.73056e-07
-9.21627e-08
-3.56566e-07
-9.46628e-08
-3.39697e-07
-9.67715e-08
-3.22519e-07
-9.84727e-08
-3.05101e-07
-9.97512e-08
-2.87517e-07
-1.00593e-07
-2.69841e-07
-1.00987e-07
-2.52151e-07
-1.00921e-07
-2.34523e-07
-1.00387e-07
-2.17037e-07
-9.93776e-08
-1.99771e-07
-9.78895e-08
-1.82804e-07
-9.59205e-08
-1.66215e-07
-9.34716e-08
-1.5008e-07
-9.05472e-08
-1.34476e-07
-8.71553e-08
-1.19476e-07
-8.33081e-08
-1.05151e-07
-7.90224e-08
-9.15659e-08
-7.43203e-08
-7.87839e-08
-6.92301e-08
-6.68613e-08
-6.37872e-08
-5.58482e-08
-5.80349e-08
-4.57875e-08
-5.20261e-08
-3.67136e-08
-4.58245e-08
-2.86517e-08
-3.95066e-08
-2.16167e-08
-3.31638e-08
-1.56127e-08
-2.69048e-08
-1.06321e-08
-2.08585e-08
-6.65533e-09
-1.51773e-08
-3.65096e-09
-1.0041e-08
-1.57633e-09
-5.66001e-09
-3.79038e-10
-2.27949e-09
-2.00551e-10
-5.21013e-10
9.18828e-10
-2.10269e-09
4.42728e-09
-4.76778e-09
9.21815e-09
-8.53684e-09
1.49808e-08
-1.34246e-08
2.14593e-08
-1.94381e-08
2.84324e-08
-2.65752e-08
3.57106e-08
-3.48247e-08
4.31329e-08
-4.4166e-08
5.05638e-08
-5.45694e-08
5.78892e-08
-6.59967e-08
6.50142e-08
-7.84023e-08
7.18601e-08
-9.17333e-08
7.83622e-08
-1.05931e-07
8.4468e-08
-1.20931e-07
9.01354e-08
-1.36666e-07
9.53313e-08
-1.53063e-07
1.0003e-07
-1.70047e-07
1.04213e-07
-1.87542e-07
1.07867e-07
-2.05469e-07
1.10983e-07
-2.23748e-07
1.13558e-07
-2.42299e-07
1.15591e-07
-2.61043e-07
1.17084e-07
-2.79899e-07
1.18042e-07
-2.98789e-07
1.18474e-07
-3.17636e-07
1.18389e-07
-3.36362e-07
1.17797e-07
-3.54893e-07
1.16712e-07
-3.73157e-07
1.15148e-07
-3.91082e-07
1.1312e-07
-4.086e-07
1.10643e-07
-4.25646e-07
1.07736e-07
-4.42156e-07
1.04415e-07
-4.58069e-07
1.00698e-07
-4.73328e-07
9.66052e-08
-4.87877e-07
9.2155e-08
-5.01664e-07
8.73675e-08
-5.1464e-07
8.22627e-08
-5.2676e-07
7.68613e-08
-5.37981e-07
7.1184e-08
-5.48263e-07
6.52521e-08
-5.57571e-07
5.90872e-08
-5.65872e-07
5.27111e-08
-5.73137e-07
4.61459e-08
-5.7934e-07
3.94141e-08
-5.84459e-07
3.25383e-08
-5.88476e-07
2.55417e-08
-5.91375e-07
1.84475e-08
-5.93145e-07
1.12793e-08
-5.93778e-07
4.061e-09
-5.93272e-07
-3.18327e-09
-5.91625e-07
-1.04291e-08
-5.88841e-07
-1.76518e-08
-5.84929e-07
-2.48265e-08
-5.79899e-07
-3.1928e-08
-5.73768e-07
-3.89312e-08
-5.66554e-07
-4.58104e-08
-5.5828e-07
-5.25402e-08
-5.48974e-07
-5.9095e-08
-5.38667e-07
-6.5449e-08
-5.27394e-07
-7.15767e-08
-5.15193e-07
-7.74526e-08
-5.02108e-07
-8.30513e-08
-4.88185e-07
-8.83479e-08
-4.73474e-07
-9.33176e-08
-4.58029e-07
-9.79362e-08
-4.41907e-07
-1.0218e-07
-4.2517e-07
-1.06026e-07
-4.0788e-07
-1.09452e-07
-3.90106e-07
-1.12437e-07
-3.71918e-07
-1.1496e-07
-3.53388e-07
-1.17002e-07
-3.34593e-07
-1.18547e-07
-3.15608e-07
-1.19578e-07
-2.96515e-07
-1.2008e-07
-2.77394e-07
-1.20042e-07
-2.58328e-07
-1.19453e-07
-2.394e-07
-1.18306e-07
-2.20694e-07
-1.16596e-07
-2.02293e-07
-1.14321e-07
-1.84281e-07
-1.11484e-07
-1.66739e-07
-1.08088e-07
-1.49749e-07
-1.04145e-07
-1.33388e-07
-9.96691e-08
-1.17731e-07
-9.46792e-08
-1.0285e-07
-8.92019e-08
-8.88099e-08
-8.327e-08
-7.56729e-08
-7.69242e-08
-6.34935e-08
-7.02142e-08
-5.23197e-08
-6.31999e-08
-4.2191e-08
-5.59531e-08
-3.31388e-08
-4.85589e-08
-2.51845e-08
-4.11181e-08
-1.834e-08
-3.37493e-08
-1.26068e-08
-2.65917e-08
-7.97633e-09
-1.98078e-08
-4.43018e-09
-1.35871e-08
-1.94153e-09
-8.14866e-09
-4.76954e-10
-3.74406e-09
-6.77506e-10
-6.19684e-10
1.5385e-09
-2.47317e-09
6.28077e-09
-5.5613e-09
1.23063e-08
-9.88536e-09
1.93048e-08
-1.54433e-08
2.70173e-08
-2.22279e-08
3.52169e-08
-3.02247e-08
4.37074e-08
-3.94121e-08
5.23203e-08
-4.97604e-08
6.09121e-08
-6.1232e-08
6.93609e-08
-7.37822e-08
7.75644e-08
-8.73588e-08
8.54368e-08
-1.01904e-07
9.29072e-08
-1.17353e-07
9.99174e-08
-1.33638e-07
1.0642e-07
-1.50686e-07
1.12379e-07
-1.6842e-07
1.17764e-07
-1.8676e-07
1.22554e-07
-2.05627e-07
1.26733e-07
-2.24936e-07
1.30292e-07
-2.44604e-07
1.33226e-07
-2.64546e-07
1.35533e-07
-2.84679e-07
1.37216e-07
-3.04918e-07
1.38281e-07
-3.25181e-07
1.38736e-07
-3.45385e-07
1.38592e-07
-3.6545e-07
1.37862e-07
-3.85297e-07
1.36559e-07
-4.0485e-07
1.34701e-07
-4.24033e-07
1.32304e-07
-4.42776e-07
1.29386e-07
-4.61008e-07
1.25967e-07
-4.78661e-07
1.22068e-07
-4.95673e-07
1.1771e-07
-5.11982e-07
1.12914e-07
-5.27529e-07
1.07702e-07
-5.4226e-07
1.02098e-07
-5.56123e-07
9.61256e-08
-5.69069e-07
8.98076e-08
-5.81054e-07
8.31688e-08
-5.92035e-07
7.62338e-08
-6.01976e-07
6.90276e-08
-6.10841e-07
6.15758e-08
-6.18599e-07
5.3904e-08
-6.25223e-07
4.60384e-08
-6.3069e-07
3.80054e-08
-6.3498e-07
2.98319e-08
-6.38078e-07
2.1545e-08
-6.39971e-07
1.31722e-08
-6.40651e-07
4.74123e-09
-6.40114e-07
-3.71974e-09
-6.38361e-07
-1.21823e-08
-6.35395e-07
-2.06178e-08
-6.31224e-07
-2.89972e-08
-6.25861e-07
-3.72913e-08
-6.19322e-07
-4.54707e-08
-6.11626e-07
-5.35058e-08
-6.02799e-07
-6.1367e-08
-5.9287e-07
-6.90243e-08