/*--------------------------------*- C++ -*----------------------------------*\
| =========                 |                                                 |
| \\      /  F ield         | OpenFOAM: The Open Source CFD Toolbox           |
|  \\    /   O peration     | Version:  2212                                  |
|   \\  /    A nd           | Website:  www.openfoam.com                      |
|    \\/     M anipulation  |                                                 |
\*---------------------------------------------------------------------------*/
FoamFile
{
    version     2.0;
    format      ascii;
    arch        "LSB;label=32;scalar=64";
    class       surfaceScalarField;
    location    "0.0005";
    object      phi;
}
// * * * * * * * * * * * * * * * * * * * * * * * * * * * * * * * * * * * * * //

dimensions      [0 3 -1 0 0 0 0];

oriented        oriented;

internalField   nonuniform List<scalar> 
19800
(
-5.24395e-10
5.24433e-10
-1.81377e-09
1.28938e-09
-3.12823e-09
1.31447e-09
-4.43622e-09
1.308e-09
-5.73737e-09
1.30113e-09
-7.03553e-09
1.29813e-09
-8.33183e-09
1.2963e-09
-9.62544e-09
1.29363e-09
-1.09141e-08
1.28862e-09
-1.21942e-08
1.28012e-09
-1.34615e-08
1.26731e-09
-1.47114e-08
1.24985e-09
-1.59397e-08
1.22834e-09
-1.71441e-08
1.20444e-09
-1.83248e-08
1.18072e-09
-1.94847e-08
1.15982e-09
-2.06281e-08
1.14348e-09
-2.17599e-08
1.13174e-09
-2.28826e-08
1.12276e-09
-2.3996e-08
1.11335e-09
-2.50959e-08
1.09991e-09
-2.61754e-08
1.07953e-09
-2.72262e-08
1.05077e-09
-2.82403e-08
1.01407e-09
-2.92119e-08
9.7162e-10
-3.01388e-08
9.2688e-10
-3.10224e-08
8.83647e-10
-3.18674e-08
8.45022e-10
-3.26799e-08
8.12466e-10
-3.34652e-08
7.85333e-10
-3.42263e-08
7.61115e-10
-3.49627e-08
7.36402e-10
-3.5671e-08
7.08218e-10
-3.63462e-08
6.75188e-10
-3.69841e-08
6.3796e-10
-3.75828e-08
5.9865e-10
-3.81423e-08
5.59555e-10
-3.86641e-08
5.2175e-10
-3.91484e-08
4.84293e-10
-3.9593e-08
4.44582e-10
-3.99929e-08
3.99887e-10
-4.03421e-08
3.49191e-10
-4.06362e-08
2.94129e-10
-4.08748e-08
2.3864e-10
-4.10626e-08
1.87734e-10
-4.12078e-08
1.45202e-10
-4.13185e-08
1.10699e-10
-4.1398e-08
7.9523e-11
-4.14447e-08
4.6679e-11
-4.14545e-08
9.83265e-12
-4.14221e-08
-3.23928e-11
-4.13428e-08
-7.93909e-11
-4.12191e-08
-1.23621e-10
-4.10623e-08
-1.56861e-10
-4.08777e-08
-1.84572e-10
-4.06587e-08
-2.18997e-10
-4.04003e-08
-2.58433e-10
-4.0104e-08
-2.96272e-10
-3.97618e-08
-3.42184e-10
-3.9361e-08
-4.00857e-10
-3.89132e-08
-4.47783e-10
-3.84448e-08
-4.68447e-10
-3.79527e-08
-4.9209e-10
-3.74123e-08
-5.40314e-10
-3.68264e-08
-5.86005e-10
-3.62161e-08
-6.10237e-10
-3.55746e-08
-6.41504e-10
-3.4882e-08
-6.92595e-10
-3.41541e-08
-7.27883e-10
-3.34178e-08
-7.36347e-10
-3.26561e-08
-7.61753e-10
-3.1835e-08
-8.21035e-10
-3.09657e-08
-8.69363e-10
-3.00837e-08
-8.82008e-10
-2.9187e-08
-8.96655e-10
-2.82457e-08
-9.41333e-10
-2.72566e-08
-9.89017e-10
-2.62417e-08
-1.01494e-09
-2.52038e-08
-1.03785e-09
-2.41289e-08
-1.07496e-09
-2.30202e-08
-1.1087e-09
-2.18944e-08
-1.12579e-09
-2.075e-08
-1.14437e-09
-1.95738e-08
-1.17624e-09
-1.83727e-08
-1.20112e-09
-1.71685e-08
-1.2042e-09
-1.59625e-08
-1.20598e-09
-1.47343e-08
-1.22816e-09
-1.34776e-08
-1.25672e-09
-1.22122e-08
-1.26544e-09
-1.0955e-08
-1.25711e-09
-9.69631e-09
-1.25874e-09
-8.41209e-09
-1.28422e-09
-7.09843e-09
-1.31367e-09
-5.78021e-09
-1.31821e-09
-4.4732e-09
-1.307e-09
-3.1687e-09
-1.30451e-09
-1.82792e-09
-1.34078e-09
-5.71674e-10
-1.25624e-09
-5.7168e-10
-1.19383e-09
1.71826e-09
-3.40594e-09
3.50147e-09
-5.75611e-09
3.66463e-09
-8.08932e-09
3.64125e-09
-1.04116e-08
3.62339e-09
-1.27203e-08
3.60684e-09
-1.50133e-08
3.58923e-09
-1.72884e-08
3.56872e-09
-1.95436e-08
3.54388e-09
-2.17772e-08
3.51373e-09
-2.39876e-08
3.47767e-09
-2.61733e-08
3.43555e-09
-2.83328e-08
3.38791e-09
-3.04645e-08
3.33615e-09
-3.25662e-08
3.28232e-09
-3.46349e-08
3.22854e-09
-3.66675e-08
3.17615e-09
-3.86609e-08
3.12511e-09
-4.0612e-08
3.0739e-09
-4.25186e-08
3.01993e-09
-4.43791e-08
2.96038e-09
-4.61926e-08
2.89304e-09
-4.79587e-08
2.8169e-09
-4.96771e-08
2.7325e-09
-5.13472e-08
2.6417e-09
-5.29677e-08
2.54733e-09
-5.45364e-08
2.45242e-09
-5.60509e-08
2.35944e-09
-5.7508e-08
2.26961e-09
-5.89052e-08
2.18252e-09
-6.02404e-08
2.09635e-09
-6.15126e-08
2.00854e-09
-6.27212e-08
1.91685e-09
-6.38662e-08
1.82018e-09
-6.49472e-08
1.71897e-09
-6.59634e-08
1.6148e-09
-6.69133e-08
1.50945e-09
-6.77954e-08
1.40385e-09
-6.86086e-08
1.29749e-09
-6.93526e-08
1.18857e-09
-7.00277e-08
1.07505e-09
-7.06348e-08
9.56216e-10
-7.11741e-08
8.33375e-10
-7.16448e-08
7.0943e-10
-7.20452e-08
5.88105e-10
-7.23729e-08
4.72849e-10
-7.26265e-08
3.6431e-10
-7.28058e-08
2.58826e-10
-7.29111e-08
1.51972e-10
-7.2944e-08
4.27012e-11
-7.2907e-08
-6.93201e-11
-7.28007e-08
-1.85759e-10
-7.26218e-08
-3.02508e-10
-7.23687e-08
-4.09961e-10
-7.20434e-08
-5.09837e-10
-7.16464e-08
-6.16029e-10
-7.11751e-08
-7.29758e-10
-7.06319e-08
-8.39527e-10
-7.00237e-08
-9.50287e-10
-6.93504e-08
-1.07426e-09
-6.86033e-08
-1.19487e-09
-6.77826e-08
-1.28914e-09
-6.68989e-08
-1.37573e-09
-6.5954e-08
-1.48528e-09
-6.4937e-08
-1.603e-09
-6.38482e-08
-1.69901e-09
-6.27028e-08
-1.78686e-09
-6.15031e-08
-1.8924e-09
-6.02321e-08
-1.99884e-09
-5.88875e-08
-2.08097e-09
-5.74904e-08
-2.15886e-09
-5.60492e-08
-2.26229e-09
-5.45448e-08
-2.37368e-09
-5.29692e-08
-2.45767e-09
-5.1344e-08
-2.5218e-09
-4.96841e-08
-2.60128e-09
-4.79719e-08
-2.70119e-09
-4.61929e-08
-2.79387e-09
-4.43661e-08
-2.86471e-09
-4.25127e-08
-2.92832e-09
-4.06207e-08
-3.00075e-09
-3.8668e-08
-3.07847e-09
-3.66646e-08
-3.14774e-09
-3.46383e-08
-3.20256e-09
-3.25899e-08
-3.24952e-09
-3.04956e-08
-3.29846e-09
-2.83515e-08
-3.35008e-09
-2.61835e-08
-3.39619e-09
-2.40072e-08
-3.43303e-09
-2.18072e-08
-3.46538e-09
-1.95685e-08
-3.49586e-09
-1.73021e-08
-3.52512e-09
-1.50286e-08
-3.5577e-09
-1.27536e-08
-3.58876e-09
-1.04601e-08
-3.61169e-09
-8.13828e-09
-3.6288e-09
-5.80728e-09
-3.63551e-09
-3.49368e-09
-3.6544e-09
-1.28076e-09
-3.46917e-09
-1.85244e-09
-1.34094e-09
3.05921e-09
-3.65153e-09
5.81205e-09
-6.09393e-09
6.10699e-09
-8.53452e-09
6.08182e-09
-1.09673e-08
6.05614e-09
-1.33877e-08
6.02735e-09
-1.57924e-08
5.99391e-09
-1.81785e-08
5.95474e-09
-2.05436e-08
5.90905e-09
-2.28863e-08
5.85637e-09
-2.5205e-08
5.79643e-09
-2.74986e-08
5.72917e-09
-2.97656e-08
5.6549e-09
-3.20039e-08
5.57445e-09
-3.42107e-08
5.48914e-09
-3.63825e-08
5.40033e-09
-3.85153e-08
5.30894e-09
-4.06053e-08
5.21504e-09
-4.2649e-08
5.1177e-09
-4.46445e-08
5.01537e-09
-4.65905e-08
4.90637e-09
-4.84869e-08
4.78944e-09
-5.0334e-08
4.66409e-09
-5.21323e-08
4.53077e-09
-5.38813e-08
4.3907e-09
-5.55797e-08
4.24566e-09
-5.72248e-08
4.09757e-09
-5.88134e-08
3.94803e-09
-6.03418e-08
3.79798e-09
-6.18066e-08
3.6474e-09
-6.32057e-08
3.49542e-09
-6.45378e-08
3.34066e-09
-6.58028e-08
3.18179e-09
-6.70007e-08
3.01809e-09
-6.81315e-08
2.84975e-09
-6.91944e-08
2.67769e-09
-7.0188e-08
2.50308e-09
-7.11109e-08
2.32671e-09
-7.1962e-08
2.14857e-09
-7.27412e-08
1.9678e-09
-7.34493e-08
1.78313e-09
-7.40871e-08
1.59399e-09
-7.46549e-08
1.40116e-09
-7.51519e-08
1.20643e-09
-7.55759e-08
1.0121e-09
-7.5924e-08
8.20927e-10
-7.61942e-08
6.34553e-10
-7.63864e-08
4.51014e-10
-7.65012e-08
2.66751e-10
-7.65397e-08
8.11991e-11
-7.65037e-08
-1.05304e-10
-7.63941e-08
-2.95392e-10
-7.62088e-08
-4.87788e-10
-7.5945e-08
-6.73697e-10
-7.56028e-08
-8.5212e-10
-7.51842e-08
-1.03465e-09
-7.46908e-08
-1.22309e-09
-7.41234e-08
-1.40695e-09
-7.34835e-08
-1.59017e-09
-7.27741e-08
-1.78368e-09
-7.19952e-08
-1.9738e-09
-7.11415e-08
-2.14281e-09
-7.0211e-08
-2.3063e-09
-6.92116e-08
-2.4846e-09
-6.815e-08
-2.66465e-09
-6.70181e-08
-2.83091e-09
-6.58093e-08
-2.99567e-09
-6.45353e-08
-3.16643e-09
-6.32067e-08
-3.32744e-09
-6.18115e-08
-3.47614e-09
-6.03383e-08
-3.63208e-09
-5.88039e-08
-3.79665e-09
-5.72287e-08
-3.94889e-09
-5.56004e-08
-4.08603e-09
-5.38962e-08
-4.22593e-09
-5.21272e-08
-4.37035e-09
-5.03234e-08
-4.505e-09
-4.84855e-08
-4.63175e-09
-4.65862e-08
-4.76393e-09
-4.46191e-08
-4.89542e-09
-4.26113e-08
-5.00855e-09
-4.05816e-08
-5.10823e-09
-3.85137e-08
-5.21562e-09
-3.6386e-08
-5.33024e-09
-3.42072e-08
-5.4283e-09
-3.20048e-08
-5.50084e-09
-2.9787e-08
-5.56792e-09
-2.75344e-08
-5.64873e-09
-2.52332e-08
-5.73429e-09
-2.28988e-08
-5.79976e-09
-2.05537e-08
-5.84091e-09
-1.81952e-08
-5.88366e-09
-1.58123e-08
-5.94056e-09
-1.34068e-08
-5.9943e-09
-1.09784e-08
-6.04009e-09
-8.57324e-09
-6.03396e-09
-6.13549e-09
-6.07326e-09
-3.6977e-09
-6.09216e-09
-1.35325e-09
-5.81363e-09
-3.20569e-09
-1.34031e-09
4.39953e-09
-3.67208e-09
8.14385e-09
-6.11922e-09
8.55412e-09
-8.56277e-09
8.52534e-09
-1.09983e-08
8.49166e-09
-1.34223e-08
8.45134e-09
-1.58315e-08
8.40315e-09
-1.82232e-08
8.34644e-09
-2.05951e-08
8.28093e-09
-2.29452e-08
8.20646e-09
-2.52716e-08
8.12286e-09
-2.75725e-08
8.03e-09
-2.98456e-08
7.92801e-09
-3.20886e-08
7.81748e-09
-3.42989e-08
7.6994e-09
-3.64734e-08
7.57485e-09
-3.8609e-08
7.44459e-09
-4.07027e-08
7.30872e-09
-4.27517e-08
7.1667e-09
-4.47539e-08
7.01756e-09
-4.67078e-08
6.8603e-09
-4.86126e-08
6.69422e-09
-5.04677e-08
6.51917e-09
-5.22725e-08
6.33554e-09
-5.4026e-08
6.14423e-09
-5.57268e-08
5.94646e-09
-5.73728e-08
5.74357e-09
-5.89615e-08
5.53674e-09
-6.04903e-08
5.32676e-09
-6.19567e-08
5.11378e-09
-6.33586e-08
4.8974e-09
-6.46948e-08
4.67682e-09
-6.59643e-08
4.45125e-09
-6.71665e-08
4.22032e-09
-6.8301e-08
3.98426e-09
-6.93672e-08
3.74385e-09
-7.03641e-08
3.50001e-09
-7.12908e-08
3.2534e-09
-7.21463e-08
3.0041e-09
-7.29301e-08
2.75158e-09
-7.36419e-08
2.49488e-09
-7.42814e-08
2.2335e-09
-7.48485e-08
1.96826e-09
-7.53429e-08
1.70086e-09
-7.57638e-08
1.43299e-09
-7.61097e-08
1.16681e-09
-7.63796e-08
9.04448e-10
-7.65734e-08
6.44809e-10
-7.66904e-08
3.83758e-10
-7.67297e-08
1.2051e-10
-7.66925e-08
-1.4248e-10
-7.65806e-08
-4.07309e-10
-7.63925e-08
-6.75924e-10
-7.61263e-08
-9.39865e-10
-7.57845e-08
-1.19394e-09
-7.53689e-08
-1.4503e-09
-7.48764e-08
-1.71559e-09
-7.43066e-08
-1.97672e-09
-7.36656e-08
-2.2312e-09
-7.29556e-08
-2.49362e-09
-7.21722e-08
-2.75729e-09
-7.13145e-08
-3.00052e-09
-7.03873e-08
-3.23348e-09
-6.93901e-08
-3.48179e-09
-6.83188e-08
-3.73591e-09
-6.71773e-08
-3.97248e-09
-6.59723e-08
-4.20063e-09
-6.4702e-08
-4.43679e-09
-6.33617e-08
-4.66769e-09
-6.19566e-08
-4.88125e-09
-6.0493e-08
-5.09572e-09
-5.89669e-08
-5.32276e-09
-5.73754e-08
-5.54033e-09
-5.57291e-08
-5.73235e-09
-5.4036e-08
-5.91903e-09
-5.22854e-08
-6.12091e-09
-5.04668e-08
-6.32367e-09
-4.85943e-08
-6.50419e-09
-4.66902e-08
-6.66802e-09
-4.4749e-08
-6.83669e-09
-4.27455e-08
-7.01199e-09
-4.06788e-08
-7.17491e-09
-3.85793e-08
-7.31512e-09
-3.64652e-08
-7.44432e-09
-3.43166e-08
-7.57691e-09
-3.21084e-08
-7.70902e-09
-2.98499e-08
-7.82646e-09
-2.75718e-08
-7.92688e-09
-2.52867e-08
-8.0194e-09
-2.29782e-08
-8.10821e-09
-2.06245e-08
-8.19464e-09
-1.82314e-08
-8.27669e-09
-1.58334e-08
-8.33858e-09
-1.34354e-08
-8.39237e-09
-1.10387e-08
-8.43672e-09
-8.5897e-09
-8.48299e-09
-6.14855e-09
-8.51441e-09
-3.7094e-09
-8.53133e-09
-1.37743e-09
-8.1456e-09
-4.58312e-09
-1.34276e-09
5.74227e-09
-3.68742e-09
1.04885e-08
-6.14389e-09
1.10106e-08
-8.59595e-09
1.09774e-08
-1.10397e-08
1.09354e-08
-1.34718e-08
1.08835e-08
-1.58894e-08
1.08207e-08
-1.82899e-08
1.07469e-08
-2.06709e-08
1.0662e-08
-2.30303e-08
1.05659e-08
-2.53659e-08
1.04584e-08
-2.76752e-08
1.03393e-08
-2.99559e-08
1.02087e-08
-3.22056e-08
1.00672e-08
-3.44218e-08
9.91559e-09
-3.66019e-08
9.75497e-09
-3.87433e-08
9.58598e-09
-4.08433e-08
9.40877e-09
-4.28996e-08
9.22297e-09
-4.491e-08
9.02796e-09
-4.68728e-08
8.82315e-09
-4.87868e-08
8.60819e-09
-5.06507e-08
8.38309e-09
-5.24634e-08
8.14825e-09
-5.42236e-08
7.90441e-09
-5.59297e-08
7.65254e-09
-5.75798e-08
7.39373e-09
-5.91721e-08
7.12896e-09
-6.07042e-08
6.85892e-09
-6.21743e-08
6.58384e-09
-6.35804e-08
6.30352e-09
-6.49211e-08
6.01751e-09
-6.61952e-08
5.72539e-09
-6.7402e-08
5.42709e-09
-6.85407e-08
5.123e-09
-6.96108e-08
4.81394e-09
-7.06115e-08
4.50071e-09
-7.1542e-08
4.1838e-09
-7.24011e-08
3.86322e-09
-7.31881e-08
3.53859e-09
-7.39024e-08
3.20917e-09
-7.45435e-08
2.87457e-09
-7.5111e-08
2.53583e-09
-7.56052e-08
2.19506e-09
-7.60259e-08
1.85371e-09
-7.6372e-08
1.5129e-09
-7.66424e-08
1.17482e-09
-7.6837e-08
8.39417e-10
-7.69551e-08
5.01822e-10
-7.69945e-08
1.59944e-10
-7.69559e-08
-1.81144e-10
-7.68424e-08
-5.20809e-10
-7.66537e-08
-8.64575e-10
-7.63868e-08
-1.20678e-09
-7.60437e-08
-1.53709e-09
-7.56282e-08
-1.86582e-09
-7.51367e-08
-2.20703e-09
-7.45655e-08
-2.54796e-09
-7.3921e-08
-2.87571e-09
-7.32098e-08
-3.2048e-09
-7.24264e-08
-3.54067e-09
-7.1565e-08
-3.86195e-09
-7.06316e-08
-4.16682e-09
-6.96319e-08
-4.48156e-09
-6.85595e-08
-4.80828e-09
-6.74112e-08
-5.12076e-09
-6.61978e-08
-5.41412e-09
-6.49271e-08
-5.7075e-09
-6.35901e-08
-6.00469e-09
-6.21776e-08
-6.2937e-09
-6.06999e-08
-6.57348e-09
-5.91723e-08
-6.85026e-09
-5.75914e-08
-7.12124e-09
-5.59418e-08
-7.38195e-09
-5.42247e-08
-7.63617e-09
-5.24589e-08
-7.8867e-09
-5.06527e-08
-8.12982e-09
-4.87923e-08
-8.36468e-09
-4.68658e-08
-8.59442e-09
-4.48868e-08
-8.81576e-09
-4.28775e-08
-9.02126e-09
-4.08386e-08
-9.21385e-09
-3.87484e-08
-9.40528e-09
-3.65966e-08
-9.59615e-09
-3.44035e-08
-9.76997e-09
-3.21963e-08
-9.91629e-09
-2.99719e-08
-1.00508e-08
-2.77038e-08
-1.0195e-08
-2.53835e-08
-1.03397e-08
-2.30322e-08
-1.04595e-08
-2.06711e-08
-1.05557e-08
-1.83084e-08
-1.06394e-08
-1.59261e-08
-1.07209e-08
-1.34878e-08
-1.08307e-08
-1.10571e-08
-1.08674e-08
-8.6164e-09
-1.09237e-08
-6.18554e-09
-1.09453e-08
-3.71269e-09
-1.10042e-08
-1.36918e-09
-1.04891e-08
-5.95231e-09
-1.34721e-09
7.08946e-09
-3.705e-09
1.28463e-08
-6.17346e-09
1.34791e-08
-8.63744e-09
1.34414e-08
-1.1093e-08
1.3391e-08
-1.35368e-08
1.33272e-08
-1.59659e-08
1.32499e-08
-1.83779e-08
1.31589e-08
-2.07703e-08
1.30545e-08
-2.31409e-08
1.29364e-08
-2.5487e-08
1.28045e-08
-2.78062e-08
1.26585e-08
-3.0096e-08
1.24986e-08
-3.23543e-08
1.23255e-08
-3.45788e-08
1.21401e-08
-3.67672e-08
1.19434e-08
-3.89172e-08
1.1736e-08
-4.10264e-08
1.15179e-08
-4.30924e-08
1.1289e-08
-4.51131e-08
1.10487e-08
-4.70866e-08
1.07967e-08
-4.90113e-08
1.05328e-08
-5.08854e-08
1.02573e-08
-5.27076e-08
9.9704e-09
-5.44762e-08
9.673e-09
-5.61896e-08
9.36596e-09
-5.78461e-08
9.05031e-09
-5.94441e-08
8.72694e-09
-6.09817e-08
8.39648e-09
-6.2457e-08
8.05918e-09
-6.38684e-08
7.71494e-09
-6.52144e-08
7.36352e-09
-6.64938e-08
7.00478e-09
-6.77057e-08
6.63894e-09
-6.88492e-08
6.26657e-09
-6.99239e-08
5.88855e-09
-7.09288e-08
5.50567e-09
-7.18632e-08
5.1182e-09
-7.2726e-08
4.72599e-09
-7.35162e-08
4.32879e-09
-7.42332e-08
3.92624e-09
-7.48767e-08
3.51804e-09
-7.54462e-08
3.10529e-09
-7.59418e-08
2.69072e-09
-7.6364e-08
2.27593e-09
-7.67117e-08
1.86059e-09
-7.6983e-08
1.4461e-09
-7.71778e-08
1.03414e-09
-7.72961e-08
6.20159e-10
-7.73357e-08
1.99564e-10
-7.72958e-08
-2.21088e-10
-7.71805e-08
-6.36064e-10
-7.69919e-08
-1.05313e-09
-7.67257e-08
-1.47308e-09
-7.63807e-08
-1.88202e-09
-7.59627e-08
-2.28388e-09
-7.54712e-08
-2.69853e-09
-7.49e-08
-3.1191e-09
-7.42518e-08
-3.52392e-09
-7.35357e-08
-3.92093e-09
-7.27509e-08
-4.32551e-09
-7.18885e-08
-4.72432e-09
-7.09483e-08
-5.10703e-09
-6.99387e-08
-5.49118e-09
-6.88629e-08
-5.88406e-09
-6.77167e-08
-6.26693e-09
-6.6499e-08
-6.63189e-09
-6.52155e-08
-6.99094e-09
-6.38714e-08
-7.34878e-09
-6.24636e-08
-7.70158e-09
-6.0986e-08
-8.05102e-09
-5.94422e-08
-8.3941e-09
-5.78444e-08
-8.71904e-09
-5.61974e-08
-9.02898e-09
-5.44896e-08
-9.34397e-09
-5.2711e-08
-9.66532e-09
-5.08733e-08
-9.96745e-09
-4.89986e-08
-1.02393e-08
-4.70885e-08
-1.05046e-08
-4.51217e-08
-1.07826e-08
-4.30876e-08
-1.10553e-08
-4.10057e-08
-1.12958e-08
-3.89013e-08
-1.15097e-08
-3.67734e-08
-1.1724e-08
-3.45998e-08
-1.19436e-08
-3.23678e-08
-1.21484e-08
-3.00899e-08
-1.23287e-08
-2.77932e-08
-1.24917e-08
-2.54919e-08
-1.2641e-08
-2.31677e-08
-1.27836e-08
-2.07977e-08
-1.29258e-08
-1.8391e-08
-1.3046e-08
-1.59567e-08
-1.31553e-08
-1.35543e-08
-1.32331e-08
-1.11139e-08
-1.33078e-08
-8.66229e-09
-1.33753e-08
-6.17727e-09
-1.34303e-08
-3.72295e-09
-1.34585e-08
-1.35412e-09
-1.2858e-08
-7.30642e-09
-1.35429e-09
8.44375e-09
-3.72673e-09
1.52187e-08
-6.20986e-09
1.59622e-08
-8.68851e-09
1.59201e-08
-1.11585e-08
1.5861e-08
-1.36164e-08
1.57852e-08
-1.60595e-08
1.5693e-08
-1.84853e-08
1.55847e-08
-2.08913e-08
1.54604e-08
-2.32749e-08
1.532e-08
-2.56335e-08
1.51631e-08
-2.79646e-08
1.49896e-08
-3.02661e-08
1.48e-08
-3.25357e-08
1.45951e-08
-3.47715e-08
1.43759e-08
-3.69713e-08
1.41432e-08
-3.9133e-08
1.38976e-08
-4.12541e-08
1.3639e-08
-4.33324e-08
1.33672e-08
-4.53654e-08
1.30817e-08
-4.73512e-08
1.27824e-08
-4.92877e-08
1.24693e-08
-5.1173e-08
1.21426e-08
-5.30055e-08
1.18029e-08
-5.47835e-08
1.1451e-08
-5.65055e-08
1.1088e-08
-5.81699e-08
1.07147e-08
-5.97752e-08
1.03323e-08
-6.13198e-08
9.94107e-09
-6.2802e-08
9.54138e-09
-6.42202e-08
9.13311e-09
-6.55728e-08
8.71616e-09
-6.68587e-08
8.29066e-09
-6.80769e-08
7.85708e-09
-6.92265e-08
7.41617e-09
-7.03068e-08
6.96887e-09
-7.1317e-08
6.51594e-09
-7.22564e-08
6.05754e-09
-7.31237e-08
5.59328e-09
-7.39179e-08
5.12299e-09
-7.46385e-08
4.64689e-09
-7.52854e-08
4.16491e-09
-7.58579e-08
3.67785e-09
-7.6356e-08
3.1888e-09
-7.67802e-08
2.70012e-09
-7.71298e-08
2.2102e-09
-7.74021e-08
1.71842e-09
-7.75962e-08
1.22827e-09
-7.77138e-08
7.37698e-10
-7.77536e-08
2.39398e-10
-7.77132e-08
-2.61496e-10
-7.7596e-08
-7.53288e-10
-7.74066e-08
-1.24249e-09
-7.71413e-08
-1.73839e-09
-7.67953e-08
-2.22801e-09
-7.63731e-08
-2.70606e-09
-7.58787e-08
-3.19301e-09
-7.53072e-08
-3.69059e-09
-7.4657e-08
-4.17407e-09
-7.39351e-08
-4.64288e-09
-7.3144e-08
-5.11655e-09
-7.22784e-08
-5.58991e-09
-7.13355e-08
-6.04994e-09
-7.03192e-08
-6.50748e-09
-6.92343e-08
-6.96899e-09
-6.80836e-08
-7.41759e-09
-6.68674e-08
-7.84814e-09
-6.55814e-08
-8.2769e-09
-6.42234e-08
-8.70678e-09
-6.28007e-08
-9.12432e-09
-6.13223e-08
-9.52942e-09
-5.97847e-08
-9.93169e-09
-5.81774e-08
-1.03263e-08
-5.65029e-08
-1.07036e-08
-5.47769e-08
-1.10699e-08
-5.30069e-08
-1.14353e-08
-5.11812e-08
-1.17931e-08
-4.92885e-08
-1.21321e-08
-4.7338e-08
-1.2455e-08
-4.53514e-08
-1.27692e-08
-4.33353e-08
-1.30713e-08
-4.12734e-08
-1.33577e-08
-3.91483e-08
-1.36349e-08
-3.69681e-08
-1.39042e-08
-3.47604e-08
-1.41512e-08
-3.25382e-08
-1.43706e-08
-3.02863e-08
-1.45806e-08
-2.79878e-08
-1.47902e-08
-2.56427e-08
-1.49861e-08
-2.3263e-08
-1.51633e-08
-2.08771e-08
-1.53118e-08
-1.84956e-08
-1.54275e-08
-1.60736e-08
-1.55774e-08
-1.36332e-08
-1.56734e-08
-1.11515e-08
-1.57895e-08
-8.70507e-09
-1.58218e-08
-6.21906e-09
-1.59163e-08
-3.739e-09
-1.59386e-08
-1.35299e-09
-1.5244e-08
-8.65942e-09
-1.36235e-09
9.80612e-09
-3.75179e-09
1.76081e-08
-6.25266e-09
1.84631e-08
-8.74832e-09
1.84157e-08
-1.12348e-08
1.83475e-08
-1.3709e-08
1.82594e-08
-1.61683e-08
1.81523e-08
-1.86102e-08
1.80266e-08
-2.10322e-08
1.78824e-08
-2.34313e-08
1.77192e-08
-2.58052e-08
1.75369e-08
-2.81513e-08
1.73357e-08
-3.04675e-08
1.71162e-08
-3.27519e-08
1.68795e-08
-3.50025e-08
1.66264e-08
-3.7217e-08
1.63578e-08
-3.93933e-08
1.60739e-08
-4.15288e-08
1.57745e-08
-4.3621e-08
1.54594e-08
-4.56677e-08
1.51284e-08
-4.76665e-08
1.47813e-08
-4.96155e-08
1.44182e-08
-5.15125e-08
1.40397e-08
-5.3356e-08
1.36464e-08
-5.51443e-08
1.32393e-08
-5.6876e-08
1.28197e-08
-5.85498e-08
1.23885e-08
-6.01643e-08
1.19467e-08
-6.17178e-08
1.14946e-08
-6.32088e-08
1.10324e-08
-6.46356e-08
1.05599e-08
-6.59967e-08
1.00772e-08
-6.72907e-08
9.58472e-09
-6.85168e-08
9.08311e-09
-6.96739e-08
8.57332e-09
-7.07613e-08
8.05628e-09
-7.17781e-08
7.53274e-09
-7.27234e-08
7.00285e-09
-7.35961e-08
6.46602e-09
-7.43952e-08
5.92202e-09
-7.512e-08
5.3717e-09
-7.57707e-08
4.81566e-09
-7.6347e-08
4.25407e-09
-7.68478e-08
3.68963e-09
-7.72736e-08
3.12597e-09
-7.76247e-08
2.56121e-09
-7.7898e-08
1.99173e-09
-7.80913e-08
1.42166e-09
-7.82073e-08
8.53634e-10
-7.82471e-08
2.79197e-10
-7.82074e-08
-3.01178e-10
-7.8089e-08
-8.71663e-10
-7.78979e-08
-1.43367e-09
-7.76325e-08
-2.0038e-09
-7.72859e-08
-2.57461e-09
-7.68598e-08
-3.13213e-09
-7.63605e-08
-3.69227e-09
-7.57863e-08
-4.2648e-09
-7.5134e-08
-4.82644e-09
-7.44077e-08
-5.3691e-09
-7.36106e-08
-5.91372e-09
-7.27383e-08
-6.46223e-09
-7.17898e-08
-6.99845e-09
-7.07704e-08
-7.52686e-09
-6.96824e-08
-8.05694e-09
-6.85242e-08
-8.57584e-09
-6.72977e-08
-9.07463e-09
-6.60063e-08
-9.56828e-09
-6.46471e-08
-1.0066e-08
-6.3216e-08
-1.05554e-08
-6.1719e-08
-1.10264e-08
-6.01665e-08
-1.14843e-08
-5.85586e-08
-1.19342e-08
-5.68858e-08
-1.23764e-08
-5.51442e-08
-1.28115e-08
-5.33449e-08
-1.32347e-08
-5.15018e-08
-1.36363e-08
-4.96154e-08
-1.40184e-08
-4.76741e-08
-1.43963e-08
-4.5671e-08
-1.47724e-08
-4.36144e-08
-1.5128e-08
-4.15196e-08
-1.54524e-08
-3.93944e-08
-1.57601e-08
-3.72341e-08
-1.60645e-08
-3.50269e-08
-1.63584e-08
-3.2765e-08
-1.66326e-08
-3.04594e-08
-1.68862e-08
-2.81363e-08
-1.71133e-08
-2.58024e-08
-1.73199e-08
-2.34421e-08
-1.75237e-08
-2.10494e-08
-1.77044e-08
-1.86091e-08
-1.78678e-08
-1.61664e-08
-1.80201e-08
-1.37095e-08
-1.81303e-08
-1.12593e-08
-1.82397e-08
-8.75907e-09
-1.8322e-08
-6.27084e-09
-1.84046e-08
-3.76708e-09
-1.84423e-08
-1.37658e-09
-1.76345e-08
-1.0036e-08
-1.36939e-09
1.11755e-08
-3.77878e-09
2.00175e-08
-6.30053e-09
2.09848e-08
-8.81547e-09
2.09307e-08
-1.13206e-08
2.08526e-08
-1.38135e-08
2.07522e-08
-1.62916e-08
2.06304e-08
-1.87525e-08
2.04875e-08
-2.11933e-08
2.03231e-08
-2.36111e-08
2.01371e-08
-2.60035e-08
1.99293e-08
-2.8368e-08
1.97002e-08
-3.07025e-08
1.94508e-08
-3.3005e-08
1.9182e-08
-3.52734e-08
1.88948e-08
-3.75053e-08
1.85897e-08
-3.96982e-08
1.82668e-08
-4.18496e-08
1.7926e-08
-4.39571e-08
1.7567e-08
-4.60183e-08
1.71896e-08
-4.8031e-08
1.6794e-08
-4.99931e-08
1.63803e-08
-5.19028e-08
1.59494e-08
-5.37585e-08
1.5502e-08
-5.55587e-08
1.50395e-08
-5.73021e-08
1.45631e-08
-5.89875e-08
1.40739e-08
-6.06133e-08
1.35725e-08
-6.2178e-08
1.30593e-08
-6.36799e-08
1.25342e-08
-6.51171e-08
1.19972e-08
-6.64883e-08
1.14484e-08
-6.77919e-08
1.08883e-08
-6.90269e-08
1.03182e-08
-7.01926e-08
9.73899e-09
-7.12879e-08
9.15163e-09
-7.2312e-08
8.55676e-09
-7.32638e-08
7.95465e-09
-7.41424e-08
7.34469e-09
-7.49467e-08
6.72634e-09
-7.5676e-08
6.10097e-09
-7.63307e-08
5.47032e-09
-7.69107e-08
4.8341e-09
-7.74146e-08
4.19352e-09
-7.78419e-08
3.55332e-09
-7.81938e-08
2.91309e-09
-7.84683e-08
2.26623e-09
-7.86619e-08
1.61524e-09
-7.87766e-08
9.68338e-10
-7.88163e-08
3.18937e-10
-7.87784e-08
-3.39152e-10
-7.86602e-08
-9.89832e-10
-7.8467e-08
-1.6269e-09
-7.82001e-08
-2.27065e-09
-7.78524e-08
-2.92233e-09
-7.74226e-08
-3.5619e-09
-7.69183e-08
-4.19663e-09
-7.63406e-08
-4.84243e-09
-7.56851e-08
-5.482e-09
-7.49535e-08
-6.1007e-09
-7.41506e-08
-6.71665e-09
-7.32736e-08
-7.33917e-09
-7.23191e-08
-7.95303e-09
-7.12918e-08
-8.55406e-09
-7.01987e-08
-9.1501e-09
-6.9038e-08
-9.73654e-09
-6.78042e-08
-1.03084e-08
-6.64974e-08
-1.08751e-08
-6.51237e-08
-1.14397e-08
-6.36881e-08
-1.1991e-08
-6.21894e-08
-1.25251e-08
-6.06236e-08
-1.305e-08
-5.89913e-08
-1.35665e-08
-5.73004e-08
-1.40674e-08
-5.55583e-08
-1.45535e-08
-5.37629e-08
-1.50301e-08
-5.19053e-08
-1.54939e-08
-4.99848e-08
-1.59389e-08
-4.80148e-08
-1.63662e-08
-4.60085e-08
-1.67787e-08
-4.39618e-08
-1.71746e-08
-4.18593e-08
-1.75549e-08
-3.96974e-08
-1.7922e-08
-3.74931e-08
-1.82688e-08
-3.52629e-08
-1.85886e-08
-3.30052e-08
-1.88902e-08
-3.07136e-08
-1.91777e-08
-2.83851e-08
-1.94418e-08
-2.60125e-08
-1.96925e-08
-2.36075e-08
-1.99287e-08
-2.11959e-08
-2.01159e-08
-1.87587e-08
-2.03051e-08
-1.63188e-08
-2.04599e-08
-1.38196e-08
-2.06296e-08
-1.13421e-08
-2.07172e-08
-8.82092e-09
-2.08432e-08
-6.32728e-09
-2.08982e-08
-3.80142e-09
-2.09682e-08
-1.40005e-09
-2.00358e-08
-1.14361e-08
-1.37586e-09
1.25514e-08
-3.80802e-09
2.24497e-08
-6.35333e-09
2.35301e-08
-8.89006e-09
2.34674e-08
-1.14167e-08
2.33792e-08
-1.39312e-08
2.32668e-08
-1.64314e-08
2.31306e-08
-1.89143e-08
2.29704e-08
-2.1377e-08
2.27858e-08
-2.38166e-08
2.25767e-08
-2.62305e-08
2.23432e-08
-2.86163e-08
2.2086e-08
-3.09719e-08
2.18063e-08
-3.32949e-08
2.1505e-08
-3.55831e-08
2.1183e-08
-3.78341e-08
2.08406e-08
-4.00452e-08
2.04779e-08
-4.2214e-08
2.00948e-08
-4.43381e-08
1.96911e-08
-4.64153e-08
1.92668e-08
-4.84434e-08
1.88221e-08
-5.04206e-08
1.83575e-08
-5.23451e-08
1.78738e-08
-5.42153e-08
1.73723e-08
-5.60299e-08
1.68542e-08
-5.77876e-08
1.63208e-08
-5.9487e-08
1.57732e-08
-6.11264e-08
1.52119e-08
-6.2704e-08
1.4637e-08
-6.42182e-08
1.40484e-08
-6.5667e-08
1.3446e-08
-6.70489e-08
1.28303e-08
-6.83626e-08
1.2202e-08
-6.96071e-08
1.15627e-08
-7.07816e-08
1.09135e-08
-7.18852e-08
1.02553e-08
-7.29168e-08
9.58835e-09
-7.38754e-08
8.91321e-09
-7.47602e-08
8.22953e-09
-7.55703e-08
7.53642e-09
-7.63045e-08
6.83521e-09
-7.69634e-08
6.12911e-09
-7.75474e-08
5.41814e-09
-7.8055e-08
4.70116e-09
-7.84845e-08
3.98284e-09
-7.88374e-08
3.26598e-09
-7.91136e-08
2.54244e-09
-7.9309e-08
1.8106e-09
-7.94238e-08
1.08314e-09
-7.94637e-08
3.58848e-10
-7.94279e-08
-3.74986e-10
-7.93109e-08
-1.10681e-09
-7.91154e-08
-1.82238e-09
-7.88457e-08
-2.54041e-09
-7.84963e-08
-3.27174e-09
-7.80631e-08
-3.99507e-09
-7.75529e-08
-4.7068e-09
-7.6971e-08
-5.4244e-09
-7.6313e-08
-6.13992e-09
-7.55765e-08
-6.83725e-09
-7.47652e-08
-7.52795e-09
-7.38815e-08
-8.22291e-09
-7.29234e-08
-8.91109e-09
-7.18909e-08
-9.58652e-09
-7.07873e-08
-1.02537e-08
-6.9615e-08
-1.09088e-08
-6.83735e-08
-1.15499e-08
-6.70601e-08
-1.21885e-08
-6.56739e-08
-1.28259e-08
-6.42203e-08
-1.34447e-08
-6.27072e-08
-1.40382e-08
-6.11358e-08
-1.46214e-08
-5.94992e-08
-1.52031e-08
-5.77935e-08
-1.5773e-08
-5.6027e-08
-1.63199e-08
-5.42111e-08
-1.6846e-08
-5.23465e-08
-1.73586e-08
-5.04251e-08
-1.78602e-08
-4.84437e-08
-1.83477e-08
-4.64082e-08
-1.88143e-08
-4.43256e-08
-1.92572e-08
-4.21999e-08
-1.96807e-08
-4.00353e-08
-2.00866e-08
-3.78345e-08
-2.04696e-08
-3.55906e-08
-2.08325e-08
-3.32984e-08
-2.11824e-08
-3.09702e-08
-2.15059e-08
-2.86175e-08
-2.17945e-08
-2.62358e-08
-2.20742e-08
-2.383e-08
-2.23345e-08
-2.13927e-08
-2.25533e-08
-1.89243e-08
-2.27735e-08
-1.64387e-08
-2.29454e-08
-1.39393e-08
-2.3129e-08
-1.14292e-08
-2.32273e-08
-8.90212e-09
-2.33703e-08
-6.37259e-09
-2.34277e-08
-3.83316e-09
-2.35076e-08
-1.40444e-09
-2.24646e-08
-1.28405e-08
-1.38547e-09
1.39368e-08
-3.84247e-09
2.49067e-08
-6.41311e-09
2.61008e-08
-8.97444e-09
2.60288e-08
-1.15258e-08
2.59306e-08
-1.40654e-08
2.58064e-08
-1.65906e-08
2.56557e-08
-1.90983e-08
2.54781e-08
-2.15854e-08
2.52729e-08
-2.4049e-08
2.50403e-08
-2.64866e-08
2.47807e-08
-2.88957e-08
2.44951e-08
-3.12741e-08
2.41847e-08
-3.36193e-08
2.38503e-08
-3.5929e-08
2.34927e-08
-3.82006e-08
2.31122e-08
-4.04317e-08
2.2709e-08
-4.26199e-08
2.22829e-08
-4.47629e-08
2.18341e-08
-4.68586e-08
2.13625e-08
-4.8905e-08
2.08684e-08
-5.09001e-08
2.03526e-08
-5.28422e-08
1.9816e-08
-5.47298e-08
1.92599e-08
-5.65615e-08
1.86858e-08
-5.83357e-08
1.80951e-08
-6.00509e-08
1.74884e-08
-6.17053e-08
1.68663e-08
-6.32969e-08
1.62286e-08
-6.48238e-08
1.55753e-08
-6.62845e-08
1.49066e-08
-6.76774e-08
1.42232e-08
-6.90015e-08
1.35261e-08
-7.02558e-08
1.2817e-08
-7.14396e-08
1.20973e-08
-7.2552e-08
1.13678e-08
-7.35919e-08
1.06282e-08
-7.4558e-08
9.87925e-09
-7.54496e-08
9.12119e-09
-7.62663e-08
8.35308e-09
-7.70066e-08
7.57549e-09
-7.76703e-08
6.79282e-09
-7.82589e-08
6.00669e-09
-7.87712e-08
5.21348e-09
-7.92041e-08
4.4158e-09
-7.95586e-08
3.62049e-09
-7.98369e-08
2.82072e-09
-8.00354e-08
2.00907e-09
-8.01517e-08
1.19943e-09
-8.01916e-08
3.98725e-10
-8.01571e-08
-4.09467e-10
-8.00415e-08
-1.22238e-09
-7.98436e-08
-2.02028e-09
-7.95691e-08
-2.81498e-09
-7.92166e-08
-3.6242e-09
-7.87811e-08
-4.43056e-09
-7.8266e-08
-5.22191e-09
-7.76779e-08
-6.01255e-09
-7.70159e-08
-6.80192e-09
-7.62759e-08
-7.57719e-09
-7.5458e-08
-8.3459e-09
-7.45645e-08
-9.11642e-09
-7.35978e-08
-9.87774e-09
-7.25598e-08
-1.06245e-08
-7.14499e-08
-1.13637e-08
-7.02654e-08
-1.20933e-08
-6.90072e-08
-1.28082e-08
-6.768e-08
-1.35157e-08
-6.6287e-08
-1.42189e-08
-6.48272e-08
-1.49045e-08
-6.32998e-08
-1.55656e-08
-6.17074e-08
-1.62138e-08
-6.00536e-08
-1.6857e-08
-5.83407e-08
-1.74859e-08
-5.65697e-08
-1.80909e-08
-5.47392e-08
-1.86766e-08
-5.28475e-08
-1.92503e-08
-5.08981e-08
-1.98096e-08
-4.89001e-08
-2.03457e-08
-4.6858e-08
-2.08564e-08
-4.47663e-08
-2.13489e-08
-4.262e-08
-2.18269e-08
-4.04261e-08
-2.22804e-08
-3.81944e-08
-2.27013e-08
-3.59242e-08
-2.31028e-08
-3.36154e-08
-2.34912e-08
-3.12758e-08
-2.38455e-08
-2.89014e-08
-2.41689e-08
-2.64873e-08
-2.44882e-08
-2.40501e-08
-2.47718e-08
-2.15831e-08
-2.50202e-08
-1.91071e-08
-2.52495e-08
-1.65918e-08
-2.54607e-08
-1.4084e-08
-2.56368e-08
-1.15278e-08
-2.57835e-08
-8.99093e-09
-2.59071e-08
-6.41794e-09
-2.60007e-08
-3.86603e-09
-2.60595e-08
-1.40167e-09
-2.49289e-08
-1.42422e-08
-1.40265e-09
1.53395e-08
-3.88582e-09
2.73899e-08
-6.4829e-09
2.86979e-08
-9.07163e-09
2.86175e-08
-1.16509e-08
2.85099e-08
-1.42183e-08
2.83738e-08
-1.67708e-08
2.82083e-08
-1.93053e-08
2.80125e-08
-2.18185e-08
2.77861e-08
-2.43078e-08
2.75296e-08
-2.67706e-08
2.72436e-08
-2.92046e-08
2.69292e-08
-3.16075e-08
2.65875e-08
-3.39767e-08
2.62195e-08
-3.63099e-08
2.58258e-08
-3.86045e-08
2.54068e-08
-4.08582e-08
2.49626e-08
-4.30686e-08
2.44934e-08
-4.52335e-08
2.3999e-08
-4.73508e-08
2.34797e-08
-4.94182e-08
2.29359e-08
-5.1434e-08
2.23683e-08
-5.33963e-08
2.17783e-08
-5.53035e-08
2.11671e-08
-5.7154e-08
2.05364e-08
-5.89462e-08
1.98872e-08
-6.06783e-08
1.92205e-08
-6.23483e-08
1.85363e-08
-6.39544e-08
1.78347e-08
-6.54947e-08
1.71157e-08
-6.69678e-08
1.63797e-08
-6.83725e-08
1.56279e-08
-6.9708e-08
1.48616e-08
-7.09733e-08
1.40823e-08
-7.21677e-08
1.32917e-08
-7.32903e-08
1.24904e-08
-7.43398e-08
1.16778e-08
-7.53147e-08
1.08541e-08
-7.62142e-08
1.00207e-08
-7.70384e-08
9.17724e-09
-7.77859e-08
8.32295e-09
-7.84555e-08
7.46244e-09
-7.90489e-08
6.60007e-09
-7.95663e-08
5.73091e-09
-8.00038e-08
4.85333e-09
-8.03605e-08
3.97722e-09
-8.06405e-08
3.10066e-09
-8.08422e-08
2.2108e-09
-8.09609e-08
1.31814e-09
-8.10003e-08
4.3809e-10
-8.09651e-08
-4.4464e-10
-8.085e-08
-1.33755e-09
-8.065e-08
-2.22022e-09
-8.037e-08
-3.09503e-09
-8.00126e-08
-3.98159e-09
-7.95746e-08
-4.86851e-09
-7.90567e-08
-5.73987e-09
-7.84632e-08