/*--------------------------------*- C++ -*----------------------------------*\
| =========                 |                                                 |
| \\      /  F ield         | OpenFOAM: The Open Source CFD Toolbox           |
|  \\    /   O peration     | Version:  2212                                  |
|   \\  /    A nd           | Website:  www.openfoam.com                      |
|    \\/     M anipulation  |                                                 |
\*---------------------------------------------------------------------------*/
FoamFile
{
    version     2.0;
    format      ascii;
    arch        "LSB;label=32;scalar=64";
    class       volScalarField;
    location    "0.072";
    object      p;
}
// * * * * * * * * * * * * * * * * * * * * * * * * * * * * * * * * * * * * * //

dimensions      [0 2 -2 0 0 0 0];

internalField   nonuniform List<scalar> 
10000
(
9.95772e-08
8.88984e-05
-0.000132026
-0.000706419
-0.00158362
-0.00270738
-0.00402222
-0.00547566
-0.00702001
-0.00861331
-0.0102187
-0.0118041
-0.0133415
-0.0148067
-0.0161787
-0.0174395
-0.0185735
-0.0195677
-0.020411
-0.0210942
-0.02161
-0.0219523
-0.0221168
-0.0221002
-0.0219006
-0.0215172
-0.0209499
-0.0201999
-0.0192691
-0.0181602
-0.0168765
-0.0154222
-0.0138021
-0.0120216
-0.0100866
-0.00800351
-0.00577926
-0.00342115
-0.000936924
0.00166528
0.00437688
0.00718903
0.0100925
0.013078
0.0161357
0.0192556
0.0224276
0.0256412
0.0288859
0.032151
0.0354257
0.038699
0.0419601
0.0451978
0.0484013
0.0515593
0.0546611
0.0576957
0.0606525
0.063521
0.0662909
0.0689521
0.071495
0.0739101
0.0761886
0.0783218
0.0803018
0.0821209
0.0837724
0.0852501
0.0865487
0.0876635
0.0885907
0.0893274
0.0898718
0.0902229
0.0903811
0.090348
0.0901264
0.0897205
0.0891359
0.08838
0.0874618
0.086392
0.0851834
0.0838509
0.0824118
0.0808859
0.0792959
0.0776676
0.0760303
0.0744172
0.0728656
0.0714177
0.0701205
0.069025
0.0681835
0.067646
0.0674543
0.067559
-9.09126e-05
-6.35976e-06
-0.000222296
-0.000735147
-0.00149464
-0.0024613
-0.00359486
-0.00485364
-0.00619836
-0.00759276
-0.00900415
-0.0104034
-0.0117648
-0.0130653
-0.0142852
-0.0154071
-0.016416
-0.017299
-0.0180452
-0.0186453
-0.0190919
-0.019379
-0.0195016
-0.0194565
-0.0192414
-0.0188549
-0.0182967
-0.0175678
-0.0166693
-0.0156037
-0.0143739
-0.0129836
-0.0114372
-0.00973954
-0.00789602
-0.0059127
-0.00379599
-0.00155273
0.000809798
0.00328394
0.00586161
0.00853449
0.0112939
0.014131
0.0170363
0.0200006
0.0230141
0.0260669
0.0291491
0.0322504
0.0353606
0.0384693
0.0415662
0.0446408
0.0476826
0.0506812
0.0536262
0.0565074
0.0593148
0.0620383
0.0646685
0.0671956
0.0696108
0.0719052
0.0740704
0.0760986
0.0779823
0.0797144
0.0812887
0.0826997
0.0839425
0.0850129
0.0859078
0.0866245
0.0871617
0.0875188
0.0876966
0.0876969
0.0875228
0.0871787
0.0866703
0.086005
0.0851917
0.084241
0.0831654
0.0819794
0.0806994
0.0793444
0.0779358
0.0764976
0.0750568
0.0736433
0.07229
0.0710331
0.0699114
0.0689651
0.0682324
0.0677484
0.0675583
0.0676634
0.000121562
0.000198641
-1.76271e-05
-0.000498761
-0.00119117
-0.0020624
-0.00307985
-0.00420892
-0.00541615
-0.00667002
-0.00794147
-0.00920425
-0.0104345
-0.0116112
-0.0127155
-0.0137309
-0.0146432
-0.0154397
-0.01611
-0.0166449
-0.017037
-0.0172801
-0.0173696
-0.0173018
-0.0170742
-0.0166853
-0.0161346
-0.0154226
-0.0145503
-0.0135197
-0.0123336
-0.0109954
-0.00950881
-0.00787853
-0.00610958
-0.0042076
-0.0021786
-2.90378e-05
0.00223416
0.00460372
0.007072
0.00963108
0.0122728
0.0149884
0.0177693
0.0206063
0.0234903
0.0264117
0.029361
0.0323286
0.0353045
0.0382788
0.0412418
0.0441833
0.0470934
0.0499621
0.0527795
0.0555359
0.0582218
0.0608276
0.0633442
0.0657627
0.0680743
0.0702709
0.0723446
0.0742879
0.0760937
0.0777556
0.0792677
0.080625
0.0818229
0.0828577
0.0837264
0.084427
0.0849583
0.0853201
0.0855132
0.0855397
0.0854029
0.0851071
0.0846581
0.0840633
0.0833314
0.0824726
0.081499
0.0804244
0.0792648
0.0780378
0.0767637
0.0754645
0.0741651
0.0728923
0.0716755
0.070546
0.069537
0.068682
0.0680121
0.0675567
0.0673674
0.0674726
0.000678812
0.000697381
0.000450501
-3.02164e-05
-0.000696072
-0.00151787
-0.00246705
-0.0035139
-0.00462921
-0.00578544
-0.00695677
-0.00811936
-0.00925168
-0.0103342
-0.0113494
-0.012282
-0.0131183
-0.0138463
-0.014456
-0.0149385
-0.0152866
-0.0154943
-0.0155568
-0.0154706
-0.015233
-0.0148424
-0.0142983
-0.0136008
-0.0127507
-0.0117499
-0.0106009
-0.00930661
-0.00787081
-0.0062977
-0.00459207
-0.00275921
-0.000804814
0.001265
0.00344366
0.00572418
0.00809929
0.0105614
0.0131028
0.0157151
0.0183899
0.0211185
0.0238921
0.0267016
0.0295379
0.0323915
0.0352532
0.0381133
0.0409624
0.0437909
0.0465892
0.0493477
0.0520569
0.0547077
0.0572907
0.059797
0.0622177
0.0645444
0.0667687
0.068883
0.0708796
0.0727514
0.0744919
0.0760948
0.0775547
0.0788669
0.0800271
0.081032
0.0818788
0.0825656
0.0830916
0.0834567
0.0836619
0.0837093
0.0836023
0.083345
0.0829434
0.0824045
0.0817368
0.0809501
0.080056
0.0790676
0.0779999
0.0768696
0.0756954
0.0744977
0.0732992
0.072124
0.0709983
0.0699498
0.0690072
0.0681998
0.0675549
0.0670994
0.0668826
0.0669373
0.00153727
0.00144347
0.00113131
0.000623527
-4.35362e-05
-0.000844078
-0.00175308
-0.0027447
-0.00379387
-0.00487648
-0.00596962
-0.00705212
-0.00810449
-0.00910893
-0.0100494
-0.0109116
-0.0116828
-0.0123517
-0.0129088
-0.0133456
-0.0136552
-0.0138318
-0.0138708
-0.0137685
-0.0135224
-0.0131309
-0.0125932
-0.0119094
-0.0110801
-0.0101071
-0.00899254
-0.00773924
-0.0063506
-0.00483062
-0.00318384
-0.00141524
0.0004698
0.00246543
0.00456539
0.00676305
0.00905145
0.0114234
0.0138714
0.0163874
0.0189634
0.0215911
0.0242621
0.0269675
0.0296987
0.0324464
0.0352019
0.0379559
0.0406993
0.0434229
0.0461175
0.0487738
0.0513829
0.0539358
0.0564236
0.0588378
0.06117
0.0634119
0.0655557
0.067594
0.0695196
0.0713257
0.0730059
0.0745545
0.0759664
0.0772371
0.0783627
0.0793399
0.0801662
0.0808401
0.0813607
0.0817281
0.0819435
0.0820089
0.0819276
0.0817039
0.0813433
0.0808526
0.0802401
0.0795151
0.0786884
0.0777727
0.0767817
0.075731
0.0746379
0.0735211
0.072401
0.0712993
0.0702392
0.069245
0.0683417
0.0675548
0.0669082
0.0664265
0.0661482
0.0660981
0.00264787
0.00240263
0.0019959
0.00143622
0.000743109
-6.12025e-05
-0.000954584
-0.00191513
-0.00292123
-0.00395194
-0.00498728
-0.00600846
-0.00699798
-0.00793978
-0.0088193
-0.00962333
-0.0103401
-0.0109593
-0.0114718
-0.0118697
-0.0121464
-0.0122964
-0.0123153
-0.0121995
-0.0119466
-0.011555
-0.0110238
-0.010353
-0.00954326
-0.00859604
-0.00751336
-0.00629787
-0.00495279
-0.00348187
-0.00188937
-0.000180019
0.00164105
0.00356823
0.00559556
0.00771677
0.00992518
0.0122139
0.0145757
0.0170029
0.0194878
0.0220224
0.0245987
0.0272082
0.0298424
0.0324927
0.0351503
0.0378066
0.0404528
0.0430799
0.0456791
0.0482416
0.0507588
0.0532219
0.0556225
0.0579523
0.0602034
0.0623677
0.064438
0.0664069
0.0682677
0.0700136
0.0716389
0.073138
0.0745062
0.075739
0.0768328
0.0777845
0.0785919
0.0792536
0.0797687
0.0801375
0.080361
0.0804413
0.0803817
0.0801863
0.0798603
0.0794104
0.0788441
0.0781705
0.0773997
0.0765433
0.0756143
0.0746271
0.0735974
0.0725421
0.0714797
0.0704295
0.0694119
0.0684483
0.0675602
0.0667694
0.0660973
0.0655655
0.0651968
0.0650026
0.00396029
0.00353796
0.00301443
0.00238199
0.00164109
0.000811107
-8.86671e-05
-0.00103982
-0.00202393
-0.00302293
-0.00401945
-0.00499694
-0.00593993
-0.00683402
-0.00766602
-0.00842396
-0.0090971
-0.00967586
-0.0101518
-0.0105176
-0.0107672
-0.0108952
-0.0108976
-0.0107711
-0.0105132
-0.0101224
-0.00959774
-0.00893932
-0.00814773
-0.00722426
-0.00617083
-0.00498994
-0.00368464
-0.00225846
-0.000715442
0.000939871
0.0027026
0.0045674
0.00652853
0.00858003
0.0107155
0.0129283
0.0152115
0.0175578
0.0199597
0.0224096
0.0248997
0.0274218
0.0299677
0.0325292
0.035098
0.0376655
0.0402233
0.0427629
0.0452756
0.0477531
0.0501869
0.0525687
0.0548904
0.057144
0.0593218
0.0614162
0.0634201
0.0653265
0.0671287
0.0688207
0.0703965
0.0718511
0.0731798
0.0743785
0.0754436
0.0763722
0.0771622
0.0778123
0.0783217
0.0786908
0.0789204
0.0790127
0.0789706
0.0787982
0.0785005
0.0780837
0.0775548
0.0769224
0.0761959
0.075386
0.0745048
0.0735654
0.072582
0.0715701
0.070546
0.0695269
0.0685307
0.067576
0.0666814
0.0658652
0.0651466
0.0645444
0.0640632
0.0636988
0.00542639
0.00481157
0.00415536
0.00343364
0.00262751
0.0017535
0.000828785
-0.000131471
-0.00111172
-0.00209654
-0.00307091
-0.00402043
-0.00493151
-0.00579132
-0.00658806
-0.00731098
-0.00795029
-0.00849726
-0.00894419
-0.00928442
-0.00951222
-0.00962274
-0.00961214
-0.00947739
-0.00921617
-0.00882701
-0.00830916
-0.00766258
-0.00688791
-0.00598633
-0.00495969
-0.00381037
-0.00254126
-0.00115577
0.000342286
0.00194855
0.00365831
0.00546646
0.00736755
0.00935581
0.0114251
0.0135691
0.015781
0.0180539
0.0203805
0.0227536
0.0251655
0.0276085
0.0300745
0.0325558
0.0350441
0.0375314
0.0400094
0.0424699
0.0449046
0.0473054
0.0496641
0.0519728
0.0542235
0.0564086
0.0585206
0.0605524
0.0624968
0.0643471
0.066097
0.0677406
0.0692722
0.070687
0.0719804
0.0731484
0.0741877
0.0750954
0.0758695
0.0765087
0.0770124
0.0773806
0.0776144
0.0777158
0.0776875
0.0775332
0.0772578
0.0768669
0.0763673
0.0757667
0.0750739
0.0742988
0.0734524
0.0725467
0.0715945
0.0706096
0.0696067
0.0686009
0.0676079
0.0666436
0.065724
0.0648645
0.064082
0.063393
0.0627834
0.0622329
0.00700383
0.00618792
0.00538834
0.00456501
0.00367976
0.00274691
0.0017819
0.000797029
-0.000194885
-0.00118071
-0.00214754
-0.00308292
-0.003975
-0.0048125
-0.00558501
-0.0062829
-0.00689733
-0.00742049
-0.00784542
-0.00816603
-0.00837708
-0.0084742
-0.00845389
-0.00831336
-0.00805045
-0.00766384
-0.00715294
-0.00651773
-0.0057588
-0.00487735
-0.00387517
-0.00275457
-0.00151828
-0.000169573
0.00128783
0.00284976
0.00451167
0.00626868
0.00811557
0.0100468
0.0120564
0.0141383
0.0162859
0.0184926
0.0207514
0.0230553
0.0253968
0.0277685
0.0301627
0.0325717
0.0349878
0.0374029
0.0398093
0.0421989
0.0445638
0.0468959
0.0491875
0.0514308
0.0536181
0.0557421
0.0577956
0.0597715
0.0616629
0.0634635
0.0651669
0.0667675
0.06826
0.0696394
0.0709014
0.0720422
0.0730584
0.0739473
0.0747069
0.0753359
0.0758337
0.0762003
0.0764366
0.0765443
0.0765262
0.0763856
0.076127
0.0757556
0.0752777
0.0747003
0.0740317
0.0732807
0.0724575
0.0715728
0.0706382
0.0696662
0.0686696
0.0676616
0.066656
0.0656665
0.0647064
0.0637887
0.0629286
0.0621403
0.0613913
0.0606458
0.00865573
0.00763498
0.00668533
0.00575135
0.00477624
0.00377275
0.00275477
0.00173225
0.000715595
-0.000284184
-0.00125614
-0.00218953
-0.00307411
-0.00390007
-0.00465823
-0.0053401
-0.00593783
-0.00644447
-0.0068538
-0.00716026
-0.00735924
-0.00744686
-0.00741987
-0.00727575
-0.00701268
-0.00662949
-0.00612569
-0.00550132
-0.00475703
-0.00389404
-0.00291409
-0.00181942
-0.000612703
0.000702926
0.00212384
0.00364598
0.00526501
0.00697621
0.00877455
0.0106547
0.0126108
0.0146371
0.0167272
0.0188747
0.0210729
0.0233148
0.0255935
0.0279015
0.0302316
0.0325763
0.0349279
0.0372789
0.0396216
0.0419482
0.044251
0.0465223
0.0487544
0.0509398
0.0530711
0.0551412
0.057143
0.0590697
0.0609146
0.0626713
0.064334
0.0658969
0.067355
0.0687035
0.0699379
0.0710547
0.0720505
0.0729227
0.0736693
0.0742888
0.0747807
0.0751449
0.0753821
0.0754939
0.0754827
0.0753517
0.0751048
0.074747
0.0742839
0.073722
0.0730688
0.0723324
0.0715218
0.0706469
0.0697181
0.0687463
0.0677428
0.0667193
0.0656876
0.0646596
0.0636463
0.0626583
0.0617097
0.060813
0.0599176
0.0589731
0.0103502
0.00912436
0.00802076
0.00696973
0.00589682
0.00481327
0.00373208
0.00266106
0.00160858
0.000583742
-0.000404251
-0.00134624
-0.00223344
-0.00305736
-0.00380998
-0.00448393
-0.00507236
-0.00556905
-0.00596851
-0.00626591
-0.00645713
-0.00653872
-0.00650781
-0.00636221
-0.00610037
-0.00572131
-0.00522468
-0.00461064
-0.0038799
-0.0030337
-0.00207381
-0.00100238
0.000177941
0.00146407
0.00285249
0.00433928
0.00592022
0.00759077
0.00934604
0.0111808
0.0130896
0.0150665
0.0171057
0.0192007
0.0213453
0.0235325
0.0257555
0.0280073
0.0302808
0.0325687
0.0348636
0.0371581
0.0394447
0.041716
0.0439644
0.0461823
0.0483623
0.0504971
0.0525796
0.0546027
0.0565596
0.0584435
0.060248
0.0619668
0.0635942
0.0651246
0.066553
0.0678747
0.0690854
0.0701814
0.0711595
0.072017
0.072752
0.073363
0.0738491
0.0742103
0.0744471
0.0745608
0.0745537
0.0744285
0.0741889
0.0738393
0.0733849
0.0728315
0.0721858
0.0714553
0.0706481
0.0697731
0.0688394
0.0678567
0.066835
0.0657844
0.0647152
0.0636375
0.0625605
0.0614927
0.0604472
0.0594354
0.0583896
0.0572454
0.01206
0.0106307
0.00937147
0.00819914
0.00702237
0.00585153
0.00469889
0.00357047
0.00247286
0.00141358
0.000400242
-0.000559474
-0.00145807
-0.0022883
-0.00304322
-0.00371648
-0.00430215
-0.00479481
-0.00518964
-0.00548252
-0.00566983
-0.00574855
-0.00571621
-0.00557098
-0.00531159
-0.00493728
-0.00444781
-0.00384352
-0.00312522
-0.00229417
-0.00135216
-0.000301348
0.00085565
0.00211579
0.00347563
0.00493135
0.00647887
0.00811377
0.00983127
0.0116263
0.0134935
0.0154273
0.0174219
0.0194711
0.0215687
0.0237081
0.0258826
0.0280855
0.0303096
0.0325481
0.0347937
0.0370391
0.0392772
0.0415005
0.0437018
0.0458737
0.0480089
0.0501002
0.0521407
0.0541236
0.0560421
0.0578895
0.0596596
0.0613462
0.0629437
0.0644466
0.0658499
0.067149
0.0683396
0.0694181
0.0703812
0.0712262
0.0719512
0.0725545
0.0730352
0.073393
0.0736282
0.0737421
0.0737365
0.073614
0.0733776
0.0730314
0.0725801
0.0720289
0.0713838
0.0706516
0.0698396
0.0689555
0.0680077
0.0670045
0.0659547
0.0648673
0.063751
0.0626144
0.061465
0.0603098
0.0591611
0.0580296
0.0568314
0.0554889
0.0137613
0.0121316
0.0107166
0.00942028
0.00813534
0.00687166
0.00564104
0.00444797
0.00329754
0.00219588
0.00114924
0.000163937
-0.00075365
-0.0015974
-0.00236149
-0.00304047
-0.00362919
-0.00412303
-0.00451796
-0.00481038
-0.00499719
-0.00507581
-0.00504427
-0.00490104
-0.00464511
-0.00427596
-0.00379357
-0.00319838
-0.00249134
-0.00167378
-0.000747524
0.000285264
0.00142197
0.00265956
0.00399464
0.0054235
0.00694217
0.00854628
0.0102312
0.0119919
0.0138233
0.01572
0.0176762
0.019686
0.0217432
0.0238415
0.0259744
0.0281352
0.0303172
0.0325134
0.0347169
0.0369205
0.0391172
0.0413
0.0434614
0.0455943
0.0476917
0.0497465
0.0517518
0.0537011
0.0555875
0.0574046
0.0591462
0.0608062
0.062379
0.0638593
0.0652421
0.0665227
0.0676969
0.0687611
0.0697119
0.0705467
0.0712633
0.07186
0.0723357
0.0726899
0.0729229
0.0730354
0.0730292
0.0729064
0.0726698
0.0723229
0.0718697
0.0713151
0.0706646
0.069924
0.0690998
0.0681991
0.0672289
0.0661969
0.0651107
0.063978
0.0628065
0.0616033
0.0603747
0.059126
0.0578694
0.0566152
0.0552641
0.053726
0.0154339
0.0136074
0.0120374
0.0106155
0.00921948
0.00785875
0.00654499
0.00528146
0.0040719
0.00292117
0.00183445
0.000816942
-0.000126182
-0.000989812
-0.00176902
-0.00245919
-0.00305607
-0.00355577
-0.00395488
-0.00425038
-0.00443967
-0.0045207
-0.00449186
-0.00435199
-0.00410033
-0.00373662
-0.00326104
-0.00267422
-0.00197722
-0.00117144
-0.000258744
0.00075861
0.00187799
0.0030964
0.00441051
0.00581666
0.00731092
0.008889
0.0105463
0.0122782
0.0140794
0.0159447
0.0178686
0.0198452
0.0218685
0.0239323
0.0260303
0.0281559
0.0303026
0.0324636
0.0346319
0.0368009
0.0389634
0.0411126
0.0432411
0.0453421
0.0474085
0.0494335
0.0514104
0.0533324
0.055193
0.0569858
0.0587046
0.0603435
0.061897
0.0633595
0.0647263
0.0659925
0.0671541
0.0682072
0.0691486
0.0699754
0.0706854
0.0712767
0.0717481
0.0720988
0.0723289
0.0724391
0.0724305
0.0723051
0.0720652
0.0717138
0.0712546
0.0706919
0.0700304
0.0692755
0.0684329
0.0675087
0.0665093
0.0654413
0.0643114
0.0631265
0.0618929
0.0606168
0.0593033
0.0579565
0.0565887
0.05521
0.0537064
0.051976
0.0170596
0.0150404
0.0133168
0.0117689
0.0102596
0.00879872
0.00739786
0.00605917
0.00478532
0.00358012
0.0024477
0.00139226
0.000418014
-0.000470876
-0.00127033
-0.00197653
-0.00258602
-0.0030956
-0.00350245
-0.00380408
-0.00399844
-0.00408397
-0.00405946
-0.00392401
-0.00367719
-0.00331901
-0.00284989
-0.00227059
-0.00158227
-0.000786483
0.000114812
0.00111932
0.00222437
0.00342698
0.00472385
0.00611136
0.00758559
0.00914232
0.0107771
0.0124852
0.0142617
0.0161015
0.017999
0.0199484
0.0219441
0.0239798
0.0260495
0.0281467
0.0302649
0.0323974
0.0345376
0.0366788
0.0388141
0.0409366
0.0430392
0.045115
0.0471572
0.0491591
0.0511139
0.0530151
0.054856
0.0566305
0.0583323
0.0599555
0.0614947
0.0629444
0.0642996
0.0655556
0.0667082
0.0677536
0.0686884
0.0695097
0.0702151
0.0708024
0.0712703
0.0716179
0.071845
0.071952
0.0719397
0.0718096
0.0715638
0.0712049
0.0707361
0.070161
0.0694841
0.0687098
0.0678432
0.0668897
0.065855
0.0647449
0.0635653
0.0623221
0.0610207
0.0596666
0.0582636
0.0568153
0.0553338
0.0538295
0.0521744
0.0502552
0.018623
0.016415
0.0145396
0.0128654
0.0112418
0.00967853
0.00818751
0.00676998
0.00542764
0.00416346
0.00298068
0.00188252
0.00087241
-4.63054e-05
-0.000870363
-0.00159675
-0.0022227
-0.0027456
-0.00316316
-0.00347355
-0.00367525
-0.00376703
-0.00374805
-0.00361783
-0.00337623
-0.0030235
-0.00256026
-0.00198746
-0.00130642
-0.000518797
0.000373349
0.00136763
0.00246135
0.00365154
0.00493489
0.00630778
0.00776629
0.00930626
0.0109233
0.012613
0.0143702
0.01619
0.0180668
0.0199952
0.0219694
0.0239835
0.0260313
0.0281065
0.0302028
0.0323136
0.0344325
0.0365527
0.0386676
0.0407702
0.0428535
0.0449109
0.0469357
0.048921
0.0508601
0.0527467
0.0545741
0.056336
0.0580265
0.0596396
0.0611697
0.0626113
0.0639595
0.0652095
0.0663569
0.0673981
0.0683293
0.0691476
0.0698503
0.0704353
0.0709008
0.071246
0.0714701
0.0715734
0.0715564
0.0714203
0.0711665
0.0707975
0.0703159
0.0697251
0.0690286
0.0682305
0.0673353
0.0663476
0.0652725
0.0641151
0.0628805
0.061574
0.0602002
0.0587637
0.0572677
0.055715
0.0541181
0.0524877
0.0506825
0.0485779
0.0201102
0.0177171
0.0156918
0.0138918
0.0121532
0.010486
0.00890242
0.00740311
0.00598898
0.00466216
0.00342508
0.00228026
0.00123036
0.000277959
-0.000574485
-0.00132458
-0.00197013
-0.0025092
-0.0029401
-0.00326147
-0.00347225
-0.00357165
-0.0035592
-0.00343476
-0.00319848
-0.00285089
-0.00239282
-0.00182537
-0.00115004
-0.000368654
0.000516618
0.00150333
0.00258878
0.00376994
0.00504347
0.0064057
0.00785278
0.00938061
0.0109849
0.0126611
0.0144044
0.0162097
0.0180717
0.0199849
0.0219437
0.0239423
0.0259745
0.0280342
0.0301152
0.032211
0.0343152
0.0364212
0.0385222
0.0406116
0.0426825
0.0447281
0.0467419
0.048717
0.0506469
0.052525
0.0543448
0.0561002
0.057785
0.0593933
0.0609195
0.062358
0.0637037
0.0649519
0.0660981
0.0671385
0.0680693
0.0688873
0.0695897
0.0701741
0.0706387
0.0709822
0.0712038
0.0713034
0.071281
0.0711376
0.0708744
0.0704932
0.0699964
0.0693867
0.0686674
0.0678418
0.0669139
0.0658878
0.064768
0.0635588
0.062265
0.0608909
0.0594407
0.0579184
0.0563265
0.0546672
0.0529538
0.0511971
0.0492431
0.0469566
0.0215088
0.0189342
0.0167608
0.0148356
0.0129817
0.0112094
0.00953164
0.00794832
0.00645968
0.00506722
0.00377272
0.00257804
0.00148503
0.000495669
-0.000388225
-0.00116492
-0.00183278
-0.00239042
-0.00283673
-0.00317085
-0.00339213
-0.00350017
-0.00349489
-0.00337651
-0.00314546
-0.0028025
-0.00234865
-0.00178525
-0.00111399
-0.000336836
0.00054395
0.00152587
0.00260615
0.00378167
0.00504904
0.0064046
0.00784455
0.00936483
0.0109612
0.012629
0.0143636
0.0161598
0.0180126
0.0199165
0.021866
0.0238552
0.0258781
0.0279287
0.0300008
0.0320881
0.0341842
0.0362825
0.0383764
0.0404592
0.0425241
0.0445646
0.0465739
0.0485453
0.0504721
0.0523479
0.0541662
0.0559209
0.0576057
0.0592146
0.060742
0.0621822
0.0635301
0.0647809
0.06593
0.0669733
0.0679069
0.0687274
0.0694319
0.0700178
0.0704831
0.0708262
0.071046
0.071142
0.0711141
0.0709627
0.0706889
0.0702939
0.0697799
0.0691491
0.0684041
0.067548
0.0665841
0.0655161
0.0643478
0.0630833
0.0617265
0.0602813
0.0587515
0.0571404
0.0554503
0.0536828
0.0518518
0.0499689
0.0478674
0.0454019
0.0228075
0.0200546
0.017735
0.0156854
0.013716
0.0118381
0.0100648
0.00839571
0.00683044
0.00536997
0.00401548
0.00276823
0.00162947
0.00060049
-0.000317409
-0.00112303
-0.00181533
-0.00239353
-0.00285697
-0.00320519
-0.00343798
-0.00355536
-0.00355763
-0.00344532
-0.00321911
-0.00288001
-0.00242929
-0.00186852
-0.00119956
-0.000424491
0.000454322
0.00143429
0.0025125
0.00368579
0.00495071
0.00630364
0.00774078
0.00925806
0.0108512
0.0125156
0.0142467
0.0160394
0.0178886
0.019789
0.021735
0.0237208
0.0257407
0.0277884
0.0298581
0.0319434
0.0340378
0.036135
0.0382282
0.040311
0.0423767
0.0444185
0.0464297
0.0484037
0.0503337
0.0522134
0.0540363
0.055796
0.0574865
0.0591015
0.0606353
0.0620823
0.0634371
0.0646949
0.0658509
0.0669009
0.0678408
0.0686669
0.0693762
0.0699659
0.0704338
0.0707779
0.0709969
0.07109
0.0710567
0.0708971
0.0706119
0.0702021
0.0696694
0.0690155
0.0682427
0.0673535
0.0663509
0.0652381
0.0640184
0.0626953
0.0612725
0.0597533
0.0581411
0.0564389
0.0546486
0.0527715
0.0508223
0.0488133
0.0465655
0.0439234
0.0239962
0.0210679
0.0186037
0.0164302
0.0143456
0.0123616
0.0104919
0.00873575
0.00709219
0.00556184
0.00414535
0.00284335
0.00165659
0.000585911
-0.000367966
-0.00120442
-0.00192294
-0.0025232
-0.00300498
-0.00336826
-0.00361325
-0.0037404
-0.00375031
-0.00364376
-0.00342176
-0.00308557
-0.00263673
-0.002077
-0.00140839
-0.000633114
0.000246326
0.00122721
0.00230653
0.00348105
0.00474731
0.00610167
0.0075403
0.00905911
0.0106538
0.0123199
0.0140526
0.0158471
0.0176984
0.019601
0.0215494
0.0235379
0.0255607
0.027612
0.0296855
0.0317751
0.0338744
0.0359769
0.0380761
0.0401654
0.0422382
0.0442878
0.0463074
0.0482903
0.0502298
0.0521196
0.053953
0.0557238
0.0574256
0.0590522
0.0605977
0.0620565
0.0634232
0.0646926
0.0658598
0.0669204
0.0678701
0.0687051
0.0694222
0.0700182
0.0704908
0.0708377
0.0710573
0.0711483
0.0711101
0.0709425
0.0706457
0.0702205
0.0696679
0.0689896
0.0681873
0.0672631
0.0662196
0.0650595
0.0637859
0.0624018
0.0609104
0.0593147
0.0576178
0.0558225
0.0539304
0.0519426
0.0498746
0.0477395
0.0453463
0.0425297
0.0250655
0.021964
0.0193567
0.0170602
0.0148606
0.0127701
0.0108034
0.00895911
0.00723609
0.00563437
0.00415421
0.00279578
0.00155939
0.000445368
-0.000546093
-0.00141488
-0.00216094
-0.00278432
-0.0032853
-0.00366427
-0.00392186
-0.00405884
-0.00407612
-0.00397479
-0.00375616
-0.00342176
-0.00297334
-0.00241286
-0.00174249
-0.000964609
-8.18549e-05
0.000902916
0.0019866
0.0031659
0.00443733
0.00579721
0.00724164
0.00876651
0.0103675
0.0120402
0.0137798
0.0155816
0.0174404
0.0193509
0.0213075
0.0233047
0.0253367
0.0273976
0.0294813
0.0315816
0.0336921
0.0358064
0.037918
0.0400204
0.0421069
0.0441707
0.046205
0.0482032
0.0501586
0.0520646
0.0539146
0.0557023
0.0574212
0.059065
0.0606277
0.0621035
0.063487
0.0647726
0.0659555
0.0670308
0.0679942
0.0688417
0.0695696
0.0701749
0.0706546
0.0710063
0.0712281
0.0713184
0.0712763
0.0711011
0.0707928
0.0703519
0.069779
0.0690754
0.0682423
0.0672816
0.0661955
0.0649863
0.0636567
0.0622094
0.0606474
0.0589732
0.0571897
0.0552997
0.0533043
0.0512048
0.0490174
0.046756
0.044218
0.0412283
0.0260065
0.0227338
0.0199847
0.0175657
0.0152513
0.0130543
0.01099
0.00905692
0.00725341
0.00557918
0.00403409
0.002618
0.00133071
0.000172055
-0.000858198
-0.00176037
-0.00253483
-0.00318206
-0.00370276
-0.00409775
-0.00436797
-0.00451453
-0.00453866
-0.00444176
-0.00422545
-0.00389147
-0.00344182
-0.00287863
-0.00220425
-0.00142123
-0.000532371
0.000459349
0.00155075
0.00273846
0.00401895
0.00538846
0.00684304
0.00837853
0.00999064
0.0116749
0.0134267
0.015241
0.0171129
0.0190369
0.0210076
0.0230195
0.0250668
0.0271435
0.0292436
0.0313609
0.033489
0.0356216
0.0377522
0.0398741
0.0419807
0.0440652
0.0461207
0.0481406
0.0501181
0.0520466
0.0539194
0.05573
0.0574718
0.0591384
0.0607239
0.0622221
0.0636274
0.0649342
0.0661373
0.0672317
0.0682128
0.0690765
0.0698188
0.0704362
0.0709258
0.0712848
0.0715107
0.071602
0.0715572
0.0713754
0.0710563
0.0705998
0.0700064
0.0692769
0.0684123
0.0674141
0.066284
0.0650243
0.0636371
0.0621251
0.0604906
0.0587362
0.0568646
0.0548782
0.0527784
0.0505663
0.0482589
0.045871
0.0431885
0.0400265
0.026811
0.0233686
0.0204784
0.0179376
0.0155085
0.0132049
0.0110428
0.00902032
0.00713556
0.005388
0.00377715
0.00230244
0.000963263
-0.000240946
-0.0013108
-0.00224703
-0.00305043
-0.00372191
-0.00426254
-0.00467349
-0.00495606
-0.00511167
-0.00514188
-0.0050484
-0.00483309
-0.00449798
-0.00404523
-0.00347719
-0.00279641
-0.0020056
-0.00110772
-0.000105873
0.000996691
0.00219653
0.00349003
0.00487333
0.00634243
0.00789315
0.0095212
0.0112221
0.0129912
0.0148235
0.0167139
0.0186572
0.0206478
0.0226803
0.0247489
0.0268477
0.0289704
0.031111
0.0332632
0.0354205
0.0375765
0.0397245
0.0418577
0.0439693
0.0460526
0.0481006
0.0501066
0.0520639
0.0539656
0.0558052
0.0575758
0.0592712
0.060885
0.0624111
0.0638435
0.0651765
0.0664046
0.0675226
0.0685258
0.0694096
0.0701699
0.0708031
0.0713055
0.0716743
0.0719069
0.0720011
0.0719552
0.0717681
0.0714391
0.0709677
0.0703541
0.0695986
0.0687021
0.0676657
0.0664909
0.0651796
0.0637337
0.0621555
0.0604472
0.0586112
0.0566499
0.054566
0.0523606
0.0500348
0.0476067
0.0450919
0.0422648
0.0389308
0.0274707
0.0238597
0.0208293
0.0181669
0.0156234
0.0132131
0.0109529
0.00884061
0.00687414
0.00505267
0.0033754
0.00184139
0.000449694
-0.000800621
-0.00191055
-0.00288121
-0.00371378
-0.00440957
-0.00496999
-0.00539657
-0.0056909
-0.00585477
-0.00589004
-0.00579871
-0.00558289
-0.00524484
-0.00478695
-0.00421176
-0.00352202
-0.00272064
-0.00181071
-0.000795413
0.00032189
0.00153765
0.00284814
0.00424944
0.0057375
0.00730813
0.008957
0.0106796
0.0124712
0.0143268
0.0162413
0.0182095
0.0202259
0.0222851
0.024381
0.0265079
0.0286596
0.0308298
0.0330125
0.035201
0.0373889
0.0395695
0.0417359
0.0438812
0.0459986
0.0480813
0.0501223
0.0521147
0.0540517
0.0559263
0.057732
0.0594621
0.06111
0.0626696
0.0641345
0.0654989
0.066757
0.0679035
0.0689333
0.0698415
0.0706238
0.0712762
0.071795
0.0721767
0.0724185
0.0725179
0.0724731
0.0722824
0.0719447
0.0714594
0.0708261
0.0700451
0.0691167
0.0680419
0.0668219
0.0654583
0.0639527
0.0623073
0.060524
0.0586052
0.0565532
0.0543706
0.0520586
0.0496181
0.0470684
0.0444259
0.0414537
0.0379476
0.0279778
0.024199
0.0210288
0.0182451
0.0155872
0.0130702
0.0107116
0.00850929
0.00646076
0.00456498
0.00282084
0.00122712
-0.000217433
-0.00151412
-0.00266431
-0.00366946
-0.00453114
-0.00525099
-0.00583076
-0.00627231
-0.00657759
-0.00674866
-0.00678772
-0.00669703
-0.00647895
-0.00613596
-0.00567067
-0.00508587
-0.00438449
-0.0035696
-0.00264441
-0.00161222
-0.000476509
0.000759041
0.0020906
0.00351419
0.00502574
0.00662101
0.0082956
0.0100449
0.0118642
0.0137485
0.0156927
0.0176916
0.0197397
0.0218313
0.0239607
0.0261219
0.0283088
0.0305151
0.0327347
0.0349609
0.0371873
0.0394069
0.041613
0.0437986
0.0459569
0.0480808
0.0501633
0.0521973
0.0541759
0.0560921
0.0579389
0.0597098
0.0613978
0.0629967
0.0644998
0.0659011
0.0671945
0.0683744
0.0694355
0.0703727
0.0711813
0.071857
0.0723956
0.0727936
0.0730477
0.0731551
0.0731137
0.0729214
0.0725768
0.0720789
0.0714271
0.0706211
0.0696613
0.0685483
0.0672829
0.0658666
0.0643009
0.0625874
0.0607283
0.0587256
0.0565819
0.0542995
0.0518796
0.0493235
0.0466511
0.0438802
0.0407621
0.0370829
0.0283249
0.0243785
0.0210687
0.0181636
0.0153913
0.0127674
0.0103104
0.00801785
0.00588703
0.00391669
0.00210546
0.000451871
-0.00104565
-0.00238874
-0.0035791
-0.00461853
-0.00550895
-0.00625233
-0.00685072
-0.00730634
-0.00762146
-0.00779845
-0.00783979
-0.00774799
-0.00752566
-0.00717551
-0.00670042
-0.00610336
-0.00538748
-0.00455597
-0.00361217
-0.00255951
-0.00140165
-0.000142358
0.00121444
0.00266473
0.00420438
0.00582906
0.0075343
0.00931546
0.0111677
0.0130862
0.0150657
0.017101
0.0191865
0.0213167
0.0234856
0.0256873
0.0279157
0.0301645
0.0324275
0.0346979
0.0369692
0.0392346
0.0414871
0.0437197
0.0459255
0.0480972
0.0502278
0.05231
0.0543367
0.0563009
0.0581953
0.0600132
0.0617476
0.0633917
0.0649388
0.0663826
0.0677169
0.0689356
0.0700331
0.0710041
0.0718435
0.0725467
0.0731092
0.0735272
0.0737969
0.0739155
0.0738802
0.0736887
0.0733393
0.0728306
0.0721616
0.0713319
0.0703414
0.0691906
0.0678801
0.0664111
0.0647848
0.0630028
0.0610672
0.0589798
0.0567433
0.0543601
0.0518314
0.0491584
0.0463622
0.0434615
0.0401963
0.0363427
0.0285042
0.0243901
0.0209406
0.017914
0.0150272
0.0122964
0.00974076
0.00735778
0.00514452
0.00309951
0.00122117
-0.000492263
-0.00204263
-0.0034319
-0.0046621
-0.00573535
-0.00665386
-0.00741995
-0.008036
-0.00850453
-0.00882815
-0.00900952
-0.00905136
-0.00895646
-0.00872768
-0.00836799
-0.00788049
-0.00726838
-0.00653493
-0.00568351
-0.00471759
-0.00364081
-0.00245692
-0.00116982
0.000216529
0.00169802
0.00327044
0.00492934
0.00667019
0.00848834
0.0103789
0.012337
0.0143575
0.016435
0.0185639
0.0207385
0.0229531
0.0252016
0.0274778
0.0297756
0.0320883
0.0344095
0.0367324
0.0390502
0.0413558
0.0436422
0.0459022
0.0481286
0.0503139
0.0524511
0.0545326
0.0565514
0.0585
0.0603713
0.0621583
0.0638539
0.0654512
0.0669435
0.0683243
0.0695873
0.0707266
0.0717366
0.0726117
0.073347
0.0739378
0.0743798
0.074669
0.0748021
0.0747761
0.0745882
0.0742364
0.0737189
0.0730346
0.0721826
0.0711627
0.0699749
0.0686198
0.0670982
0.0654113
0.0635606
0.0615479
0.0593752
0.0570451
0.05456
0.0519212
0.04913
0.0462087
0.0431769
0.0397628
0.035733
0.028508
0.0242258
0.0206362
0.017488
0.0144864
0.0116484
0.00899403
0.0065205
0.00422474
0.00210509
0.000159758
-0.0016133
-0.00321622
-0.00465124
-0.0059207
-0.00702703
-0.00797274
-0.00876048
-0.00939297
-0.00987303
-0.0102036
-0.0103875
-0.0104278
-0.0103276
-0.01009
-0.00971816
-0.00921548
-0.00858528
-0.00783102
-0.00695623
-0.00596459
-0.00485988
-0.00364597
-0.00232683
-0.000906518
0.000610756
0.00222065
0.00391866
0.00570019
0.00756056
0.00949491
0.0114982
0.0135653
0.0156907
0.0178689
0.0200941
0.0223605
0.024662
0.0269925
0.0293456
0.0317147
0.0340933
0.0364745
0.0388514
0.0412169
0.0435639
0.045885
0.0481728
0.0504199
0.0526188
0.054762
0.0568421
0.0588516
0.0607831
0.0626293
0.0643828
0.0660366
0.0675835
0.0690169
0.0703301
0.0715169
0.0725713
0.0734873
0.0742597
0.0748835