/*--------------------------------*- C++ -*----------------------------------*\
| =========                 |                                                 |
| \\      /  F ield         | OpenFOAM: The Open Source CFD Toolbox           |
|  \\    /   O peration     | Version:  2212                                  |
|   \\  /    A nd           | Website:  www.openfoam.com                      |
|    \\/     M anipulation  |                                                 |
\*---------------------------------------------------------------------------*/
FoamFile
{
    version     2.0;
    format      ascii;
    arch        "LSB;label=32;scalar=64";
    class       volScalarField;
    location    "0.095";
    object      p;
}
// * * * * * * * * * * * * * * * * * * * * * * * * * * * * * * * * * * * * * //

dimensions      [0 2 -2 0 0 0 0];

internalField   nonuniform List<scalar> 
10000
(
-1.57747e-07
9.34565e-05
-0.000127998
-0.000708966
-0.00160057
-0.00274727
-0.00409272
-0.00558294
-0.00716896
-0.0088075
-0.0104606
-0.012095
-0.013682
-0.0151965
-0.0166169
-0.0179244
-0.0191031
-0.0201394
-0.0210219
-0.0217412
-0.0222896
-0.0226611
-0.0228509
-0.0228558
-0.0226736
-0.0223034
-0.0217454
-0.0210005
-0.0200705
-0.0189582
-0.0176671
-0.0162015
-0.0145662
-0.0127668
-0.0108091
-0.00869986
-0.00644603
-0.00405515
-0.00153518
0.00110546
0.00385807
0.00671356
0.00966253
0.0126953
0.015802
0.0189723
0.0221958
0.0254621
0.0287602
0.0320792
0.035408
0.0387354
0.04205
0.0453407
0.048596
0.0518048
0.0549559
0.058038
0.0610404
0.0639521
0.0667626
0.0694614
0.0720388
0.0744852
0.0767912
0.0789485
0.0809487
0.0827843
0.0844481
0.085934
0.0872364
0.0883504
0.0892723
0.0899993
0.0905296
0.0908624
0.0909982
0.0909387
0.0906868
0.0902471
0.0896252
0.0888287
0.087867
0.0867511
0.0854944
0.084112
0.0826218
0.0810442
0.0794025
0.077723
0.076036
0.0743754
0.0727797
0.0712921
0.0699606
0.0688375
0.0679762
0.0674277
0.0672338
0.0673426
-9.4001e-05
7.41604e-08
-0.000214803
-0.000733632
-0.00150618
-0.00249347
-0.0036542
-0.00494567
-0.00632726
-0.00776179
-0.00921565
-0.0106588
-0.0120647
-0.0134099
-0.0146736
-0.0158381
-0.0168879
-0.0178095
-0.0185918
-0.0192253
-0.0197023
-0.0200165
-0.020163
-0.0201383
-0.0199398
-0.0195663
-0.0190175
-0.0182939
-0.0173971
-0.0163292
-0.0150935
-0.0136937
-0.0121341
-0.0104198
-0.00855629
-0.0065497
-0.00440656
-0.00213394
0.000260745
0.00276957
0.0053843
0.00809641
0.010897
0.0137768
0.0167265
0.0197364
0.0227967
0.0258973
0.029028
0.0321783
0.0353377
0.0384956
0.0416412
0.0447638
0.0478528
0.0508975
0.0538872
0.0568117
0.0596603
0.062423
0.0650898
0.0676509
0.0700972
0.0724196
0.0746096
0.0766592
0.0785608
0.0803073
0.0818924
0.0833102
0.0845557
0.0856248
0.0865141
0.0872212
0.0877448
0.0880845
0.0882411
0.0882166
0.0880144
0.0876388
0.0870959
0.0863932
0.0855399
0.0845471
0.0834274
0.082196
0.0808697
0.0794679
0.0780127
0.0765286
0.0750432
0.0735874
0.072195
0.0709029
0.069751
0.0687803
0.0680298
0.0675351
0.067342
0.0674514
0.000126508
0.000215388
8.53996e-07
-0.000486078
-0.00119099
-0.00208144
-0.00312395
-0.00428296
-0.0055239
-0.0068144
-0.00812467
-0.00942763
-0.0106989
-0.0119165
-0.0130613
-0.0141162
-0.0150663
-0.0158988
-0.0166027
-0.0171689
-0.0175895
-0.0178584
-0.0179706
-0.0179222
-0.0177108
-0.0173347
-0.0167933
-0.016087
-0.015217
-0.0141853
-0.0129945
-0.011648
-0.01015
-0.00850506
-0.0067183
-0.00479544
-0.00274263
-0.000566556
0.00172575
0.00412684
0.00662885
0.00922368
0.0119029
0.0146576
0.017479
0.0203577
0.0232845
0.0262497
0.0292435
0.032256
0.0352771
0.0382966
0.0413042
0.0442898
0.047243
0.050154
0.0530125
0.0558085
0.0585321
0.0611737
0.0637238
0.0661732
0.0685131
0.0707351
0.0728312
0.0747937
0.0766157
0.0782904
0.0798119
0.0811748
0.0823747
0.0834075
0.0842705
0.0849615
0.0854796
0.0858246
0.0859976
0.0860006
0.0858372
0.0855119
0.0850307
0.0844009
0.0836317
0.0827337
0.0817193
0.0806028
0.0794004
0.0781304
0.0768134
0.0754721
0.074132
0.0728206
0.0715682
0.0704067
0.0693702
0.0684928
0.0678063
0.0673406
0.0671482
0.0672585
0.000706048
0.000734877
0.000488598
9.38542e-07
-0.000677898
-0.00151852
-0.0024917
-0.00356681
-0.00471384
-0.00590438
-0.00711194
-0.00831212
-0.0094827
-0.0106036
-0.0116567
-0.0126262
-0.0134979
-0.0142598
-0.0149012
-0.0154133
-0.0157886
-0.0160208
-0.016105
-0.0160376
-0.0158158
-0.0154378
-0.0149031
-0.0142116
-0.0133644
-0.0123633
-0.0112106
-0.00990948
-0.00846377
-0.00687772
-0.00515618
-0.00330454
-0.00132862
0.000765256
0.00297037
0.00527963
0.00768559
0.0101804
0.0127561
0.0154042
0.0181162
0.0208831
0.0236962
0.026546
0.0294233
0.0323184
0.0352218
0.0381234
0.0410137
0.0438828
0.0467209
0.0495184
0.0522655
0.0549526
0.0575704
0.0601096
0.062561
0.064916
0.0671662
0.0693036
0.0713205
0.0732098
0.0749648
0.0765791
0.0780472
0.0793641
0.0805256
0.081528
0.0823688
0.0830462
0.0835593
0.0839081
0.0840939
0.084119
0.0839867
0.0837015
0.0832693
0.0826974
0.0819946
0.0811711
0.0802388
0.0792111
0.0781034
0.076933
0.0757187
0.0744819
0.0732453
0.0720343
0.0708754
0.069797
0.0688286
0.0679999
0.0673389
0.0668731
0.066653
0.0667123
0.00159755
0.00151
0.00119572
0.000679124
-2.12437e-06
-0.000821832
-0.00175432
-0.00277321
-0.00385264
-0.00496779
-0.00609526
-0.00721326
-0.00830171
-0.00934231
-0.0103185
-0.0112155
-0.0120201
-0.012721
-0.0133082
-0.0137731
-0.0141086
-0.0143086
-0.0143685
-0.0142844
-0.0140538
-0.0136748
-0.0131466
-0.0124692
-0.0116435
-0.0106709
-0.0095537
-0.00829482
-0.00689774
-0.00536651
-0.00370568
-0.00192031
-1.59814e-05
0.00200134
0.00412529
0.00634903
0.00866549
0.0110672
0.0135465
0.0160952
0.0187053
0.0213682
0.0240753
0.0268178
0.0295867
0.0323726
0.0351664
0.0379586
0.0407399
0.0435008
0.046232
0.0489242
0.0515681
0.0541544
0.0566742
0.0591185
0.0614787
0.0637465
0.0659139
0.0679732
0.0699172
0.0717389
0.0734321
0.0749909
0.0764098
0.0776843
0.0788104
0.0797848
0.0806049
0.0812693
0.0817773
0.082129
0.0823257
0.0823697
0.0822643
0.0820139
0.0816242
0.0811023
0.0804566
0.0796969
0.0788343
0.0778815
0.076853
0.0757645
0.0746338
0.0734801
0.0723243
0.0711888
0.0700974
0.0690749
0.0681469
0.0673392
0.0666765
0.066184
0.0659011
0.0658539
0.00274869
0.0025043
0.00209196
0.00152116
0.00081218
-1.21067e-05
-0.000929174
-0.00191652
-0.00295198
-0.00401408
-0.00508231
-0.00613735
-0.00716122
-0.00813739
-0.00905079
-0.00988785
-0.0106365
-0.011286
-0.0118271
-0.0122518
-0.0125533
-0.0127259
-0.012765
-0.012667
-0.0124293
-0.0120501
-0.0115286
-0.0108647
-0.010059
-0.009113
-0.00802873
-0.00680891
-0.00545677
-0.00397615
-0.00237138
-0.000647231
0.00119101
0.00313761
0.00518657
0.00733136
0.00956515
0.0118809
0.0142711
0.0167281
0.0192441
0.021811
0.0244204
0.0270638
0.0297326
0.0324179
0.0351108
0.0378022
0.0404831
0.0431445
0.0457773
0.0483727
0.0509217
0.0534155
0.0558453
0.0582027
0.0604793
0.0626673
0.0647589
0.0667468
0.0686241
0.0703842
0.0720211
0.073529
0.0749031
0.0761388
0.0772325
0.078181
0.078982
0.0796341
0.0801368
0.0804903
0.0806958
0.0807556
0.0806728
0.0804519
0.0800982
0.0796184
0.0790207
0.0783142
0.0775093
0.0766179
0.0756533
0.0746303
0.0735649
0.0724747
0.0713784
0.0702959
0.0692484
0.0682574
0.0673451
0.0665336
0.0658449
0.0653011
0.0649259
0.0647314
0.00410726
0.00367981
0.00314663
0.00250033
0.00174169
0.000890394
-3.37132e-05
-0.00101176
-0.00202491
-0.0030546
-0.00408303
-0.00509324
-0.00606927
-0.00699631
-0.00786077
-0.00865029
-0.00935384
-0.00996163
-0.010465
-0.0108566
-0.0111301
-0.01128
-0.0113021
-0.0111929
-0.0109499
-0.0105715
-0.0100568
-0.00940572
-0.00861879
-0.00769736
-0.00664334
-0.00545928
-0.00414827
-0.00271389
-0.0011603
0.000507932
0.00228584
0.00416794
0.00614843
0.00822114
0.0103795
0.0126167
0.0149257
0.0172991
0.0197293
0.0222086
0.0247289
0.0272821
0.0298598
0.0324534
0.0350544
0.037654
0.0402437
0.0428147
0.0453583
0.0478659
0.0503288
0.0527386
0.055087
0.0573657
0.0595668
0.0616827
0.0637059
0.0656294
0.0674466
0.0691511
0.0707372
0.0721994
0.073533
0.0747337
0.0757981
0.076723
0.0775065
0.078147
0.0786443
0.0789984
0.0792105
0.0792829
0.0792186
0.0790216
0.0786973
0.078252
0.0776931
0.0770293
0.0762702
0.0754269
0.0745117
0.0735381
0.0725207
0.0714752
0.0704185
0.0693683
0.068343
0.0673614
0.0664426
0.0656053
0.064869
0.0642531
0.0637629
0.0633944
0.00562409
0.00499767
0.00432742
0.00358883
0.00276263
0.0018657
0.000915612
-7.20333e-05
-0.00108142
-0.0020967
-0.00310246
-0.00408393
-0.00502709
-0.00591879
-0.00674687
-0.00750021
-0.00816881
-0.00874377
-0.00921725
-0.00958239
-0.00983333
-0.00996513
-0.00997377
-0.00985607
-0.00960969
-0.00923306
-0.00872539
-0.00808657
-0.00731714
-0.00641838
-0.0053921
-0.00424072
-0.0029672
-0.00157496
-6.7956e-05
0.00154945
0.00327248
0.00509593
0.00701424
0.00902144
0.0111113
0.0132772
0.0155124
0.0178099
0.0201622
0.022562
0.0250016
0.0274729
0.029968
0.0324785
0.0349963
0.037513
0.0400201
0.0425094
0.0449724
0.0474007
0.0497861
0.0521203
0.0543953
0.0566033
0.0587365
0.0607876
0.0627495
0.0646153
0.0663785
0.0680333
0.0695739
0.0709951
0.0722924
0.0734617
0.0744996
0.0754033
0.0761706
0.0768002
0.0772918
0.0776455
0.0778623
0.0779443
0.0778944
0.0777165
0.0774154
0.0769971
0.0764686
0.0758379
0.0751138
0.0743066
0.0734275
0.0724888
0.0715037
0.0704864
0.0694518
0.0684156
0.0673938
0.0664027
0.0654585
0.0645769
0.0637753
0.0630707
0.062449
0.0618899
0.00725541
0.00642145
0.00560323
0.00475969
0.0038518
0.00289411
0.00190234
0.000889195
-0.00013226
-0.00114859
-0.00214659
-0.00311347
-0.00403702
-0.0049057
-0.00570871
-0.00643614
-0.00707903
-0.00762937
-0.00808006
-0.0084249
-0.00865856
-0.00877652
-0.0087751
-0.00865141
-0.00840332
-0.00802941
-0.00752895
-0.00690192
-0.00614886
-0.00527099
-0.00427009
-0.00314849
-0.00190902
-0.000555001
0.000909791
0.00248119
0.00415457
0.00592497
0.00778705
0.00973505
0.011763
0.0138645
0.0160331
0.018262
0.0205441
0.0228721
0.0252388
0.0276363
0.0300569
0.0324927
0.0349356
0.0373776
0.0398106
0.0422265
0.0446171
0.0469744
0.0492903
0.0515569
0.0537664
0.0559111
0.0579838
0.0599771
0.0618843
0.0636987
0.0654141
0.0670246
0.0685247
0.0699096
0.0711746
0.0723159
0.0733301
0.0742146
0.0749672
0.0755866
0.0760724
0.0764247
0.0766443
0.0767332
0.0766941
0.0765306
0.0762471
0.0758492
0.0753433
0.0747368
0.0740379
0.0732558
0.0724009
0.0714842
0.0705176
0.0695139
0.0684861
0.067448
0.0664137
0.065397
0.0644116
0.0634705
0.0625896
0.0617834
0.061019
0.0602601
0.00896332
0.00791823
0.00694522
0.00598755
0.00498706
0.00395651
0.00291017
0.00185821
0.000811282
-0.000219372
-0.00122255
-0.00218728
-0.00310299
-0.00395962
-0.0047477
-0.00545852
-0.0060841
-0.00661729
-0.00705177
-0.007382
-0.00760318
-0.00771127
-0.00770294
-0.00757561
-0.00732739
-0.00695706
-0.006464
-0.00584826
-0.00511045
-0.00425179
-0.003274
-0.00217938
-0.000970676
0.000348903
0.0017757
0.00330572
0.00493451
0.00665727
0.00846885
0.0103637
0.0123361
0.0143799
0.0164888
0.0186562
0.0208753
0.0231392
0.0254406
0.0277721
0.0301261
0.0324951
0.0348712
0.0372467
0.0396136
0.0419642
0.0442905
0.0465846
0.0488388
0.0510454
0.0531969
0.0552857
0.0573049
0.0592473
0.0611063
0.0628755
0.0645486
0.0661202
0.0675848
0.0689376
0.0701743
0.0712909
0.0722842
0.0731516
0.0738909
0.0745009
0.0749808
0.0753308
0.0755516
0.075645
0.0756134
0.07546
0.0751889
0.0748053
0.074315
0.0737247
0.073042
0.0722753
0.0714338
0.0705276
0.0695673
0.0685642
0.0675299
0.0664763
0.0654156
0.0643598
0.0633201
0.0623073
0.0613358
0.0604186
0.0595043
0.0585415
0.010715
0.00945859
0.00832701
0.00724877
0.00614747
0.00503454
0.00392318
0.00282139
0.00173769
0.000681393
-0.000338105
-0.0013115
-0.0022297
-0.00308401
-0.00386624
-0.00456874
-0.00518455
-0.00570738
-0.00613165
-0.00645244
-0.00666555
-0.00676737
-0.006755
-0.00662618
-0.00637929
-0.00601328
-0.00552773
-0.00492279
-0.00419912
-0.00335799
-0.0024011
-0.00133075
-0.000149636
0.00113915
0.00253205
0.00402518
0.00561425
0.00729461
0.00906129
0.0109089
0.0128319
0.0148244
0.0168803
0.0189931
0.0211564
0.0233634
0.0256069
0.0278799
0.030175
0.0324849
0.034802
0.0371187
0.0394274
0.0417205
0.0439902
0.0462289
0.048429
0.050583
0.0526837
0.0547238
0.0566963
0.0585944
0.0604115
0.0621413
0.063778
0.0653158
0.0667497
0.0680747
0.0692867
0.070382
0.0713571
0.0722095
0.072937
0.0735383
0.0740125
0.0743596
0.0745803
0.0746759
0.0746488
0.0745016
0.0742383
0.0738634
0.0733824
0.0728012
0.0721267
0.0713665
0.0705289
0.069623
0.0686582
0.0676444
0.0665919
0.0655111
0.0644124
0.063306
0.0622012
0.0611068
0.0600363
0.0590014
0.057933
0.0567655
0.0124823
0.0110164
0.00972469
0.00852161
0.00731351
0.00611084
0.00492611
0.00376543
0.00263552
0.00154398
0.000498633
-0.000492734
-0.00142241
-0.00228296
-0.00306732
-0.00376891
-0.00438172
-0.00490025
-0.00531968
-0.00563573
-0.00584471
-0.00594355
-0.00592973
-0.00580133
-0.005557
-0.00519596
-0.00471795
-0.00412323
-0.00341258
-0.00258732
-0.00164919
-0.000600455
0.000556205
0.00181774
0.00318071
0.00464133
0.00619542
0.00783846
0.00956564
0.0113718
0.0132514
0.0151988
0.0172081
0.0192732
0.0213875
0.0235445
0.0257374
0.0279592
0.0302029
0.0324612
0.0347268
0.0369924
0.0392505
0.0414936
0.0437142
0.0459049
0.0480583
0.0501671
0.0522241
0.0542222
0.0561547
0.0580148
0.0597962
0.0614925
0.0630981
0.0646073
0.066015
0.0673166
0.0685078
0.0695849
0.0705446
0.0713842
0.0721014
0.0726948
0.0731636
0.0735074
0.0737267
0.0738228
0.0737974
0.0736532
0.0733935
0.0730225
0.072545
0.0719665
0.0712931
0.0705316
0.0696895
0.0687748
0.0677961
0.0667619
0.0656812
0.064563
0.0634164
0.0622499
0.0610714
0.0598877
0.0587117
0.0575544
0.0563299
0.0549591
0.0142408
0.0125687
0.0111168
0.00978623
0.00846701
0.00716901
0.00590432
0.00467742
0.00349348
0.00235864
0.00127933
0.000261996
-0.000686922
-0.00156113
-0.00235465
-0.00306186
-0.00367762
-0.00419727
-0.00461663
-0.0049321
-0.00514052
-0.00523926
-0.00522625
-0.00509994
-0.00485925
-0.00450364
-0.00403306
-0.00344795
-0.00274916
-0.00193808
-0.00101657
1.31496e-05
0.00114842
0.00238622
0.00372314
0.0051555
0.00667924
0.00828994
0.00998291
0.0117531
0.0135952
0.0155036
0.0174727
0.0194964
0.0215684
0.0236823
0.0258316
0.0280094
0.0302089
0.0324229
0.0346444
0.0368663
0.0390811
0.0412816
0.0434605
0.0456105
0.0477243
0.0497948
0.051815
0.053778
0.055677
0.0575054
0.059257
0.0609255
0.0625053
0.0639908
0.0653771
0.0666594
0.0678336
0.0688958
0.0698429
0.0706718
0.0713804
0.071967
0.0724307
0.0727711
0.0729882
0.0730831
0.0730574
0.0729132
0.0726535
0.0722821
0.0718032
0.0712216
0.070543
0.0697733
0.0689192
0.067988
0.066987
0.0659239
0.0648063
0.0636423
0.0624395
0.0612052
0.0599458
0.0586667
0.0573806
0.0560978
0.0547168
0.0531454
0.0159693
0.014095
0.0124838
0.0110245
0.00959122
0.00819372
0.00684389
0.00554488
0.00430048
0.00311563
0.00199551
0.000945396
-2.94169e-05
-0.000923701
-0.00173246
-0.00245099
-0.00307494
-0.00360044
-0.00402398
-0.0043425
-0.00455343
-0.00465464
-0.00464442
-0.00452157
-0.00428536
-0.00393551
-0.00347215
-0.00289587
-0.00220772
-0.00140916
-0.000502069
0.000511257
0.00162816
0.00284563
0.00416033
0.00556865
0.00706657
0.00864978
0.0103137
0.0120533
0.0138636
0.015739
0.017674
0.0196626
0.0216989
0.0237765
0.025889
0.0280297
0.030192
0.0323689
0.0345535
0.0367388
0.0389176
0.0410828
0.0432271
0.0453434
0.0474247
0.0494638
0.051454
0.0533883
0.0552601
0.057063
0.0587907
0.060437
0.0619963
0.0634632
0.0648326
0.0660998
0.0672607
0.0683114
0.0692485
0.0700691
0.0707708
0.071352
0.0718113
0.0721481
0.0723625
0.0724551
0.0724271
0.0722804
0.0720177
0.0716421
0.0711575
0.070568
0.0698786
0.0690947
0.0682223
0.0672676
0.0662373
0.0651379
0.0639762
0.0627591
0.0614931
0.0601847
0.0588387
0.0574596
0.0560599
0.0546497
0.0531126
0.0513441
0.0176496
0.0155772
0.0138084
0.0122197
0.0106706
0.00917054
0.00773158
0.00635577
0.00504573
0.00380532
0.00263868
0.00155003
0.000543626
-0.000376233
-0.00120546
-0.00194023
-0.00257695
-0.00311239
-0.00354373
-0.00386852
-0.00408464
-0.00419043
-0.00418464
-0.00406641
-0.00383531
-0.0034913
-0.00303479
-0.00246654
-0.0017877
-0.000999869
-0.000105007
0.00089453
0.00199607
0.00319665
0.00449293
0.00588131
0.00735786
0.00891834
0.0105582
0.0122727
0.0140567
0.0159049
0.0178117
0.0197716
0.0217785
0.0238264
0.0259087
0.0280192
0.0301512
0.032298
0.0344527
0.0366085
0.0387583
0.0408951
0.0430119
0.0451016
0.0471571
0.0491717
0.0511383
0.0530504
0.0549014
0.0566848
0.0583943
0.060024
0.0615681
0.0630212
0.0643783
0.0656348
0.0667862
0.0678287
0.0687588
0.0695735
0.0702703
0.0708472
0.071303
0.0716367
0.071848
0.0719374
0.0719058
0.0717547
0.0714863
0.0711034
0.0706092
0.0700075
0.0693026
0.0684994
0.067603
0.0666191
0.0655532
0.0644113
0.0631992
0.061923
0.0605882
0.0592003
0.0577633
0.0562806
0.0547648
0.0532262
0.0515341
0.0495724
0.0192655
0.0169993
0.0150748
0.0133569
0.0116907
0.010086
0.00855487
0.00709856
0.00571871
0.00441824
0.00320032
0.00206831
0.00102557
7.54356e-05
-0.000778771
-0.00153395
-0.00218731
-0.00273626
-0.00317853
-0.00351223
-0.0037358
-0.003848
-0.00384795
-0.00373517
-0.00350955
-0.00317134
-0.00272114
-0.00215992
-0.00148898
-0.000710062
0.000174805
0.00116321
0.00225245
0.00343953
0.00472112
0.00609366
0.00755324
0.0090957
0.0107166
0.0124111
0.0141742
0.0160009
0.0178856
0.0198228
0.0218067
0.0238311
0.02589
0.0279769
0.0300854
0.0322089
0.0343406
0.0364738
0.0386015
0.0407169
0.042813
0.0448829
0.0469195
0.048916
0.0508657
0.052762
0.0545982
0.0563681
0.0580653
0.0596838
0.0612179
0.0626622
0.0640117
0.0652615
0.0664073
0.0674451
0.0683712
0.0691826
0.0698765
0.070451
0.0709043
0.0712353
0.0714437
0.0715294
0.0714932
0.0713361
0.0710599
0.070667
0.0701602
0.0695427
0.0688183
0.0679912
0.0670661
0.0660478
0.0649413
0.0637515
0.0624838
0.0611433
0.059735
0.0582634
0.0567317
0.0551426
0.0535091
0.0518418
0.0499962
0.0478448
0.0208025
0.0183467
0.0162687
0.0144221
0.0126384
0.0109274
0.00930193
0.00776225
0.00630923
0.00494504
0.00367202
0.00249263
0.00140952
0.000425229
-0.000457728
-0.00123694
-0.0019102
-0.00247558
-0.00293142
-0.00327632
-0.00350916
-0.00362916
-0.00363586
-0.00352912
-0.00330915
-0.00297644
-0.00253183
-0.00197651
-0.00131197
-0.000540033
0.000337171
0.00131715
0.00239714
0.00357412
0.00484477
0.00620553
0.00765253
0.0091816
0.0107883
0.012468
0.0142158
0.0160266
0.017895
0.0198155
0.0217825
0.0237899
0.0258317
0.0279016
0.0299932
0.0321001
0.0342156
0.036333
0.0384455
0.0405463
0.0426285
0.0446852
0.0467095
0.0486946
0.0506338
0.0525206
0.0543482
0.0561105
0.0578011
0.0594139
0.0609433
0.0623838
0.0637303
0.0649778
0.0661219
0.0671584
0.0680838
0.0688945
0.0695879
0.0701616
0.0706138
0.0709432
0.0711489
0.0712309
0.0711894
0.0710252
0.0707396
0.0703346
0.0698125
0.0691762
0.068429
0.0675744
0.0666165
0.0655596
0.0644078
0.0631658
0.0618381
0.0604291
0.0589433
0.0573845
0.0557553
0.0540577
0.0523053
0.0505092
0.0485116
0.0461743
0.022248
0.0196065
0.0173771
0.0154026
0.0135011
0.011683
0.00996149
0.00833628
0.0068075
0.0053766
0.0040453
0.00281533
0.00168851
0.000666762
-0.00024805
-0.0010542
-0.00175011
-0.00233441
-0.00280594
-0.0031638
-0.00340736
-0.00353625
-0.0035504
-0.00345
-0.00323555
-0.00290784
-0.00246797
-0.0019173
-0.00125748
-0.000490471
0.000381473
0.00135577
0.0024296
0.00359991
0.00486338
0.00621642
0.00765517
0.00917545
0.0107729
0.012443
0.0141807
0.0159811
0.0178389
0.0197487
0.0217049
0.0237015
0.0257326
0.0277919
0.0298733
0.0319701
0.0340761
0.0361844
0.0382885
0.0403814
0.0424564
0.0445066
0.0465252
0.0485054
0.0504405
0.0523239
0.0541491
0.0559097
0.0575994
0.0592121
0.060742
0.0621837
0.0635318
0.0647814
0.0659278
0.0669669
0.0678948
0.0687079
0.0694032
0.0699782
0.0704309
0.0707598
0.0709637
0.0710421
0.0709951
0.070823
0.0705268
0.0701081
0.0695688
0.0689114
0.0681385
0.0672533
0.0662592
0.06516
0.0639594
0.0626613
0.0612699
0.059789
0.0582224
0.0565736
0.0548445
0.0530368
0.0511648
0.04924
0.047092
0.0445719
0.0235903
0.0207666
0.018388
0.0162864
0.0142673
0.0123417
0.010523
0.00881051
0.00720394
0.00570405
0.0043119
0.00302864
0.00185546
0.00079362
-0.000155633
-0.000991143
-0.0017119
-0.00231706
-0.00280595
-0.00317818
-0.00343354
-0.00357206
-0.00359402
-0.00349996
-0.0032907
-0.00296731
-0.0025311
-0.00198363
-0.00132672
-0.000562502
0.000306657
0.00127809
0.00234893
0.00351607
0.00477612
0.00612549
0.0075603
0.0090764
0.0106695
0.0123349
0.0140679
0.0158635
0.0177164
0.0196213
0.0215727
0.0235647
0.0255913
0.0276465
0.029724
0.0318175
0.0339204
0.0360264
0.0381286
0.0402203
0.0422947
0.0443451
0.0463645
0.0483462
0.0502836
0.05217
0.0539988
0.0557636
0.0574581
0.0590763
0.0606121
0.06206
0.0634145
0.0646707
0.0658236
0.0668691
0.0678029
0.0686214
0.0693214
0.0699001
0.0703553
0.0706851
0.0708881
0.0709637
0.0709113
0.070731
0.0704235
0.06999
0.069432
0.0687515
0.0679507
0.0670323
0.0659993
0.0648548
0.0636023
0.0622451
0.0607869
0.0592311
0.0575811
0.0558399
0.0540091
0.0520901
0.0500979
0.0480448
0.0457477
0.0430476
0.0248189
0.0218162
0.0192902
0.0170627
0.0149263
0.0128927
0.0109761
0.00917524
0.00748927
0.00591854
0.00446355
0.00312488
0.00190318
0.000799124
-0.000186604
-0.00105337
-0.00180069
-0.0024282
-0.00293574
-0.00332333
-0.0035912
-0.00373973
-0.00376959
-0.00368163
-0.003477
-0.00315699
-0.00272317
-0.00217729
-0.00152136
-0.000757668
0.000111304
0.00108281
0.00215389
0.00332137
0.0045818
0.00593157
0.00736678
0.00888332
0.0104768
0.0121427
0.0138762
0.0156724
0.017526
0.0194319
0.0213845
0.0233779
0.0254063
0.0274637
0.0295438
0.0316403
0.0337469
0.035857
0.037964
0.0400611
0.0421415
0.0441986
0.0462253
0.0482151
0.0501611
0.0520566
0.0538952
0.0556702
0.0573754
0.0590046
0.0605516
0.0620108
0.0633767
0.064644
0.0658079
0.0668637
0.0678072
0.0686344
0.069342
0.069927
0.0703868
0.0707193
0.0709229
0.0709965
0.0709392
0.0707509
0.0704319
0.0699829
0.0694052
0.0687002
0.0678699
0.0669163
0.0658421
0.06465
0.0633431
0.0619242
0.0603967
0.0587636
0.0570279
0.0551924
0.0532584
0.0512271
0.0491142
0.0469329
0.0444879
0.0416101
0.0259241
0.0227451
0.0200734
0.0177208
0.0154676
0.0133261
0.011311
0.00942092
0.00765441
0.00601141
0.00449203
0.00309632
0.00182441
0.000676485
-0.000347264
-0.00124672
-0.00202187
-0.00267283
-0.00319989
-0.00360348
-0.0038842
-0.00404283
-0.00408039
-0.00399804
-0.0037972
-0.00347944
-0.00304653
-0.00250048
-0.00184344
-0.00107786
-0.000206351
0.000768246
0.00184286
0.00301425
0.00427891
0.00563319
0.00707319
0.00859475
0.0101935
0.0118649
0.0136041
0.0154063
0.0172664
0.019179
0.0211386
0.0231396
0.0251759
0.0272417
0.0293308
0.0314368
0.0335535
0.0356743
0.0377926
0.0399017
0.0419948
0.0440651
0.0461057
0.0481099
0.0500709
0.0519819
0.0538364
0.0556277
0.0573494
0.0589952
0.0605589
0.0620348
0.063417
0.0647003
0.0658795
0.0669499
0.0679069
0.0687464
0.0694648
0.0700589
0.0705258
0.0708632
0.0710691
0.0711419
0.0710807
0.0708849
0.0705545
0.0700899
0.0694918
0.0687615
0.0679004
0.0669101
0.065793
0.0645515
0.0631881
0.0617056
0.0601067
0.0583942
0.056571
0.0546395
0.052601
0.0504565
0.0482226
0.0459131
0.0433211
0.0402674
0.0268968
0.0235438
0.0207281
0.0182512
0.0158817
0.0136322
0.0115183
0.00953834
0.00769042
0.00597414
0.00438919
0.00293519
0.00161183
0.000418836
-0.000644068
-0.00157724
-0.0023811
-0.00305622
-0.00360329
-0.00402314
-0.00431676
-0.00448529
-0.00453006
-0.00445255
-0.00425444
-0.00393756
-0.00350393
-0.00295574
-0.00229535
-0.00152533
-0.000648432
0.000332364
0.00141389
0.00259283
0.00386564
0.00522861
0.00667779
0.00820899
0.00981784
0.0114997
0.01325
0.0150636
0.0169357
0.0188607
0.0208334
0.0228478
0.0248983
0.0269788
0.0290832
0.0312052
0.0333384
0.0354764
0.0376126
0.0397403
0.0418526
0.0439427
0.0460037
0.0480287
0.0500111
0.0519439
0.0538205
0.0556342
0.0573784
0.0590466
0.0606326
0.0621304
0.0635342
0.0648384
0.0660376
0.0671269
0.0681015
0.0689571
0.0696898
0.0702962
0.070773
0.0711176
0.0713278
0.0714016
0.0713378
0.0711354
0.0707942
0.0703142
0.0696957
0.0689395
0.0680467
0.0670188
0.0658576
0.0645652
0.0631438
0.0615959
0.059924
0.0581306
0.0562183
0.0541896
0.0520454
0.0497869
0.0474314
0.0449937
0.0422552
0.0390266
0.0277283
0.0242033
0.0212448
0.0186445
0.0161589
0.0138016
0.0115888
0.0095185
0.00758856
0.00579826
0.00414691
0.00263376
0.00125808
1.91898e-05
-0.00108363
-0.00205115
-0.00288424
-0.00358385
-0.00415109
-0.00458716
-0.00489343
-0.00507136
-0.00512257
-0.00504887
-0.00485219
-0.00453463
-0.00409843
-0.00354598
-0.0028798
-0.00210264
-0.00121741
-0.000227198
0.000864725
0.00205495
0.00333989
0.00471576
0.00617855
0.00772403
0.00934782
0.0110453
0.0128118
0.0146424
0.0165319
0.0184752
0.0204667
0.0225007
0.0245714
0.0266729
0.0287988
0.0309432
0.0330995
0.0352612
0.0374219
0.0395747
0.0417127
0.0438292
0.0459171
0.0479696
0.0499798
0.0519409
0.0538459
0.0556881
0.0574607
0.0591573
0.0607713
0.0622966
0.0637273
0.0650574
0.0662815
0.0673943
0.0683909
0.0692666
0.0700174
0.0706394
0.0711293
0.0714839
0.0717007
0.0717776
0.0717128
0.0715053
0.0711542
0.0706593
0.0700206
0.0692385
0.0683138
0.0672477
0.0660415
0.0646973
0.0632168
0.0616022
0.0598559
0.0579801
0.0559775
0.0538504
0.0515996
0.0492262
0.0467485
0.0441824
0.0412974
0.0378948
0.0284104
0.0247149
0.0216146
0.0188914
0.0162902
0.0138252
0.0115134
0.00935254
0.00734021
0.00547539
0.00375711
0.00218425
0.000755719
-0.000529559
-0.0016727
-0.00267488
-0.00353735
-0.00426147
-0.00484873
-0.00530068
-0.00561903
-0.00580556
-0.0058622
-0.00579103
-0.00559426
-0.00527424
-0.00483341
-0.00427436
-0.00359982
-0.0028127
-0.00191605
-0.00091309
0.000192816
0.00139817
0.00269928
0.00409231
0.00557319
0.00713766
0.00878129
0.0104995
0.0122875
0.0141404
0.0160531
0.0180203
0.0200365
0.0220961
0.0241932
0.0263217
0.0284757
0.0306487
0.0328345
0.0350266
0.0372183
0.0394028
0.0415732
0.0437227
0.0458441
0.0479306
0.0499752
0.0519709
0.0539107
0.0557877
0.057595
0.0593258
0.0609738
0.0625324
0.0639954
0.0653568
0.0666108
0.0677519
0.0687751
0.0696753
0.0704481
0.0710896
0.0715958
0.0719635
0.0721897
0.072272
0.0722084
0.0719974
0.0716378
0.0711291
0.0704709
0.0696632
0.0687067
0.0676021
0.0663506
0.0649539
0.0634134
0.0617312
0.0599094
0.0579503
0.0558563
0.0536296
0.0512712
0.048782
0.0461816
0.0434865
0.0404549
0.0368782
0.0289351
0.0250702
0.0218288
0.0189832
0.0162667
0.0136941
0.0112833
0.00903174
0.00693681
0.00499723
0.00321172
0.00157887
9.72371e-05
-0.00123462
-0.00241819
-0.00345501
-0.00434672
-0.00509508
-0.00570189
-0.00616908
-0.00649866
-0.00669272
-0.00675351
-0.00668336
-0.00648476
-0.00616026
-0.00571254
-0.00514441
-0.00445877
-0.00365871
-0.00274742
-0.00172825
-0.000604666
0.000619729
0.00194115
0.00335568
0.0048592
0.00644739
0.0081158
0.00985979
0.0116746
0.0135553
0.0154967
0.0174936
0.0195405
0.0216316
0.0237612
0.0259231
0.0281113
0.0303195
0.0325414
0.0347703
0.0369996
0.0392224
0.0414319
0.043621
0.0457826
0.0479098
0.0499954
0.0520322
0.0540133
0.0559314
0.0577797
0.0595511
0.061239
0.0628367
0.0643377
0.0657359
0.0670252
0.0681998
0.0692543
0.0701836
0.0709829
0.0716477
0.072174
0.0725582
0.0727969
0.0728874
0.0728274
0.072615
0.0722486
0.0717275
0.0710508
0.0702185
0.0692306
0.0680877
0.0667909
0.0653412
0.0637403
0.0619899
0.0600918
0.0580485
0.055862
0.0535349
0.0510678
0.0484621
0.0457379
0.0429133
0.0397345
0.0359831
0.0292945
0.0252608
0.0218789
0.0189112
0.0160795
0.0133995
0.0108897
0.00854748
0.00636988
0.00435545
0.00250264
0.000809752
-0.000724978
-0.00210333
-0.00332715
-0.00439832
-0.00531887
-0.00609087
-0.0067165
-0.00719801
-0.0075377
-0.00773798
-0.00780138
-0.00773049
-0.00752805
-0.00719686
-0.00673981
-0.00615992
-0.00546029
-0.00464415
-0.00371486
-0.00267589
-0.00153082
-0.000283373
0.00106257
0.00250303
0.0040338
0.00565053
0.00734869
0.00912364
0.0109706
0.0128845
0.0148603
0.0168927
0.0189761
0.0211048
0.023273
0.0254745
0.0277034
0.0299532
0.0322176
0.0344899
0.0367635
0.0390314
0.0412866
0.0435221
0.0457307
0.0479052
0.0500384
0.0521231
0.054152
0.0561179
0.0580135
0.0598318
0.0615658
0.0632087
0.0647538
0.0661945
0.0675245
0.068738
0.069829
0.0707922
0.0716225
0.0723151
0.0728656
0.07327
0.0735247
0.0736266
0.073573
0.0733616
0.0729906
0.0724588
0.0717652
0.0709093
0.0698909
0.0687103
0.0673683
0.0658659
0.0642043
0.0623851
0.0604103
0.0582819
0.0560023
0.0535737
0.0509971
0.0482737
0.045425
0.0424698
0.0391428
0.0352158
0.029481
0.0252787
0.0217564
0.0186668
0.0157201
0.0129328
0.0103241
0.00789116
0.00563095
0.00354173
0.00162172
-0.000131058
-0.00171866
-0.0031432
-0.00440683
-0.00551182
-0.00646051
-0.00725532
-0.00789876
-0.00839338
-0.00874181
-0.00894674
-0.00901096
-0.00893733
-0.00872884
-0.00838852
-0.0079195
-0.007325
-0.00660829
-0.00577279
-0.00482198
-0.00375948
-0.00258902
-0.0013144
6.03956e-05
0.00153128
0.003094
0.00474413
0.0064771
0.0082882
0.0101726
0.0121253
0.0141412
0.0162148
0.0183407
0.020513
0.022726
0.0249735
0.0272493
0.0295473
0.0318608
0.0341832
0.0365077
0.0388274
0.0411351
0.0434238
0.0456861
0.0479148
0.0501025
0.0522418
0.0543253
0.0563455
0.0582951
0.0601668
0.0619534
0.0636478
0.065243
0.0667322
0.0681089
0.0693668
0.0704998
0.0715022
0.0723684
0.0730935
0.0736725
0.0741013
0.0743758
0.0744925
0.0744485
0.074241
0.0738679
0.0733277
0.072619
0.071741
0.0706933
0.069476
0.0680894
0.0665344
0.0648122
0.0629242
0.0608722
0.0586582
0.0562845
0.0537536
0.0510665
0.0482244
0.0452499
0.0421629
0.0386864
0.0345822
0.0294867
0.0251157
0.021453
0.0182415
0.0151799
0.0122852
0.00957764
0.00705417
0.00471147
0.00254764
0.000560685
-0.00125165
-0.00289171
-0.00436189
-0.00566469
-0.00680271
-0.0077786
-0.00859512
-0.0092551
-0.00976139
-0.0101169
-0.0103247
-0.0103877
-0.0103091
-0.0100921
-0.00974
-0.00925617
-0.00864401
-0.00790697
-0.00704865
-0.00607267
-0.00498279
-0.00378287
-0.00247685
-0.0010688
0.000437127
0.00203656
0.00372503
0.00549791
0.00735045
0.00927776
0.0112748
0.0133364
0.0154572
0.0176315
0.0198535
0.0221175
0.0244172
0.0267465
0.0290991
0.0314683
0.0338475
0.0362297
0.038608
0.0409751
0.0433239
0.0456468
0.0479366
0.0501857
0.0523865
0.0545314
0.0566129
0.0586233
0.0605551
0.0624008
0.0641532
0.0658049
0.067349
0.0687784
0.0700867
0.0712675
0.0723144
0.0732219
0.0739844
0.0745969
0.0750545