/*--------------------------------*- C++ -*----------------------------------*\
| =========                 |                                                 |
| \\      /  F ield         | OpenFOAM: The Open Source CFD Toolbox           |
|  \\    /   O peration     | Version:  2212                                  |
|   \\  /    A nd           | Website:  www.openfoam.com                      |
|    \\/     M anipulation  |                                                 |
\*---------------------------------------------------------------------------*/
FoamFile
{
    version     2.0;
    format      ascii;
    arch        "LSB;label=32;scalar=64";
    class       surfaceScalarField;
    location    "0.095";
    object      phi_0;
}
// * * * * * * * * * * * * * * * * * * * * * * * * * * * * * * * * * * * * * //

dimensions      [0 3 -1 0 0 0 0];

oriented        oriented;

internalField   nonuniform List<scalar> 
19800
(
7.07927e-11
-7.07885e-11
2.43388e-10
-1.72599e-10
4.33683e-10
-1.90271e-10
5.83196e-10
-1.49518e-10
6.58474e-10
-7.528e-11
6.4104e-10
1.74389e-11
5.2161e-10
1.19422e-10
2.96764e-10
2.24848e-10
-3.3225e-11
3.2999e-10
-4.65679e-10
4.3245e-10
-9.96358e-10
5.30672e-10
-1.61997e-09
6.2361e-10
-2.33053e-09
7.10568e-10
-3.12162e-09
7.9109e-10
-3.98651e-09
8.64891e-10
-4.91832e-09
9.31808e-10
-5.91009e-09
9.91773e-10
-6.95487e-09
1.04478e-09
-8.04575e-09
1.09087e-09
-9.17589e-09
1.13013e-09
-1.03386e-08
1.16268e-09
-1.15272e-08
1.18865e-09
-1.27354e-08
1.20819e-09
-1.39569e-08
1.22148e-09
-1.51856e-08
1.2287e-09
-1.64156e-08
1.23003e-09
-1.76413e-08
1.22568e-09
-1.88571e-08
1.21583e-09
-2.00578e-08
1.20071e-09
-2.12384e-08
1.18051e-09
-2.23938e-08
1.15545e-09
-2.35195e-08
1.12574e-09
-2.46111e-08
1.09159e-09
-2.56644e-08
1.05323e-09
-2.66752e-08
1.01087e-09
-2.76399e-08
9.64719e-10
-2.8555e-08
9.15012e-10
-2.94169e-08
8.6196e-10
-3.02227e-08
8.05786e-10
-3.09694e-08
7.46707e-10
-3.16544e-08
6.8494e-10
-3.22751e-08
6.20713e-10
-3.28293e-08
5.54248e-10
-3.33151e-08
4.85772e-10
-3.37306e-08
4.1552e-10
-3.40743e-08
3.43723e-10
-3.4345e-08
2.70619e-10
-3.45414e-08
1.96452e-10
-3.46629e-08
1.21455e-10
-3.47087e-08
4.58739e-11
-3.46787e-08
-3.00375e-11
-3.45727e-08
-1.06031e-10
-3.43908e-08
-1.81852e-10
-3.41336e-08
-2.57231e-10
-3.38017e-08
-3.31906e-10
-3.33961e-08
-4.05617e-10
-3.2918e-08
-4.78086e-10
-3.23689e-08
-5.49039e-10
-3.17507e-08
-6.18206e-10
-3.10654e-08
-6.85304e-10
-3.03154e-08
-7.50041e-10
-2.95032e-08
-8.12138e-10
-2.86319e-08
-8.71322e-10
-2.77046e-08
-9.27305e-10
-2.67248e-08
-9.79805e-10
-2.56963e-08
-1.02855e-09
-2.4623e-08
-1.07326e-09
-2.35093e-08
-1.11367e-09
-2.23598e-08
-1.14949e-09
-2.11794e-08
-1.18047e-09
-1.9973e-08
-1.20636e-09
-1.87461e-08
-1.22692e-09
-1.75042e-08
-1.2419e-09
-1.62531e-08
-1.2511e-09
-1.49988e-08
-1.25429e-09
-1.37475e-08
-1.25128e-09
-1.25056e-08
-1.24188e-09
-1.12797e-08
-1.22593e-09
-1.00764e-08
-1.20329e-09
-8.90261e-09
-1.17383e-09
-7.76514e-09
-1.13747e-09
-6.671e-09
-1.09414e-09
-5.62718e-09
-1.04381e-09
-4.64067e-09
-9.86504e-10
-3.71839e-09
-9.22273e-10
-2.86714e-09
-8.51241e-10
-2.09354e-09
-7.73603e-10
-1.4039e-09
-6.89645e-10
-8.04136e-10
-5.99779e-10
-2.99547e-10
-5.0459e-10
1.0537e-10
-4.04912e-10
4.07298e-10
-3.01926e-10
6.04627e-10
-1.9733e-10
6.98263e-10
-9.36353e-11
6.9291e-10
5.35895e-12
5.99153e-10
9.37648e-11
4.36709e-10
1.62445e-10
2.39977e-10
1.96725e-10
6.73382e-11
1.72633e-10
6.73411e-11
1.72659e-10
-2.4345e-10
4.74765e-10
-4.7473e-10
7.64883e-10
-4.80386e-10
9.40433e-10
-3.25067e-10
9.30132e-10
-6.49891e-11
6.88307e-10
2.59275e-10
1.88263e-10
6.1946e-10
-5.82985e-10
9.96091e-10
-1.62874e-09
1.37575e-09
-2.94545e-09
1.74917e-09
-4.52466e-09
2.10989e-09
-6.35445e-09
2.45341e-09
-8.42046e-09
2.77658e-09
-1.07066e-08
3.07723e-09
-1.31956e-08
3.35389e-09
-1.58694e-08
3.60563e-09
-1.87096e-08
3.8319e-09
-2.16972e-08
4.03244e-09
-2.48136e-08
4.20724e-09
-2.80399e-08
4.35646e-09
-3.13576e-08
4.48039e-09
-3.47484e-08
4.57945e-09
-3.81943e-08
4.65412e-09
-4.16778e-08
4.705e-09
-4.51818e-08
4.7327e-09
-4.86897e-08
4.7379e-09
-5.21853e-08
4.72129e-09
-5.56531e-08
4.68362e-09
-5.90781e-08
4.62564e-09
-6.24457e-08
4.54812e-09
-6.57421e-08
4.45186e-09
-6.8954e-08
4.33767e-09
-7.20688e-08
4.20634e-09
-7.50743e-08
4.05872e-09
-7.7959e-08
3.89562e-09
-8.07122e-08
3.71788e-09
-8.33235e-08
3.52635e-09
-8.57834e-08
3.32186e-09
-8.80829e-08
3.10526e-09
-9.02136e-08
2.87743e-09
-9.21679e-08
2.6392e-09
-9.39386e-08
2.39145e-09
-9.55194e-08
2.13505e-09
-9.69045e-08
1.8709e-09
-9.80889e-08
1.59989e-09
-9.90681e-08
1.32293e-09
-9.98384e-08
1.04093e-09
-1.00397e-07
7.54828e-10
-1.00741e-07
4.65564e-10
-1.00869e-07
1.74089e-10
-1.00781e-07
-1.18626e-10
-1.00475e-07
-4.11592e-10
-9.9953e-08
-7.03816e-10
-9.9216e-08
-9.94296e-10
-9.82659e-08
-1.282e-09
-9.71056e-08
-1.56589e-09
-9.57387e-08
-1.84494e-09
-9.41697e-08
-2.11806e-09
-9.24037e-08
-2.38421e-09
-9.04467e-08
-2.6423e-09
-8.83055e-08
-2.89125e-09
-8.59877e-08
-3.12998e-09
-8.35016e-08
-3.3574e-09
-8.08564e-08
-3.57245e-09
-7.80622e-08
-3.77404e-09
-7.51296e-08
-3.96112e-09
-7.20703e-08
-4.13263e-09
-6.88964e-08
-4.28754e-09
-6.56211e-08
-4.42483e-09
-6.2258e-08
-4.54351e-09
-5.88218e-08
-4.64263e-09
-5.53274e-08
-4.72127e-09
-5.17907e-08
-4.77858e-09
-4.82281e-08
-4.81371e-09
-4.46565e-08
-4.8259e-09
-4.10934e-08
-4.81442e-09
-3.75566e-08
-4.77863e-09
-3.40646e-08
-4.71795e-09
-3.0636e-08
-4.63191e-09
-2.72897e-08
-4.52012e-09
-2.40448e-08
-4.38232e-09
-2.09206e-08
-4.21837e-09
-1.79361e-08
-4.02827e-09
-1.51104e-08
-3.81221e-09
-1.24621e-08
-3.5706e-09
-1.00092e-08
-3.3041e-09
-7.76915e-09
-3.0137e-09
-5.75801e-09
-2.70078e-09
-3.99052e-09
-2.36726e-09
-2.47931e-09
-2.0158e-09
-1.23425e-09
-1.64998e-09
-2.61426e-10
-1.27477e-09
4.38216e-10
-8.96989e-10
8.70821e-10
-5.26247e-10
1.05233e-09
-1.7615e-10
1.01226e-09
1.33837e-10
7.98781e-10
3.75921e-10
4.84737e-10
5.10761e-10
1.7254e-10
4.84834e-10
2.39884e-10
1.90979e-10
-4.34406e-10
4.82567e-10
-7.6634e-10
7.00734e-10
-6.9855e-10
7.21948e-10
-3.46276e-10
4.56667e-10
2.00285e-10
-1.56202e-10
8.72142e-10
-1.15493e-09
1.6182e-09
-2.56015e-09
2.4013e-09
-4.37901e-09
3.19461e-09
-6.60857e-09
3.97873e-09
-9.23829e-09
4.73962e-09
-1.2252e-08
5.46714e-09
-1.56294e-08
6.15399e-09
-1.93472e-08
6.79495e-09
-2.33797e-08
7.38637e-09
-2.76998e-08
7.92577e-09
-3.22795e-08
8.41158e-09
-3.70899e-08
8.84292e-09
-4.21022e-08
9.21946e-09
-4.7287e-08
9.5413e-09
-5.26155e-08
9.80888e-09
-5.80589e-08
1.00229e-08
-6.35891e-08
1.01843e-08
-6.91784e-08
1.02942e-08
-7.47996e-08
1.03539e-08
-8.04263e-08
1.03647e-08
-8.6033e-08
1.0328e-08
-9.15949e-08
1.02454e-08
-9.70878e-08
1.01186e-08
-1.02489e-07
9.94911e-09
-1.07776e-07
9.73866e-09
-1.12927e-07
9.48898e-09
-1.17922e-07
9.20183e-09
-1.22743e-07
8.87897e-09
-1.27369e-07
8.52222e-09
-1.31785e-07
8.13339e-09
-1.35973e-07
7.7143e-09
-1.39918e-07
7.26681e-09
-1.43605e-07
6.79277e-09
-1.47022e-07
6.29406e-09
-1.50155e-07
5.77258e-09
-1.52994e-07
5.23024e-09
-1.55528e-07
4.66895e-09
-1.57748e-07
4.09069e-09
-1.59645e-07
3.49741e-09
-1.61213e-07
2.89112e-09
-1.62446e-07
2.27384e-09
-1.63339e-07
1.64761e-09
-1.63888e-07
1.01451e-09
-1.64091e-07
3.76632e-10
-1.63945e-07
-2.63887e-10
-1.63452e-07
-9.04888e-10
-1.62612e-07
-1.54417e-09
-1.61426e-07
-2.17953e-09
-1.599e-07
-2.80873e-09
-1.58036e-07
-3.42949e-09
-1.55842e-07
-4.03952e-09
-1.53323e-07
-4.6365e-09
-1.50489e-07
-5.21811e-09
-1.47349e-07
-5.782e-09
-1.43915e-07
-6.32581e-09
-1.40198e-07
-6.84717e-09
-1.36211e-07
-7.34375e-09
-1.31971e-07
-7.8132e-09
-1.27491e-07
-8.25317e-09
-1.22791e-07
-8.66138e-09
-1.17888e-07
-9.03555e-09
-1.12802e-07
-9.37344e-09
-1.07554e-07
-9.67286e-09
-1.02166e-07
-9.9317e-09
-9.66609e-08
-1.01479e-08
-9.10627e-08
-1.03195e-08
-8.53965e-08
-1.04447e-08
-7.96886e-08
-1.05217e-08
-7.39656e-08
-1.05488e-08
-6.82554e-08
-1.05247e-08
-6.25862e-08
-1.04478e-08
-5.69869e-08
-1.03172e-08
-5.14869e-08
-1.01319e-08
-4.61159e-08
-9.89111e-09
-4.09038e-08
-9.59445e-09
-3.58804e-08
-9.24175e-09
-3.10754e-08
-8.83324e-09
-2.65181e-08
-8.36955e-09
-2.22369e-08
-7.8518e-09
-1.82593e-08
-7.2817e-09
-1.46112e-08
-6.66174e-09
-1.13167e-08
-5.99531e-09
-8.39693e-09
-5.28702e-09
-5.86972e-09
-4.54301e-09
-3.7482e-09
-3.7715e-09
-2.03948e-09
-2.98347e-09
-7.4277e-10
-2.1937e-09
1.53105e-10
-1.42212e-09
6.72808e-10
-6.95855e-10
8.58474e-10
-5.18294e-11
7.7452e-10
4.59875e-10
5.12739e-10
7.72541e-10
1.97211e-10
8.00365e-10
4.37097e-10
1.51881e-10
-5.86278e-10
3.32222e-10
-9.46682e-10
3.57273e-10
-7.23595e-10
9.53297e-11
-8.4328e-11
-5.50368e-10
8.45977e-10
-1.64784e-09
1.96961e-09
-3.24133e-09
3.21169e-09
-5.35586e-09
4.51583e-09
-8.00109e-09
5.83984e-09
-1.11746e-08
7.15221e-09
-1.48644e-08
8.42947e-09
-1.90514e-08
9.65416e-09
-2.37108e-08
1.08134e-08
-2.88135e-08
1.18977e-08
-3.43274e-08
1.29002e-08
-4.02179e-08
1.38163e-08
-4.6449e-08
1.46426e-08
-5.29834e-08
1.53773e-08
-5.97833e-08
1.60194e-08
-6.68106e-08
1.65686e-08
-7.40272e-08
1.70255e-08
-8.13953e-08
1.7391e-08
-8.88775e-08
1.76665e-08
-9.64368e-08
1.78536e-08
-1.04037e-07
1.79545e-08
-1.11644e-07
1.79712e-08
-1.19222e-07
1.79062e-08
-1.26739e-07
1.77621e-08
-1.34162e-07
1.75415e-08
-1.4146e-07
1.72472e-08
-1.48603e-07
1.6882e-08
-1.55563e-07
1.6449e-08
-1.62312e-07
1.5951e-08
-1.68825e-07
1.53911e-08
-1.75075e-07
1.47725e-08
-1.8104e-07
1.40982e-08
-1.86697e-07
1.33715e-08
-1.92026e-07
1.25955e-08
-1.97006e-07
1.17733e-08
-2.01621e-07
1.09084e-08
-2.05852e-07
1.0004e-08
-2.09685e-07
9.06339e-09
-2.13106e-07
8.08993e-09
-2.16102e-07
7.08702e-09
-2.18663e-07
6.05811e-09
-2.20779e-07
5.00667e-09
-2.22441e-07
3.93622e-09
-2.23644e-07
2.85033e-09
-2.24382e-07
1.7526e-09
-2.24652e-07
6.46678e-10
-2.24452e-07
-4.6371e-10
-2.23782e-07
-1.57482e-09
-2.22643e-07
-2.68284e-09
-2.21039e-07
-3.78393e-09
-2.18974e-07
-4.87418e-09
-2.16453e-07
-5.94967e-09
-2.13487e-07
-7.00643e-09
-2.10083e-07
-8.04043e-09
-2.06253e-07
-9.04766e-09
-2.02011e-07
-1.00241e-08
-1.97371e-07
-1.09655e-08
-1.9235e-07
-1.18681e-08
-1.86967e-07
-1.27276e-08
-1.8124e-07
-1.354e-08
-1.75192e-07
-1.43013e-08
-1.68845e-07
-1.50076e-08
-1.62226e-07
-1.5655e-08
-1.5536e-07
-1.62396e-08
-1.48275e-07
-1.67578e-08
-1.41001e-07
-1.72058e-08
-1.33568e-07
-1.75802e-08
-1.2601e-07
-1.78778e-08
-1.1836e-07
-1.80952e-08
-1.10652e-07
-1.82297e-08
-1.02922e-07
-1.82785e-08
-9.52076e-08
-1.82391e-08
-8.75461e-08
-1.81093e-08
-7.99759e-08
-1.78874e-08
-7.25359e-08
-1.75719e-08
-6.52654e-08
-1.71616e-08
-5.82037e-08
-1.66562e-08
-5.139e-08
-1.60554e-08
-4.48631e-08
-1.53601e-08
-3.86611e-08
-1.45715e-08
-3.28209e-08
-1.3692e-08
-2.73776e-08
-1.2725e-08
-2.23644e-08
-1.1675e-08
-1.78114e-08
-1.05483e-08
-1.3745e-08
-9.35343e-09
-1.01868e-08
-8.10122e-09
-7.15223e-09
-6.80605e-09
-4.64903e-09
-5.48667e-09
-2.67504e-09
-4.1677e-09
-1.21573e-09
-2.88142e-09
-2.41228e-10
-1.67036e-09
2.97399e-10
-5.90453e-10
4.72322e-10
2.84952e-10
3.83517e-10
8.61343e-10
1.64644e-10
1.01924e-09
6.01742e-10
8.01274e-11
-6.664e-10
7.93171e-11
-9.45878e-10
-1.76826e-10
-4.67445e-10
-8.17306e-10
5.56162e-10
-1.9383e-09
1.96697e-09
-3.60861e-09
3.63992e-09
-5.87389e-09
5.47697e-09
-8.76047e-09
7.4024e-09
-1.22786e-08
9.35801e-09
-1.64256e-08
1.12992e-08
-2.11881e-08
1.31919e-08
-2.65443e-08
1.50103e-08
-3.24656e-08
1.67347e-08
-3.89186e-08
1.83506e-08
-4.58654e-08
1.98471e-08
-5.32654e-08
2.12163e-08
-6.10758e-08
2.2453e-08
-6.92522e-08
2.35537e-08
-7.77491e-08
2.45163e-08
-8.65206e-08
2.53402e-08
-9.55207e-08
2.60256e-08
-1.04703e-07
2.65736e-08
-1.14023e-07
2.69861e-08
-1.23435e-07
2.72654e-08
-1.32894e-07
2.74141e-08
-1.42359e-07
2.74356e-08
-1.51786e-07
2.73332e-08
-1.61134e-07
2.71107e-08
-1.70365e-07
2.67721e-08
-1.79439e-07
2.63214e-08
-1.8832e-07
2.57629e-08
-1.96972e-07
2.5101e-08
-2.05361e-07
2.43403e-08
-2.13455e-07
2.34853e-08
-2.21224e-07
2.25406e-08
-2.28636e-07
2.15111e-08
-2.35666e-07
2.04015e-08
-2.42288e-07
1.92167e-08
-2.48476e-07
1.79616e-08
-2.54209e-07
1.66412e-08
-2.59465e-07
1.52605e-08
-2.64227e-07
1.38246e-08
-2.68475e-07
1.23386e-08
-2.72196e-07
1.08077e-08
-2.75375e-07
9.23714e-09
-2.78e-07
7.63229e-09
-2.80063e-07
5.99851e-09
-2.81554e-07
4.34125e-09
-2.82467e-07
2.66606e-09
-2.82799e-07
9.78504e-10
-2.82547e-07
-7.15736e-10
-2.81711e-07
-2.41092e-09
-2.80292e-07
-4.10123e-09
-2.78296e-07
-5.78079e-09
-2.75726e-07
-7.44367e-09
-2.72592e-07
-9.08384e-09
-2.68903e-07
-1.06953e-08
-2.64672e-07
-1.22718e-08
-2.59912e-07
-1.38074e-08
-2.5464e-07
-1.52958e-08
-2.48875e-07
-1.67309e-08
-2.42636e-07
-1.81064e-08
-2.35948e-07
-1.94163e-08
-2.28833e-07
-2.06544e-08
-2.2132e-07
-2.18146e-08
-2.13437e-07
-2.2891e-08
-2.05214e-07
-2.38776e-08
-1.96685e-07
-2.47688e-08
-1.87884e-07
-2.55588e-08
-1.78847e-07
-2.62423e-08
-1.69614e-07
-2.6814e-08
-1.60222e-07
-2.72691e-08
-1.50715e-07
-2.76027e-08
-1.41134e-07
-2.78106e-08
-1.31524e-07
-2.78887e-08
-1.21929e-07
-2.78335e-08
-1.12397e-07
-2.76419e-08
-1.02973e-07
-2.73112e-08
-9.37054e-08
-2.68394e-08
-8.46418e-08
-2.62253e-08
-7.58298e-08
-2.54682e-08
-6.73168e-08
-2.45684e-08
-5.91496e-08
-2.35273e-08
-5.13738e-08
-2.23473e-08
-4.40335e-08
-2.10324e-08
-3.71704e-08
-1.9588e-08
-3.08237e-08
-1.80217e-08
-2.50287e-08
-1.63434e-08
-1.98158e-08
-1.45663e-08
-1.521e-08
-1.2707e-08
-1.12288e-08
-1.07873e-08
-7.88059e-09
-8.83485e-09
-5.16304e-09
-6.88525e-09
-3.06029e-09
-4.98417e-09
-1.54042e-09
-3.19021e-09
-5.52341e-10
-1.57853e-09
-2.21747e-11
-2.45217e-10
1.50685e-10
6.88479e-10
9.88875e-11
1.07103e-09
7.00633e-10
-9.6655e-12
-6.56726e-10
-2.36882e-10
-7.18659e-10
-8.3538e-10
1.31046e-10
-1.92318e-09
1.64397e-09
-3.58981e-09
3.63361e-09
-5.90013e-09
5.95023e-09
-8.89748e-09
8.47433e-09
-1.26067e-08
1.11116e-08
-1.70368e-08
1.37882e-08
-2.21836e-08
1.6446e-08
-2.80316e-08
1.904e-08
-3.45565e-08
2.15352e-08
-4.17263e-08
2.39046e-08
-4.95034e-08
2.61277e-08
-5.78453e-08
2.8189e-08
-6.67061e-08
3.00771e-08
-7.60371e-08
3.1784e-08
-8.57877e-08
3.33042e-08
-9.59058e-08
3.46344e-08
-1.06339e-07
3.5773e-08
-1.17033e-07
3.67201e-08
-1.27936e-07
3.74766e-08
-1.38995e-07
3.80447e-08
-1.50157e-07
3.84274e-08
-1.61371e-07
3.86282e-08
-1.72587e-07
3.86513e-08
-1.83755e-07
3.85013e-08
-1.94827e-07
3.81832e-08
-2.05757e-07
3.77025e-08
-2.16501e-07
3.70647e-08
-2.27014e-07
3.62757e-08
-2.37254e-07
3.53417e-08
-2.47183e-07
3.42688e-08
-2.56761e-07
3.30634e-08
-2.65952e-07
3.17321e-08
-2.74723e-07
3.02814e-08
-2.83039e-07
2.87182e-08
-2.90872e-07
2.70491e-08
-2.98191e-07
2.52812e-08
-3.04972e-07
2.34214e-08
-3.11188e-07
2.14768e-08
-3.16818e-07
1.94545e-08
-3.21841e-07
1.73618e-08
-3.26239e-07
1.52059e-08
-3.29996e-07
1.29944e-08
-3.33099e-07
1.07347e-08
-3.35535e-07
8.43441e-09
-3.37295e-07
6.10121e-09
-3.38372e-07
3.74289e-09
-3.3876e-07
1.36736e-09
-3.38459e-07
-1.01739e-09
-3.37466e-07
-3.40328e-09
-3.35785e-07
-5.78213e-09
-3.33421e-07
-8.14566e-09
-3.30379e-07
-1.04855e-08
-3.26669e-07
-1.27932e-08
-3.22304e-07
-1.50603e-08
-3.17298e-07
-1.72782e-08
-3.11667e-07
-1.94382e-08
-3.05431e-07
-2.15317e-08
-2.98612e-07
-2.35502e-08
-2.91234e-07
-2.54848e-08
-2.83323e-07
-2.73271e-08
-2.74909e-07
-2.90684e-08
-2.66023e-07
-3.07003e-08
-2.567e-07
-3.22144e-08
-2.46975e-07
-3.36025e-08
-2.36887e-07
-3.48567e-08
-2.26477e-07
-3.59691e-08
-2.15787e-07
-3.69322e-08
-2.04862e-07
-3.77388e-08
-1.93749e-07
-3.83821e-08
-1.82496e-07
-3.88556e-08
-1.71153e-07
-3.91533e-08
-1.59772e-07
-3.927e-08
-1.48405e-07
-3.92006e-08
-1.37106e-07
-3.8941e-08
-1.25929e-07
-3.8488e-08
-1.1493e-07
-3.78388e-08
-1.04163e-07
-3.69921e-08
-9.36838e-08
-3.59472e-08
-8.35472e-08
-3.4705e-08
-7.38067e-08
-3.32678e-08
-6.45146e-08
-3.16394e-08
-5.57211e-08
-2.98258e-08
-4.74739e-08
-2.78352e-08
-3.98172e-08
-2.56784e-08
-3.27906e-08
-2.337e-08
-2.64286e-08
-2.09282e-08
-2.07591e-08
-1.83766e-08
-1.58017e-08
-1.57447e-08
-1.15665e-08
-1.307e-08
-8.05209e-09
-1.03997e-08
-5.24324e-09
-7.79302e-09
-3.10888e-09
-5.32457e-09
-1.59941e-09
-3.08801e-09
-6.43911e-10
-1.20072e-09
-1.47129e-10
1.91697e-10
1.4424e-11
9.09481e-10
7.15063e-10
-1.08772e-10
-5.4795e-10
-5.89847e-10
-2.37576e-10
-1.57087e-09
1.11207e-09
-3.1535e-09
3.22659e-09
-5.41616e-09
5.89627e-09
-8.41605e-09
8.95013e-09
-1.21912e-08
1.22495e-08
-1.67625e-08
1.5683e-08
-2.2136e-08
1.91616e-08
-2.83045e-08
2.26145e-08
-3.52498e-08
2.59854e-08
-4.29446e-08
2.92299e-08
-5.13536e-08
3.23135e-08
-6.0435e-08
3.52092e-08
-7.01424e-08
3.78963e-08
-8.04248e-08
4.03596e-08
-9.12286e-08
4.25878e-08
-1.02497e-07
4.4573e-08
-1.14173e-07
4.63105e-08
-1.26198e-07
4.77975e-08
-1.38511e-07
4.90336e-08
-1.51054e-07
5.00196e-08
-1.63768e-07
5.07579e-08
-1.76592e-07
5.12519e-08
-1.8947e-07
5.15061e-08
-2.02344e-07
5.15257e-08
-2.1516e-07
5.13165e-08
-2.27861e-07
5.0885e-08
-2.40397e-07
5.0238e-08
-2.52715e-07
4.9383e-08
-2.64767e-07
4.83274e-08
-2.76505e-07
4.70794e-08
-2.87883e-07
4.5647e-08
-2.98858e-07
4.40386e-08
-3.09389e-07
4.2263e-08
-3.19436e-07
4.03287e-08
-3.28963e-07
3.82447e-08
-3.37934e-07
3.60201e-08
-3.46316e-07
3.3664e-08
-3.54081e-07
3.11856e-08
-3.61198e-07
2.85945e-08
-3.67644e-07
2.59002e-08
-3.73394e-07
2.31121e-08
-3.78429e-07
2.02402e-08
-3.82729e-07
1.72944e-08
-3.86278e-07
1.42845e-08
-3.89065e-07
1.12207e-08
-3.91077e-07
8.11337e-09
-3.92307e-07
4.97279e-09
-3.92749e-07
1.80948e-09
-3.924e-07
-1.36589e-09
-3.91261e-07
-4.54256e-09
-3.89334e-07
-7.70962e-09
-3.86623e-07
-1.08561e-08
-3.83138e-07
-1.39708e-08
-3.78889e-07
-1.70426e-08
-3.73889e-07
-2.00601e-08
-3.68155e-07
-2.30119e-08
-3.61706e-07
-2.58867e-08
-3.54565e-07
-2.86729e-08
-3.46756e-07
-3.13591e-08
-3.38307e-07
-3.39338e-08
-3.29249e-07
-3.63857e-08
-3.19614e-07
-3.87034e-08
-3.09438e-07
-4.08757e-08
-2.98761e-07
-4.28916e-08
-2.87623e-07
-4.47404e-08
-2.76068e-07
-4.64114e-08
-2.64143e-07
-4.78945e-08
-2.51895e-07
-4.91797e-08
-2.39377e-07
-5.02577e-08
-2.26639e-07
-5.11195e-08
-2.13738e-07
-5.17568e-08
-2.0073e-07
-5.21618e-08
-1.87672e-07
-5.23275e-08
-1.74625e-07
-5.22478e-08
-1.61648e-07
-5.19175e-08
-1.48804e-07
-5.13322e-08
-1.36154e-07
-5.04891e-08
-1.2376e-07
-4.93863e-08
-1.11683e-07
-4.80237e-08
-9.99855e-08
-4.64027e-08
-8.87266e-08
-4.45267e-08
-7.79647e-08
-4.24014e-08
-6.77555e-08
-4.0035e-08
-5.81517e-08
-3.74389e-08
-4.92022e-08
-3.46279e-08
-4.09509e-08
-3.16212e-08
-3.3436e-08
-2.84432e-08
-2.66882e-08
-2.51243e-08
-2.07301e-08
-2.17028e-08
-1.55741e-08
-1.8226e-08
-1.12211e-08
-1.47527e-08
-7.65841e-09
-1.13557e-08
-4.85821e-09
-8.12476e-09
-2.7754e-09
-5.17082e-09
-1.34565e-09
-2.63047e-09
-4.83442e-10
-6.70509e-10
-7.99689e-11
5.06008e-10
6.351e-10
-2.11908e-10
-3.36041e-10
-9.62014e-10
5.12541e-10
-2.35019e-09
2.50025e-09
-4.45867e-09
5.33506e-09
-7.35176e-09
8.78935e-09
-1.10763e-08
1.26746e-08
-1.56625e-08
1.68357e-08
-2.11254e-08
2.11459e-08
-2.74662e-08
2.55024e-08
-3.46738e-08
2.9822e-08
-4.27263e-08
3.40378e-08
-5.15926e-08
3.80962e-08
-6.12338e-08
4.19547e-08
-7.16043e-08
4.55797e-08
-8.26535e-08
4.89455e-08
-9.4326e-08
5.20321e-08
-1.06563e-07
5.4825e-08
-1.19304e-07
5.73139e-08
-1.32486e-07
5.94919e-08
-1.46043e-07
6.13552e-08
-1.59912e-07
6.29024e-08
-1.74027e-07
6.41342e-08
-1.88322e-07
6.50532e-08
-2.02734e-07
6.56633e-08
-2.17197e-07
6.59697e-08
-2.3165e-07
6.59786e-08
-2.46031e-07
6.56973e-08
-2.60279e-07
6.51335e-08
-2.74337e-07
6.42959e-08
-2.88148e-07
6.31936e-08
-3.01657e-07
6.18362e-08
-3.14811e-07
6.02335e-08
-3.2756e-07
5.8396e-08
-3.39855e-07
5.63342e-08
-3.51652e-07
5.4059e-08
-3.62904e-07
5.15815e-08
-3.73573e-07
4.8913e-08
-3.83618e-07
4.60651e-08
-3.93003e-07
4.30494e-08
-4.01695e-07
3.98777e-08
-4.09663e-07
3.6562e-08
-4.16877e-07
3.31146e-08
-4.23313e-07
2.95477e-08
-4.28946e-07
2.58738e-08
-4.33757e-07
2.21055e-08
-4.37728e-07
1.82556e-08
-4.40845e-07
1.43372e-08
-4.43095e-07
1.03632e-08
-4.44469e-07
6.34697e-09
-4.44961e-07
2.30196e-09
-4.44569e-07
-1.75822e-09
-4.43292e-07
-5.81983e-09
-4.41132e-07
-9.86893e-09
-4.38097e-07
-1.38915e-08
-4.34195e-07
-1.78732e-08
-4.29437e-07
-2.17999e-08
-4.2384e-07
-2.56571e-08
-4.17422e-07
-2.94303e-08
-4.10203e-07
-3.3105e-08
-4.0221e-07
-3.66664e-08
-3.93469e-07
-4.01001e-08
-3.84011e-07
-4.33915e-08
-3.73871e-07
-4.65261e-08
-3.63085e-07
-4.94895e-08
-3.51693e-07
-5.22677e-08
-3.39738e-07
-5.48465e-08
-3.27266e-07
-5.72123e-08
-3.14326e-07
-5.93519e-08
-3.00968e-07
-6.12522e-08
-2.87247e-07
-6.29009e-08
-2.73218e-07
-6.42861e-08
-2.58941e-07
-6.53967e-08
-2.44476e-07
-6.6222e-08
-2.29885e-07
-6.67527e-08
-2.15232e-07
-6.69799e-08
-2.00584e-07
-6.68961e-08
-1.86007e-07
-6.64949e-08
-1.71568e-07
-6.57713e-08
-1.57335e-07
-6.47218e-08
-1.43377e-07
-6.33446e-08
-1.2976e-07
-6.16398e-08
-1.16553e-07
-5.96097e-08
-1.03821e-07
-5.72592e-08
-9.16266e-08
-5.45958e-08
-8.00312e-08
-5.16304e-08
-6.90924e-08
-4.83778e-08
-5.88632e-08
-4.48571e-08
-4.93917e-08
-4.10927e-08
-4.07197e-08
-3.71152e-08
-3.28816e-08
-3.29624e-08
-2.59031e-08
-2.86813e-08
-1.98001e-08
-2.4329e-08
-1.4577e-08
-1.99758e-08
-1.02254e-08
-1.57073e-08
-6.72261e-09
-1.16275e-08
-4.0305e-09
-7.86293e-09
-2.09404e-09
-4.56692e-09
-8.405e-10
-1.92405e-09
-1.7889e-10
-1.556e-10
4.56214e-10
-3.15926e-10
-2.01186e-11
-1.34199e-09
1.53862e-09
-3.15068e-09
4.30894e-09
-5.80351e-09
7.98789e-09
-9.34889e-09
1.23347e-08
-1.38213e-08
1.71471e-08
-1.92415e-08
2.22559e-08
-2.56169e-08
2.75212e-08
-3.29424e-08
3.28279e-08
-4.12018e-08
3.80814e-08
-5.03686e-08
4.32046e-08
-6.04074e-08
4.81351e-08
-7.12754e-08
5.28226e-08
-8.29228e-08
5.72272e-08
-9.52947e-08
6.13174e-08
-1.08332e-07
6.5069e-08
-1.2197e-07
6.84638e-08
-1.36145e-07
7.14887e-08
-1.50788e-07
7.41348e-08
-1.6583e-07
7.63969e-08
-1.812e-07
7.82728e-08
-1.96829e-07
7.97627e-08
-2.12645e-07
8.08693e-08
-2.28578e-07
8.1597e-08
-2.44561e-07
8.19518e-08
-2.60523e-07
8.19409e-08
-2.76398e-07
8.15729e-08
-2.92122e-07
8.08572e-08
-3.0763e-07
7.98041e-08
-3.22861e-07
7.84246e-08
-3.37755e-07
7.67303e-08
-3.52255e-07
7.47334e-08
-3.66306e-07
7.24464e-08
-3.79854e-07
6.98824e-08
-3.9285e-07
6.70547e-08
-4.05245e-07
6.3977e-08
-4.16995e-07
6.06631e-08
-4.28057e-07
5.71273e-08
-4.38392e-07
5.3384e-08
-4.47962e-07
4.94478e-08
-4.56734e-07
4.53335e-08
-4.64675e-07
4.10563e-08
-4.71759e-07
3.66314e-08
-4.77959e-07
3.20741e-08
-4.83254e-07
2.74002e-08
-4.87624e-07
2.26255e-08
-4.91053e-07
1.77661e-08
-4.93528e-07
1.28381e-08
-4.95039e-07
7.85813e-09
-4.9558e-07
2.84274e-09
-4.95147e-07
-2.19119e-09
-4.9374e-07
-7.22662e-09
-4.91363e-07
-1.22463e-08
-4.88021e-07
-1.72329e-08
-4.83726e-07
-2.21688e-08
-4.78489e-07
-2.70363e-08
-4.72329e-07
-3.18176e-08
-4.65264e-07
-3.64948e-08
-4.57319e-07
-4.10499e-08
-4.48521e-07
-4.54649e-08
-4.38899e-07
-4.97217e-08
-4.28488e-07
-5.38026e-08
-4.17325e-07
-5.76895e-08
-4.05449e-07
-6.13649e-08
-3.92906e-07
-6.48113e-08
-3.79741e-07
-6.80115e-08
-3.66004e-07
-7.09488e-08
-3.51749e-07
-7.36069e-08
-3.37032e-07
-7.59699e-08
-3.2191e-07
-7.80226e-08
-3.06446e-07
-7.97505e-08
-2.90702e-07
-8.11402e-08
-2.74745e-07
-8.21787e-08
-2.58643e-07
-8.28546e-08
-2.42466e-07
-8.31573e-08
-2.26284e-07
-8.30779e-08
-2.1017e-07
-8.26088e-08
-1.94197e-07
-8.17441e-08
-1.78439e-07
-8.04798e-08
-1.6297e-07
-7.88142e-08
-1.47862e-07
-7.67478e-08
-1.33188e-07
-7.42839e-08
-1.19018e-07
-7.14288e-08
-1.05422e-07
-6.81923e-08
-9.24637e-08
-6.45883e-08
-8.02065e-08
-6.0635e-08
-6.87075e-08
-5.63561e-08
-5.80189e-08
-5.17813e-08
-4.81865e-08
-4.69476e-08
-3.92485e-08
-4.19004e-08
-3.12348e-08
-3.6695e-08
-2.41653e-08
-3.13985e-08
-1.80494e-08
-2.60918e-08
-1.28841e-08
-2.08726e-08
-8.65389e-09
-1.58578e-08
-5.32913e-09
-1.11877e-08
-2.86609e-09
-7.02997e-09
-1.20665e-09
-3.58349e-09
-2.79082e-10
-1.08316e-09
1.77133e-10
-4.18972e-10
3.98844e-10
-1.72249e-09
2.84214e-09
-3.95711e-09
6.54356e-09
-7.16353e-09
1.11943e-08
-1.13734e-08
1.65446e-08
-1.66077e-08
2.23814e-08
-2.28762e-08
2.85244e-08
-3.01775e-08
3.48226e-08
-3.84993e-08
4.11497e-08
-4.78189e-08
4.7401e-08
-5.81046e-08
5.34903e-08
-6.93161e-08
5.93466e-08
-8.14058e-08
6.49124e-08
-9.43199e-08
7.01412e-08
-1.07999e-07
7.49963e-08
-1.22379e-07
7.94491e-08
-1.37393e-07
8.34775e-08
-1.5297e-07
8.70657e-08
-1.69038e-07
9.02027e-08
-1.85522e-07
9.28817e-08
-2.02349e-07
9.50995e-08
-2.19442e-07
9.6856e-08
-2.36727e-07
9.81539e-08
-2.54128e-07
9.89979e-08
-2.71571e-07
9.93948e-08
-2.88983e-07
9.9353e-08
-3.06292e-07
9.88824e-08
-3.23429e-07
9.7994e-08
-3.40325e-07
9.66999e-08
-3.56914e-07
9.50131e-08
-3.73131e-07
9.29474e-08
-3.88915e-07
9.05173e-08
-4.04206e-07
8.77377e-08
-4.18948e-07
8.46242e-08
-4.33086e-07
8.11927e-08
-4.46568e-07
7.74598e-08
-4.59347e-07
7.34421e-08
-4.71377e-07
6.91566e-08
-4.82613e-07
6.46208e-08
-4.93018e-07
5.98522e-08
-5.02553e-07
5.48689e-08
-5.11186e-07
4.96889e-08
-5.18885e-07
4.43307e-08
-5.25624e-07
3.88128e-08
-5.31378e-07
3.31544e-08
-5.36127e-07
2.73743e-08
-5.39853e-07
2.14922e-08
-5.42542e-07
1.55276e-08
-5.44185e-07
9.50031e-09
-5.44772e-07
3.43056e-09
-5.44302e-07
-2.66134e-09
-5.42774e-07
-8.75481e-09
-5.40191e-07
-1.4829e-08
-5.36561e-07
-2.0863e-08
-5.31894e-07
-2.68356e-08
-5.26205e-07
-3.27254e-08
-5.19512e-07
-3.8511e-08
-5.11836e-07
-4.41707e-08
-5.03203e-07
-4.96829e-08
-4.93642e-07
-5.50259e-08
-4.83186e-07
-6.01781e-08
-4.71871e-07
-6.51178e-08
-4.59736e-07
-6.98237e-08
-4.46827e-07
-7.42745e-08
-4.33189e-07
-7.84493e-08
-4.18873e-07
-8.23275e-08
-4.03933e-07
-8.5889e-08
-3.88425e-07
-8.91142e-08
-3.72411e-07
-9.19843e-08
-3.55952e-07
-9.44811e-08
-3.39116e-07
-9.65873e-08
-3.21969e-07
-9.82867e-08
-3.04583e-07
-9.95643e-08
-2.87032e-07
-1.00406e-07
-2.69388e-07
-1.00801e-07
-2.5173e-07
-1.00736e-07
-2.34134e-07
-1.00205e-07
-2.16679e-07
-9.91991e-08
-1.99444e-07
-9.77153e-08
-1.82507e-07
-9.57513e-08
-1.65946e-07
-9.33083e-08
-1.49839e-07
-9.03906e-08
-1.34262e-07
-8.70061e-08
-1.19288e-07
-8.3167e-08
-1.04986e-07
-7.889e-08
-9.14235e-08
-7.41973e-08
-7.86625e-08
-6.91171e-08
-6.67592e-08
-6.36845e-08
-5.57639e-08
-5.7943e-08
-4.57191e-08
-5.19452e-08
-3.66594e-08
-4.57547e-08
-2.861e-08
-3.94479e-08
-2.15857e-08
-3.31161e-08
-1.55907e-08
-2.68676e-08
-1.06174e-08
-2.08311e-08
-6.64638e-09
-1.51587e-08
-3.64622e-09
-1.00301e-08
-1.57438e-09
-5.65532e-09
-3.78612e-10
-2.27893e-09
-2.01481e-10
-5.20015e-10
9.18851e-10
-2.09898e-09
4.4211e-09
-4.7595e-09
9.20408e-09
-8.52203e-09
1.49568e-08
-1.34012e-08
2.14238e-08
-1.9404e-08
2.83842e-08
-2.65285e-08
3.56489e-08
-3.47633e-08
4.30574e-08
-4.40878e-08
5.04742e-08
-5.44724e-08
5.77857e-08
-6.58791e-08
6.4897e-08
-7.82621e-08
7.17296e-08
-9.15688e-08
7.8219e-08
-1.0574e-07
8.43129e-08
-1.20713e-07
8.99692e-08
-1.36419e-07
9.51547e-08
-1.52786e-07
9.98442e-08
-1.69739e-07
1.04019e-07
-1.87201e-07
1.07665e-07
-2.05095e-07
1.10775e-07
-2.2334e-07
1.13345e-07
-2.41857e-07
1.15373e-07
-2.60565e-07
1.16863e-07
-2.79386e-07
1.17819e-07
-2.98241e-07
1.1825e-07
-3.17052e-07
1.18164e-07
-3.35743e-07
1.17573e-07
-3.5424e-07
1.16491e-07
-3.72469e-07
1.14929e-07
-3.90361e-07
1.12905e-07
-4.07847e-07
1.10433e-07
-4.24861e-07
1.07531e-07
-4.4134e-07
1.04217e-07
-4.57224e-07
1.00508e-07
-4.72454e-07
9.64228e-08
-4.86975e-07
9.19816e-08
-5.00737e-07
8.72037e-08
-5.1369e-07
8.21092e-08
-5.25787e-07
7.67186e-08
-5.36988e-07
7.10528e-08
-5.47252e-07
6.51329e-08
-5.56544e-07
5.89805e-08
-5.6483e-07
5.26173e-08
-5.72083e-07
4.60653e-08
-5.78275e-07
3.93471e-08
-5.83386e-07
3.24852e-08
-5.87397e-07
2.55027e-08
-5.90292e-07
1.84227e-08
-5.9206e-07
1.12688e-08
-5.92695e-07
4.06489e-09
-5.92191e-07
-3.16503e-09
-5.90549e-07
-1.03966e-08
-5.87773e-07
-1.76051e-08
-5.8387e-07
-2.47658e-08
-5.78852e-07
-3.18537e-08
-5.72734e-07
-3.88434e-08
-5.65536e-07
-4.57095e-08
-5.5728e-07
-5.24267e-08
-5.47994e-07
-5.89692e-08
-5.37708e-07
-6.53116e-08
-5.26458e-07
-7.14282e-08
-5.14282e-07
-7.72936e-08
-5.01223e-07
-8.28826e-08
-4.87328e-07
-8.817e-08
-4.72645e-07
-9.31314e-08
-4.57231e-07
-9.77425e-08
-4.4114e-07
-1.0198e-07
-4.24435e-07
-1.0582e-07
-4.07178e-07
-1.09241e-07
-3.89438e-07
-1.12221e-07
-3.71284e-07
-1.14741e-07
-3.52789e-07
-1.16782e-07
-3.34027e-07
-1.18325e-07
-3.15078e-07
-1.19356e-07
-2.96019e-07
-1.19859e-07
-2.76933e-07
-1.19823e-07
-2.57901e-07
-1.19237e-07
-2.39006e-07
-1.18094e-07
-2.20333e-07
-1.16389e-07
-2.01964e-07
-1.1412e-07
-1.83983e-07
-1.11289e-07
-1.66472e-07
-1.07902e-07
-1.4951e-07
-1.03967e-07
-1.33177e-07
-9.95004e-08
-1.17546e-07
-9.45208e-08
-1.02689e-07
-8.90544e-08
-8.86723e-08
-8.3134e-08
-7.55566e-08
-7.68002e-08
-6.33968e-08
-7.01027e-08
-5.22407e-08
-6.31013e-08
-4.2128e-08
-5.58674e-08
-3.30898e-08
-4.84861e-08
-2.51477e-08
-4.10581e-08
-1.83136e-08
-3.37017e-08
-1.25889e-08
-2.65557e-08
-7.96521e-09
-1.97825e-08
-4.42416e-09
-1.35712e-08
-1.93899e-09
-8.14049e-09
-4.76368e-10
-3.74155e-09
-6.7785e-10
-6.18494e-10
1.53735e-09
-2.46875e-09
6.27136e-09
-5.55152e-09
1.22869e-08
-9.86802e-09
1.92733e-08
-1.54162e-08
2.6972e-08
-2.21887e-08
3.51567e-08
-3.01714e-08
4.36315e-08
-3.93423e-08
5.22283e-08
-4.9672e-08
6.08039e-08
-6.11231e-08
6.92367e-08
-7.36506e-08
7.74245e-08
-8.72027e-08
8.52817e-08
-1.01721e-07
9.27376e-08
-1.17143e-07
9.97342e-08
-1.33398e-07
1.06224e-07
-1.50414e-07
1.12171e-07
-1.68116e-07
1.17546e-07
-1.86423e-07
1.22326e-07
-2.05254e-07
1.26497e-07
-2.24528e-07
1.30049e-07
-2.44159e-07
1.32976e-07
-2.64065e-07
1.35278e-07
-2.84161e-07
1.36958e-07
-3.04362e-07
1.38021e-07
-3.24587e-07
1.38475e-07
-3.44754e-07
1.38331e-07
-3.64781e-07
1.37601e-07
-3.84592e-07
1.36301e-07
-4.04108e-07
1.34446e-07
-4.23256e-07
1.32053e-07
-4.41964e-07
1.29141e-07
-4.60162e-07
1.25729e-07
-4.77783e-07
1.21838e-07
-4.94763e-07
1.17488e-07
-5.11042e-07
1.12701e-07
-5.26561e-07
1.075e-07
-5.41265e-07
1.01908e-07
-5.55102e-07
9.59468e-08
-5.68025e-07
8.96415e-08
-5.79989e-07
8.30161e-08
-5.90951e-07
7.6095e-08
-6.00874e-07
6.89034e-08
-6.09723e-07
6.14666e-08
-6.17468e-07
5.38103e-08
-6.24081e-07
4.59605e-08
-6.2954e-07
3.79437e-08
-6.33824e-07
2.97866e-08
-6.36917e-07
2.15163e-08
-6.38809e-07
1.31601e-08
-6.3949e-07
4.7459e-09
-6.38956e-07
-3.69837e-09
-6.37209e-07
-1.21443e-08
-6.3425e-07
-2.05633e-08
-6.3009e-07
-2.89265e-08
-6.24739e-07
-3.72046e-08
-6.18214e-07
-4.53684e-08
-6.10535e-07
-5.33883e-08
-6.01727e-07
-6.12347e-08
-5.91818e-07