/*--------------------------------*- C++ -*----------------------------------*\
| =========                 |                                                 |
| \\      /  F ield         | OpenFOAM: The Open Source CFD Toolbox           |
|  \\    /   O peration     | Version:  2212                                  |
|   \\  /    A nd           | Website:  www.openfoam.com                      |
|    \\/     M anipulation  |                                                 |
\*---------------------------------------------------------------------------*/
FoamFile
{
    version     2.0;
    format      ascii;
    arch        "LSB;label=32;scalar=64";
    class       volVectorField;
    location    "0.095";
    object      U;
}
// * * * * * * * * * * * * * * * * * * * * * * * * * * * * * * * * * * * * * //

dimensions      [0 1 -1 0 0 0 0];

internalField   nonuniform List<vector> 
10000
(
(3.01768e-06 -3.01472e-06 0)
(1.50168e-05 -7.76765e-06 0)
(3.41475e-05 -8.97609e-06 0)
(5.21603e-05 -7.74898e-06 0)
(6.40011e-05 -5.23256e-06 0)
(6.72184e-05 -2.08757e-06 0)
(6.05383e-05 1.31838e-06 0)
(4.33781e-05 4.77718e-06 0)
(1.56142e-05 8.16995e-06 0)
(-2.25835e-05 1.1429e-05 0)
(-7.0853e-05 1.45145e-05 0)
(-0.000128706 1.74026e-05 0)
(-0.000195574 2.00803e-05 0)
(-0.000270829 2.25412e-05 0)
(-0.000353809 2.4782e-05 0)
(-0.000443833 2.68019e-05 0)
(-0.000540206 2.86025e-05 0)
(-0.00064223 3.01864e-05 0)
(-0.000749211 3.15582e-05 0)
(-0.00086046 3.27224e-05 0)
(-0.000975298 3.36842e-05 0)
(-0.00109306 3.44488e-05 0)
(-0.0012131 3.50219e-05 0)
(-0.00133477 3.54097e-05 0)
(-0.00145746 3.56188e-05 0)
(-0.00158058 3.56555e-05 0)
(-0.00170354 3.55264e-05 0)
(-0.00182579 3.52373e-05 0)
(-0.00194678 3.47942e-05 0)
(-0.002066 3.42039e-05 0)
(-0.00218295 3.34732e-05 0)
(-0.00229716 3.26083e-05 0)
(-0.00240816 3.1616e-05 0)
(-0.00251554 3.05023e-05 0)
(-0.00261887 2.92735e-05 0)
(-0.00271778 2.7936e-05 0)
(-0.00281188 2.64957e-05 0)
(-0.00290083 2.49597e-05 0)
(-0.00298432 2.33342e-05 0)
(-0.00306204 2.1625e-05 0)
(-0.0031337 1.98392e-05 0)
(-0.00319906 1.79826e-05 0)
(-0.00325788 1.60612e-05 0)
(-0.00330994 1.40823e-05 0)
(-0.00335506 1.2052e-05 0)
(-0.00339307 9.97675e-06 0)
(-0.00342383 7.86408e-06 0)
(-0.00344721 5.72013e-06 0)
(-0.00346313 3.55143e-06 0)
(-0.00347151 1.36581e-06 0)
(-0.00347231 -8.29887e-07 0)
(-0.0034655 -3.02901e-06 0)
(-0.00345109 -5.22375e-06 0)
(-0.00342911 -7.40667e-06 0)
(-0.00339963 -9.57071e-06 0)
(-0.00336271 -1.17077e-05 0)
(-0.00331847 -1.38095e-05 0)
(-0.00326706 -1.58686e-05 0)
(-0.00320863 -1.7877e-05 0)
(-0.00314337 -1.98261e-05 0)
(-0.00307152 -2.17081e-05 0)
(-0.00299332 -2.35149e-05 0)
(-0.00290904 -2.52379e-05 0)
(-0.00281899 -2.68685e-05 0)
(-0.00272352 -2.83986e-05 0)
(-0.00262297 -2.98205e-05 0)
(-0.00251774 -3.11258e-05 0)
(-0.00240825 -3.23065e-05 0)
(-0.00229494 -3.3355e-05 0)
(-0.00217828 -3.42632e-05 0)
(-0.00205877 -3.50229e-05 0)
(-0.00193693 -3.56262e-05 0)
(-0.00181331 -3.60664e-05 0)
(-0.00168848 -3.63369e-05 0)
(-0.00156302 -3.64308e-05 0)
(-0.00143755 -3.63414e-05 0)
(-0.0013127 -3.60632e-05 0)
(-0.00118912 -3.55907e-05 0)
(-0.00106747 -3.49191e-05 0)
(-0.000948415 -3.40436e-05 0)
(-0.000832654 -3.29605e-05 0)
(-0.000720879 -3.16668e-05 0)
(-0.000613789 -3.016e-05 0)
(-0.000512082 -2.84384e-05 0)
(-0.000416456 -2.6501e-05 0)
(-0.000327599 -2.43485e-05 0)
(-0.000246184 -2.19833e-05 0)
(-0.000172861 -1.94099e-05 0)
(-0.000108245 -1.66357e-05 0)
(-5.29032e-05 -1.36721e-05 0)
(-7.33476e-06 -1.05373e-05 0)
(2.80596e-05 -7.25961e-06 0)
(5.30186e-05 -3.8841e-06 0)
(6.74842e-05 -4.84468e-07 0)
(7.1704e-05 2.81536e-06 0)
(6.63933e-05 5.80297e-06 0)
(5.29614e-05 8.11092e-06 0)
(3.39766e-05 9.0873e-06 0)
(1.45429e-05 7.63176e-06 0)
(2.78759e-06 2.78738e-06 0)
(7.76573e-06 -1.50038e-05 0)
(3.15201e-05 -3.15049e-05 0)
(6.34241e-05 -3.36921e-05 0)
(8.90128e-05 -2.57686e-05 0)
(9.86998e-05 -1.1609e-05 0)
(8.69366e-05 6.15903e-06 0)
(5.03097e-05 2.58201e-05 0)
(-1.30672e-05 4.62513e-05 0)
(-0.000103939 6.67172e-05 0)
(-0.000222234 8.67314e-05 0)
(-0.000367312 0.000105969 0)
(-0.000538127 0.00012421 0)
(-0.000733342 0.000141306 0)
(-0.000951419 0.000157161 0)
(-0.00119068 0.000171711 0)
(-0.00144935 0.000184919 0)
(-0.00172558 0.000196764 0)
(-0.00201753 0.000207244 0)
(-0.00232329 0.000216363 0)
(-0.00264098 0.000224137 0)
(-0.00296874 0.000230585 0)
(-0.00330472 0.000235734 0)
(-0.00364711 0.000239612 0)
(-0.00399412 0.000242252 0)
(-0.00434403 0.00024369 0)
(-0.00469514 0.000243961 0)
(-0.00504582 0.000243105 0)
(-0.00539448 0.000241162 0)
(-0.0057396 0.00023817 0)
(-0.00607969 0.000234171 0)
(-0.00641333 0.000229207 0)
(-0.00673918 0.00022332 0)
(-0.00705592 0.000216552 0)
(-0.00736233 0.000208948 0)
(-0.00765721 0.000200548 0)
(-0.00793946 0.000191396 0)
(-0.00820802 0.000181536 0)
(-0.00846189 0.00017101 0)
(-0.00870015 0.000159864 0)
(-0.00892193 0.000148141 0)
(-0.00912643 0.000135884 0)
(-0.0093129 0.000123138 0)
(-0.00948068 0.000109949 0)
(-0.00962916 9.63604e-05 0)
(-0.00975779 8.24195e-05 0)
(-0.0098661 6.81721e-05 0)
(-0.00995369 5.36651e-05 0)
(-0.0100202 3.89459e-05 0)
(-0.0100654 2.40626e-05 0)
(-0.010089 9.06408e-06 0)
(-0.010091 -6.00007e-06 0)
(-0.0100713 -2.10794e-05 0)
(-0.0100299 -3.61226e-05 0)
(-0.00996688 -5.1078e-05 0)
(-0.00988243 -6.58936e-05 0)
(-0.00977679 -8.05156e-05 0)
(-0.00965028 -9.48898e-05 0)
(-0.00950332 -0.000108963 0)
(-0.00933636 -0.000122679 0)
(-0.00914999 -0.000135983 0)
(-0.00894483 -0.000148818 0)
(-0.0087216 -0.00016113 0)
(-0.0084811 -0.000172862 0)
(-0.00822421 -0.000183958 0)
(-0.00795189 -0.000194361 0)
(-0.00766517 -0.000204018 0)
(-0.00736518 -0.000212875 0)
(-0.0070531 -0.000220876 0)
(-0.0067302 -0.000227969 0)
(-0.00639782 -0.000234103 0)
(-0.00605738 -0.000239227 0)
(-0.00571035 -0.000243292 0)
(-0.00535828 -0.000246252 0)
(-0.00500279 -0.000248064 0)
(-0.00464554 -0.000248686 0)
(-0.00428826 -0.00024808 0)
(-0.00393271 -0.00024621 0)
(-0.00358071 -0.000243046 0)
(-0.00323411 -0.000238559 0)
(-0.0028948 -0.000232729 0)
(-0.00256468 -0.000225537 0)
(-0.00224566 -0.000216972 0)
(-0.00193967 -0.00020703 0)
(-0.00164863 -0.000195716 0)
(-0.0013744 -0.000183044 0)
(-0.00111884 -0.000169041 0)
(-0.000883719 -0.000153748 0)
(-0.000670725 -0.000137228 0)
(-0.000481414 -0.000119569 0)
(-0.000317167 -0.000100895 0)
(-0.00017913 -8.13783e-05 0)
(-6.81302e-05 -6.12652e-05 0)
(1.5442e-05 -4.09049e-05 0)
(7.17916e-05 -2.08056e-05 0)
(0.000101955 -1.71907e-06 0)
(0.000108115 1.52284e-05 0)
(9.3963e-05 2.8341e-05 0)
(6.52638e-05 3.50613e-05 0)
(3.16995e-05 3.16962e-05 0)
(7.62371e-06 1.45309e-05 0)
(8.99835e-06 -3.4152e-05 0)
(3.38393e-05 -6.34448e-05 0)
(6.23415e-05 -6.2065e-05 0)
(7.72097e-05 -3.8878e-05 0)
(6.68742e-05 -1.12339e-06 0)
(2.41395e-05 4.57901e-05 0)
(-5.57526e-05 9.79716e-05 0)
(-0.000175646 0.000152669 0)
(-0.000336846 0.000207946 0)
(-0.000539493 0.000262439 0)
(-0.000782858 0.000315185 0)
(-0.00106557 0.000365501 0)
(-0.00138576 0.000412905 0)
(-0.00174123 0.00045706 0)
(-0.00212951 0.000497737 0)
(-0.00254795 0.000534783 0)
(-0.00299379 0.000568106 0)
(-0.00346416 0.000597663 0)
(-0.00395617 0.00062344 0)
(-0.00446691 0.000645457 0)
(-0.00499346 0.000663753 0)
(-0.00553294 0.000678382 0)
(-0.00608249 0.000689417 0)
(-0.00663933 0.000696937 0)
(-0.00720069 0.000701032 0)
(-0.00776392 0.0007018 0)
(-0.00832641 0.000699343 0)
(-0.00888562 0.000693769 0)
(-0.00943913 0.000685188 0)
(-0.00998457 0.000673715 0)
(-0.0105197 0.000659465 0)
(-0.0110423 0.000642557 0)
(-0.0115503 0.000623112 0)
(-0.0120417 0.00060125 0)
(-0.0125146 0.000577093 0)
(-0.0129673 0.000550766 0)
(-0.013398 0.000522392 0)
(-0.0138052 0.000492097 0)
(-0.0141873 0.000460006 0)
(-0.0145429 0.000426247 0)
(-0.0148708 0.000390948 0)
(-0.0151698 0.000354238 0)
(-0.0154387 0.000316246 0)
(-0.0156767 0.000277105 0)
(-0.0158828 0.000236947 0)
(-0.0160563 0.000195907 0)
(-0.0161966 0.000154123 0)
(-0.016303 0.00011173 0)
(-0.0163752 6.88697e-05 0)
(-0.0164128 2.56834e-05 0)
(-0.0164157 -1.76851e-05 0)
(-0.0163837 -6.10901e-05 0)
(-0.016317 -0.000104383 0)
(-0.0162156 -0.000147414 0)
(-0.0160798 -0.000190032 0)
(-0.0159101 -0.000232082 0)
(-0.015707 -0.00027341 0)
(-0.015471 -0.000313858 0)
(-0.0152031 -0.00035327 0)
(-0.014904 -0.000391486 0)
(-0.0145749 -0.000428344 0)
(-0.0142169 -0.000463687 0)
(-0.0138312 -0.000497353 0)
(-0.0134193 -0.000529183 0)
(-0.0129828 -0.000559017 0)
(-0.0125232 -0.0005867 0)
(-0.0120424 -0.000612077 0)
(-0.0115423 -0.000634994 0)
(-0.0110249 -0.000655303 0)
(-0.0104923 -0.000672857 0)
(-0.0099469 -0.000687518 0)
(-0.00939093 -0.000699148 0)
(-0.00882689 -0.00070762 0)
(-0.00825735 -0.000712812 0)
(-0.00768494 -0.000714613 0)
(-0.00711241 -0.000712917 0)
(-0.00654255 -0.000707631 0)
(-0.00597822 -0.000698674 0)
(-0.00542236 -0.000685978 0)
(-0.0048779 -0.000669489 0)
(-0.00434785 -0.00064917 0)
(-0.00383518 -0.000625005 0)
(-0.00334289 -0.000597001 0)
(-0.00287392 -0.00056519 0)
(-0.00243118 -0.000529638 0)
(-0.00201747 -0.000490451 0)
(-0.00163546 -0.000447782 0)
(-0.00128768 -0.000401848 0)
(-0.000976408 -0.000352945 0)
(-0.00070361 -0.000301478 0)
(-0.000470867 -0.000247993 0)
(-0.000279232 -0.000193236 0)
(-0.000129072 -0.000138226 0)
(-1.98568e-05 -8.43698e-05 0)
(5.01262e-05 -3.36282e-05 0)
(8.41261e-05 1.12571e-05 0)
(8.72698e-05 4.64659e-05 0)
(6.70333e-05 6.67666e-05 0)
(3.51815e-05 6.52856e-05 0)
(9.09587e-06 3.39648e-05 0)
(7.84263e-06 -5.23023e-05 0)
(2.62286e-05 -8.93091e-05 0)
(3.98423e-05 -7.70767e-05 0)
(3.10498e-05 -2.98344e-05 0)
(-1.22875e-05 4.1602e-05 0)
(-9.81128e-05 0.000128882 0)
(-0.000231857 0.000225708 0)
(-0.00041689 0.000327423 0)
(-0.000654866 0.000430604 0)
(-0.000946071 0.000532741 0)
(-0.00128973 0.000631995 0)
(-0.00168424 0.000727022 0)
(-0.00212737 0.000816841 0)
(-0.00261639 0.000900746 0)
(-0.00314821 0.000978236 0)
(-0.00371949 0.00104897 0)
(-0.00432667 0.00111271 0)
(-0.00496608 0.00116935 0)
(-0.00563396 0.00121881 0)
(-0.00632649 0.0012611 0)
(-0.00703986 0.00129628 0)
(-0.00777027 0.00132442 0)
(-0.00851395 0.00134564 0)
(-0.00926718 0.00136009 0)
(-0.0100263 0.00136792 0)
(-0.0107878 0.00136931 0)
(-0.0115481 0.00136444 0)
(-0.0123039 0.00135352 0)
(-0.013052 0.00133675 0)
(-0.013789 0.00131436 0)
(-0.014512 0.00128656 0)
(-0.0152181 0.00125357 0)
(-0.0159045 0.00121564 0)
(-0.0165684 0.00117299 0)
(-0.0172074 0.00112586 0)
(-0.0178189 0.00107449 0)
(-0.0184007 0.00101911 0)
(-0.0189507 0.000959988 0)
(-0.0194668 0.000897352 0)
(-0.0199471 0.000831455 0)
(-0.02039 0.000762548 0)
(-0.0207937 0.000690883 0)
(-0.0211568 0.000616715 0)
(-0.0214781 0.000540303 0)
(-0.0217563 0.000461909 0)
(-0.0219904 0.000381796 0)
(-0.0221795 0.000300231 0)
(-0.022323 0.000217486 0)
(-0.0224201 0.000133835 0)
(-0.0224706 4.95563e-05 0)
(-0.0224741 -3.50686e-05 0)
(-0.0224306 -0.000119754 0)
(-0.0223401 -0.00020421 0)
(-0.0222028 -0.000288143 0)
(-0.0220191 -0.000371256 0)
(-0.0217895 -0.00045325 0)
(-0.0215148 -0.000533822 0)
(-0.0211959 -0.000612665 0)
(-0.0208338 -0.000689473 0)
(-0.0204297 -0.000763935 0)
(-0.0199851 -0.00083574 0)
(-0.0195014 -0.000904579 0)
(-0.0189805 -0.000970138 0)
(-0.0184243 -0.00103211 0)
(-0.0178348 -0.00109019 0)
(-0.0172142 -0.00114407 0)
(-0.0165651 -0.00119346 0)
(-0.0158899 -0.00123805 0)
(-0.0151914 -0.00127757 0)
(-0.0144725 -0.00131173 0)
(-0.0137361 -0.00134027 0)
(-0.0129855 -0.00136292 0)
(-0.012224 -0.00137945 0)
(-0.0114549 -0.00138963 0)
(-0.0106819 -0.00139324 0)
(-0.00990849 -0.0013901 0)
(-0.0091385 -0.00138002 0)
(-0.00837572 -0.00136287 0)
(-0.007624 -0.00133853 0)
(-0.00688727 -0.0013069 0)
(-0.00616946 -0.00126793 0)
(-0.00547451 -0.00122163 0)
(-0.00480633 -0.00116801 0)
(-0.00416877 -0.00110717 0)
(-0.00356559 -0.00103927 0)
(-0.00300041 -0.000964561 0)
(-0.00247665 -0.000883369 0)
(-0.00199751 -0.000796161 0)
(-0.00156583 -0.00070356 0)
(-0.00118404 -0.000606393 0)
(-0.000854028 -0.000505756 0)
(-0.000577001 -0.000403101 0)
(-0.000353289 -0.000300358 0)
(-0.000182128 -0.000200105 0)
(-6.13756e-05 -0.000105794 0)
(1.28281e-05 -2.20499e-05 0)
(4.63594e-05 4.49585e-05 0)
(4.75202e-05 8.71621e-05 0)
(2.87889e-05 9.42688e-05 0)
(8.18181e-06 5.3058e-05 0)
(5.43272e-06 -6.44951e-05 0)
(1.2527e-05 -9.96931e-05 0)
(3.06739e-06 -6.7373e-05 0)
(-3.88705e-05 1.32507e-05 0)
(-0.000124912 0.000127904 0)
(-0.000263118 0.000265384 0)
(-0.000459076 0.000417014 0)
(-0.0007163 0.000576176 0)
(-0.00103655 0.000737851 0)
(-0.00142013 0.000898247 0)
(-0.00186619 0.00105451 0)
(-0.0023729 0.00120448 0)
(-0.00293773 0.00134657 0)
(-0.00355753 0.00147959 0)
(-0.00422871 0.00160268 0)
(-0.00494732 0.00171522 0)
(-0.00570918 0.0018168 0)
(-0.0065099 0.00190716 0)
(-0.00734497 0.00198615 0)
(-0.00820982 0.00205375 0)
(-0.00909984 0.00210998 0)
(-0.0100104 0.00215497 0)
(-0.010937 0.00218886 0)
(-0.0118749 0.00221187 0)
(-0.0128199 0.00222422 0)
(-0.0137675 0.00222619 0)
(-0.0147134 0.00221806 0)
(-0.0156535 0.00220014 0)
(-0.0165838 0.00217277 0)
(-0.0175002 0.00213628 0)
(-0.0183992 0.00209103 0)
(-0.019277 0.00203737 0)
(-0.0201302 0.00197567 0)
(-0.0209554 0.00190631 0)
(-0.0217495 0.00182968 0)
(-0.0225095 0.00174615 0)
(-0.0232326 0.00165611 0)
(-0.023916 0.00155998 0)
(-0.0245573 0.00145813 0)
(-0.0251541 0.00135098 0)
(-0.0257042 0.00123894 0)
(-0.0262057 0.00112241 0)
(-0.0266568 0.00100181 0)
(-0.0270557 0.000877572 0)
(-0.0274011 0.000750111 0)
(-0.0276917 0.000619861 0)
(-0.0279264 0.000487258 0)
(-0.0281043 0.000352745 0)
(-0.0282247 0.00021677 0)
(-0.028287 7.97852e-05 0)
(-0.028291 -5.77488e-05 0)
(-0.0282365 -0.000195367 0)
(-0.0281237 -0.000332596 0)
(-0.0279527 -0.000468961 0)
(-0.0277242 -0.000603978 0)
(-0.0274386 -0.00073716 0)
(-0.0270971 -0.000868014 0)
(-0.0267006 -0.000996045 0)
(-0.0262505 -0.00112075 0)
(-0.0257483 -0.00124164 0)
(-0.0251957 -0.00135819 0)
(-0.0245948 -0.00146992 0)
(-0.0239476 -0.00157631 0)
(-0.0232566 -0.00167688 0)
(-0.0225242 -0.00177111 0)
(-0.0217534 -0.00185854 0)
(-0.020947 -0.00193866 0)
(-0.0201083 -0.00201103 0)
(-0.0192406 -0.00207516 0)
(-0.0183475 -0.00213063 0)
(-0.0174327 -0.00217699 0)
(-0.0165001 -0.00221385 0)
(-0.0155538 -0.00224082 0)
(-0.014598 -0.00225753 0)
(-0.0136371 -0.00226366 0)
(-0.0126754 -0.00225891 0)
(-0.0117176 -0.00224301 0)
(-0.0107683 -0.00221575 0)
(-0.00983223 -0.00217695 0)
(-0.0089142 -0.0021265 0)
(-0.00801896 -0.00206432 0)
(-0.00715127 -0.00199044 0)
(-0.00631586 -0.00190495 0)
(-0.00551735 -0.00180802 0)
(-0.00476026 -0.00169996 0)
(-0.00404888 -0.0015812 0)
(-0.00338728 -0.00145233 0)
(-0.0027792 -0.00131415 0)
(-0.00222796 -0.00116771 0)
(-0.00173637 -0.00101437 0)
(-0.00130658 -0.000855909 0)
(-0.000939935 -0.000694633 0)
(-0.000636794 -0.000533531 0)
(-0.000396306 -0.000376487 0)
(-0.000216154 -0.000228553 0)
(-9.22601e-05 -9.62982e-05 0)
(-1.85104e-05 1.17783e-05 0)
(1.36044e-05 8.48351e-05 0)
(1.62265e-05 0.000109222 0)
(5.98591e-06 6.68305e-05 0)
(2.41807e-06 -6.8347e-05 0)
(-4.71204e-06 -8.91462e-05 0)
(-4.27694e-05 -2.5842e-05 0)
(-0.000124571 9.82805e-05 0)
(-0.000260417 0.000265847 0)
(-0.000457986 0.00046303 0)
(-0.000722613 0.000678898 0)
(-0.00105763 0.00090492 0)
(-0.00146468 0.00113447 0)
(-0.00194392 0.00136242 0)
(-0.00249434 0.00158482 0)
(-0.00311388 0.00179862 0)
(-0.0037997 0.00200153 0)
(-0.00454829 0.00219178 0)
(-0.0053556 0.00236809 0)
(-0.0062172 0.0025295 0)
(-0.00712832 0.00267534 0)
(-0.00808399 0.00280519 0)
(-0.00907906 0.00291879 0)
(-0.0101083 0.00301603 0)
(-0.0111663 0.00309693 0)
(-0.0122479 0.0031616 0)
(-0.0133476 0.00321024 0)
(-0.0144603 0.0032431 0)
(-0.0155808 0.00326052 0)
(-0.0167039 0.00326285 0)
(-0.0178246 0.0032505 0)
(-0.0189382 0.0032239 0)
(-0.0200399 0.00318352 0)
(-0.021125 0.00312984 0)
(-0.0221893 0.00306336 0)
(-0.0232283 0.0029846 0)
(-0.0242381 0.0028941 0)
(-0.0252147 0.00279239 0)
(-0.0261543 0.00268003 0)
(-0.0270536 0.00255758 0)
(-0.027909 0.00242561 0)
(-0.0287174 0.00228471 0)
(-0.029476 0.00213544 0)
(-0.0301818 0.00197841 0)
(-0.0308324 0.00181421 0)
(-0.0314255 0.00164345 0)
(-0.0319588 0.00146673 0)
(-0.0324304 0.00128468 0)
(-0.0328387 0.00109792 0)
(-0.0331821 0.000907083 0)
(-0.0334594 0.00071281 0)
(-0.0336694 0.000515752 0)
(-0.0338114 0.000316565 0)
(-0.0338848 0.000115915 0)
(-0.0338892 -8.55224e-05 0)
(-0.0338244 -0.000287065 0)
(-0.0336906 -0.000488021 0)
(-0.0334881 -0.000687691 0)
(-0.0332174 -0.000885369 0)
(-0.0328795 -0.00108034 0)
(-0.0324753 -0.00127189 0)
(-0.0320061 -0.00145928 0)
(-0.0314736 -0.00164179 0)
(-0.0308796 -0.00181869 0)
(-0.030226 -0.00198925 0)
(-0.0295152 -0.00215272 0)
(-0.0287498 -0.00230839 0)
(-0.0279325 -0.00245552 0)
(-0.0270664 -0.0025934 0)
(-0.0261547 -0.00272132 0)
(-0.0252011 -0.00283858 0)
(-0.0242091 -0.00294449 0)
(-0.0231828 -0.00303841 0)
(-0.0221263 -0.00311967 0)
(-0.0210441 -0.00318768 0)
(-0.0199407 -0.00324184 0)
(-0.0188208 -0.00328161 0)
(-0.0176893 -0.00330647 0)
(-0.0165515 -0.00331595 0)
(-0.0154124 -0.00330964 0)
(-0.0142773 -0.00328718 0)
(-0.0131518 -0.00324826 0)
(-0.0120413 -0.00319266 0)
(-0.0109513 -0.00312023 0)
(-0.00988727 -0.00303092 0)
(-0.00885482 -0.00292478 0)
(-0.00785934 -0.00280198 0)
(-0.00690615 -0.00266283 0)
(-0.00600038 -0.00250781 0)
(-0.00514696 -0.00233759 0)
(-0.00435048 -0.0021531 0)
(-0.00361518 -0.00195553 0)
(-0.00294479 -0.00174644 0)
(-0.00234246 -0.00152782 0)
(-0.00181059 -0.00130223 0)
(-0.00135073 -0.00107291 0)
(-0.000963352 -0.000844002 0)
(-0.000647676 -0.000620745 0)
(-0.000401451 -0.000409817 0)
(-0.000220706 -0.000219687 0)
(-9.94985e-05 -6.10781e-05 0)
(-2.95914e-05 5.25866e-05 0)
(1.50619e-08 0.00010461 0)
(3.15428e-06 7.28315e-05 0)
(-8.51527e-07 -6.26037e-05 0)
(-2.38658e-05 -5.42412e-05 0)
(-9.40239e-05 5.23692e-05 0)
(-0.000220224 0.000230881 0)
(-0.000410874 0.000461329 0)
(-0.000672889 0.000727578 0)
(-0.00101102 0.00101665 0)
(-0.00142815 0.00131822 0)
(-0.00192557 0.00162411 0)
(-0.00250317 0.00192787 0)
(-0.00315964 0.00222442 0)
(-0.00389267 0.00250979 0)
(-0.00469908 0.00278091 0)
(-0.00557499 0.00303541 0)
(-0.00651595 0.0032715 0)
(-0.00751707 0.00348784 0)
(-0.0085731 0.00368348 0)
(-0.00967851 0.00385777 0)
(-0.0108276 0.00401029 0)
(-0.0120145 0.00414086 0)
(-0.0132333 0.00424943 0)
(-0.014478 0.00433613 0)
(-0.0157427 0.00440116 0)
(-0.0170215 0.00444486 0)
(-0.0183084 0.00446761 0)
(-0.0195979 0.0044699 0)
(-0.0208842 0.00445225 0)
(-0.0221618 0.00441521 0)
(-0.0234254 0.00435942 0)
(-0.0246697 0.0042855 0)
(-0.0258899 0.00419414 0)
(-0.0270809 0.00408603 0)
(-0.0282382 0.00396188 0)
(-0.0293573 0.00382243 0)
(-0.030434 0.00366844 0)
(-0.0314642 0.00350066 0)
(-0.0324441 0.00331987 0)
(-0.0333701 0.00312685 0)
(-0.0342389 0.00292241 0)
(-0.0350472 0.00270736 0)
(-0.0357922 0.0024825 0)
(-0.0364712 0.00224866 0)
(-0.0370817 0.00200669 0)
(-0.0376216 0.00175743 0)
(-0.0380889 0.00150174 0)
(-0.0384819 0.00124048 0)
(-0.0387991 0.000974533 0)
(-0.0390393 0.000704793 0)
(-0.0392016 0.000432158 0)
(-0.0392853 0.000157541 0)
(-0.03929 -0.000118134 0)
(-0.0392155 -0.000393931 0)
(-0.039062 -0.000668905 0)
(-0.0388299 -0.000942099 0)
(-0.0385197 -0.00121254 0)
(-0.0381325 -0.00147927 0)
(-0.0376695 -0.00174129 0)
(-0.0371322 -0.00199761 0)
(-0.0365223 -0.00224724 0)
(-0.035842 -0.00248918 0)
(-0.0350936 -0.00272244 0)
(-0.0342796 -0.00294601 0)
(-0.0334031 -0.00315891 0)
(-0.0324673 -0.00336014 0)
(-0.0314755 -0.00354873 0)
(-0.0304315 -0.00372372 0)
(-0.0293393 -0.00388417 0)
(-0.0282031 -0.00402915 0)
(-0.0270275 -0.00415777 0)
(-0.0258172 -0.00426917 0)
(-0.0245772 -0.00436251 0)
(-0.0233126 -0.00443702 0)
(-0.0220289 -0.00449196 0)
(-0.0207315 -0.00452665 0)
(-0.0194264 -0.00454047 0)
(-0.0181192 -0.00453288 0)
(-0.0168161 -0.0045034 0)
(-0.0155231 -0.00445165 0)
(-0.0142464 -0.00437737 0)
(-0.0129923 -0.00428037 0)
(-0.0117668 -0.00416062 0)
(-0.0105762 -0.00401824 0)
(-0.00942658 -0.0038535 0)
(-0.00832378 -0.00366687 0)
(-0.00727356 -0.00345905 0)
(-0.00628135 -0.003231 0)
(-0.00535226 -0.00298402 0)
(-0.00449095 -0.00271977 0)
(-0.00370155 -0.00244037 0)
(-0.00298755 -0.00214852 0)
(-0.00235164 -0.0018476 0)
(-0.00179562 -0.00154185 0)
(-0.00132018 -0.00123657 0)
(-0.000924789 -0.000938375 0)
(-0.000607467 -0.000655517 0)
(-0.000364624 -0.000398262 0)
(-0.000190809 -0.000179372 0)
(-7.84376e-05 -1.45596e-05 0)
(-1.82197e-05 7.68939e-05 0)
(4.22223e-08 6.97402e-05 0)
(-4.18487e-06 -4.66505e-05 0)
(-4.39157e-05 7.05583e-06 0)
(-0.000148224 0.000170397 0)
(-0.000321694 0.000414883 0)
(-0.000570495 0.000718504 0)
(-0.000900495 0.00106319 0)
(-0.0013156 0.00143416 0)
(-0.00181803 0.00181947 0)
(-0.00240853 0.0022095 0)
(-0.00308658 0.00259652 0)
(-0.00385049 0.00297435 0)
(-0.00469758 0.00333809 0)
(-0.00562432 0.00368387 0)
(-0.00662643 0.00400869 0)
(-0.0076991 0.0043102 0)
(-0.00883697 0.00458667 0)
(-0.0100344 0.00483681 0)
(-0.0112852 0.00505971 0)
(-0.0125834 0.00525479 0)
(-0.0139224 0.00542174 0)
(-0.0152958 0.00556046 0)
(-0.016697 0.00567104 0)
(-0.0181196 0.00575372 0)
(-0.0195571 0.00580887 0)
(-0.0210029 0.00583697 0)
(-0.0224507 0.00583861 0)
(-0.0238944 0.00581442 0)
(-0.0253279 0.00576512 0)
(-0.0267451 0.00569148 0)
(-0.0281404 0.00559433 0)
(-0.0295082 0.00547452 0)
(-0.030843 0.00533294 0)
(-0.0321399 0.00517051 0)
(-0.0333937 0.00498818 0)
(-0.0345998 0.00478691 0)
(-0.0357537 0.0045677 0)
(-0.0368511 0.00433156 0)
(-0.037888 0.00407949 0)
(-0.0388608 0.00381255 0)
(-0.0397657 0.00353177 0)
(-0.0405997 0.00323823 0)
(-0.0413598 0.002933 0)
(-0.0420431 0.00261717 0)
(-0.0426473 0.00229186 0)
(-0.0431701 0.00195817 0)
(-0.0436098 0.00161725 0)
(-0.0439646 0.00127023 0)
(-0.0442332 0.000918284 0)
(-0.0444147 0.000562586 0)
(-0.0445081 0.000204326 0)
(-0.0445131 -0.00015529 0)
(-0.0444296 -0.000515043 0)
(-0.0442575 -0.000873697 0)
(-0.0439975 -0.00123001 0)
(-0.0436502 -0.00158272 0)
(-0.0432167 -0.00193055 0)
(-0.0426984 -0.00227223 0)
(-0.0420968 -0.00260647 0)
(-0.0414142 -0.00293198 0)
(-0.0406527 -0.00324746 0)
(-0.0398149 -0.00355161 0)
(-0.0389038 -0.00384314 0)
(-0.0379227 -0.00412077 0)
(-0.036875 -0.00438321 0)
(-0.0357647 -0.00462921 0)
(-0.0345958 -0.00485752 0)
(-0.0333729 -0.00506693 0)
(-0.0321006 -0.00525624 0)
(-0.0307839 -0.0054243 0)
(-0.0294281 -0.00557001 0)
(-0.0280387 -0.00569231 0)
(-0.0266215 -0.00579019 0)
(-0.0251824 -0.00586271 0)
(-0.0237275 -0.00590901 0)
(-0.0222632 -0.00592832 0)
(-0.0207961 -0.00591994 0)
(-0.0193327 -0.0058833 0)
(-0.0178797 -0.00581794 0)
(-0.0164439 -0.00572352 0)
(-0.0150322 -0.00559987 0)
(-0.0136514 -0.00544698 0)
(-0.0123082 -0.00526504 0)
(-0.0110092 -0.00505445 0)
(-0.00976093 -0.00481588 0)
(-0.00856961 -0.00455027 0)
(-0.00744118 -0.00425892 0)
(-0.0063812 -0.00394353 0)
(-0.00539476 -0.00360626 0)
(-0.00448637 -0.00324986 0)
(-0.00365988 -0.00287775 0)
(-0.00291832 -0.00249418 0)
(-0.00226381 -0.00210439 0)
(-0.0016974 -0.00171483 0)
(-0.00121891 -0.00133346 0)
(-0.000826847 -0.000969984 0)
(-0.000518206 -0.000636336 0)
(-0.000288288 -0.000347079 0)
(-0.000130441 -0.000119874 0)
(-3.74431e-05 2.39287e-05 0)
(-3.1534e-06 5.68851e-05 0)
(-7.48147e-06 -2.02752e-05 0)
(-6.42345e-05 9.57756e-05 0)
(-0.000203724 0.000330054 0)
(-0.000426103 0.00065268 0)
(-0.000735121 0.00104011 0)
(-0.00113541 0.0014727 0)
(-0.00162985 0.00193418 0)
(-0.0022198 0.00241115 0)
(-0.00290533 0.00289268 0)
(-0.00368536 0.00336986 0)
(-0.00455773 0.00383545 0)
(-0.0055193 0.00428364 0)
(-0.00656614 0.00470979 0)
(-0.00769359 0.00511023 0)
(-0.00889638 0.00548207 0)
(-0.0101688 0.00582313 0)
(-0.0115046 0.00613177 0)
(-0.0128974 0.00640681 0)
(-0.0143405 0.00664748 0)
(-0.0158269 0.00685331 0)
(-0.0173498 0.00702414 0)
(-0.018902 0.00716003 0)
(-0.0204765 0.00726122 0)
(-0.0220663 0.00732813 0)
(-0.0236643 0.00736133 0)
(-0.0252638 0.00736149 0)
(-0.0268579 0.00732939 0)
(-0.02844 0.0072659 0)
(-0.0300036 0.00717197 0)
(-0.0315426 0.00704859 0)
(-0.0330508 0.00689682 0)
(-0.0345224 0.00671776 0)
(-0.0359518 0.00651256 0)
(-0.0373335 0.00628238 0)
(-0.0386623 0.00602845 0)
(-0.0399335 0.00575199 0)
(-0.0411423 0.00545426 0)
(-0.0422843 0.00513654 0)
(-0.0433554 0.00480013 0)
(-0.0443519 0.00444634 0)
(-0.0452701 0.00407652 0)
(-0.0461067 0.00369202 0)
(-0.0468589 0.00329422 0)
(-0.0475239 0.00288449 0)
(-0.0480994 0.00246426 0)
(-0.0485832 0.00203495 0)
(-0.0489736 0.001598 0)
(-0.0492691 0.00115487 0)
(-0.0494687 0.000707043 0)
(-0.0495714 0.000256022 0)
(-0.0495768 -0.00019668 0)
(-0.0494847 -0.000649527 0)
(-0.0492953 -0.00110097 0)
(-0.049009 -0.00154944 0)
(-0.0486267 -0.00199336 0)
(-0.0481496 -0.00243113 0)
(-0.047579 -0.00286114 0)
(-0.046917 -0.00328179 0)
(-0.0461656 -0.00369145 0)
(-0.0453274 -0.00408849 0)
(-0.0444053 -0.00447129 0)
(-0.0434024 -0.00483824 0)
(-0.0423223 -0.00518773 0)
(-0.0411689 -0.00551815 0)
(-0.0399464 -0.00582794 0)
(-0.0386593 -0.00611554 0)
(-0.0373125 -0.00637943 0)
(-0.0359111 -0.00661815 0)
(-0.0344605 -0.00683024 0)
(-0.0329665 -0.00701435 0)
(-0.0314351 -0.00716916 0)
(-0.0298726 -0.00729343 0)
(-0.0282854 -0.007386 0)
(-0.0266802 -0.00744582 0)
(-0.025064 -0.00747193 0)
(-0.0234437 -0.0074635 0)
(-0.0218266 -0.00741985 0)
(-0.0202199 -0.00734042 0)
(-0.018631 -0.00722484 0)
(-0.0170673 -0.00707293 0)
(-0.0155362 -0.00688472 0)
(-0.0140448 -0.00666049 0)
(-0.0126004 -0.00640079 0)
(-0.01121 -0.00610649 0)
(-0.00988031 -0.00577883 0)
(-0.00861769 -0.00541944 0)
(-0.00742816 -0.00503047 0)
(-0.00631724 -0.00461463 0)
(-0.00528984 -0.00417528 0)
(-0.0043502 -0.00371659 0)
(-0.00350175 -0.00324368 0)
(-0.00274701 -0.00276278 0)
(-0.00208748 -0.00228147 0)
(-0.00152349 -0.00180892 0)
(-0.00105415 -0.00135624 0)
(-0.000677252 -0.000936801 0)
(-0.000389019 -0.000566734 0)
(-0.000183926 -0.000265297 0)
(-5.70094e-05 -5.54151e-05 0)
(-6.32687e-06 3.40095e-05 0)
(-1.06914e-05 1.64955e-05 0)
(-8.44425e-05 0.000212284 0)
(-0.000259451 0.000532211 0)
(-0.000531485 0.000945587 0)
(-0.000901818 0.00142778 0)
(-0.00137373 0.00195794 0)
(-0.00194895 0.00251853 0)
(-0.00262785 0.00309495 0)
(-0.00340969 0.00367508 0)
(-0.00429273 0.00424893 0)
(-0.00527422 0.0048083 0)
(-0.00635052 0.00534652 0)
(-0.00751723 0.00585817 0)
(-0.00876925 0.00633894 0)
(-0.0101009 0.0067854 0)
(-0.0115059 0.00719491 0)
(-0.0129778 0.00756547 0)
(-0.0145096 0.00789562 0)
(-0.0160942 0.00818436 0)
(-0.0177243 0.0084311 0)
(-0.0193923 0.00863557 0)
(-0.0210907 0.00879779 0)
(-0.0228121 0.008918 0)
(-0.0245488 0.00899669 0)
(-0.0262934 0.00903447 0)
(-0.0280385 0.00903214 0)
(-0.029777 0.00899062 0)
(-0.0315016 0.00891092 0)
(-0.0332055 0.00879417 0)
(-0.0348819 0.00864156 0)
(-0.0365243 0.00845436 0)
(-0.0381264 0.00823389 0)
(-0.0396821 0.00798155 0)
(-0.0411856 0.00769874 0)
(-0.0426314 0.00738693 0)
(-0.0440142 0.00704763 0)
(-0.0453289 0.00668235 0)
(-0.0465708 0.00629267 0)
(-0.0477355 0.00588015 0)
(-0.0488189 0.00544642 0)
(-0.0498171 0.0049931 0)
(-0.0507266 0.00452185 0)
(-0.0515441 0.00403436 0)
(-0.0522669 0.00353231 0)
(-0.0528923 0.00301743 0)
(-0.0534181 0.00249147 0)
(-0.0538423 0.00195619 0)
(-0.0541635 0.00141339 0)
(-0.0543804 0.000864868 0)
(-0.054492 0.000312464 0)
(-0.0544979 -0.00024197 0)
(-0.0543979 -0.000796556 0)
(-0.0541921 -0.0013494 0)
(-0.0538811 -0.00189859 0)
(-0.0534658 -0.00244218 0)
(-0.0529473 -0.00297825 0)
(-0.0523275 -0.00350481 0)
(-0.0516082 -0.00401991 0)
(-0.0507917 -0.00452157 0)
(-0.0498809 -0.0050078 0)
(-0.0488788 -0.00547664 0)
(-0.0477889 -0.00592611 0)
(-0.046615 -0.00635425 0)
(-0.0453612 -0.00675913 0)
(-0.0440321 -0.00713882 0)
(-0.0426326 -0.00749146 0)
(-0.0411679 -0.00781519 0)
(-0.0396436 -0.00810823 0)
(-0.0380654 -0.00836884 0)
(-0.0364396 -0.00859537 0)
(-0.0347726 -0.00878624 0)
(-0.0330711 -0.00893994 0)
(-0.0313422 -0.00905511 0)
(-0.0295929 -0.00913046 0)
(-0.0278307 -0.00916488 0)
(-0.0260631 -0.00915737 0)
(-0.0242979 -0.00910712 0)
(-0.0225428 -0.00901351 0)
(-0.0208058 -0.00887612 0)
(-0.0190947 -0.00869476 0)
(-0.0174173 -0.00846952 0)
(-0.0157815 -0.00820078 0)
(-0.014195 -0.00788925 0)
(-0.0126652 -0.00753603 0)
(-0.0111992 -0.00714263 0)
(-0.00980397 -0.00671109 0)
(-0.00848593 -0.006244 0)
(-0.00725103 -0.0057446 0)
(-0.00610461 -0.00521692 0)
(-0.00505134 -0.00466585 0)
(-0.0040951 -0.00409737 0)
(-0.00323889 -0.00351866 0)
(-0.00248476 -0.00293835 0)
(-0.00183365 -0.00236677 0)
(-0.00128543 -0.00181624 0)
(-0.000838781 -0.00130144 0)
(-0.000490996 -0.000839788 0)
(-0.00023779 -0.000451812 0)
(-7.65236e-05 -0.000161586 0)
(-9.42371e-06 1.10613e-06 0)
(-1.3792e-05 6.34985e-05 0)
(-0.000104317 0.000356518 0)
(-0.000314719 0.000777085 0)
(-0.000636527 0.00129414 0)
(-0.00106856 0.00188232 0)
(-0.0016127 0.00251988 0)
(-0.00226943 0.00318828 0)
(-0.00303805 0.00387188 0)
(-0.00391693 0.00455756 0)
(-0.00490355 0.00523439 0)
(-0.00599452 0.00589325 0)
(-0.00718561 0.00652667 0)
(-0.00847191 0.00712853 0)
(-0.00984781 0.00769388 0)
(-0.0113072 0.00821877 0)
(-0.0128433 0.0087001 0)
(-0.0144493 0.00913551 0)
(-0.0161177 0.00952326 0)
(-0.017841 0.00986213 0)
(-0.0196114 0.0101514 0)
(-0.0214209 0.0103906 0)
(-0.0232616 0.0105798 0)
(-0.0251255 0.0107193 0)
(-0.0270046 0.0108095 0)
(-0.0288909 0.0108511 0)
(-0.0307768 0.0108451 0)
(-0.0326544 0.0107925 0)
(-0.0345162 0.0106944 0)
(-0.0363549 0.0105523 0)
(-0.0381633 0.0103674 0)
(-0.0399345 0.0101413 0)
(-0.0416616 0.00987559 0)
(-0.0433384 0.00957182 0)
(-0.0449585 0.00923171 0)
(-0.0465161 0.008857 0)
(-0.0480056 0.00844945 0)
(-0.0494215 0.0080109 0)
(-0.0507588 0.00754319 0)
(-0.0520128 0.00704822 0)
(-0.0531791 0.00652791 0)
(-0.0542536 0.00598421 0)
(-0.0552326 0.00541909 0)
(-0.0561125 0.00483456 0)
(-0.0568904 0.00423266 0)
(-0.0575635 0.00361544 0)
(-0.0581293 0.00298499 0)
(-0.0585859 0.00234342 0)
(-0.0589316 0.00169288 0)
(-0.0591651 0.00103553 0)
(-0.0592854 0.000373563 0)
(-0.0592919 -0.000290806 0)
(-0.0591845 -0.000955333 0)
(-0.0589634 -0.00161775 0)
(-0.0586291 -0.00227578 0)
(-0.0581825 -0.0029271 0)
(-0.0576251 -0.0035694 0)
(-0.0569584 -0.00420033 0)
(-0.0561848 -0.00481755 0)
(-0.0553066 -0.00541869 0)
(-0.0543268 -0.0060014 0)
(-0.0532487 -0.00656332 0)
(-0.052076 -0.00710212 0)
(-0.0508127 -0.00761544 0)
(-0.0494633 -0.008101 0)