/*--------------------------------*- C++ -*----------------------------------*\
| =========                 |                                                 |
| \\      /  F ield         | OpenFOAM: The Open Source CFD Toolbox           |
|  \\    /   O peration     | Version:  2212                                  |
|   \\  /    A nd           | Website:  www.openfoam.com                      |
|    \\/     M anipulation  |                                                 |
\*---------------------------------------------------------------------------*/
FoamFile
{
    version     2.0;
    format      ascii;
    arch        "LSB;label=32;scalar=64";
    class       volVectorField;
    location    "0.0525";
    object      U;
}
// * * * * * * * * * * * * * * * * * * * * * * * * * * * * * * * * * * * * * //

dimensions      [0 1 -1 0 0 0 0];

internalField   nonuniform List<vector> 
10000
(
(2.96049e-06 -2.71772e-06 0)
(1.3934e-05 -7.01374e-06 0)
(3.11509e-05 -8.07686e-06 0)
(4.70685e-05 -6.88277e-06 0)
(5.72025e-05 -4.52801e-06 0)
(5.93178e-05 -1.61716e-06 0)
(5.22942e-05 1.52004e-06 0)
(3.56334e-05 4.69625e-06 0)
(9.25085e-06 7.80423e-06 0)
(-2.6673e-05 1.07826e-05 0)
(-7.1789e-05 1.35964e-05 0)
(-0.000125637 1.62264e-05 0)
(-0.000187685 1.86626e-05 0)
(-0.000257349 2.08984e-05 0)
(-0.000334015 2.29298e-05 0)
(-0.000417052 2.47576e-05 0)
(-0.000505822 2.63827e-05 0)
(-0.000599681 2.78079e-05 0)
(-0.000697993 2.90382e-05 0)
(-0.000800125 3.00779e-05 0)
(-0.000905458 3.09337e-05 0)
(-0.00101339 3.16115e-05 0)
(-0.00112332 3.21144e-05 0)
(-0.00123467 3.24486e-05 0)
(-0.00134689 3.26205e-05 0)
(-0.00145943 3.26352e-05 0)
(-0.00157176 3.24989e-05 0)
(-0.00168339 3.22184e-05 0)
(-0.00179381 3.17984e-05 0)
(-0.00190258 3.12448e-05 0)
(-0.00200922 3.0564e-05 0)
(-0.00211333 2.97626e-05 0)
(-0.00221448 2.88467e-05 0)
(-0.0023123 2.78228e-05 0)
(-0.00240641 2.66965e-05 0)
(-0.00249647 2.54724e-05 0)
(-0.00258214 2.41554e-05 0)
(-0.00266312 2.27519e-05 0)
(-0.00273912 2.1269e-05 0)
(-0.00280986 1.9712e-05 0)
(-0.00287511 1.8086e-05 0)
(-0.00293463 1.63973e-05 0)
(-0.00298821 1.46522e-05 0)
(-0.00303566 1.2856e-05 0)
(-0.00307682 1.10133e-05 0)
(-0.00311153 9.12965e-06 0)
(-0.00313967 7.21183e-06 0)
(-0.00316114 5.26671e-06 0)
(-0.00317583 3.30021e-06 0)
(-0.00318371 1.31778e-06 0)
(-0.00318471 -6.74741e-07 0)
(-0.00317882 -2.67081e-06 0)
(-0.00316604 -4.6633e-06 0)
(-0.00314641 -6.64508e-06 0)
(-0.00311996 -8.60949e-06 0)
(-0.00308677 -1.05504e-05 0)
(-0.00304693 -1.24616e-05 0)
(-0.00300057 -1.43358e-05 0)
(-0.00294783 -1.61655e-05 0)
(-0.00288889 -1.79428e-05 0)
(-0.00282392 -1.96604e-05 0)
(-0.00275316 -2.13115e-05 0)
(-0.00267685 -2.28894e-05 0)
(-0.00259525 -2.43867e-05 0)
(-0.00250867 -2.57955e-05 0)
(-0.00241742 -2.71079e-05 0)
(-0.00232186 -2.83163e-05 0)
(-0.00222235 -2.94135e-05 0)
(-0.00211928 -3.03924e-05 0)
(-0.00201309 -3.12458e-05 0)
(-0.00190421 -3.19664e-05 0)
(-0.00179311 -3.25469e-05 0)
(-0.00168028 -3.29802e-05 0)
(-0.00156624 -3.32597e-05 0)
(-0.00145153 -3.3379e-05 0)
(-0.00133669 -3.33324e-05 0)
(-0.00122229 -3.31142e-05 0)
(-0.00110893 -3.27192e-05 0)
(-0.000997215 -3.21424e-05 0)
(-0.000887754 -3.13791e-05 0)
(-0.000781178 -3.04251e-05 0)
(-0.000678126 -2.92767e-05 0)
(-0.000579241 -2.79314e-05 0)
(-0.000485171 -2.63873e-05 0)
(-0.00039656 -2.46432e-05 0)
(-0.000314049 -2.26993e-05 0)
(-0.000238265 -2.05568e-05 0)
(-0.000169818 -1.82188e-05 0)
(-0.000109288 -1.56911e-05 0)
(-5.72134e-05 -1.29834e-05 0)
(-1.4074e-05 -1.01112e-05 0)
(1.97354e-05 -7.09917e-06 0)
(4.39438e-05 -3.98628e-06 0)
(5.8462e-05 -8.37662e-07 0)
(6.34754e-05 2.23618e-06 0)
(5.95923e-05 5.04248e-06 0)
(4.80497e-05 7.248e-06 0)
(3.11462e-05 8.25557e-06 0)
(1.35194e-05 7.04363e-06 0)
(2.65898e-06 2.659e-06 0)
(7.22851e-06 -1.3753e-05 0)
(2.87551e-05 -2.84186e-05 0)
(5.70521e-05 -3.00092e-05 0)
(7.90453e-05 -2.23709e-05 0)
(8.60898e-05 -9.12553e-06 0)
(7.32099e-05 7.33029e-06 0)
(3.73793e-05 2.54429e-05 0)
(-2.30455e-05 4.41998e-05 0)
(-0.000108671 6.29402e-05 0)
(-0.000219374 8.12269e-05 0)
(-0.000354517 9.87688e-05 0)
(-0.0005131 0.000115373 0)
(-0.000693867 0.000130909 0)
(-0.000895383 0.000145292 0)
(-0.00111609 0.000158468 0)
(-0.00135434 0.000170403 0)
(-0.00160846 0.000181085 0)
(-0.00187671 0.00019051 0)
(-0.00215737 0.000198689 0)
(-0.00244871 0.000205637 0)
(-0.00274904 0.000211374 0)
(-0.00305665 0.000215927 0)
(-0.00336991 0.000219326 0)
(-0.00368719 0.000221599 0)
(-0.00400693 0.00022278 0)
(-0.00432758 0.000222902 0)
(-0.00464767 0.000222004 0)
(-0.00496575 0.000220121 0)
(-0.00528046 0.00021729 0)
(-0.00559045 0.00021355 0)
(-0.00589445 0.000208942 0)
(-0.00619123 0.000203504 0)
(-0.00647964 0.000197276 0)
(-0.00675855 0.000190297 0)
(-0.00702692 0.000182607 0)
(-0.00728374 0.000174243 0)
(-0.00752806 0.000165245 0)
(-0.00775901 0.000155653 0)
(-0.00797575 0.000145506 0)
(-0.0081775 0.000134845 0)
(-0.00836356 0.000123709 0)
(-0.00853327 0.000112138 0)
(-0.00868602 0.000100172 0)
(-0.00882127 8.78514e-05 0)
(-0.00893855 7.52157e-05 0)
(-0.00903742 6.23056e-05 0)
(-0.00911753 4.91632e-05 0)
(-0.00917856 3.58312e-05 0)
(-0.00922029 2.23517e-05 0)
(-0.00924252 8.76733e-06 0)
(-0.00924515 -4.87849e-06 0)
(-0.00922812 -1.8541e-05 0)
(-0.00919144 -3.21744e-05 0)
(-0.00913519 -4.57327e-05 0)
(-0.00905951 -5.91699e-05 0)
(-0.00896462 -7.24398e-05 0)
(-0.00885079 -8.54952e-05 0)
(-0.00871839 -9.82874e-05 0)
(-0.00856781 -0.000110767 0)
(-0.00839956 -0.000122884 0)
(-0.0082142 -0.000134589 0)
(-0.00801235 -0.000145833 0)
(-0.00779472 -0.000156567 0)
(-0.00756209 -0.000166739 0)
(-0.00731531 -0.000176299 0)
(-0.00705529 -0.000185196 0)
(-0.00678303 -0.00019338 0)
(-0.00649958 -0.000200802 0)
(-0.00620608 -0.000207414 0)
(-0.00590373 -0.000213169 0)
(-0.00559379 -0.000218018 0)
(-0.00527759 -0.000221916 0)
(-0.00495653 -0.000224819 0)
(-0.00463205 -0.000226685 0)
(-0.00430567 -0.000227473 0)
(-0.00397893 -0.000227148 0)
(-0.00365345 -0.000225675 0)
(-0.00333088 -0.000223024 0)
(-0.00301291 -0.000219167 0)
(-0.00270126 -0.00021408 0)
(-0.00239766 -0.000207743 0)
(-0.0021039 -0.000200144 0)
(-0.00182172 -0.000191274 0)
(-0.0015529 -0.000181135 0)
(-0.00129918 -0.000169736 0)
(-0.00106227 -0.000157098 0)
(-0.000843844 -0.000143253 0)
(-0.00064547 -0.000128253 0)
(-0.000468624 -0.000112174 0)
(-0.000314626 -9.51226e-05 0)
(-0.000184585 -7.72516e-05 0)
(-7.93318e-05 -5.87777e-05 0)
(6.97089e-07 -4.00122e-05 0)
(5.56006e-05 -2.14109e-05 0)
(8.62267e-05 -3.65108e-06 0)
(9.44692e-05 1.22407e-05 0)
(8.36019e-05 2.47141e-05 0)
(5.88098e-05 3.14132e-05 0)
(2.88964e-05 2.88912e-05 0)
(7.03684e-06 1.35084e-05 0)
(8.18161e-06 -3.11115e-05 0)
(3.03264e-05 -5.68737e-05 0)
(5.49619e-05 -5.44875e-05 0)
(6.64014e-05 -3.23196e-05 0)
(5.42368e-05 2.94634e-06 0)
(1.20269e-05 4.6376e-05 0)
(-6.44546e-05 9.44384e-05 0)
(-0.000177693 0.000144646 0)
(-0.000328781 0.000195252 0)
(-0.000517757 0.000245031 0)
(-0.000743879 0.000293119 0)
(-0.00100582 0.000338909 0)
(-0.00130184 0.000381972 0)
(-0.00162986 0.000422013 0)
(-0.0019876 0.000458832 0)
(-0.0023726 0.000492299 0)
(-0.00278232 0.000522339 0)
(-0.00321413 0.00054892 0)
(-0.00366536 0.000572037 0)
(-0.00413336 0.000591714 0)
(-0.00461547 0.000607994 0)
(-0.00510905 0.000620932 0)
(-0.00561149 0.000630598 0)
(-0.00612027 0.000637072 0)
(-0.00663289 0.000640437 0)
(-0.00714692 0.000640785 0)
(-0.00766001 0.000638214 0)
(-0.00816988 0.000632825 0)
(-0.00867431 0.00062472 0)
(-0.00917119 0.000614007 0)
(-0.00965847 0.000600796 0)
(-0.0101342 0.000585196 0)
(-0.0105965 0.000567317 0)
(-0.0110436 0.000547272 0)
(-0.0114738 0.000525174 0)
(-0.0118855 0.000501132 0)
(-0.0122771 0.000475261 0)
(-0.0126473 0.000447673 0)
(-0.0129948 0.000418484 0)
(-0.0133182 0.000387808 0)
(-0.0136164 0.000355758 0)
(-0.0138883 0.000322453 0)
(-0.0141331 0.000288006 0)
(-0.0143498 0.000252535 0)
(-0.0145377 0.000216158 0)
(-0.014696 0.000178994 0)
(-0.0148243 0.000141162 0)
(-0.0149219 0.000102787 0)
(-0.0149886 6.39893e-05 0)
(-0.015024 2.4895e-05 0)
(-0.0150279 -1.43696e-05 0)
(-0.0150004 -5.36753e-05 0)
(-0.0149413 -9.28912e-05 0)
(-0.0148509 -0.000131885 0)
(-0.0147293 -0.000170524 0)
(-0.0145769 -0.000208672 0)
(-0.0143943 -0.000246193 0)
(-0.0141818 -0.000282946 0)
(-0.0139403 -0.000318791 0)
(-0.0136705 -0.000353586 0)
(-0.0133732 -0.000387189 0)
(-0.0130497 -0.000419457 0)
(-0.0127008 -0.000450247 0)
(-0.012328 -0.000479413 0)
(-0.0119326 -0.000506812 0)
(-0.011516 -0.000532301 0)
(-0.0110798 -0.000555739 0)
(-0.0106258 -0.000576985 0)
(-0.0101558 -0.000595901 0)
(-0.00967157 -0.000612355 0)
(-0.00917526 -0.000626213 0)
(-0.00866895 -0.00063735 0)
(-0.00815486 -0.000645643 0)
(-0.00763529 -0.000650975 0)
(-0.00711264 -0.000653237 0)
(-0.00658938 -0.000652331 0)
(-0.00606806 -0.000648164 0)
(-0.00555126 -0.000640655 0)
(-0.00504167 -0.000629734 0)
(-0.00454197 -0.000615343 0)
(-0.00405491 -0.00059744 0)
(-0.00358322 -0.000576 0)
(-0.00312966 -0.000551018 0)
(-0.00269695 -0.000522515 0)
(-0.00228778 -0.00049054 0)
(-0.00190476 -0.000455176 0)
(-0.00155039 -0.000416553 0)
(-0.00122704 -0.000374854 0)
(-0.00093686 -0.000330337 0)
(-0.000681748 -0.000283356 0)
(-0.000463237 -0.000234393 0)
(-0.000282399 -0.000184114 0)
(-0.000139685 -0.000133431 0)
(-3.47352e-05 -8.36141e-05 0)
(3.38791e-05 -3.64413e-05 0)
(6.89905e-05 5.58656e-06 0)
(7.51599e-05 3.89626e-05 0)
(5.91182e-05 5.88519e-05 0)
(3.15366e-05 5.88303e-05 0)
(8.26722e-06 3.11377e-05 0)
(7.01791e-06 -4.73203e-05 0)
(2.29261e-05 -7.92467e-05 0)
(3.3409e-05 -6.60954e-05 0)
(2.25651e-05 -2.12357e-05 0)
(-2.04989e-05 4.53738e-05 0)
(-0.000102891 0.00012611 0)
(-0.000229429 0.000215256 0)
(-0.000403062 0.000308594 0)
(-0.000625179 0.000403033 0)
(-0.000895936 0.000496314 0)
(-0.00121453 0.000586786 0)
(-0.00157941 0.000673246 0)
(-0.00198847 0.000754825 0)
(-0.00243916 0.000830896 0)
(-0.00292862 0.000901023 0)
(-0.00345373 0.00096491 0)
(-0.00401123 0.00102237 0)
(-0.00459774 0.00107329 0)
(-0.00520981 0.00111765 0)
(-0.00584395 0.00115545 0)
(-0.00649668 0.00118674 0)
(-0.00716452 0.00121163 0)
(-0.00784405 0.00123023 0)
(-0.00853189 0.00124266 0)
(-0.00922472 0.00124909 0)
(-0.00991932 0.00124968 0)
(-0.0106125 0.00124462 0)
(-0.0113013 0.00123408 0)
(-0.0119827 0.00121827 0)
(-0.0126538 0.00119738 0)
(-0.0133119 0.00117163 0)
(-0.0139544 0.00114122 0)
(-0.0145788 0.00110637 0)
(-0.0151826 0.00106729 0)
(-0.0157635 0.0010242 0)
(-0.0163195 0.000977313 0)
(-0.0168484 0.000926853 0)
(-0.0173483 0.00087304 0)
(-0.0178174 0.000816096 0)
(-0.018254 0.000756245 0)
(-0.0186567 0.000693711 0)
(-0.0190238 0.000628722 0)
(-0.0193543 0.000561503 0)
(-0.0196467 0.000492284 0)
(-0.0199002 0.000421297 0)
(-0.0201139 0.000348776 0)
(-0.0202868 0.000274957 0)
(-0.0204184 0.000200079 0)
(-0.0205082 0.000124383 0)
(-0.0205557 4.81152e-05 0)
(-0.0205607 -2.84764e-05 0)
(-0.0205232 -0.000105139 0)
(-0.0204432 -0.000181619 0)
(-0.0203208 -0.000257657 0)
(-0.0201564 -0.000332992 0)
(-0.0199504 -0.000407359 0)
(-0.0197035 -0.000480489 0)
(-0.0194165 -0.000552111 0)
(-0.0190902 -0.000621951 0)
(-0.0187257 -0.000689734 0)
(-0.0183243 -0.000755182 0)
(-0.0178874 -0.000818017 0)
(-0.0174164 -0.000877958 0)
(-0.0169131 -0.000934728 0)
(-0.0163793 -0.000988048 0)
(-0.0158171 -0.00103764 0)
(-0.0152284 -0.00108323 0)
(-0.0146157 -0.00112456 0)
(-0.0139813 -0.00116135 0)
(-0.0133279 -0.00119335 0)
(-0.0126582 -0.0012203 0)
(-0.0119749 -0.00124197 0)
(-0.0112811 -0.00125813 0)
(-0.0105799 -0.00126855 0)
(-0.00987435 -0.00127303 0)
(-0.00916788 -0.00127139 0)
(-0.00846384 -0.00126345 0)
(-0.00776568 -0.00124907 0)
(-0.00707695 -0.00122813 0)
(-0.00640121 -0.00120053 0)
(-0.00574206 -0.0011662 0)
(-0.00510313 -0.00112511 0)
(-0.00448801 -0.00107728 0)
(-0.00390027 -0.00102277 0)
(-0.00334338 -0.000961716 0)
(-0.00282071 -0.000894301 0)
(-0.00233547 -0.000820817 0)
(-0.00189066 -0.000741662 0)
(-0.00148897 -0.000657381 0)
(-0.00113273 -0.000568701 0)
(-0.00082379 -0.000476596 0)
(-0.000563385 -0.000382365 0)
(-0.00035196 -0.000287743 0)
(-0.000188969 -0.000195062 0)
(-7.2611e-05 -0.000107461 0)
(4.79531e-07 -2.91645e-05 0)
(3.55267e-05 3.41596e-05 0)
(3.99968e-05 7.50491e-05 0)
(2.516e-05 8.3902e-05 0)
(7.32246e-06 4.81524e-05 0)
(4.74184e-06 -5.78246e-05 0)
(1.00622e-05 -8.70266e-05 0)
(-9.89847e-07 -5.45682e-05 0)
(-4.26526e-05 2.15789e-05 0)
(-0.000125316 0.000128288 0)
(-0.000256182 0.000255347 0)
(-0.000440193 0.000394874 0)
(-0.000680416 0.000540874 0)
(-0.000978324 0.000688811 0)
(-0.00133408 0.000835264 0)
(-0.00174679 0.000977668 0)
(-0.0022147 0.0011141 0)
(-0.00273541 0.00124313 0)
(-0.00330598 0.00136372 0)
(-0.00392307 0.0014751 0)
(-0.00458303 0.00157674 0)
(-0.005282 0.00166829 0)
(-0.00601594 0.00174953 0)
(-0.00678074 0.00182036 0)
(-0.00757219 0.00188077 0)
(-0.00838608 0.00193081 0)
(-0.00921822 0.0019706 0)
(-0.0100644 0.00200029 0)
(-0.0109206 0.00202009 0)
(-0.0117826 0.00203022 0)
(-0.0126466 0.00203095 0)
(-0.0135087 0.00202254 0)
(-0.0143651 0.00200529 0)
(-0.0152121 0.00197951 0)
(-0.0160463 0.00194552 0)
(-0.0168643 0.00190363 0)
(-0.0176628 0.0018542 0)
(-0.0184386 0.00179755 0)
(-0.0191889 0.00173404 0)
(-0.0199108 0.001664 0)
(-0.0206015 0.00158781 0)
(-0.0212586 0.0015058 0)
(-0.0218797 0.00141834 0)
(-0.0224624 0.00132578 0)
(-0.0230048 0.0012285 0)
(-0.0235049 0.00112686 0)
(-0.0239609 0.00102122 0)
(-0.0243713 0.000911962 0)
(-0.0247344 0.000799451 0)
(-0.0250492 0.00068407 0)
(-0.0253143 0.000566198 0)
(-0.0255289 0.000446221 0)
(-0.0256921 0.000324529 0)
(-0.0258034 0.000201517 0)
(-0.0258621 7.75847e-05 0)
(-0.0258681 -4.68629e-05 0)
(-0.0258212 -0.000171416 0)
(-0.0257215 -0.000295659 0)
(-0.0255692 -0.000419173 0)
(-0.0253647 -0.000541529 0)
(-0.0251086 -0.000662298 0)
(-0.0248017 -0.000781044 0)
(-0.024445 -0.000897326 0)
(-0.0240395 -0.0010107 0)
(-0.0235867 -0.00112072 0)
(-0.0230881 -0.00122694 0)
(-0.0225453 -0.0013289 0)
(-0.0219603 -0.00142615 0)
(-0.0213352 -0.00151825 0)
(-0.0206723 -0.00160475 0)
(-0.019974 -0.00168519 0)
(-0.019243 -0.00175914 0)
(-0.0184821 -0.00182617 0)
(-0.0176944 -0.00188585 0)
(-0.0168829 -0.00193777 0)
(-0.0160511 -0.00198154 0)
(-0.0152025 -0.00201676 0)
(-0.0143406 -0.00204307 0)
(-0.0134694 -0.00206013 0)
(-0.0125927 -0.00206762 0)
(-0.0117146 -0.00206525 0)
(-0.0108392 -0.00205275 0)
(-0.00997072 -0.00202991 0)
(-0.00911352 -0.00199654 0)
(-0.00827192 -0.0019525 0)
(-0.00745032 -0.00189772 0)
(-0.00665307 -0.00183218 0)
(-0.00588454 -0.00175592 0)
(-0.005149 -0.00166908 0)
(-0.00445062 -0.00157191 0)
(-0.00379341 -0.00146476 0)
(-0.00318116 -0.00134814 0)
(-0.00261741 -0.00122274 0)
(-0.00210529 -0.00108948 0)
(-0.0016475 -0.00094956 0)
(-0.00124614 -0.000804572 0)
(-0.000902599 -0.000656578 0)
(-0.000617367 -0.000508273 0)
(-0.000389837 -0.000363175 0)
(-0.000218066 -0.000225885 0)
(-9.85052e-05 -0.000102406 0)
(-2.57369e-05 -5.50182e-07 0)
(7.8715e-06 6.96687e-05 0)
(1.32224e-05 9.55528e-05 0)
(5.22748e-06 6.00351e-05 0)
(1.93924e-06 -6.0556e-05 0)
(-5.92574e-06 -7.53436e-05 0)
(-4.3437e-05 -1.35282e-05 0)
(-0.000121918 0.000103203 0)
(-0.000250508 0.000258899 0)
(-0.000436047 0.000440971 0)
(-0.000683235 0.000639496 0)
(-0.000994964 0.000846746 0)
(-0.00137258 0.00105673 0)
(-0.00181612 0.00126482 0)
(-0.00232452 0.00146746 0)
(-0.00289583 0.00166193 0)
(-0.00352734 0.00184616 0)
(-0.00421577 0.00201861 0)
(-0.00495737 0.00217813 0)
(-0.00574804 0.00232389 0)
(-0.00658338 0.00245533 0)
(-0.00745881 0.00257208 0)
(-0.00836963 0.00267394 0)
(-0.009311 0.00276084 0)
(-0.0102781 0.00283283 0)
(-0.0112661 0.00289002 0)
(-0.01227 0.00293263 0)
(-0.0132853 0.00296091 0)
(-0.014307 0.00297518 0)
(-0.0153307 0.00297578 0)
(-0.0163518 0.0029631 0)
(-0.017366 0.00293755 0)
(-0.0183688 0.00289957 0)
(-0.0193563 0.0028496 0)
(-0.0203244 0.00278812 0)
(-0.0212694 0.00271561 0)
(-0.0221874 0.00263256 0)
(-0.0230751 0.00253946 0)
(-0.0239291 0.00243683 0)
(-0.0247463 0.00232518 0)
(-0.0255235 0.00220502 0)
(-0.0262581 0.00207688 0)
(-0.0269474 0.00194128 0)
(-0.0275888 0.00179876 0)
(-0.0281802 0.00164985 0)
(-0.0287194 0.00149509 0)
(-0.0292045 0.00133502 0)
(-0.0296339 0.0011702 0)
(-0.0300059 0.00100118 0)
(-0.0303192 0.00082852 0)
(-0.0305728 0.000652782 0)
(-0.0307656 0.000474543 0)
(-0.0308969 0.000294382 0)
(-0.0309661 0.000112885 0)
(-0.0309729 -6.93533e-05 0)
(-0.0309172 -0.000251732 0)
(-0.030799 -0.000433642 0)
(-0.0306187 -0.000614467 0)
(-0.0303766 -0.000793582 0)
(-0.0300736 -0.000970356 0)
(-0.0297105 -0.00114415 0)
(-0.0292885 -0.00131433 0)
(-0.0288089 -0.00148023 0)
(-0.0282734 -0.00164121 0)
(-0.0276837 -0.00179661 0)
(-0.0270419 -0.00194578 0)
(-0.0263501 -0.00208805 0)
(-0.025611 -0.00222277 0)
(-0.0248271 -0.0023493 0)
(-0.0240015 -0.00246697 0)
(-0.0231371 -0.00257516 0)
(-0.0222373 -0.00267324 0)
(-0.0213058 -0.0027606 0)
(-0.0203461 -0.00283664 0)
(-0.0193623 -0.00290079 0)
(-0.0183584 -0.00295249 0)
(-0.0173387 -0.00299124 0)
(-0.0163077 -0.00301652 0)
(-0.0152699 -0.00302791 0)
(-0.01423 -0.00302498 0)
(-0.013193 -0.00300737 0)
(-0.0121637 -0.00297479 0)
(-0.0111471 -0.00292698 0)
(-0.0101483 -0.00286378 0)
(-0.00917225 -0.0027851 0)
(-0.00822413 -0.00269094 0)
(-0.00730888 -0.00258141 0)
(-0.00643143 -0.00245675 0)
(-0.00559654 -0.00231736 0)
(-0.00480879 -0.00216381 0)
(-0.00407247 -0.00199687 0)
(-0.00339157 -0.00181759 0)
(-0.00276963 -0.00162734 0)
(-0.00220966 -0.0014279 0)
(-0.00171403 -0.00122153 0)
(-0.00128429 -0.00101117 0)
(-0.00092108 -0.000800523 0)
(-0.00062386 -0.000594366 0)
(-0.000390764 -0.000398771 0)
(-0.000218359 -0.000221486 0)
(-0.0001014 -7.2356e-05 0)
(-3.25331e-05 3.62388e-05 0)
(-1.9577e-06 8.88126e-05 0)
(2.57333e-06 6.45986e-05 0)
(-1.07496e-06 -5.44244e-05 0)
(-2.35682e-05 -4.11789e-05 0)
(-9.06185e-05 6.13189e-05 0)
(-0.000209916 0.000228617 0)
(-0.00038885 0.000442426 0)
(-0.000633546 0.000688072 0)
(-0.000948163 0.000953779 0)
(-0.00133517 0.0012302 0)
(-0.0017956 0.00150994 0)
(-0.00232922 0.00178717 0)
(-0.00293471 0.00205733 0)
(-0.00360985 0.00231686 0)
(-0.00435165 0.00256301 0)
(-0.00515647 0.00279368 0)
(-0.0060202 0.00300728 0)
(-0.0069383 0.00320265 0)
(-0.00790594 0.00337896 0)
(-0.00891803 0.00353566 0)
(-0.00996933 0.00367243 0)
(-0.0110545 0.00378912 0)
(-0.0121681 0.00388573 0)
(-0.0133047 0.0039624 0)
(-0.0144589 0.00401937 0)
(-0.0156254 0.00405695 0)
(-0.0167987 0.00407555 0)
(-0.0179738 0.0040756 0)
(-0.0191454 0.00405761 0)
(-0.0203087 0.00402212 0)
(-0.0214588 0.00396971 0)
(-0.022591 0.00390097 0)
(-0.0237007 0.00381655 0)
(-0.0247837 0.00371707 0)
(-0.0258358 0.0036032 0)
(-0.026853 0.00347562 0)
(-0.0278314 0.00333502 0)
(-0.0287675 0.00318208 0)
(-0.0296578 0.00301752 0)
(-0.0304992 0.00284205 0)
(-0.0312886 0.00265638 0)
(-0.0320231 0.00246124 0)
(-0.0327003 0.00225737 0)
(-0.0333177 0.00204549 0)
(-0.0338731 0.00182637 0)
(-0.0343646 0.00160075 0)
(-0.0347904 0.00136938 0)
(-0.0351491 0.00113305 0)
(-0.0354392 0.000892515 0)
(-0.0356597 0.000648573 0)
(-0.0358098 0.000402014 0)
(-0.0358889 0.000153644 0)
(-0.0358965 -9.57257e-05 0)
(-0.0358325 -0.00034527 0)
(-0.035697 -0.000594155 0)
(-0.0354903 -0.000841537 0)
(-0.035213 -0.00108656 0)
(-0.0348659 -0.00132837 0)
(-0.0344501 -0.00156609 0)
(-0.0339668 -0.00179883 0)
(-0.0334177 -0.00202573 0)
(-0.0328044 -0.00224587 0)
(-0.0321292 -0.00245838 0)
(-0.0313943 -0.00266236 0)
(-0.0306023 -0.00285691 0)
(-0.029756 -0.00304114 0)
(-0.0288585 -0.00321417 0)
(-0.027913 -0.00337512 0)
(-0.0269232 -0.00352313 0)
(-0.0258928 -0.00365735 0)
(-0.0248258 -0.00377695 0)
(-0.0237265 -0.00388113 0)
(-0.0225994 -0.00396913 0)
(-0.0214491 -0.00404019 0)
(-0.0202804 -0.00409363 0)
(-0.0190984 -0.00412879 0)
(-0.0179082 -0.00414508 0)
(-0.0167152 -0.00414196 0)
(-0.0155249 -0.00411896 0)
(-0.0143427 -0.00407568 0)
(-0.0131744 -0.00401184 0)
(-0.0120255 -0.00392721 0)
(-0.0109018 -0.00382173 0)
(-0.00980892 -0.00369543 0)
(-0.00875244 -0.0035485 0)
(-0.00773784 -0.00338132 0)
(-0.00677041 -0.00319446 0)
(-0.00585522 -0.00298875 0)
(-0.00499705 -0.00276528 0)
(-0.00420027 -0.00252552 0)
(-0.00346881 -0.00227134 0)
(-0.00280599 -0.00200512 0)
(-0.00221445 -0.00172991 0)
(-0.00169601 -0.0014495 0)
(-0.0012515 -0.00116869 0)
(-0.000880622 -0.000893479 0)
(-0.000581771 -0.000631379 0)
(-0.000351877 -0.000391778 0)
(-0.000186164 -0.000186384 0)
(-7.7901e-05 -2.96649e-05 0)
(-1.88992e-05 6.05471e-05 0)
(-3.18259e-07 6.06874e-05 0)
(-4.13257e-06 -3.89143e-05 0)
(-4.19511e-05 1.72226e-05 0)
(-0.000140305 0.000172713 0)
(-0.000302916 0.000401185 0)
(-0.000535116 0.000682518 0)
(-0.000842068 0.00100029 0)
(-0.00122716 0.00134112 0)
(-0.00169222 0.00169419 0)
(-0.00223782 0.00205079 0)
(-0.00286331 0.00240395 0)
(-0.00356705 0.00274812 0)
(-0.00434645 0.00307889 0)
(-0.0051982 0.0033928 0)
(-0.00611833 0.00368719 0)
(-0.00710234 0.00395999 0)
(-0.00814531 0.00420965 0)
(-0.00924196 0.00443508 0)
(-0.0103868 0.0046355 0)
(-0.011574 0.00481044 0)
(-0.0127979 0.00495965 0)
(-0.0140525 0.00508309 0)
(-0.0153318 0.00518089 0)
(-0.0166298 0.0052533 0)
(-0.0179408 0.00530071 0)
(-0.0192587 0.00532359 0)
(-0.0205779 0.00532249 0)
(-0.0218928 0.00529804 0)
(-0.0231979 0.00525091 0)
(-0.0244877 0.00518183 0)
(-0.0257571 0.00509157 0)
(-0.0270011 0.00498092 0)
(-0.0282149 0.00485072 0)
(-0.0293938 0.00470181 0)
(-0.0305334 0.00453506 0)
(-0.0316295 0.00435136 0)
(-0.032678 0.0041516 0)
(-0.0336751 0.00393671 0)
(-0.0346173 0.00370761 0)
(-0.0355012 0.00346523 0)
(-0.0363237 0.00321051 0)
(-0.0370818 0.00294442 0)
(-0.037773 0.0026679 0)
(-0.0383947 0.00238195 0)
(-0.0389448 0.00208752 0)
(-0.0394214 0.00178563 0)
(-0.0398227 0.00147726 0)
(-0.0401473 0.00116344 0)
(-0.0403941 0.00084519 0)
(-0.0405619 0.000523544 0)
(-0.0406503 0.000199552 0)
(-0.0406587 -0.000125724 0)
(-0.0405869 -0.000451208 0)
(-0.0404352 -0.000775814 0)
(-0.0402037 -0.00109844 0)
(-0.0398933 -0.00141798 0)
(-0.0395047 -0.0017333 0)
(-0.0390392 -0.00204328 0)
(-0.0384983 -0.00234676 0)
(-0.0378836 -0.0026426 0)
(-0.0371972 -0.00292965 0)
(-0.0364414 -0.00320673 0)
(-0.0356188 -0.00347269 0)
(-0.0347322 -0.00372638 0)
(-0.0337848 -0.00396663 0)
(-0.03278 -0.0041923 0)
(-0.0317215 -0.00440226 0)
(-0.0306132 -0.0045954 0)
(-0.0294593 -0.00477061 0)
(-0.0282643 -0.00492684 0)
(-0.027033 -0.00506306 0)
(-0.0257701 -0.00517828 0)
(-0.024481 -0.00527154 0)
(-0.0231709 -0.00534197 0)
(-0.0218454 -0.00538873 0)
(-0.0205103 -0.00541108 0)
(-0.0191714 -0.00540832 0)
(-0.0178348 -0.00537989 0)
(-0.0165066 -0.00532531 0)
(-0.0151929 -0.00524421 0)
(-0.0139 -0.00513636 0)
(-0.0126342 -0.0050017 0)
(-0.0114016 -0.00484032 0)
(-0.0102083 -0.00465252 0)
(-0.00906035 -0.00443882 0)
(-0.00796351 -0.00420001 0)
(-0.00692331 -0.00393719 0)
(-0.00594493 -0.00365184 0)
(-0.00503318 -0.00334585 0)
(-0.00419231 -0.00302165 0)
(-0.00342601 -0.00268227 0)
(-0.00273723 -0.00233153 0)
(-0.00212809 -0.00197413 0)
(-0.00159974 -0.00161592 0)
(-0.00115224 -0.00126409 0)
(-0.000784434 -0.000927519 0)
(-0.0004938 -0.000617082 0)
(-0.000276266 -0.000346135 0)
(-0.000125977 -0.000130911 0)
(-3.66694e-05 8.89144e-06 0)
(-3.27137e-06 4.77319e-05 0)
(-7.14472e-06 -1.38688e-05 0)
(-6.05192e-05 0.000100723 0)
(-0.000191032 0.000322204 0)
(-0.000398352 0.000622975 0)
(-0.000685601 0.000981556 0)
(-0.00105681 0.00138012 0)
(-0.00151441 0.00180393 0)
(-0.00205948 0.00224086 0)
(-0.00269194 0.00268104 0)
(-0.00341064 0.00311642 0)
(-0.00421348 0.00354049 0)
(-0.00509749 0.00394805 0)
(-0.00605897 0.00433492 0)
(-0.00709358 0.00469785 0)
(-0.00819644 0.00503428 0)
(-0.00936222 0.0053423 0)
(-0.0105853 0.00562046 0)
(-0.0118596 0.00586778 0)
(-0.0131792 0.0060836 0)
(-0.0145375 0.00626758 0)
(-0.0159284 0.0064196 0)
(-0.0173454 0.00653978 0)
(-0.0187819 0.0066284 0)
(-0.0202317 0.00668588 0)
(-0.0216883 0.00671277 0)
(-0.0231456 0.00670975 0)
(-0.0245975 0.00667755 0)
(-0.0260379 0.006617 0)
(-0.0274611 0.00652899 0)
(-0.0288613 0.00641446 0)
(-0.0302332 0.00627438 0)
(-0.0315714 0.00610979 0)
(-0.0328709 0.00592174 0)
(-0.0341268 0.00571131 0)
(-0.0353346 0.0054796 0)
(-0.0364898 0.00522774 0)
(-0.0375883 0.00495687 0)
(-0.0386261 0.00466815 0)
(-0.0395996 0.00436275 0)
(-0.0405053 0.00404185 0)
(-0.0413402 0.00370665 0)
(-0.0421012 0.00335837 0)
(-0.0427857 0.00299822 0)
(-0.0433914 0.00262744 0)
(-0.043916 0.00224728 0)
(-0.0443578 0.001859 0)
(-0.0447152 0.00146387 0)
(-0.0449867 0.00106318 0)
(-0.0451715 0.00065825 0)
(-0.0452687 0.000250385 0)
(-0.045278 -0.000159074 0)
(-0.045199 -0.000568776 0)
(-0.0450319 -0.000977354 0)
(-0.0447772 -0.00138342 0)
(-0.0444355 -0.00178559 0)
(-0.0440078 -0.00218244 0)
(-0.0434954 -0.00257255 0)
(-0.0429 -0.00295449 0)
(-0.0422234 -0.00332681 0)
(-0.0414679 -0.00368806 0)
(-0.0406359 -0.00403679 0)
(-0.0397303 -0.00437155 0)
(-0.0387543 -0.00469088 0)
(-0.0377112 -0.00499335 0)
(-0.0366047 -0.00527752 0)
(-0.035439 -0.00554198 0)
(-0.0342183 -0.00578533 0)
(-0.0329472 -0.00600623 0)
(-0.0316306 -0.00620335 0)
(-0.0302736 -0.0063754 0)
(-0.0288816 -0.00652116 0)
(-0.0274602 -0.00663946 0)
(-0.0260152 -0.00672921 0)
(-0.0245528 -0.0067894 0)
(-0.0230791 -0.00681909 0)
(-0.0216005 -0.00681747 0)
(-0.0201235 -0.00678384 0)
(-0.0186548 -0.00671763 0)
(-0.0172012 -0.00661842 0)
(-0.0157692 -0.00648597 0)
(-0.0143658 -0.00632023 0)
(-0.0129975 -0.00612135 0)
(-0.011671 -0.00588975 0)
(-0.0103927 -0.00562614 0)
(-0.00916895 -0.00533154 0)
(-0.00800559 -0.00500735 0)
(-0.00690826 -0.00465544 0)
(-0.00588215 -0.00427817 0)
(-0.00493192 -0.00387853 0)
(-0.00406159 -0.00346023 0)
(-0.00327449 -0.00302785 0)
(-0.00257313 -0.002587 0)
(-0.00195908 -0.00214453 0)
(-0.00143286 -0.00170878 0)
(-0.000993882 -0.00128983 0)
(-0.000640363 -0.000899923 0)
(-0.000369093 -0.000553811 0)
(-0.000175261 -0.000269168 0)
(-5.46933e-05 -6.71065e-05 0)
(-6.19276e-06 2.55338e-05 0)
(-1.00683e-05 2.06618e-05 0)
(-7.89415e-05 0.000209591 0)
(-0.00024186 0.000510502 0)
(-0.000494497 0.0008951 0)
(-0.00083772 0.00134094 0)
(-0.00127433 0.00182913 0)
(-0.00180572 0.00234379 0)
(-0.00243204 0.0028717 0)
(-0.00315249 0.00340195 0)
(-0.0039653 0.0039255 0)
(-0.00486785 0.00443498 0)
(-0.0058567 0.0049244 0)
(-0.00692772 0.00538891 0)
(-0.00807615 0.00582467 0)
(-0.00929671 0.00622864 0)
(-0.0105837 0.00659851 0)
(-0.011931 0.00693251 0)
(-0.0133324 0.00722941 0)
(-0.0147812 0.00748838 0)
(-0.0162706 0.00770894 0)
(-0.017794 0.00789091 0)
(-0.0193444 0.00803438 0)
(-0.020915 0.00813964 0)
(-0.0224988 0.00820716 0)
(-0.0240892 0.00823759 0)
(-0.0256794 0.00823169 0)
(-0.0272629 0.00819033 0)
(-0.0288333 0.00811449 0)
(-0.0303843 0.00800524 0)
(-0.0319098 0.00786368 0)
(-0.033404 0.007691 0)
(-0.0348611 0.00748844 0)
(-0.0362758 0.00725726 0)
(-0.0376428 0.00699878 0)
(-0.0389571 0.00671433 0)
(-0.040214 0.00640528 0)
(-0.0414091 0.00607301 0)
(-0.042538 0.00571895 0)
(-0.0435968 0.0053445 0)
(-0.0445819 0.00495113 0)
(-0.0454897 0.00454029 0)
(-0.0463173 0.00411346 0)
(-0.0470616 0.00367214 0)
(-0.0477201 0.00321783 0)
(-0.0482905 0.00275206 0)
(-0.0487708 0.00227638 0)
(-0.0491593 0.00179235 0)
(-0.0494546 0.00130154 0)
(-0.0496556 0.00080555 0)
(-0.0497613 0.000305998 0)
(-0.0497715 -0.000195485 0)
(-0.0496858 -0.000697244 0)
(-0.0495043 -0.00119761 0)
(-0.0492276 -0.00169489 0)
(-0.0488564 -0.00218738 0)
(-0.0483917 -0.00267335 0)
(-0.047835 -0.00315107 0)
(-0.047188 -0.00361879 0)
(-0.0464527 -0.00407474 0)
(-0.0456316 -0.00451716 0)
(-0.0447273 -0.00494428 0)
(-0.0437429 -0.00535433 0)
(-0.0426819 -0.00574554 0)
(-0.0415478 -0.00611616 0)
(-0.0403447 -0.00646445 0)
(-0.0390769 -0.00678869 0)
(-0.0377491 -0.0070872 0)
(-0.0363662 -0.00735833 0)
(-0.0349335 -0.00760048 0)
(-0.0334565 -0.0078121 0)
(-0.0319409 -0.00799172 0)
(-0.0303928 -0.00813792 0)
(-0.0288186 -0.0082494 0)
(-0.0272246 -0.00832493 0)
(-0.0256176 -0.00836342 0)
(-0.0240044 -0.00836389 0)
(-0.022392 -0.00832553 0)
(-0.0207876 -0.00824767 0)
(-0.0191983 -0.00812983 0)
(-0.0176314 -0.00797177 0)
(-0.016094 -0.00777345 0)
(-0.0145934 -0.00753511 0)
(-0.0131365 -0.0072573 0)
(-0.0117303 -0.00694089 0)
(-0.0103814 -0.00658719 0)
(-0.00909631 -0.0061979 0)
(-0.00788095 -0.00577529 0)
(-0.00674092 -0.00532222 0)
(-0.00568129 -0.00484223 0)
(-0.0047065 -0.00433971 0)
(-0.00382029 -0.00381999 0)
(-0.00302561 -0.00328955 0)
(-0.00232454 -0.00275618 0)
(-0.00171818 -0.00222927 0)
(-0.00120662 -0.00172003 0)
(-0.00078893 -0.00124184 0)
(-0.000462872 -0.000810645 0)
(-0.000224781 -0.000445251 0)
(-7.26244e-05 -0.000167793 0)
(-9.03548e-06 -5.88565e-06 0)
(-1.28865e-05 6.45085e-05 0)
(-9.70313e-05 0.000343726 0)
(-0.000292199 0.00073775 0)
(-0.000590219 0.00121799 0)
(-0.000989727 0.00176136 0)
(-0.00149226 0.00234816 0)
(-0.00209807 0.00296163 0)
(-0.00280635 0.00358762 0)
(-0.00361545 0.0042143 0)
(-0.00452292 0.00483179 0)
(-0.00552555 0.0054319 0)
(-0.00661934 0.00600793 0)
(-0.0077997 0.00655438 0)
(-0.00906141 0.00706686 0)
(-0.0103988 0.00754185 0)
(-0.0118057 0.00797664 0)
(-0.0132757 0.00836916 0)
(-0.0148019 0.00871791 0)
(-0.0163775 0.00902188 0)
(-0.0179953 0.00928046 0)
(-0.0196481 0.00949341 0)
(-0.0213285 0.00966076 0)
(-0.0230294 0.00978282 0)
(-0.0247433 0.00986013 0)
(-0.0264633 0.0098934 0)
(-0.0281821 0.00988349 0)
(-0.0298927 0.00983144 0)
(-0.0315884 0.00973836 0)
(-0.0332625 0.00960549 0)
(-0.0349086 0.00943414 0)
(-0.0365203 0.0092257 0)
(-0.0380917 0.00898163 0)
(-0.0396169 0.00870343 0)
(-0.0410904 0.00839264 0)
(-0.0425069 0.00805086 0)
(-0.0438612 0.0076797 0)
(-0.0451487 0.00728083 0)
(-0.0463648 0.00685591 0)
(-0.0475053 0.00640665 0)
(-0.0485662 0.00593478 0)
(-0.0495438 0.00544204 0)
(-0.050435 0.0049302 0)
(-0.0512364 0.00440104 0)
(-0.0519455 0.00385638 0)
(-0.0525597 0.00329802 0)
(-0.0530769 0.00272783 0)
(-0.0534953 0.00214766 0)
(-0.0538133 0.00155941 0)
(-0.0540298 0.000964983 0)
(-0.054144 0.000366314 0)
(-0.0541552 -0.000234643 0)
(-0.0540632 -0.000835914 0)
(-0.0538683 -0.0014355 0)
(-0.0535708 -0.00203138 0)
(-0.0531716 -0.00262151 0)
(-0.0526719 -0.00320384 0)
(-0.052073 -0.0037763 0)
(-0.051377 -0.00433679 0)
(-0.0505859 -0.00488321 0)
(-0.0497024 -0.00541346 0)
(-0.0487292 -0.00592542 0)
(-0.0476698 -0.00641699 0)