/*--------------------------------*- C++ -*----------------------------------*\
| =========                 |                                                 |
| \\      /  F ield         | OpenFOAM: The Open Source CFD Toolbox           |
|  \\    /   O peration     | Version:  2212                                  |
|   \\  /    A nd           | Website:  www.openfoam.com                      |
|    \\/     M anipulation  |                                                 |
\*---------------------------------------------------------------------------*/
FoamFile
{
    version     2.0;
    format      ascii;
    arch        "LSB;label=32;scalar=64";
    class       volVectorField;
    location    "0.0525";
    object      U_0;
}
// * * * * * * * * * * * * * * * * * * * * * * * * * * * * * * * * * * * * * //

dimensions      [0 1 -1 0 0 0 0];

internalField   nonuniform List<vector> 
10000
(
(2.83803e-06 -2.83783e-06 0)
(1.38119e-05 -7.09079e-06 0)
(3.10262e-05 -8.0626e-06 0)
(4.69692e-05 -6.85634e-06 0)
(5.70914e-05 -4.5008e-06 0)
(5.92074e-05 -1.59585e-06 0)
(5.21983e-05 1.53335e-06 0)
(3.55653e-05 4.70012e-06 0)
(9.22211e-06 7.79888e-06 0)
(-2.66475e-05 1.07697e-05 0)
(-7.16952e-05 1.35779e-05 0)
(-0.000125458 1.62013e-05 0)
(-0.000187399 1.86304e-05 0)
(-0.000256937 2.08579e-05 0)
(-0.000333458 2.28823e-05 0)
(-0.000416333 2.47055e-05 0)
(-0.000504925 2.63272e-05 0)
(-0.000598594 2.77502e-05 0)
(-0.000696703 2.89795e-05 0)
(-0.000798625 3.0019e-05 0)
(-0.00090374 3.08749e-05 0)
(-0.00101144 3.15512e-05 0)
(-0.00112113 3.20522e-05 0)
(-0.00123224 3.2383e-05 0)
(-0.00134421 3.25498e-05 0)
(-0.00145649 3.25601e-05 0)
(-0.00156856 3.24214e-05 0)
(-0.00167992 3.21402e-05 0)
(-0.00179008 3.17214e-05 0)
(-0.00189858 3.117e-05 0)
(-0.00200497 3.04918e-05 0)
(-0.00210882 2.9693e-05 0)
(-0.00220973 2.87794e-05 0)
(-0.00230731 2.77571e-05 0)
(-0.00240118 2.66319e-05 0)
(-0.00249102 2.54096e-05 0)
(-0.00257648 2.40957e-05 0)
(-0.00265725 2.26959e-05 0)
(-0.00273306 2.12162e-05 0)
(-0.00280363 1.96622e-05 0)
(-0.00286871 1.80395e-05 0)
(-0.00292807 1.63543e-05 0)
(-0.00298151 1.46115e-05 0)
(-0.00302884 1.28175e-05 0)
(-0.00306988 1.09784e-05 0)
(-0.0031045 9.09923e-06 0)
(-0.00313256 7.18613e-06 0)
(-0.00315396 5.24585e-06 0)
(-0.00316861 3.28387e-06 0)
(-0.00317645 1.30605e-06 0)
(-0.00317745 -6.80794e-07 0)
(-0.00317157 -2.67044e-06 0)
(-0.00315883 -4.65668e-06 0)
(-0.00313924 -6.63258e-06 0)
(-0.00311286 -8.59171e-06 0)
(-0.00307975 -1.05281e-05 0)
(-0.00304002 -1.24344e-05 0)
(-0.00299379 -1.43029e-05 0)
(-0.00294119 -1.61269e-05 0)
(-0.00288239 -1.78997e-05 0)
(-0.00281759 -1.96137e-05 0)
(-0.00274702 -2.12616e-05 0)
(-0.0026709 -2.28363e-05 0)
(-0.00258951 -2.43302e-05 0)
(-0.00250314 -2.57349e-05 0)
(-0.00241213 -2.70436e-05 0)
(-0.0023168 -2.82491e-05 0)
(-0.00221754 -2.93436e-05 0)
(-0.00211473 -3.03196e-05 0)
(-0.0020088 -3.11707e-05 0)
(-0.00190018 -3.18898e-05 0)
(-0.00178936 -3.2469e-05 0)
(-0.00167681 -3.29012e-05 0)
(-0.00156305 -3.31807e-05 0)
(-0.00144861 -3.33015e-05 0)
(-0.00133404 -3.3257e-05 0)
(-0.00121991 -3.3041e-05 0)
(-0.00110681 -3.26486e-05 0)
(-0.00099534 -3.20746e-05 0)
(-0.000886119 -3.13138e-05 0)
(-0.000779774 -3.0362e-05 0)
(-0.00067694 -2.92167e-05 0)
(-0.00057826 -2.78757e-05 0)
(-0.000484381 -2.63364e-05 0)
(-0.000395946 -2.45968e-05 0)
(-0.000313593 -2.26569e-05 0)
(-0.000237951 -2.05186e-05 0)
(-0.000169628 -1.81855e-05 0)
(-0.000109204 -1.56632e-05 0)
(-5.72173e-05 -1.29611e-05 0)
(-1.41451e-05 -1.00948e-05 0)
(1.96179e-05 -7.08904e-06 0)
(4.38007e-05 -3.98275e-06 0)
(5.83139e-05 -8.40368e-07 0)
(6.33408e-05 2.22815e-06 0)
(5.94852e-05 5.0308e-06 0)
(4.79786e-05 7.23476e-06 0)
(3.11133e-05 8.24417e-06 0)
(1.35153e-05 7.03971e-06 0)
(2.6628e-06 2.66383e-06 0)
(7.12246e-06 -1.38296e-05 0)
(2.8531e-05 -2.85001e-05 0)
(5.67989e-05 -2.99972e-05 0)
(7.87948e-05 -2.23696e-05 0)
(8.58828e-05 -9.14474e-06 0)
(7.30739e-05 7.29585e-06 0)
(3.73352e-05 2.53931e-05 0)
(-2.29753e-05 4.41301e-05 0)
(-0.000108455 6.28463e-05 0)
(-0.000218976 8.1103e-05 0)
(-0.000353896 9.86124e-05 0)
(-0.000512207 0.000115182 0)
(-0.000692654 0.00013068 0)
(-0.0008938 0.000145025 0)
(-0.00111409 0.000158164 0)
(-0.00135187 0.000170067 0)
(-0.00160548 0.00018072 0)
(-0.00187317 0.000190122 0)
(-0.00215325 0.000198279 0)
(-0.00244397 0.000205206 0)
(-0.00274364 0.000210927 0)
(-0.00305058 0.000215464 0)
(-0.00336313 0.000218847 0)
(-0.00367969 0.000221105 0)
(-0.00399868 0.000222272 0)
(-0.00431858 0.000222384 0)
(-0.0046379 0.000221478 0)
(-0.00495523 0.000219592 0)
(-0.00526917 0.000216764 0)
(-0.0055784 0.000213031 0)
(-0.00588164 0.000208432 0)
(-0.00617769 0.000203006 0)
(-0.00646537 0.000196791 0)
(-0.00674358 0.000189827 0)
(-0.00701127 0.000182152 0)
(-0.00726743 0.000173807 0)
(-0.00751113 0.00016483 0)
(-0.00774148 0.00015526 0)
(-0.00795766 0.000145138 0)
(-0.0081589 0.000134502 0)
(-0.00834447 0.000123392 0)
(-0.00851373 0.000111848 0)
(-0.00866608 9.99094e-05 0)
(-0.00880098 8.76172e-05 0)
(-0.00891795 7.50116e-05 0)
(-0.00901656 6.21339e-05 0)
(-0.00909645 4.90256e-05 0)
(-0.00915733 3.57282e-05 0)
(-0.00919895 2.22846e-05 0)
(-0.00922113 8.73749e-06 0)
(-0.00922375 -4.87051e-06 0)
(-0.00920677 -1.84949e-05 0)
(-0.00917019 -3.209e-05 0)
(-0.0091141 -4.5611e-05 0)
(-0.00903864 -5.90125e-05 0)
(-0.00894401 -7.22471e-05 0)
(-0.0088305 -8.52673e-05 0)
(-0.00869846 -9.80252e-05 0)
(-0.00854829 -0.000110472 0)
(-0.0083805 -0.00012256 0)
(-0.00819563 -0.000134237 0)
(-0.00799432 -0.000145456 0)
(-0.00777728 -0.000156164 0)
(-0.00754526 -0.000166312 0)
(-0.00729913 -0.000175849 0)
(-0.00703979 -0.000184725 0)
(-0.00676823 -0.000192891 0)
(-0.00648552 -0.000200297 0)
(-0.00619277 -0.000206894 0)
(-0.00589119 -0.000212636 0)
(-0.00558203 -0.000217476 0)
(-0.00526663 -0.000221368 0)
(-0.00494636 -0.000224268 0)
(-0.00462268 -0.000226135 0)
(-0.00429708 -0.00022693 0)
(-0.00397113 -0.000226615 0)
(-0.00364642 -0.000225155 0)
(-0.0033246 -0.000222519 0)
(-0.00300735 -0.000218679 0)
(-0.0026964 -0.000213611 0)
(-0.00239348 -0.000207296 0)
(-0.00210035 -0.000199721 0)
(-0.00181877 -0.000190879 0)
(-0.0015505 -0.00018077 0)
(-0.00129729 -0.000169403 0)
(-0.00106085 -0.000156797 0)
(-0.000842834 -0.000142986 0)
(-0.000644821 -0.000128022 0)
(-0.000468284 -0.000111981 0)
(-0.000314538 -9.49693e-05 0)
(-0.000184694 -7.71387e-05 0)
(-7.95789e-05 -5.87057e-05 0)
(3.66109e-07 -3.998e-05 0)
(5.5237e-05 -2.14153e-05 0)
(8.58771e-05 -3.68741e-06 0)
(9.41719e-05 1.21808e-05 0)
(8.33829e-05 2.46423e-05 0)
(5.86813e-05 3.13463e-05 0)
(2.88469e-05 2.88506e-05 0)
(7.02806e-06 1.35034e-05 0)
(8.15344e-06 -3.10958e-05 0)
(3.01438e-05 -5.67891e-05 0)
(5.46221e-05 -5.4403e-05 0)
(6.60012e-05 -3.23294e-05 0)
(5.38694e-05 2.85245e-06 0)
(1.17625e-05 4.62271e-05 0)
(-6.45636e-05 9.42405e-05 0)
(-0.000177593 0.000144394 0)
(-0.000328414 0.000194933 0)
(-0.000517058 0.000244631 0)
(-0.000742775 0.000292629 0)
(-0.00100424 0.00033832 0)
(-0.0012997 0.000381282 0)
(-0.00162709 0.000421222 0)
(-0.00198412 0.000457942 0)
(-0.00236835 0.000491318 0)
(-0.00277721 0.000521275 0)
(-0.0032081 0.000547778 0)
(-0.00365836 0.000570825 0)
(-0.00412533 0.000590441 0)
(-0.00460635 0.000606663 0)
(-0.0050988 0.000619551 0)
(-0.00560009 0.000629174 0)
(-0.00610768 0.00063561 0)
(-0.00661908 0.000638944 0)
(-0.00713188 0.000639271 0)
(-0.00764373 0.000636686 0)
(-0.00815235 0.000631292 0)
(-0.00865553 0.000623193 0)
(-0.00915117 0.000612495 0)
(-0.00963723 0.000599307 0)
(-0.0101118 0.000583736 0)
(-0.0105729 0.000565894 0)
(-0.0110188 0.000545892 0)
(-0.0114479 0.000523842 0)
(-0.0118585 0.000499855 0)
(-0.0122492 0.000474044 0)
(-0.0126184 0.000446523 0)
(-0.0129649 0.000417405 0)
(-0.0132875 0.000386804 0)
(-0.0135849 0.000354834 0)
(-0.0138562 0.000321611 0)
(-0.0141003 0.000287251 0)
(-0.0143164 0.00025187 0)
(-0.0145038 0.000215586 0)
(-0.0146617 0.000178517 0)
(-0.0147896 0.000140786 0)
(-0.014887 0.000102513 0)
(-0.0149535 6.38203e-05 0)
(-0.0149889 2.48332e-05 0)
(-0.0149928 -1.4322e-05 0)
(-0.0149654 -5.35194e-05 0)
(-0.0149065 -9.26284e-05 0)
(-0.0148163 -0.000131516 0)
(-0.0146951 -0.00017005 0)
(-0.0145432 -0.000208096 0)
(-0.014361 -0.000245516 0)
(-0.0141492 -0.000282172 0)
(-0.0139083 -0.000317924 0)
(-0.0136392 -0.000352632 0)
(-0.0133428 -0.000386152 0)
(-0.0130201 -0.000418341 0)
(-0.0126722 -0.000449056 0)
(-0.0123004 -0.000478153 0)
(-0.011906 -0.000505487 0)
(-0.0114906 -0.000530918 0)
(-0.0110556 -0.000554304 0)
(-0.0106027 -0.000575504 0)
(-0.0101339 -0.000594382 0)
(-0.00965095 -0.000610804 0)
(-0.0091559 -0.000624639 0)
(-0.00865087 -0.000635761 0)
(-0.00813807 -0.000644048 0)
(-0.00761979 -0.000649385 0)
(-0.00709842 -0.000651663 0)
(-0.00657642 -0.000650782 0)
(-0.00605634 -0.000646649 0)
(-0.00554076 -0.000639181 0)
(-0.00503235 -0.000628309 0)
(-0.00453379 -0.000613975 0)
(-0.00404782 -0.000596136 0)
(-0.00357716 -0.000574767 0)
(-0.00312458 -0.000549865 0)
(-0.00269278 -0.000521448 0)
(-0.00228444 -0.000489565 0)
(-0.00190218 -0.000454298 0)
(-0.00154849 -0.000415777 0)
(-0.00122574 -0.000374184 0)
(-0.000936071 -0.000329776 0)
(-0.00068138 -0.000282907 0)
(-0.000463201 -0.000234058 0)
(-0.000282607 -0.000183891 0)
(-0.000140053 -0.000133317 0)
(-3.51844e-05 -8.35996e-05 0)
(3.34195e-05 -3.65124e-05 0)
(6.85803e-05 5.45009e-06 0)
(7.48418e-05 3.87895e-05 0)
(5.89167e-05 5.86803e-05 0)
(3.14474e-05 5.8705e-05 0)
(8.24691e-06 3.10946e-05 0)
(7.00178e-06 -4.71696e-05 0)
(2.27348e-05 -7.895e-05 0)
(3.29978e-05 -6.58467e-05 0)
(2.20261e-05 -2.11965e-05 0)
(-2.10358e-05 4.52222e-05 0)
(-0.000103309 0.000125813 0)
(-0.00022963 0.000214836 0)
(-0.000402952 0.000308045 0)
(-0.000624665 0.00040234 0)
(-0.000894918 0.000495457 0)
(-0.00121291 0.00058575 0)
(-0.00157709 0.000672021 0)
(-0.00198534 0.000753407 0)
(-0.00243512 0.000829288 0)
(-0.00292356 0.00089923 0)
(-0.00344756 0.000962942 0)
(-0.00400387 0.00102024 0)
(-0.0045891 0.00107101 0)
(-0.0051998 0.00111523 0)
(-0.00583251 0.0011529 0)
(-0.00648374 0.00118409 0)
(-0.00715003 0.00120888 0)
(-0.00782796 0.00122739 0)
(-0.00851415 0.00123976 0)
(-0.00920532 0.00124614 0)
(-0.00989823 0.00124669 0)
(-0.0105897 0.0012416 0)
(-0.0112768 0.00123106 0)
(-0.0119565 0.00121526 0)
(-0.0126259 0.0011944 0)
(-0.0132824 0.00116869 0)
(-0.0139232 0.00113834 0)
(-0.014546 0.00110356 0)
(-0.0151482 0.00106457 0)
(-0.0157277 0.00102157 0)
(-0.0162822 0.000974794 0)
(-0.0168097 0.000924454 0)
(-0.0173082 0.000870772 0)
(-0.0177761 0.00081397 0)
(-0.0182116 0.000754269 0)
(-0.0186132 0.000691893 0)
(-0.0189794 0.00062707 0)
(-0.0193089 0.000560025 0)
(-0.0196006 0.000490987 0)
(-0.0198534 0.000420188 0)
(-0.0200665 0.00034786 0)
(-0.020239 0.000274239 0)
(-0.0203703 0.000199563 0)
(-0.0204598 0.000124074 0)
(-0.0205072 4.80156e-05 0)
(-0.0205123 -2.83651e-05 0)
(-0.0204749 -0.000104817 0)
(-0.0203951 -0.000181087 0)
(-0.0202731 -0.000256919 0)
(-0.0201092 -0.000332049 0)
(-0.0199038 -0.000406215 0)
(-0.0196576 -0.00047915 0)
(-0.0193714 -0.000550582 0)
(-0.019046 -0.00062024 0)
(-0.0186826 -0.000687849 0)
(-0.0182823 -0.000753132 0)
(-0.0178465 -0.000815811 0)
(-0.0173769 -0.000875606 0)
(-0.0168749 -0.00093224 0)
(-0.0163426 -0.000985434 0)
(-0.0157818 -0.00103491 0)
(-0.0151947 -0.00108041 0)
(-0.0145836 -0.00112164 0)
(-0.0139509 -0.00115836 0)
(-0.0132992 -0.0011903 0)
(-0.0126312 -0.00121721 0)
(-0.0119497 -0.00123886 0)
(-0.0112576 -0.001255 0)
(-0.0105581 -0.00126543 0)
(-0.00985434 -0.00126994 0)
(-0.00914959 -0.00126835 0)
(-0.00844724 -0.00126047 0)
(-0.00775075 -0.00124617 0)
(-0.00706362 -0.00122533 0)
(-0.00638943 -0.00119783 0)
(-0.00573178 -0.00116362 0)
(-0.00509427 -0.00112268 0)
(-0.00448049 -0.001075 0)
(-0.003894 -0.00102067 0)
(-0.00333826 -0.000959785 0)
(-0.00281665 -0.00089256 0)
(-0.00233236 -0.000819275 0)
(-0.00188838 -0.000740328 0)
(-0.00148741 -0.000656259 0)
(-0.00113178 -0.000567795 0)
(-0.00082333 -0.000475907 0)
(-0.000563299 -0.000381889 0)
(-0.000352138 -0.000287471 0)
(-0.000189308 -0.000194977 0)
(-7.30198e-05 -0.000107538 0)
(8.01685e-08 -2.93667e-05 0)
(3.51976e-05 3.38804e-05 0)
(3.97768e-05 7.47559e-05 0)
(2.50569e-05 8.36691e-05 0)
(7.29741e-06 4.80539e-05 0)
(4.72998e-06 -5.75857e-05 0)
(9.88583e-06 -8.65115e-05 0)
(-1.38224e-06 -5.41295e-05 0)
(-4.31772e-05 2.1692e-05 0)
(-0.000125838 0.000128075 0)
(-0.000256551 0.000254864 0)
(-0.000440272 0.000394147 0)
(-0.000680074 0.000539905 0)
(-0.00097743 0.000687582 0)
(-0.00133251 0.000833759 0)
(-0.0017444 0.000975867 0)
(-0.00221138 0.00111199 0)
(-0.00273103 0.00124072 0)
(-0.0033004 0.001361 0)
(-0.00391618 0.00147209 0)
(-0.00457471 0.00157345 0)
(-0.00527214 0.00166474 0)
(-0.00600444 0.00174574 0)
(-0.0067675 0.00181635 0)
(-0.00755713 0.00187656 0)
(-0.00836913 0.00192642 0)
(-0.0091993 0.00196606 0)
(-0.0100435 0.00199562 0)
(-0.0108976 0.00201531 0)
(-0.0117575 0.00202537 0)
(-0.0126194 0.00202604 0)
(-0.0134793 0.0020176 0)
(-0.0143335 0.00200035 0)
(-0.0151785 0.00197459 0)
(-0.0160106 0.00194064 0)
(-0.0168264 0.00189883 0)
(-0.0176229 0.00184949 0)
(-0.0183967 0.00179295 0)
(-0.019145 0.00172958 0)
(-0.019865 0.0016597 0)
(-0.0205539 0.00158368 0)
(-0.0212093 0.00150187 0)
(-0.0218287 0.00141463 0)
(-0.0224099 0.0013223 0)
(-0.0229509 0.00122527 0)
(-0.0234496 0.00112389 0)
(-0.0239044 0.00101853 0)
(-0.0243137 0.000909554 0)
(-0.0246759 0.000797342 0)
(-0.0249898 0.000682268 0)
(-0.0252542 0.000564715 0)
(-0.0254682 0.000445064 0)
(-0.0256311 0.000323704 0)
(-0.025742 0.000201029 0)
(-0.0258006 7.74383e-05 0)
(-0.0258067 -4.6667e-05 0)
(-0.02576 -0.000170878 0)
(-0.0256606 -0.000294779 0)
(-0.0255087 -0.000417954 0)
(-0.0253048 -0.000539978 0)
(-0.0250495 -0.000660421 0)
(-0.0247434 -0.000778848 0)
(-0.0243877 -0.000894822 0)
(-0.0239834 -0.0010079 0)
(-0.0235319 -0.00111764 0)
(-0.0230346 -0.00122358 0)
(-0.0224933 -0.00132529 0)
(-0.02191 -0.0014223 0)
(-0.0212866 -0.00151418 0)
(-0.0206255 -0.00160047 0)
(-0.0199291 -0.00168073 0)
(-0.0192 -0.00175452 0)
(-0.0184411 -0.0018214 0)
(-0.0176555 -0.00188097 0)
(-0.0168461 -0.0019328 0)
(-0.0160165 -0.0019765 0)
(-0.01517 -0.00201168 0)
(-0.0143103 -0.00203798 0)
(-0.0134413 -0.00205505 0)
(-0.0125668 -0.00206258 0)
(-0.0116908 -0.00206028 0)
(-0.0108175 -0.00204788 0)
(-0.00995113 -0.00202516 0)
(-0.00909595 -0.00199194 0)
(-0.00825631 -0.00194808 0)
(-0.00743658 -0.00189351 0)
(-0.00664113 -0.00182819 0)
(-0.00587429 -0.00175217 0)
(-0.00514033 -0.00166561 0)
(-0.00444342 -0.00156873 0)
(-0.00378755 -0.00146188 0)
(-0.00317653 -0.00134558 0)
(-0.00261386 -0.00122051 0)
(-0.00210269 -0.00108759 0)
(-0.0016457 -0.000948016 0)
(-0.00124501 -0.000803373 0)
(-0.000901999 -0.000655717 0)
(-0.000617162 -0.000507733 0)
(-0.000389903 -0.000362932 0)
(-0.000218291 -0.0002259 0)
(-9.8791e-05 -0.000102625 0)
(-2.60045e-05 -9.03398e-07 0)
(7.6775e-06 6.92708e-05 0)
(1.31255e-05 9.52168e-05 0)
(5.20218e-06 5.98794e-05 0)
(1.92769e-06 -6.02381e-05 0)
(-6.06368e-06 -7.46475e-05 0)
(-4.37312e-05 -1.29332e-05 0)
(-0.00012229 0.000103359 0)
(-0.000250821 0.000258586 0)
(-0.000436141 0.000440236 0)
(-0.000682944 0.000638368 0)
(-0.000994127 0.000845226 0)
(-0.00137104 0.0010548 0)
(-0.00181371 0.00126247 0)
(-0.0023211 0.00146467 0)
(-0.00289123 0.0016587 0)
(-0.00352142 0.00184248 0)
(-0.00420838 0.0020145 0)
(-0.00494837 0.00217359 0)
(-0.00573729 0.00231896 0)
(-0.00657077 0.00245002 0)
(-0.00744421 0.00256642 0)
(-0.00835293 0.00266796 0)
(-0.00929211 0.00275458 0)
(-0.0102569 0.00282631 0)
(-0.0112425 0.00288329 0)
(-0.0122441 0.00292571 0)
(-0.0132568 0.00295385 0)
(-0.0142761 0.002968 0)
(-0.0152973 0.00296853 0)
(-0.0163158 0.00295581 0)
(-0.0173274 0.00293026 0)
(-0.0183277 0.00289231 0)
(-0.0193127 0.00284241 0)
(-0.0202783 0.00278104 0)
(-0.0212208 0.00270867 0)
(-0.0221365 0.00262579 0)
(-0.0230219 0.0025329 0)
(-0.0238736 0.0024305 0)
(-0.0246886 0.00231911 0)
(-0.0254638 0.00219924 0)
(-0.0261964 0.00207142 0)
(-0.0268838 0.00193616 0)
(-0.0275235 0.001794 0)
(-0.0281133 0.00164548 0)
(-0.0286511 0.00149113 0)
(-0.0291349 0.00133149 0)
(-0.0295631 0.00116711 0)
(-0.0299342 0.000998541 0)
(-0.0302467 0.000826348 0)
(-0.0304996 0.000651091 0)
(-0.0306919 0.000473342 0)
(-0.0308228 0.000293677 0)
(-0.0308919 0.00011268 0)
(-0.0308987 -6.90549e-05 0)
(-0.0308432 -0.00025093 0)
(-0.0307254 -0.00043234 0)
(-0.0305456 -0.000612668 0)
(-0.0303043 -0.000791294 0)
(-0.0300022 -0.000967589 0)
(-0.0296401 -0.00114092 0)
(-0.0292193 -0.00131064 0)
(-0.0287411 -0.00147611 0)
(-0.0282071 -0.00163667 0)
(-0.027619 -0.00179167 0)
(-0.026979 -0.00194046 0)
(-0.0262891 -0.00208238 0)
(-0.025552 -0.00221678 0)
(-0.0247703 -0.002343 0)
(-0.0239469 -0.00246041 0)
(-0.0230848 -0.00256836 0)
(-0.0221875 -0.00266623 0)
(-0.0212583 -0.00275342 0)
(-0.0203012 -0.00282933 0)
(-0.0193199 -0.00289338 0)
(-0.0183186 -0.00294502 0)
(-0.0173015 -0.00298374 0)
(-0.0162731 -0.00300905 0)
(-0.0152379 -0.00302049 0)
(-0.0142006 -0.00301766 0)
(-0.0131661 -0.0030002 0)
(-0.0121393 -0.00296779 0)
(-0.0111251 -0.0029202 0)
(-0.0101286 -0.00285725 0)
(-0.00915485 -0.00277886 0)
(-0.00820887 -0.00268502 0)
(-0.00729566 -0.00257585 0)
(-0.00642013 -0.00245159 0)
(-0.00558702 -0.00231262 0)
(-0.00480091 -0.0021595 0)
(-0.00406608 -0.00199302 0)
(-0.00338652 -0.00181422 0)
(-0.00276576 -0.00162446 0)
(-0.00220682 -0.00142552 0)
(-0.00171204 -0.00121965 0)
(-0.00128301 -0.00100976 0)
(-0.000920344 -0.000799582 0)
(-0.000623528 -0.00059385 0)
(-0.000390705 -0.000398629 0)
(-0.000218454 -0.000221646 0)
(-0.000101553 -7.2726e-05 0)
(-3.26692e-05 3.57758e-05 0)
(-2.0346e-06 8.83962e-05 0)
(2.55086e-06 6.43922e-05 0)
(-1.08388e-06 -5.40471e-05 0)
(-2.36531e-05 -4.03694e-05 0)
(-9.07721e-05 6.19887e-05 0)
(-0.000210049 0.000228742 0)
(-0.000388828 0.000441932 0)
(-0.000633201 0.000686986 0)
(-0.000947316 0.000952128 0)
(-0.00133364 0.00122798 0)
(-0.00179319 0.00150715 0)
(-0.00232576 0.00178379 0)
(-0.00293002 0.00205334 0)
(-0.00360375 0.00231226 0)
(-0.00434397 0.00255781 0)
(-0.00514705 0.00278788 0)
(-0.00600887 0.00300092 0)
(-0.00692492 0.00319574 0)
(-0.00789036 0.00337155 0)
(-0.00890012 0.00352779 0)
(-0.00994898 0.00366412 0)
(-0.0110316 0.00378043 0)
(-0.0121426 0.0038767 0)
(-0.0132764 0.00395308 0)
(-0.0144279 0.00400981 0)
(-0.0155914 0.0040472 0)
(-0.0167619 0.00406565 0)
(-0.017934 0.0040656 0)
(-0.0191027 0.00404757 0)
(-0.020263 0.00401208 0)
(-0.0214102 0.00395972 0)
(-0.0225394 0.00389109 0)
(-0.0236464 0.0038068 0)
(-0.0247266 0.00370752 0)
(-0.0257759 0.00359389 0)
(-0.0267904 0.00346659 0)
(-0.0277662 0.00332631 0)
(-0.0286998 0.00317374 0)
(-0.0295878 0.00300958 0)
(-0.0304269 0.00283454 0)
(-0.0312141 0.00264934 0)
(-0.0319467 0.00245471 0)
(-0.0326221 0.00225137 0)
(-0.0332378 0.00204006 0)
(-0.0337918 0.00182152 0)
(-0.0342819 0.0015965 0)
(-0.0347066 0.00136576 0)
(-0.0350643 0.00113007 0)
(-0.0353537 0.000890202 0)
(-0.0355736 0.000646932 0)
(-0.0357234 0.000401055 0)
(-0.0358023 0.000153372 0)
(-0.0358099 -9.53068e-05 0)
(-0.0357461 -0.000344161 0)
(-0.0356111 -0.000592359 0)
(-0.035405 -0.000839061 0)
(-0.0351285 -0.00108342 0)
(-0.0347825 -0.00132457 0)
(-0.0343678 -0.00156164 0)
(-0.0338859 -0.00179376 0)
(-0.0333383 -0.00202006 0)
(-0.0327268 -0.00223963 0)
(-0.0320535 -0.00245159 0)
(-0.0313207 -0.00265505 0)
(-0.0305309 -0.00284912 0)
(-0.0296869 -0.0030329 0)
(-0.0287918 -0.00320552 0)
(-0.0278489 -0.0033661 0)
(-0.0268617 -0.00351379 0)
(-0.0258341 -0.00364772 0)
(-0.02477 -0.00376709 0)
(-0.0236736 -0.00387109 0)
(-0.0225494 -0.00395894 0)
(-0.021402 -0.00402993 0)
(-0.0202363 -0.00408334 0)
(-0.0190573 -0.00411852 0)
(-0.0178701 -0.00413489 0)
(-0.0166801 -0.0041319 0)
(-0.0154927 -0.00410908 0)
(-0.0143134 -0.00406604 0)
(-0.0131478 -0.00400249 0)
(-0.0120017 -0.00391821 0)
(-0.0108806 -0.00381311 0)
(-0.00979018 -0.00368725 0)
(-0.00873608 -0.0035408 0)
(-0.00772371 -0.00337415 0)
(-0.00675837 -0.00318785 0)
(-0.00584512 -0.00298273 0)
(-0.00498872 -0.00275988 0)
(-0.00419354 -0.00252077 0)
(-0.0034635 -0.00226724 0)
(-0.00280193 -0.0020017 0)
(-0.00221146 -0.00172714 0)
(-0.00169391 -0.00144739 0)
(-0.00125012 -0.0011672 0)
(-0.000879798 -0.000892558 0)
(-0.000581352 -0.000630966 0)
(-0.000351726 -0.000391784 0)
(-0.000186164 -0.000186695 0)
(-7.79564e-05 -3.01366e-05 0)
(-1.89465e-05 6.00857e-05 0)
(-3.35621e-07 6.04434e-05 0)
(-4.13674e-06 -3.85037e-05 0)
(-4.1976e-05 1.80652e-05 0)
(-0.000140296 0.000173353 0)
(-0.000302772 0.000401168 0)
(-0.000534695 0.000681729 0)
(-0.000841193 0.000998735 0)
(-0.00122563 0.00133881 0)
(-0.00168985 0.00169111 0)
(-0.0022344 0.00204694 0)
(-0.00285863 0.00239932 0)
(-0.00356091 0.00274269 0)
(-0.00433867 0.00307267 0)
(-0.00518859 0.00338581 0)
(-0.0061067 0.00367943 0)
(-0.00708851 0.0039515 0)
(-0.00812912 0.00420047 0)
(-0.00922325 0.00442525 0)
(-0.0103654 0.00462507 0)
(-0.0115499 0.00479946 0)
(-0.0127709 0.00494818 0)
(-0.0140224 0.00507119 0)
(-0.0152986 0.00516861 0)
(-0.0165935 0.00524072 0)
(-0.0179012 0.00528788 0)
(-0.0192159 0.00531058 0)
(-0.0205318 0.00530937 0)
(-0.0218434 0.00528486 0)
(-0.0231451 0.00523774 0)
(-0.0244316 0.00516874 0)
(-0.0256978 0.00507861 0)
(-0.0269386 0.00496816 0)
(-0.0281492 0.00483821 0)
(-0.029325 0.00468962 0)
(-0.0304616 0.00452324 0)
(-0.0315548 0.00433996 0)
(-0.0326005 0.00414068 0)
(-0.033595 0.00392632 0)
(-0.0345346 0.00369779 0)
(-0.0354162 0.00345603 0)
(-0.0362364 0.00320197 0)
(-0.0369925 0.00293657 0)
(-0.0376818 0.00266079 0)
(-0.0383019 0.0023756 0)
(-0.0388505 0.00208197 0)
(-0.0393258 0.0017809 0)
(-0.039726 0.00147338 0)
(-0.0400498 0.00116043 0)
(-0.0402959 0.000843054 0)
(-0.0404634 0.000522298 0)
(-0.0405515 0.000199205 0)
(-0.04056 -0.000125167 0)
(-0.0404885 -0.00044975 0)
(-0.0403372 -0.000773458 0)
(-0.0401065 -0.0010952 0)
(-0.0397969 -0.00141386 0)
(-0.0394095 -0.00172832 0)
(-0.0389454 -0.00203746 0)
(-0.038406 -0.00234013 0)
(-0.037793 -0.00263518 0)
(-0.0371086 -0.00292148 0)
(-0.0363549 -0.00319784 0)
(-0.0355346 -0.00346313 0)
(-0.0346505 -0.00371619 0)
(-0.0337057 -0.00395585 0)
(-0.0327037 -0.00418099 0)
(-0.031648 -0.00439046 0)
(-0.0305427 -0.00458317 0)
(-0.0293919 -0.00475802 0)
(-0.0282001 -0.00491394 0)
(-0.026972 -0.00504992 0)
(-0.0257124 -0.00516495 0)
(-0.0244266 -0.00525811 0)
(-0.0231199 -0.00532849 0)
(-0.0217978 -0.00537528 0)
(-0.0204661 -0.00539772 0)
(-0.0191305 -0.00539513 0)
(-0.0177972 -0.00536694 0)
(-0.0164722 -0.00531265 0)
(-0.0151617 -0.00523192 0)
(-0.0138719 -0.00512452 0)
(-0.012609 -0.00499036 0)
(-0.0113792 -0.00482954 0)
(-0.0101886 -0.00464235 0)
(-0.00904326 -0.00442932 0)
(-0.00794882 -0.00419123 0)
(-0.00691084 -0.00392918 0)
(-0.00593452 -0.00364462 0)
(-0.00502463 -0.00333946 0)
(-0.00418544 -0.0030161 0)
(-0.00342062 -0.00267758 0)
(-0.00273313 -0.00232768 0)
(-0.00212508 -0.00197111 0)
(-0.00159763 -0.0016137 0)
(-0.00115086 -0.00126262 0)
(-0.000783599 -0.000926705 0)
(-0.000493361 -0.000616824 0)
(-0.000276085 -0.000346297 0)
(-0.000125935 -0.000131324 0)
(-3.66806e-05 8.42883e-06 0)
(-3.28221e-06 4.74681e-05 0)
(-7.14266e-06 -1.34564e-05 0)
(-6.04821e-05 0.000101517 0)
(-0.000190859 0.0003227 0)
(-0.000397917 0.000622687 0)
(-0.00068475 0.000980334 0)
(-0.00105535 0.00137794 0)
(-0.00151215 0.00180079 0)
(-0.0020562 0.00223675 0)
(-0.0026874 0.00267594 0)
(-0.00340464 0.00311032 0)
(-0.00420579 0.0035334 0)
(-0.00508791 0.00393996 0)
(-0.0060473 0.00432586 0)
(-0.00707961 0.00468784 0)
(-0.00817998 0.00502337 0)
(-0.0093431 0.00533052 0)
(-0.0105633 0.00560788 0)
(-0.0118347 0.00585446 0)
(-0.0131511 0.00606961 0)
(-0.0145063 0.00625298 0)
(-0.0158938 0.00640447 0)
(-0.0173073 0.0065242 0)
(-0.0187403 0.00661243 0)
(-0.0201865 0.00666961 0)
(-0.0216395 0.00669629 0)
(-0.0230932 0.00669313 0)
(-0.0245413 0.00666087 0)
(-0.0259781 0.00660034 0)
(-0.0273976 0.00651243 0)
(-0.0287942 0.00639807 0)
(-0.0301625 0.00625825 0)
(-0.0314972 0.00609399 0)
(-0.0327933 0.00590634 0)
(-0.0340459 0.00569638 0)
(-0.0352505 0.00546521 0)
(-0.0364026 0.00521395 0)
(-0.0374981 0.00494375 0)
(-0.0385332 0.00465575 0)
(-0.0395041 0.00435113 0)
(-0.0404074 0.00403107 0)
(-0.04124 0.00369676 0)
(-0.041999 0.0033494 0)
(-0.0426817 0.00299022 0)
(-0.0432857 0.00262045 0)
(-0.0438089 0.00224133 0)
(-0.0442496 0.00185411 0)
(-0.044606 0.00146007 0)
(-0.0448768 0.0010605 0)
(-0.0450612 0.000656689 0)
(-0.0451582 0.000249957 0)
(-0.0451674 -0.000158364 0)
(-0.0450887 -0.000566928 0)
(-0.0449222 -0.000974374 0)
(-0.0446683 -0.00137932 0)
(-0.0443276 -0.00178038 0)
(-0.0439011 -0.00217615 0)
(-0.0433903 -0.0025652 0)
(-0.0427965 -0.00294611 0)
(-0.0421219 -0.00331744 0)
(-0.0413685 -0.00367775 0)
(-0.0405388 -0.00402558 0)
(-0.0396358 -0.00435948 0)
(-0.0386625 -0.00467802 0)
(-0.0376222 -0.00497975 0)
(-0.0365189 -0.00526324 0)
(-0.0353563 -0.00552709 0)
(-0.0341389 -0.0057699 0)
(-0.0328712 -0.00599034 0)
(-0.0315581 -0.00618706 0)
(-0.0302047 -0.0063588 0)
(-0.0288163 -0.00650433 0)
(-0.0273986 -0.00662249 0)
(-0.0259574 -0.00671219 0)
(-0.0244987 -0.00677239 0)
(-0.0230287 -0.0068022 0)
(-0.0215537 -0.00680078 0)
(-0.0200804 -0.00676744 0)
(-0.0186154 -0.0067016 0)
(-0.0171652 -0.00660285 0)
(-0.0157367 -0.00647094 0)
(-0.0143365 -0.00630581 0)
(-0.0129714 -0.00610762 0)
(-0.011648 -0.00587679 0)
(-0.0103726 -0.00561401 0)
(-0.0091515 -0.0053203 0)
(-0.00799066 -0.00499705 0)
(-0.00689567 -0.00464613 0)
(-0.00587169 -0.00426988 0)
(-0.00492339 -0.00387128 0)
(-0.00405478 -0.00345404 0)
(-0.0032692 -0.00302271 0)
(-0.00256914 -0.00258289 0)
(-0.00195618 -0.00214141 0)
(-0.00143086 -0.00170658 0)
(-0.000992592 -0.00128847 0)
(-0.000639607 -0.000899278 0)
(-0.000368711 -0.000553722 0)
(-0.000175113 -0.000269445 0)
(-5.46649e-05 -6.75206e-05 0)
(-6.19686e-06 2.52701e-05 0)
(-1.00604e-05 2.10458e-05 0)
(-7.88452e-05 0.000210255 0)
(-0.000241526 0.000510739 0)
(-0.000493773 0.000894406 0)
(-0.000836434 0.00133914 0)
(-0.00127228 0.00182616 0)
(-0.00180269 0.00233964 0)
(-0.00242779 0.00286636 0)
(-0.00314678 0.00339539 0)
(-0.00395791 0.00391772 0)
(-0.00485854 0.00442598 0)
(-0.00584525 0.00491419 0)
(-0.0069139 0.00537752 0)
(-0.00805976 0.00581213 0)
(-0.00927755 0.00621501 0)
(-0.0105616 0.00658384 0)
(-0.0119058 0.00691687 0)
(-0.0133038 0.00721288 0)
(-0.0147492 0.00747104 0)
(-0.0162351 0.00769087 0)
(-0.0177548 0.00787221 0)
(-0.0193014 0.00801513 0)
(-0.0208681 0.00811994 0)
(-0.022448 0.00818711 0)
(-0.0240344 0.00821728 0)
(-0.0256206 0.00821121 0)
(-0.0272001 0.0081698 0)
(-0.0287665 0.008094 0)
(-0.0303134 0.00798487 0)
(-0.031835 0.00784354 0)
(-0.0333253 0.00767118 0)
(-0.0347786 0.00746902 0)
(-0.0361896 0.00723834 0)
(-0.037553 0.00698044 0)
(-0.0388638 0.00669666 0)
(-0.0401174 0.00638835 0)
(-0.0413092 0.00605691 0)
(-0.0424351 0.00570374 0)
(-0.0434911 0.00533025 0)
(-0.0444735 0.00493791 0)
(-0.0453789 0.00452815 0)
(-0.0462042 0.00410246 0)
(-0.0469465 0.00366233 0)
(-0.0476033 0.00320926 0)
(-0.0481722 0.00274477 0)
(-0.0486512 0.0022704 0)
(-0.0490387 0.0017877 0)
(-0.0493333 0.00129825 0)
(-0.0495337 0.000803645 0)
(-0.0496393 0.000305483 0)
(-0.0496494 -0.000194604 0)
(-0.0495641 -0.000694969 0)
(-0.0493832 -0.00119395 0)
(-0.0491073 -0.00168985 0)
(-0.0487372 -0.00218098 0)
(-0.0482739 -0.00266563 0)
(-0.0477188 -0.00314205 0)
(-0.0470736 -0.00360851 0)
(-0.0463404 -0.00406325 0)
(-0.0455216 -0.00450451 0)
(-0.0446199 -0.00493052 0)
(-0.0436383 -0.00533952 0)
(-0.0425802 -0.00572975 0)
(-0.0414492 -0.00609946 0)
(-0.0402494 -0.00644692 0)
(-0.0389851 -0.00677041 0)
(-0.0376609 -0.00706826 0)
(-0.0362817 -0.00733882 0)
(-0.0348529 -0.00758049 0)
(-0.0333797 -0.00779173 0)
(-0.0318681 -0.00797106 0)
(-0.0303241 -0.00811708 0)
(-0.0287539 -0.00822847 0)
(-0.027164 -0.00830403 0)
(-0.025561 -0.00834265 0)
(-0.0239519 -0.00834336 0)
(-0.0223435 -0.00830533 0)
(-0.0207431 -0.00822792 0)
(-0.0191576 -0.00811063 0)
(-0.0175944 -0.00795321 0)
(-0.0160607 -0.00775563 0)
(-0.0145635 -0.00751812 0)
(-0.01311 -0.00724122 0)
(-0.011707 -0.00692582 0)
(-0.0103611 -0.00657318 0)
(-0.00907883 -0.00618503 0)
(-0.00786609 -0.00576361 0)
(-0.00672847 -0.00531176 0)
(-0.00567103 -0.00483303 0)
(-0.0046982 -0.00433178 0)
(-0.00381374 -0.00381333 0)
(-0.00302058 -0.00328413 0)
(-0.0023208 -0.00275197 0)
(-0.00171553 -0.00222619 0)
(-0.00120485 -0.00171798 0)
(-0.000787837 -0.00124068 0)
(-0.000462276 -0.000810197 0)
(-0.00022452 -0.000445309 0)
(-7.25552e-05 -0.000168104 0)
(-9.03343e-06 -6.12886e-06 0)
(-1.28719e-05 6.4834e-05 0)
(-9.688e-05 0.000344182 0)
(-0.000291713 0.000737618 0)
(-0.000589215 0.00121675 0)
(-0.000988009 0.00175881 0)
(-0.00148961 0.00234423 0)
(-0.00209425 0.00295628 0)
(-0.00280111 0.00358084 0)
(-0.00360854 0.00420606 0)
(-0.00451411 0.00482209 0)
(-0.00551457 0.00542075 0)
(-0.00660597 0.00599534 0)
(-0.0077837 0.00654039 0)
(-0.00904256 0.00705151 0)
(-0.0103769 0.00752521 0)
(-0.0117805 0.00795878 0)
(-0.0132471 0.00835015 0)
(-0.0147697 0.00869786 0)
(-0.0163415 0.00900087 0)
(-0.0179554 0.0092586 0)
(-0.0196042 0.0094708 0)
(-0.0212805 0.00963751 0)
(-0.0229772 0.00975905 0)
(-0.0246869 0.00983595 0)
(-0.0264025 0.00986892 0)
(-0.0281169 0.00985884 0)
(-0.0298232 0.00980672 0)
(-0.0315146 0.00971369 0)
(-0.0331844 0.00958099 0)
(-0.0348262 0.00940992 0)
(-0.0364338 0.00920187 0)
(-0.038001 0.0089583 0)
(-0.0395223 0.0086807 0)
(-0.0409919 0.00837061 0)
(-0.0424045 0.00802964 0)
(-0.0437553 0.00765938 0)
(-0.0450393 0.00726149 0)
(-0.0462522 0.00683765 0)
(-0.0473896 0.00638955 0)
(-0.0484476 0.00591892 0)
(-0.0494227 0.00542748 0)
(-0.0503114 0.00491701 0)
(-0.0511107 0.00438928 0)
(-0.0518179 0.0038461 0)
(-0.0524305 0.00328928 0)
(-0.0529463 0.00272065 0)
(-0.0533636 0.00214209 0)
(-0.0536808 0.00155548 0)
(-0.0538968 0.000962707 0)
(-0.0540107 0.000365706 0)
(-0.054022 -0.000233577 0)
(-0.0539304 -0.000833174 0)
(-0.053736 -0.00143109 0)
(-0.0534395 -0.00202533 0)
(-0.0530415 -0.00261384 0)
(-0.0525432 -0.00319458 0)
(-0.0519461 -0.00376548 0)
(-0.051252 -0.00432445 0)
(-0.0504632 -0.00486942 0)
(-0.0495822 -0.00539827 0)
(-0.0486118 -0.00590891 0)
(-0.0475553 -0.00639922 0)
(-0.0464163 -0.00686712 0)