/*--------------------------------*- C++ -*----------------------------------*\
| =========                 |                                                 |
| \\      /  F ield         | OpenFOAM: The Open Source CFD Toolbox           |
|  \\    /   O peration     | Version:  2212                                  |
|   \\  /    A nd           | Website:  www.openfoam.com                      |
|    \\/     M anipulation  |                                                 |
\*---------------------------------------------------------------------------*/
FoamFile
{
    version     2.0;
    format      ascii;
    arch        "LSB;label=32;scalar=64";
    class       volScalarField;
    location    "0.0645";
    object      p;
}
// * * * * * * * * * * * * * * * * * * * * * * * * * * * * * * * * * * * * * //

dimensions      [0 2 -2 0 0 0 0];

internalField   nonuniform List<scalar> 
10000
(
-5.29045e-07
0.000119588
-4.79499e-05
-0.00056339
-0.00138477
-0.00245414
-0.00371555
-0.00511627
-0.00660885
-0.00815127
-0.00970691
-0.0112438
-0.0127342
-0.0141542
-0.0154828
-0.0167021
-0.0177967
-0.0187535
-0.0195618
-0.0202125
-0.0206982
-0.0210132
-0.0211529
-0.0211144
-0.0208956
-0.0204959
-0.0199153
-0.0191548
-0.0182163
-0.0171026
-0.0158172
-0.0143641
-0.012748
-0.0109743
-0.00904852
-0.00697714
-0.0047669
-0.00242508
4.06872e-05
0.00262241
0.00531173
0.00809995
0.010978
0.0139366
0.0169663
0.0200572
0.0231993
0.0263823
0.0295961
0.03283
0.0360734
0.0393155
0.0425454
0.0457524
0.0489256
0.0520544
0.055128
0.0581355
0.0610665
0.0639106
0.0666578
0.0692983
0.0718225
0.0742212
0.0764852
0.0786063
0.0805766
0.0823887
0.084036
0.0855123
0.0868121
0.0879308
0.0888645
0.0896104
0.0901666
0.0905322
0.0907075
0.090694
0.0904944
0.0901127
0.0895543
0.0888264
0.0879377
0.086899
0.0857227
0.0844237
0.0830189
0.0815277
0.0799724
0.0783781
0.0767738
0.0751918
0.0736691
0.0722471
0.0709721
0.0698943
0.0690655
0.0685352
0.0683447
0.0684462
-5.50823e-05
6.27995e-05
-0.000107798
-0.000571291
-0.0012817
-0.00220011
-0.00328577
-0.0044971
-0.00579477
-0.00714279
-0.00850866
-0.00986342
-0.0111814
-0.0124401
-0.0136197
-0.0147031
-0.0156751
-0.0165232
-0.0172364
-0.0178058
-0.0182239
-0.0184848
-0.0185837
-0.0185174
-0.0182837
-0.0178812
-0.0173099
-0.0165702
-0.0156638
-0.0145929
-0.0133605
-0.0119703
-0.0104266
-0.00873423
-0.00689846
-0.0049251
-0.00282045
-0.000591345
0.00175503
0.00421115
0.00676913
0.00942077
0.0121575
0.0149705
0.0178508
0.0207891
0.0237757
0.0268012
0.0298555
0.0329289
0.036011
0.0390917
0.0421605
0.0452074
0.0482222
0.0511945
0.0541143
0.0569713
0.0597556
0.0624574
0.0650673
0.0675762
0.0699749
0.0722549
0.0744076
0.0764254
0.0783008
0.0800272
0.0815984
0.0830088
0.0842535
0.0853283
0.0862297
0.0869555
0.0875041
0.0878751
0.0880692
0.0880881
0.0879347
0.0876132
0.0871291
0.0864897
0.0857037
0.0847816
0.0837357
0.0825802
0.0813315
0.080008
0.0786308
0.0772233
0.075812
0.0744262
0.0730986
0.0718646
0.0707625
0.0698322
0.0691111
0.068634
0.0684457
0.0685477
0.000206453
0.00030799
0.000125182
-0.000316055
-0.000966347
-0.00179484
-0.00276926
-0.00385516
-0.00501929
-0.00623046
-0.00745983
-0.0086813
-0.00987129
-0.0110088
-0.0120753
-0.0130545
-0.013932
-0.0146956
-0.0153346
-0.0158402
-0.016205
-0.0164231
-0.0164898
-0.0164014
-0.0161556
-0.015751
-0.0151871
-0.0144643
-0.0135838
-0.0125475
-0.0113582
-0.0100191
-0.00853426
-0.00690805
-0.00514547
-0.00325196
-0.00123342
0.000903708
0.00315262
0.00550619
0.00795692
0.010497
0.0131183
0.0158123
0.0185705
0.021384
0.0242437
0.0271404
0.0300646
0.0330068
0.0359572
0.0389061
0.0418437
0.0447601
0.0476457
0.0504907
0.0532853
0.0560198
0.0586848
0.061271
0.0637696
0.0661717
0.0684688
0.0706526
0.0727153
0.0746494
0.0764483
0.0781056
0.0796155
0.0809729
0.0821733
0.0832127
0.0840882
0.0847978
0.0853403
0.0857155
0.0859242
0.0859685
0.0858514
0.085577
0.0851509
0.0845804
0.0838739
0.0830417
0.0820957
0.0810496
0.0799189
0.0787211
0.0774758
0.0762048
0.0749324
0.073685
0.0724916
0.0713831
0.0703921
0.0695518
0.0688927
0.0684441
0.0682565
0.0683582
0.000806069
0.000840279
0.000617956
0.000168956
-0.000461168
-0.00124529
-0.00215569
-0.00316311
-0.00423876
-0.00535538
-0.0064875
-0.00761156
-0.00870612
-0.00975186
-0.0107315
-0.0116296
-0.012433
-0.0131296
-0.0137095
-0.014164
-0.014486
-0.0146695
-0.0147099
-0.0146038
-0.0143484
-0.0139424
-0.013385
-0.0126766
-0.011818
-0.0108111
-0.00965826
-0.00836255
-0.00692755
-0.00535746
-0.003657
-0.00183129
0.000114075
0.002173
0.004339
0.00660527
0.00896471
0.0114098
0.0139328
0.0165255
0.0191797
0.021887
0.0246386
0.0274257
0.0302391
0.0330696
0.0359081
0.038745
0.0415711
0.0443768
0.0471528
0.0498897
0.0525782
0.055209
0.0577731
0.0602617
0.0626662
0.0649782
0.0671895
0.0692923
0.0712792
0.0731431
0.0748777
0.076477
0.0779355
0.0792485
0.0804116
0.0814214
0.0822751
0.0829709
0.0835079
0.0838861
0.0841064
0.084171
0.0840828
0.083846
0.0834662
0.0829502
0.0823065
0.0815449
0.0806768
0.0797152
0.0786746
0.0775717
0.0764244
0.0752531
0.0740797
0.0729282
0.0718245
0.0707956
0.0698701
0.0690767
0.0684423
0.0679936
0.0677787
0.0678301
0.00169216
0.00161025
0.00131742
0.000835667
0.000199115
-0.000568113
-0.00144204
-0.00239762
-0.00341019
-0.00445601
-0.0055126
-0.006559
-0.00757593
-0.00854578
-0.00945261
-0.0102822
-0.0110221
-0.0116611
-0.0121897
-0.0125997
-0.0128842
-0.0130375
-0.013055
-0.0129334
-0.01267
-0.0122632
-0.0117124
-0.0110176
-0.0101795
-0.00919994
-0.00808103
-0.00682558
-0.00543692
-0.003919
-0.00227628
-0.00051358
0.00136379
0.00335001
0.00543891
0.00762402
0.00989853
0.0122553
0.0146867
0.0171851
0.0197426
0.0223512
0.0250023
0.0276874
0.0303978
0.0331246
0.0358591
0.0385921
0.0413147
0.0440176
0.0466919
0.0493287
0.0519189
0.0544538
0.0569246
0.0593229
0.0616405
0.0638693
0.0660015
0.0680297
0.0699467
0.071746
0.0734215
0.0749674
0.0763786
0.0776506
0.0787795
0.0797619
0.0805953
0.0812781
0.0818096
0.0821899
0.08242
0.082502
0.0824388
0.0822346
0.0818948
0.0814261
0.0808364
0.0801352
0.0793332
0.0784427
0.0774773
0.0764524
0.0753848
0.0742927
0.0731963
0.0721171
0.0710778
0.0701024
0.0692156
0.0684423
0.0678062
0.0673316
0.067056
0.0670038
0.00281857
0.00258389
0.00219395
0.00165679
0.000990472
0.000216076
-0.000645372
-0.0015727
-0.00254487
-0.00354137
-0.00454249
-0.00552975
-0.00648585
-0.00739494
-0.00824261
-0.00901578
-0.00970277
-0.0102933
-0.0107786
-0.0111508
-0.0114033
-0.0115309
-0.011529
-0.0113944
-0.0111245
-0.0107178
-0.0101735
-0.00949165
-0.0086729
-0.00771872
-0.00663118
-0.00541287
-0.00406695
-0.00259714
-0.00100765
0.000696936
0.00251161
0.0044308
0.00644863
0.00855892
0.0107551
0.0130303
0.0153773
0.0177887
0.0202572
0.0227747
0.0253332
0.0279243
0.0305398
0.0331712
0.0358099
0.0384474
0.0410747
0.0436831
0.0462641
0.0488089
0.051309
0.0537559
0.0561413
0.0584569
0.0606949
0.0628476
0.0649075
0.0668675
0.0687209
0.0704612
0.0720827
0.0735799
0.074948
0.0761826
0.0772801
0.0782374
0.0790521
0.0797227
0.0802486
0.08063
0.0808679
0.0809643
0.0809222
0.0807456
0.0804396
0.0800106
0.0794662
0.0788153
0.0780679
0.0772356
0.076331
0.0753683
0.0743627
0.073331
0.0722912
0.0712625
0.070265
0.0693196
0.0684477
0.0676706
0.0670094
0.0664854
0.0661205
0.0659261
0.00413715
0.0037258
0.00321811
0.00260631
0.00188996
0.00108739
0.000217134
-0.000703104
-0.00165551
-0.00262244
-0.00358678
-0.00453227
-0.00544363
-0.00630668
-0.00710838
-0.0078369
-0.00848159
-0.009033
-0.00948285
-0.00982395
-0.0100502
-0.0101566
-0.0101389
-0.00999388
-0.00971929
-0.00931354
-0.00877591
-0.00810636
-0.00730555
-0.00637479
-0.00531602
-0.00413166
-0.00282474
-0.00139881
0.000142165
0.00179381
0.00355137
0.00540953
0.00736262
0.0094047
0.0115295
0.0137304
0.0160005
0.0183329
0.0207202
0.0231548
0.0256289
0.0281346
0.0306637
0.0332084
0.0357602
0.0383108
0.0408516
0.0433744
0.0458706
0.0483321
0.0507507
0.053118
0.0554261
0.057667
0.0598332
0.0619172
0.063912
0.0658106
0.0676066
0.0692939
0.0708668
0.0723202
0.0736494
0.0748504
0.0759196
0.0768541
0.0776516
0.0783107
0.0788309
0.0792124
0.0794561
0.0795641
0.079539
0.0793849
0.0791064
0.0787096
0.0782018
0.0775912
0.0768872
0.0761004
0.0752426
0.0743266
0.0733665
0.0723772
0.071375
0.0703767
0.0694002
0.0684635
0.067585
0.0667829
0.0660759
0.0654824
0.0650068
0.0646447
0.005602
0.00499945
0.00435931
0.00365749
0.00287462
0.0020265
0.00112953
0.000198404
-0.000751901
-0.00170638
-0.00265031
-0.00356948
-0.00445047
-0.00528069
-0.00604849
-0.00674322
-0.00735527
-0.00787604
-0.00829792
-0.00861433
-0.00881964
-0.00890915
-0.00887901
-0.00872623
-0.00844862
-0.00804474
-0.0075139
-0.00685612
-0.00607202
-0.00516282
-0.00413035
-0.00297696
-0.00170555
-0.000319499
0.00117744
0.00278109
0.00448686
0.00628967
0.00818404
0.0101642
0.0122243
0.0143579
0.0165584
0.0188191
0.0211329
0.0234925
0.0258902
0.0283185
0.0307696
0.0332358
0.035709
0.0381811
0.0406439
0.0430894
0.0455093
0.0478959
0.050241
0.0525368
0.0547754
0.0569493
0.059051
0.0610735
0.0630099
0.0648536
0.0665983
0.0682381
0.0697676
0.0711818
0.0724763
0.0736472
0.0746909
0.0756047
0.0763865
0.0770349
0.0775493
0.0779298
0.0781775
0.0782942
0.0782825
0.0781459
0.0778892
0.0775178
0.0770385
0.0764589
0.0757879
0.0750351
0.0742113
0.0733283
0.0723986
0.0714358
0.0704543
0.069469
0.0684954
0.0675492
0.0666461
0.0658012
0.0650313
0.0643524
0.0637503
0.0632049
0.00717212
0.00637072
0.0055881
0.00478463
0.00392219
0.00301437
0.00207597
0.00111893
0.000155627
-0.000801195
-0.00173889
-0.00264525
-0.00350859
-0.00431779
-0.00506253
-0.00573334
-0.00632159
-0.00681953
-0.00722031
-0.00751792
-0.00770725
-0.007784
-0.00774463
-0.00758644
-0.00730741
-0.00690627
-0.00638243
-0.00573594
-0.00496739
-0.00407797
-0.00306951
-0.00194428
-0.000705053
0.000644955
0.00210213
0.00366247
0.00532153
0.00707438
0.00891578
0.0108402
0.0128419
0.0149149
0.0170528
0.0192489
0.0214965
0.0237884
0.0261174
0.0284761
0.0308571
0.0332528
0.0356555
0.0380572
0.04045
0.0428262
0.0451779
0.0474973
0.0497769
0.0520088
0.0541855
0.0562996
0.0583439
0.0603117
0.0621963
0.0639912
0.0656904
0.0672881
0.0687791
0.0701586
0.0714223
0.0725663
0.0735873
0.0744826
0.0752501
0.0758884
0.0763969
0.0767757
0.0770257
0.0771485
0.0771466
0.0770233
0.0767829
0.0764305
0.0759723
0.0754155
0.0747679
0.0740387
0.0732375
0.072375
0.0714625
0.0705122
0.0695366
0.068549
0.0675629
0.0665918
0.0656488
0.0647466
0.0639001
0.0631235
0.0623843
0.0616471
0.00881217
0.00780865
0.00687739
0.00596376
0.00501153
0.00403271
0.00304077
0.0020452
0.00105619
8.43981e-05
-0.00085946
-0.00176489
-0.00262179
-0.00342046
-0.00415189
-0.0048077
-0.00538018
-0.00586245
-0.00624842
-0.00653268
-0.00671063
-0.00677839
-0.00673279
-0.00657139
-0.00629245
-0.00589487
-0.00537818
-0.00474245
-0.00398833
-0.00311704
-0.00213039
-0.0010306
0.000179668
0.00149734
0.00291888
0.0044404
0.00605761
0.00776574
0.00955975
0.0114343
0.0133839
0.0154027
0.0174845
0.0196229
0.0218113
0.0240429
0.0263106
0.0286073
0.0309258
0.0332587
0.0355986
0.0379377
0.0402684
0.0425831
0.0448742
0.0471343
0.0493558
0.0515313
0.0536533
0.0557147
0.0577085
0.0596282
0.0614672
0.0632193
0.0648786
0.0664394
0.0678967
0.0692458
0.0704824
0.0716028
0.0726039
0.0734827
0.0742373
0.0748663
0.0753689
0.0757452
0.0759959
0.0761226
0.0761274
0.0760133
0.0757843
0.0754451
0.0750013
0.0744595
0.073827
0.0731118
0.072323
0.0714699
0.0705629
0.0696125
0.0686301
0.0676271
0.0666152
0.0656061
0.0646106
0.0636392
0.0627056
0.0618222
0.060939
0.0600061
0.010491
0.00928546
0.00820222
0.00717252
0.00612285
0.00506408
0.00400871
0.00296421
0.00193875
0.000941171
-1.95144e-05
-0.000934348
-0.00179466
-0.00259214
-0.00331892
-0.00396767
-0.00453162
-0.00500473
-0.0053816
-0.00565746
-0.00582821
-0.00589044
-0.00584134
-0.00567879
-0.00540131
-0.00500799
-0.00449848
-0.00387297
-0.00313219
-0.00227741
-0.00131044
-0.000233414
0.000951062
0.00223996
0.00362984
0.00511691
0.006697
0.0083655
0.0101175
0.0119479
0.0138514
0.0158223
0.0178545
0.0199418
0.022078
0.0242562
0.0264698
0.0287118
0.0309752
0.0332529
0.0355374
0.0378215
0.0400976
0.0423584
0.0445965
0.0468046
0.0489754
0.0511016
0.0531759
0.0551915
0.0571415
0.0590194
0.060819
0.0625341
0.0641589
0.0656879
0.0671161
0.0684389
0.0696523
0.0707524
0.071736
0.0726005
0.0733437
0.0739641
0.074461
0.0748343
0.0750845
0.0752129
0.0752216
0.0751131
0.0748911
0.0745598
0.0741244
0.0735907
0.0729654
0.072256
0.0714703
0.0706169
0.0697048
0.0687436
0.0677432
0.0667134
0.0656646
0.0646064
0.063548
0.0624979
0.061469
0.0604723
0.0594411
0.0583119
0.0121823
0.0107767
0.00953998
0.00839027
0.00723757
0.00609192
0.00496519
0.0038632
0.0027923
0.00175979
0.000773194
-0.000159968
-0.00103235
-0.00183682
-0.00256659
-0.00321534
-0.00377724
-0.00424703
-0.00461995
-0.00489185
-0.00505919
-0.00511898
-0.00506883
-0.00490695
-0.00463212
-0.00424362
-0.00374126
-0.00312539
-0.00239686
-0.00155697
-0.000607505
0.000449387
0.00161112
0.00287472
0.00423681
0.00569368
0.00724124
0.00887505
0.0105904
0.0123822
0.0142454
0.0161743
0.0181632
0.020206
0.0222965
0.0244283
0.0265948
0.0287892
0.0310047
0.0332343
0.0354709
0.0377073
0.0399362
0.0421504
0.0443428
0.0465061
0.0486334
0.0507172
0.0527508
0.0547271
0.0566397
0.0584821
0.0602482
0.0619319
0.0635275
0.0650297
0.0664334
0.0677342
0.0689278
0.0700108
0.0709797
0.071832
0.0725653
0.0731781
0.0736696
0.0740394
0.074288
0.0744165
0.0744266
0.0743206
0.0741016
0.0737735
0.073341
0.0728093
0.0721845
0.0714732
0.0706825
0.06982
0.0688939
0.0679124
0.0668842
0.0658181
0.0647227
0.0636064
0.0624767
0.0613404
0.0602099
0.0590955
0.0579144
0.0565901
0.0138635
0.0122607
0.0108705
0.00959826
0.00833845
0.00710062
0.00589629
0.00472977
0.00360598
0.00253088
0.00151063
0.000551453
-0.000340444
-0.00115902
-0.00189851
-0.00255354
-0.00311912
-0.00359071
-0.00396425
-0.00423619
-0.00440347
-0.00446358
-0.00441455
-0.0042549
-0.00398367
-0.00360039
-0.00310507
-0.00249821
-0.00178075
-0.000954068
-1.99743e-05
0.00101937
0.00216139
0.0034031
0.00474117
0.00617198
0.00769156
0.00929552
0.0109793
0.0127379
0.0145664
0.0164593
0.018411
0.0204156
0.0224671
0.0245591
0.0266852
0.0288389
0.0310135
0.0332021
0.0353979
0.0375937
0.0397826
0.0419574
0.0441111
0.0462368
0.0483274
0.0503758
0.0523752
0.0543188
0.0562003
0.0580133
0.0597517
0.0614096
0.0629812
0.0644614
0.0658451
0.0671279
0.0683056
0.0693745
0.0703315
0.0711737
0.0718987
0.072505
0.0729915
0.0733578
0.0736041
0.0737312
0.0737406
0.0736342
0.0734148
0.0730858
0.0726513
0.0721162
0.0714858
0.070766
0.0699632
0.0690841
0.0681359
0.0671259
0.0660618
0.064951
0.063801
0.062619
0.0614112
0.0601828
0.058946
0.0577109
0.0563793
0.0548626
0.0155147
0.0137183
0.0121754
0.0107793
0.0094096
0.0080756
0.00678872
0.00555203
0.00436921
0.00324506
0.00218457
0.00119286
0.000275061
-0.000563786
-0.00131886
-0.00198563
-0.0025599
-0.00303781
-0.00341598
-0.00369142
-0.0038616
-0.00392446
-0.00387839
-0.00372226
-0.00345541
-0.00307759
-0.00258903
-0.00199042
-0.00128281
-0.000467621
0.000453291
0.00147768
0.00260293
0.0038261
0.00514392
0.00655278
0.00804878
0.00962762
0.0112848
0.0130156
0.014815
0.0166776
0.0185981
0.0205707
0.0225894
0.0246481
0.0267406
0.0288603
0.0310007
0.0331553
0.0353172
0.0374796
0.0396354
0.0417778
0.0438998
0.0459946
0.0480553
0.0500749
0.0520467
0.0539641
0.0558207
0.0576102
0.0593266
0.0609641
0.062517
0.0639799
0.0653481
0.0666169
0.0677823
0.0688405
0.0697883
0.0706226
0.0713412
0.0719422
0.0724244
0.0727872
0.0730307
0.0731553
0.0731622
0.0730531
0.0728303
0.0724968
0.0720563
0.071513
0.0708716
0.0701375
0.0693163
0.068414
0.0674369
0.0663914
0.0652841
0.0641217
0.0629104
0.0616565
0.0603649
0.0590399
0.0576935
0.0563357
0.054854
0.0531481
0.0171185
0.0151325
0.0134383
0.0119178
0.0104363
0.00900312
0.00762981
0.00631848
0.00507164
0.00389308
0.00278684
0.00175706
0.000807911
-5.65103e-05
-0.00083222
-0.00151546
-0.00210274
-0.00259092
-0.00297721
-0.00325917
-0.00343477
-0.00350239
-0.00346082
-0.00330925
-0.00304728
-0.00267499
-0.00219283
-0.00160161
-0.000902462
-9.69623e-05
0.00081293
0.00182493
0.0029364
0.00414441
0.00544566
0.0068366
0.00831336
0.00987175
0.0115073
0.0132154
0.0149911
0.0168292
0.0187243
0.0206709
0.0226631
0.0246949
0.0267601
0.0288525
0.0309656
0.0330929
0.0352278
0.0373634
0.039493
0.0416098
0.043707
0.0457777
0.0478152
0.0498125
0.0517632
0.0536605
0.0554982
0.0572702
0.0589703
0.0605927
0.0621319
0.0635825
0.0649395
0.0661985
0.0673553
0.0684061
0.0693474
0.0701763
0.0708903
0.0714874
0.0719662
0.072326
0.0725663
0.0726877
0.0726907
0.0725769
0.0723483
0.0720073
0.0715571
0.0710015
0.0703446
0.0695912
0.0687462
0.0678149
0.0668029
0.0657159
0.0645594
0.0633394
0.0620612
0.0607302
0.0593504
0.0579251
0.0564668
0.0549852
0.0533544
0.0514627
0.0186599
0.0164881
0.0146444
0.0129994
0.0114049
0.00987043
0.00840774
0.00701813
0.00570319
0.00446583
0.00330927
0.00223675
0.0012516
0.000357091
-0.00044353
-0.00114724
-0.00175128
-0.00225311
-0.00265047
-0.0029415
-0.00312467
-0.00319874
-0.00316286
-0.00301659
-0.00275987
-0.00239301
-0.00191664
-0.00133175
-0.000639634
0.000157999
0.00105911
0.00206135
0.00316204
0.00435821
0.00564658
0.00702359
0.00848545
0.010028
0.0116468
0.0133373
0.0150946
0.0169137
0.0187893
0.0207158
0.0226876
0.0246987
0.0267431
0.0288147
0.0309069
0.0330136
0.0351281
0.0372438
0.039354
0.0414519
0.0435308
0.0455841
0.0476049
0.0495865
0.0515223
0.0534058
0.0552307
0.0569908
0.0586802
0.060293
0.0618235
0.0632665
0.0646169
0.0658702
0.0670221
0.0680688
0.0690067
0.0698327
0.0705442
0.071139
0.0716155
0.0719727
0.0722101
0.0723277
0.072326
0.0722061
0.0719695
0.0716184
0.0711555
0.0705841
0.0699078
0.0691308
0.0682574
0.0672923
0.0662403
0.0651064
0.0638957
0.062613
0.0612633
0.0598509
0.0583793
0.0568511
0.0552789
0.053673
0.0518943
0.0498202
0.0201254
0.0177716
0.0157801
0.014011
0.0123028
0.0106655
0.0091112
0.00764043
0.00625412
0.00495441
0.00374372
0.00262454
0.0015995
0.000671155
-0.000158038
-0.000885665
-0.00150957
-0.00202784
-0.0024388
-0.00274105
-0.00293348
-0.00301529
-0.00298603
-0.0028456
-0.00259421
-0.00223242
-0.0017611
-0.00118138
-0.000494761
0.000296946
0.00119159
0.00218675
0.00327966
0.00446734
0.0057465
0.00711359
0.00856481
0.010096
0.0117029
0.0133808
0.0151251
0.0169307
0.0187923
0.0207047
0.0226621
0.0246587
0.0266886
0.0287456
0.0308235
0.0329161
0.0350169
0.0371192
0.0392166
0.0413022
0.0433696
0.0454119
0.0474225
0.0493947
0.051322
0.0531977
0.0550158
0.0567699
0.0584541
0.0600626
0.0615896
0.0630298
0.0643781
0.0656299
0.0667808
0.0678269
0.0687644
0.0695902
0.0703014
0.0708957
0.0713712
0.0717268
0.0719616
0.0720754
0.0720683
0.0719412
0.0716951
0.0713319
0.0708538
0.0702637
0.0695647
0.0687604
0.0678546
0.0668515
0.0657552
0.0645701
0.0633007
0.0619512
0.060526
0.0590288
0.0574624
0.0558291
0.0541418
0.0524115
0.0504861
0.0482327
0.0215031
0.0189706
0.0168331
0.0149404
0.0131183
0.0113771
0.00972944
0.00817531
0.00671499
0.00534998
0.00408207
0.00291307
0.00184492
0.000879543
1.87922e-05
-0.000735568
-0.00138199
-0.00191906
-0.00234563
-0.00266079
-0.00286384
-0.00295439
-0.00293237
-0.00279799
-0.00255179
-0.00219454
-0.00172733
-0.00115149
-0.000468687
0.000319121
0.00120968
0.00220047
0.00328867
0.00447124
0.00574487
0.007106
0.00855083
0.0100753
0.0116749
0.0133453
0.0150817
0.0168792
0.0187326
0.0206365
0.0225855
0.0245736
0.0265952
0.028644
0.030714
0.032799
0.0348925
0.0369881
0.0390791
0.0411591
0.0432214
0.0452592
0.0472661
0.0492352
0.0511601
0.0530343
0.0548514
0.0566053
0.05829
0.0598995
0.0614281
0.0628704
0.0642212
0.0654757
0.0666295
0.0676786
0.0686191
0.0694475
0.0701609
0.0707567
0.0712328
0.0715879
0.0718208
0.071931
0.0719184
0.0717834
0.0715267
0.0711498
0.0706546
0.0700434
0.0693189
0.0684843
0.0675428
0.0664981
0.0653538
0.0641139
0.0627821
0.0613624
0.0598583
0.0582735
0.05661
0.0548698
0.0530665
0.0512116
0.0491408
0.0467109
0.0227821
0.0200739
0.0177922
0.0157766
0.0138404
0.0119946
0.0102523
0.00861307
0.00707666
0.005644
0.00431631
0.00309486
0.001981
0.000976028
8.12256e-05
-0.000702209
-0.00137323
-0.00193098
-0.00237478
-0.00270414
-0.0029188
-0.00301877
-0.00300431
-0.00287598
-0.00263457
-0.00228112
-0.00181689
-0.00124348
-0.000562702
0.000223341
0.00111229
0.00210151
0.00318811
0.00436897
0.00564078
0.00699994
0.00844263
0.00996475
0.011562
0.0132298
0.0149635
0.0167583
0.0186089
0.0205102
0.0224565
0.0244423
0.0264616
0.0285085
0.0305769
0.0326606
0.0347533
0.0368486
0.0389399
0.0410207
0.0430843
0.0451242
0.0471336
0.049106
0.0510348
0.0529134
0.0547355
0.056495
0.0581857
0.0598017
0.0613371
0.0627864
0.0641443
0.0654061
0.0665669
0.0676228
0.0685695
0.0694036
0.0701218
0.0707214
0.0712001
0.0715562
0.0717883
0.0718955
0.0718775
0.0717342
0.0714662
0.0710746
0.0705607
0.0699266
0.0691745
0.0683071
0.0673272
0.066238
0.0650427
0.0637447
0.0623475
0.0608545
0.0592689
0.057594
0.0558315
0.0539829
0.0520629
0.0500834
0.0478682
0.0452642
0.0239525
0.0210713
0.0186469
0.016509
0.0144587
0.0125078
0.01067
0.00894439
0.00733018
0.00582799
0.00443854
0.00316255
0.00200082
0.000954166
2.33383e-05
-0.000791006
-0.0014883
-0.0020682
-0.00253043
-0.00287491
-0.00310183
-0.00321157
-0.00320474
-0.00308217
-0.00284491
-0.00249428
-0.00203177
-0.00145918
-0.000778496
8.05639e-06
0.000897965
0.00188849
0.00297664
0.00415926
0.00543299
0.00679418
0.00823899
0.00976329
0.0113628
0.013033
0.0147692
0.0165666
0.01842
0.0203242
0.0222738
0.0242631
0.0262863
0.0283374
0.0304105
0.0324993
0.0345976
0.0366991
0.0387971
0.0408851
0.0429566
0.0450048
0.0470233
0.0490052
0.050944
0.0528332
0.0546663
0.0564372
0.0581396
0.0597675
0.061315
0.0627763
0.0641462
0.0654196
0.0665918
0.0676583
0.068615
0.0694581
0.070184
0.0707899
0.0712733
0.0716321
0.0718646
0.0719698
0.0719469
0.0717956
0.0715161
0.071109
0.0705755
0.0699171
0.0691356
0.0682334
0.0672129
0.0660767
0.0648279
0.0634694
0.0620042
0.0604354
0.058766
0.0569989
0.0551357
0.0531777
0.0511402
0.049036
0.0466772
0.0439009
0.0250052
0.0219531
0.0193874
0.0171277
0.0149636
0.0129073
0.0109732
0.0091601
0.00746685
0.00589367
0.00444085
0.00310865
0.0018974
0.000807444
-0.00016096
-0.00100763
-0.00173249
-0.00233557
-0.00281704
-0.00317725
-0.00341678
-0.00353635
-0.00353689
-0.00341952
-0.00318556
-0.00283659
-0.00237435
-0.0018008
-0.0011181
-0.000328662
0.000564878
0.00155966
0.00265262
0.00384053
0.00511995
0.0064872
0.00793839
0.00946939
0.0110759
0.0127534
0.0144972
0.0163025
0.0181642
0.0200771
0.0220358
0.0240345
0.0260676
0.0281291
0.030213
0.0323133
0.0344236
0.0365376
0.0386487
0.0407504
0.0428362
0.0448992
0.046933
0.0489308
0.0508859
0.0527918
0.0546419
0.0564301
0.05815
0.0597953
0.0613602
0.0628388
0.0642256
0.0655154
0.0667033
0.0677846
0.068755
0.0696104
0.0703473
0.0709623
0.0714528
0.0718164
0.0720511
0.0721555
0.0721286
0.0719698
0.0716788
0.0712561
0.0707023
0.0700187
0.0692067
0.0682682
0.0672053
0.0660203
0.0647159
0.0632947
0.0617594
0.0601127
0.0583576
0.0564967
0.0545313
0.0524627
0.050307
0.0480779
0.0455759
0.0426285
0.0259316
0.0227104
0.0200044
0.0176235
0.0153456
0.0131837
0.0111527
0.00925139
0.00747815
0.00583283
0.00431538
0.0029257
0.00166366
0.000529173
-0.000477977
-0.00135801
-0.00211128
-0.00273821
-0.00323942
-0.00361566
-0.00386783
-0.00399699
-0.00400436
-0.00389137
-0.00365963
-0.00331097
-0.00284733
-0.00227085
-0.00158392
-0.000789089
0.000110866
0.00111298
0.00221409
0.00341088
0.00469983
0.00607721
0.00753909
0.00908133
0.0106996
0.0123894
0.014146
0.0159645
0.01784
0.0197671
0.0217406
0.0237547
0.0258037
0.0278817
0.0299828
0.0321008
0.0342294
0.0363623
0.038493
0.0406148
0.0427212
0.0448055
0.046861
0.0488809
0.0508586
0.0527874
0.0546607
0.0564721
0.0582152
0.0598837
0.0614714
0.0629725
0.0643813
0.0656923
0.0669005
0.068001
0.0689891
0.0698607
0.0706119
0.0712391
0.0717394
0.0721101
0.072349
0.0724543
0.0724246
0.0722592
0.0719573
0.0715191
0.070945
0.0702356
0.0693922
0.0684164
0.0673098
0.0660746
0.064713
0.0632273
0.0616201
0.0598939
0.0580514
0.0560951
0.0540262
0.0518459
0.0495713
0.0472169
0.0445719
0.0414541
0.0267237
0.0233346
0.020489
0.0179873
0.0155958
0.013328
0.0111998
0.00920965
0.00735563
0.00563732
0.00405434
0.00260622
0.00129246
0.000112526
-0.000934159
-0.00184824
-0.00263042
-0.00328158
-0.00380271
-0.00419493
-0.00445944
-0.00459764
-0.00461106
-0.00450142
-0.0042706
-0.00392066
-0.00345375
-0.00287224
-0.00217869
-0.00137581
-0.000466513
0.000546125
0.00165881
0.00286814
0.00417052
0.00556217
0.00703911
0.00859717
0.010232
0.011939
0.0137134
0.0155505
0.0174453
0.0193924
0.0213864
0.0234218
0.0254927
0.0275933
0.0297177
0.0318597
0.034013
0.0361712
0.0383278
0.0404763
0.0426098
0.0447218
0.0468054
0.0488539
0.0508604
0.0528183
0.0547209
0.0565615
0.0583338
0.0600312
0.0616475
0.0631766
0.0646126
0.0659499
0.0671831
0.0683072
0.0693174
0.0702091
0.0709783
0.0716211
0.0721342
0.0725147
0.07276
0.0728682
0.0728374
0.0726666
0.0723548
0.0719017
0.0713073
0.0705721
0.069697
0.0686832
0.0675321
0.0662456
0.0648255
0.063274
0.0615934
0.0597862
0.0578548
0.0558017
0.0536281
0.051335
0.0489406
0.0464604
0.0436721
0.0403841
0.0273735
0.0238175
0.0208329
0.0182105
0.0157053
0.0133316
0.0111059
0.00902636
0.00709099
0.00529907
0.00364989
0.00214267
0.000776525
-0.000449426
-0.00153611
-0.00248456
-0.00329589
-0.00397135
-0.00451228
-0.0049201
-0.00519638
-0.00534282
-0.00536126
-0.00525369
-0.00502224
-0.00466922
-0.00419701
-0.00360818
-0.00290546
-0.00209173
-0.00117002
-0.000143566
0.000984217
0.00220984
0.00352964
0.00493978
0.00643621
0.0080147
0.00967085
0.0114001
0.0131976
0.0150586
0.0169781
0.0189508
0.0209711
0.0230336
0.0251325
0.027262
0.0294159
0.0315882
0.0337725
0.0359624
0.0381514
0.0403328
0.0425
0.0446461
0.0467643
0.0488478
0.0508896
0.0528829
0.054821
0.0566971
0.0585046
0.0602368
0.0618874
0.0634501
0.0649187
0.0662874
0.0675507
0.0687032
0.0697399
0.070656
0.0714471
0.0721091
0.0726384
0.0730317
0.0732862
0.0733995
0.0733697
0.0731951
0.0728746
0.0724075
0.0717935
0.0710328
0.070126
0.069074
0.0678779
0.0665392
0.0650597
0.0634413
0.0616862
0.0597967
0.0577751
0.0556239
0.0533443
0.0509374
0.0484223
0.0458154
0.0428832
0.0394244
0.0278734
0.0241509
0.0210275
0.0182845
0.0156657
0.0131858
0.0108623
0.00869311
0.00667599
0.00481
0.00309417
0.0015274
0.000108497
-0.00116374
-0.00229062
-0.00327351
-0.00411393
-0.00481345
-0.00537372
-0.00579652
-0.00608373
-0.00623735
-0.00625951
-0.00615249
-0.00591866
-0.00556058
-0.00508084
-0.00448222
-0.00376761
-0.00294005
-0.00200275
-0.000959074
0.000187443
0.00143323
0.00277454
0.00420744
0.00572784
0.00733143
0.00901377
0.0107702
0.0125961
0.0144864
0.0164361
0.01844
0.0204925
0.0225881
0.024721
0.0268854
0.029075
0.0312839
0.0335056
0.0357336
0.0379615
0.0401825
0.0423898
0.0445766
0.0467359
0.0488608
0.0509444
0.0529796
0.0549596
0.0568774
0.0587262
0.0604994
0.0621902
0.0637922
0.065299
0.0667047
0.0680032
0.0691892
0.0702572
0.0712022
0.0720194
0.0727045
0.0732536
0.073663
0.0739297
0.0740509
0.0740243
0.0738479
0.0735204
0.0730406
0.0724081
0.0716226
0.0706845
0.0695943
0.0683529
0.0669617
0.0654221
0.0637361
0.0619054
0.0599325
0.0578196
0.0555691
0.0531823
0.0506604
0.0480234
0.0452888
0.0422118
0.0385812
0.0282161
0.024327
0.0210649
0.0182012
0.0154685
0.0128822
0.0104607
0.00820153
0.00610234
0.00416198
0.00237923
0.000752694
-0.000719087
-0.00203765
-0.00320466
-0.00422182
-0.00509097
-0.005814
-0.00639291
-0.00682979
-0.00712682
-0.00728631
-0.00731067
-0.00720244
-0.00696427
-0.00659893
-0.00610925
-0.00549816
-0.00476878
-0.00392429
-0.00296808
-0.00190364
-0.000734632
0.000535287
0.00190228
0.00336231
0.00491121
0.00654464
0.00825811
0.0100469
0.0119063
0.0138313
0.0158168
0.0178576
0.0199482
0.0220828
0.0242558
0.0264611
0.0286928
0.0309446
0.03321
0.0354827
0.0377559
0.040023
0.042277
0.0445111
0.0467182
0.0488912
0.0510231
0.0531068
0.0551351
0.057101
0.0589976
0.0608179
0.062555
0.0642023
0.0657532
0.0672014
0.0685407
0.0697654
0.0708697
0.0718484
0.0726963
0.0734088
0.0739816
0.0744108
0.074693
0.0748251
0.0748044
0.0746287
0.0742962
0.0738055
0.0731558
0.0723465
0.0713778
0.0702499
0.0689634
0.0675195
0.0659196
0.0641652
0.0622583
0.0602009
0.0579956
0.0556447
0.0531494
0.0505112
0.047751
0.0448876
0.0416642
0.0378604
0.028394
0.0243379
0.0209367
0.0179522
0.0151053
0.0124125
0.00989253
0.0075432
0.00536173
0.00334682
0.00149704
-0.000189274
-0.00171386
-0.00307859
-0.00428542
-0.00533639
-0.00623365
-0.00697941
-0.00757599
-0.00802579
-0.00833129
-0.00849509
-0.00851989
-0.0084085
-0.00816381
-0.00778882
-0.00728656
-0.00666018
-0.00591296
-0.0050483
-0.00406971
-0.00298084
-0.00178545
-0.000487324
0.000909607
0.00240122
0.00398326
0.00565134
0.00740092
0.00922724
0.0111254
0.0130906
0.0151175
0.0172009
0.0193353
0.021515
0.0237341
0.0259867
0.0282666
0.0305677
0.0328834
0.0352072
0.0375324
0.0398521
0.0421595
0.0444476
0.0467091
0.0489369
0.0511239
0.0532626
0.0553459
0.0573666
0.0593174
0.0611912
0.062981
0.0646798
0.0662808
0.0677774
0.0691633
0.0704322
0.0715781
0.0725955
0.073479
0.0742234
0.0748243
0.0752774
0.0755789
0.0757253
0.0757137
0.0755413
0.0752062
0.0747067
0.0740416
0.07321
0.0722117
0.0710468
0.0697157
0.0682193
0.0665588
0.0647357
0.0627519
0.0606094
0.0583106
0.0558581
0.0532531
0.0504972
0.0476125
0.0446185
0.0412471
0.037268
0.0283995
0.0241759
0.020635
0.0175292
0.0145678
0.011768
0.00914941
0.00670965
0.00444575
0.00235624
0.000439465
-0.00130648
-0.00288363
-0.00429414
-0.00554026
-0.00662434
-0.00754885
-0.00831631
-0.00892935
-0.00939067
-0.00970304
-0.00986937
-0.00989263
-0.00977589
-0.00952227
-0.00913503
-0.00861738
-0.00797269
-0.00720444
-0.0063162
-0.00531162
-0.00419449
-0.00296872
-0.00163819
-0.000206954
0.00132078
0.0029407
0.00464832
0.00643904
0.00830806
0.0102504
0.0122612
0.0143352
0.016467
0.0186511
0.0208818
0.0231532
0.0254592
0.0277938
0.0301506
0.032523
0.0349045
0.0372883
0.0396675
0.042035
0.0443838
0.0467066
0.0489961
0.0512448
0.0534455
0.0555905
0.0576727
0.0596844
0.0616184
0.0634674
0.0652241
0.0668815
0.0684328
0.0698711
0.07119
0.0723833
0.0734449
0.074369
0.0751504
0.0757841
0.0762654