/*--------------------------------*- C++ -*----------------------------------*\
| =========                 |                                                 |
| \\      /  F ield         | OpenFOAM: The Open Source CFD Toolbox           |
|  \\    /   O peration     | Version:  2212                                  |
|   \\  /    A nd           | Website:  www.openfoam.com                      |
|    \\/     M anipulation  |                                                 |
\*---------------------------------------------------------------------------*/
FoamFile
{
    version     2.0;
    format      ascii;
    arch        "LSB;label=32;scalar=64";
    class       surfaceScalarField;
    location    "0.0645";
    object      phi;
}
// * * * * * * * * * * * * * * * * * * * * * * * * * * * * * * * * * * * * * //

dimensions      [0 3 -1 0 0 0 0];

oriented        oriented;

internalField   nonuniform List<scalar> 
19800
(
6.82517e-11
-6.80593e-11
2.3149e-10
-1.63233e-10
4.11874e-10
-1.80377e-10
5.5234e-10
-1.40463e-10
6.21244e-10
-6.89006e-11
6.01087e-10
2.01592e-11
4.83167e-10
1.17923e-10
2.64335e-10
2.18844e-10
-5.50654e-11
3.19386e-10
-4.72358e-10
4.17296e-10
-9.83443e-10
5.11075e-10
-1.58321e-09
5.99753e-10
-2.26589e-09
6.82682e-10
-3.02533e-09
7.59426e-10
-3.85506e-09
8.29727e-10
-4.7485e-09
8.93436e-10
-5.69897e-09
9.50479e-10
-6.69983e-09
1.00086e-09
-7.74444e-09
1.04463e-09
-8.8263e-09
1.08186e-09
-9.93898e-09
1.11267e-09
-1.10762e-08
1.13721e-09
-1.22318e-08
1.15561e-09
-1.33999e-08
1.16805e-09
-1.45746e-08
1.17471e-09
-1.57503e-08
1.17575e-09
-1.69217e-08
1.17138e-09
-1.80835e-08
1.16178e-09
-1.92306e-08
1.14716e-09
-2.03583e-08
1.1277e-09
-2.1462e-08
1.10362e-09
-2.25371e-08
1.07514e-09
-2.35796e-08
1.04244e-09
-2.45853e-08
1.00576e-09
-2.55506e-08
9.65288e-10
-2.64718e-08
9.21229e-10
-2.73456e-08
8.73779e-10
-2.81687e-08
8.23153e-10
-2.89383e-08
7.69568e-10
-2.96516e-08
7.13232e-10
-3.03059e-08
6.54356e-10
-3.08991e-08
5.93149e-10
-3.14289e-08
5.29822e-10
-3.18935e-08
4.64596e-10
-3.22911e-08
3.97685e-10
-3.26205e-08
3.29302e-10
-3.28801e-08
2.59678e-10
-3.30692e-08
1.89036e-10
-3.31868e-08
1.17599e-10
-3.32324e-08
4.56041e-11
-3.32056e-08
-2.67217e-11
-3.31065e-08
-9.91365e-11
-3.29351e-08
-1.71385e-10
-3.26919e-08
-2.43226e-10
-3.23775e-08
-3.14421e-10
-3.19928e-08
-3.84716e-10
-3.15389e-08
-4.53855e-10
-3.10173e-08
-5.21581e-10
-3.04297e-08
-5.87621e-10
-2.9778e-08
-6.51708e-10
-2.90644e-08
-7.13586e-10
-2.82914e-08
-7.72993e-10
-2.74618e-08
-8.29654e-10
-2.65785e-08
-8.83301e-10
-2.56448e-08
-9.33671e-10
-2.46643e-08
-9.80491e-10
-2.36408e-08
-1.02349e-09
-2.25784e-08
-1.06242e-09
-2.14814e-08
-1.09702e-09
-2.03544e-08
-1.12703e-09
-1.92021e-08
-1.15221e-09
-1.80298e-08
-1.17233e-09
-1.68427e-08
-1.18715e-09
-1.56462e-08
-1.19644e-09
-1.44462e-08
-1.20001e-09
-1.32485e-08
-1.19766e-09
-1.20593e-08
-1.18923e-09
-1.08847e-08
-1.17454e-09
-9.7313e-09
-1.15345e-09
-8.60545e-09
-1.12584e-09
-7.51384e-09
-1.09161e-09
-6.46314e-09
-1.0507e-09
-5.46007e-09
-1.00306e-09
-4.51136e-09
-9.4871e-10
-3.62368e-09
-8.8769e-10
-2.80358e-09
-8.20107e-10
-2.05744e-09
-7.46134e-10
-1.39139e-09
-6.66043e-10
-8.11168e-10
-5.80221e-10
-3.21958e-10
-4.89215e-10
7.18343e-11
-3.93796e-10
3.66913e-10
-2.95076e-10
5.61583e-10
-1.94662e-10
6.56527e-10
-9.49403e-11
6.56071e-10
4.52224e-13
5.70108e-10
8.59636e-11
4.17315e-10
1.52797e-10
2.30402e-10
1.86914e-10
6.51804e-11
1.65223e-10
6.51805e-11
1.66192e-10
-2.34264e-10
4.52732e-10
-4.49809e-10
7.24882e-10
-4.52534e-10
8.85872e-10
-3.01466e-10
8.67789e-10
-5.08296e-11
6.27383e-10
2.6055e-10
1.39554e-10
6.05759e-10
-6.07823e-10
9.66226e-10
-1.61765e-09
1.32923e-09
-2.88631e-09
1.68596e-09
-4.40553e-09
2.03031e-09
-6.16381e-09
2.35803e-09
-8.14728e-09
2.66615e-09
-1.03405e-08
2.95263e-09
-1.27268e-08
3.21609e-09
-1.52891e-08
3.45566e-09
-1.80094e-08
3.67083e-09
-2.087e-08
3.86139e-09
-2.38526e-08
4.02732e-09
-2.69396e-08
4.1688e-09
-3.0113e-08
4.28613e-09
-3.33555e-08
4.37972e-09
-3.665e-08
4.45005e-09
-3.99796e-08
4.49769e-09
-4.33282e-08
4.52325e-09
-4.66798e-08
4.52736e-09
-5.00191e-08
4.5107e-09
-5.33314e-08
4.474e-09
-5.66022e-08
4.41799e-09
-5.98179e-08
4.34341e-09
-6.29653e-08
4.25102e-09
-6.60317e-08
4.14159e-09
-6.90052e-08
4.01592e-09
-7.18742e-08
3.87478e-09
-7.46279e-08
3.71898e-09
-7.7256e-08
3.54931e-09
-7.97488e-08
3.36655e-09
-8.20971e-08
3.1715e-09
-8.42925e-08
2.96499e-09
-8.63271e-08
2.74781e-09
-8.81936e-08
2.5208e-09
-8.98852e-08
2.28477e-09
-9.13959e-08
2.04056e-09
-9.27203e-08
1.789e-09
-9.38536e-08
1.53094e-09
-9.47915e-08
1.26723e-09
-9.55305e-08
9.98718e-10
-9.60678e-08
7.26302e-10
-9.64011e-08
4.50857e-10
-9.65287e-08
1.73282e-10
-9.64499e-08
-1.05504e-10
-9.61645e-08
-3.84576e-10
-9.56729e-08
-6.62993e-10
-9.49763e-08
-9.39793e-10
-9.40767e-08
-1.21402e-09
-9.29767e-08
-1.48472e-09
-9.16797e-08
-1.75088e-09
-9.01898e-08
-2.0115e-09
-8.85118e-08
-2.26559e-09
-8.66514e-08
-2.51211e-09
-8.4615e-08
-2.75005e-09
-8.24096e-08
-2.97838e-09
-8.00432e-08
-3.19607e-09
-7.75244e-08
-3.40209e-09
-7.48626e-08
-3.59542e-09
-7.20681e-08
-3.77505e-09
-6.91516e-08
-3.93998e-09
-6.61248e-08
-4.08919e-09
-6.30001e-08
-4.22173e-09
-5.97905e-08
-4.33663e-09
-5.65097e-08
-4.43299e-09
-5.31722e-08
-4.50989e-09
-4.97928e-08
-4.56649e-09
-4.63873e-08
-4.60199e-09
-4.29716e-08
-4.61562e-09
-3.95626e-08
-4.60668e-09
-3.61773e-08
-4.57454e-09
-3.28332e-08
-4.51864e-09
-2.95481e-08
-4.43849e-09
-2.63403e-08
-4.3337e-09
-2.32279e-08
-4.20397e-09
-2.02294e-08
-4.04915e-09
-1.73633e-08
-3.86922e-09
-1.46477e-08
-3.66432e-09
-1.21006e-08
-3.43481e-09
-9.7394e-09
-3.18128e-09
-7.5809e-09
-2.90463e-09
-5.64077e-09
-2.60617e-09
-3.9333e-09
-2.28769e-09
-2.47084e-09
-1.95167e-09
-1.26312e-09
-1.60151e-09
-3.16314e-10
-1.24188e-09
3.68304e-10
-8.7928e-10
7.96204e-10
-5.22837e-10
9.82177e-10
-1.85517e-10
9.5405e-10
1.14095e-10
7.5748e-10
3.49367e-10
4.61861e-10
4.82528e-10
1.65152e-10
4.61935e-10
2.30331e-10
1.81158e-10
-4.15414e-10
4.56072e-10
-7.24736e-10
6.57177e-10
-6.53644e-10
6.67407e-10
-3.11703e-10
4.01815e-10
2.14746e-10
-1.97405e-10
8.59782e-10
-1.16633e-09
1.57467e-09
-2.5242e-09
2.3241e-09
-4.27751e-09
3.08253e-09
-6.42311e-09
3.83154e-09
-8.95063e-09
4.55785e-09
-1.18445e-08
5.25184e-09
-1.50849e-08
5.90663e-09
-1.86496e-08
6.5173e-09
-2.25139e-08
7.08041e-09
-2.66519e-08
7.59365e-09
-3.10367e-08
8.05557e-09
-3.56407e-08
8.46537e-09
-4.04361e-08
8.82276e-09
-4.53952e-08
9.12789e-09
-5.04903e-08
9.3812e-09
-5.5694e-08
9.58341e-09
-6.09794e-08
9.73543e-09
-6.63201e-08
9.83837e-09
-7.16902e-08
9.89341e-09
-7.70648e-08
9.90188e-09
-8.24193e-08
9.86521e-09
-8.77301e-08
9.78487e-09
-9.29745e-08
9.66239e-09
-9.81305e-08
9.49939e-09
-1.03177e-07
9.2975e-09
-1.08094e-07
9.05837e-09
-1.12862e-07
8.78366e-09
-1.17462e-07
8.47509e-09
-1.21877e-07
8.13438e-09
-1.26091e-07
7.76326e-09
-1.30088e-07
7.36346e-09
-1.33853e-07
6.93674e-09
-1.37373e-07
6.48487e-09
-1.40635e-07
6.00964e-09
-1.43627e-07
5.51284e-09
-1.46339e-07
4.99626e-09
-1.4876e-07
4.46176e-09
-1.50882e-07
3.91116e-09
-1.52697e-07
3.34633e-09
-1.54199e-07
2.76915e-09
-1.55382e-07
2.1815e-09
-1.56241e-07
1.58533e-09
-1.56773e-07
9.82591e-10
-1.56975e-07
3.7525e-10
-1.56846e-07
-2.34682e-10
-1.56385e-07
-8.45162e-10
-1.55594e-07
-1.45413e-09
-1.54474e-07
-2.05951e-09
-1.53029e-07
-2.65917e-09
-1.51263e-07
-3.25097e-09
-1.49181e-07
-3.83277e-09
-1.4679e-07
-4.40237e-09
-1.44098e-07
-4.95755e-09
-1.41114e-07
-5.4961e-09
-1.37848e-07
-6.01581e-09
-1.34312e-07
-6.51441e-09
-1.30519e-07
-6.98966e-09
-1.26481e-07
-7.43935e-09
-1.22216e-07
-7.86125e-09
-1.17737e-07
-8.25314e-09
-1.13065e-07
-8.61286e-09
-1.08216e-07
-8.93826e-09
-1.0321e-07
-9.22725e-09
-9.80689e-08
-9.47777e-09
-9.2814e-08
-9.68784e-09
-8.74683e-08
-9.85556e-09
-8.20557e-08
-9.97913e-09
-7.66008e-08
-1.00568e-08
-7.11294e-08
-1.0087e-08
-6.56677e-08
-1.00683e-08
-6.02429e-08
-9.9994e-09
-5.48824e-08
-9.87908e-09
-4.96145e-08
-9.70642e-09
-4.44675e-08
-9.4807e-09
-3.94701e-08
-9.20142e-09
-3.46508e-08
-8.86839e-09
-3.00383e-08
-8.48174e-09
-2.56606e-08
-8.04201e-09
-2.15452e-08
-7.55019e-09
-1.77186e-08
-7.00787e-09
-1.42059e-08
-6.41734e-09
-1.10304e-08
-5.78177e-09
-8.21259e-09
-5.10546e-09
-5.77006e-09
-4.39421e-09
-3.71577e-09
-3.65579e-09
-2.05704e-09
-2.90062e-09
-7.93619e-10
-2.1427e-09
8.45984e-11
-1.40105e-09
6.00611e-10
-7.0153e-10
7.94149e-10
-7.94545e-11
7.26329e-10
4.1718e-10
4.84571e-10
7.24285e-10
1.87442e-10
7.59064e-10
4.17771e-10
1.4286e-10
-5.58265e-10
3.09205e-10
-8.91091e-10
3.23389e-10
-6.67827e-10
6.02974e-11
-4.86149e-11
-5.71791e-10
8.46863e-10
-1.63729e-09
1.92526e-09
-3.17784e-09
3.11525e-09
-5.21688e-09
4.36313e-09
-7.76316e-09
5.6288e-09
-1.08139e-08
6.88233e-09
-1.43575e-08
8.10144e-09
-1.83753e-08
9.2696e-09
-2.28433e-08
1.03746e-08
-2.77336e-08
1.14076e-08
-3.30153e-08
1.23621e-08
-3.86554e-08
1.32337e-08
-4.46191e-08
1.40193e-08
-5.0871e-08
1.47173e-08
-5.73749e-08
1.53267e-08
-6.40944e-08
1.58474e-08
-7.09931e-08
1.62799e-08
-7.80348e-08
1.66252e-08
-8.5184e-08
1.68846e-08
-9.24055e-08
1.70599e-08
-9.96651e-08
1.71529e-08
-1.06929e-07
1.71658e-08
-1.14165e-07
1.7101e-08
-1.21341e-07
1.69609e-08
-1.28426e-07
1.6748e-08
-1.35392e-07
1.64651e-08
-1.4221e-07
1.61149e-08
-1.48852e-07
1.57003e-08
-1.55292e-07
1.5224e-08
-1.61506e-07
1.46891e-08
-1.6747e-07
1.40984e-08
-1.73162e-07
1.3455e-08
-1.7856e-07
1.27618e-08
-1.83645e-07
1.20219e-08
-1.88399e-07
1.12384e-08
-1.92803e-07
1.04144e-08
-1.96843e-07
9.55289e-09
-2.00504e-07
8.65712e-09
-2.03773e-07
7.73025e-09
-2.06637e-07
6.77548e-09
-2.09087e-07
5.79604e-09
-2.11113e-07
4.79521e-09
-2.12708e-07
3.7763e-09
-2.13865e-07
2.74267e-09
-2.1458e-07
1.69771e-09
-2.1485e-07
6.44879e-10
-2.14672e-07
-4.12351e-10
-2.14047e-07
-1.47044e-09
-2.12975e-07
-2.52579e-09
-2.1146e-07
-3.57478e-09
-2.09505e-07
-4.61376e-09
-2.07117e-07
-5.63901e-09
-2.04303e-07
-6.64676e-09
-2.01072e-07
-7.63323e-09
-1.97435e-07
-8.59462e-09
-1.93404e-07
-9.52708e-09
-1.88993e-07
-1.04267e-08
-1.84218e-07
-1.12898e-08
-1.79095e-07
-1.21123e-08
-1.73644e-07
-1.28904e-08
-1.67885e-07
-1.36204e-08
-1.6184e-07
-1.42984e-08
-1.55532e-07
-1.49207e-08
-1.48987e-07
-1.54836e-08
-1.4223e-07
-1.59836e-08
-1.35291e-07
-1.64171e-08
-1.28198e-07
-1.67808e-08
-1.20982e-07
-1.70714e-08
-1.13675e-07
-1.7286e-08
-1.06311e-07
-1.74215e-08
-9.89223e-08
-1.74755e-08
-9.15453e-08
-1.74453e-08
-8.42157e-08
-1.7329e-08
-7.69703e-08
-1.71246e-08
-6.9846e-08
-1.68306e-08
-6.28807e-08
-1.64461e-08
-5.61119e-08
-1.59702e-08
-4.95773e-08
-1.5403e-08
-4.33141e-08
-1.47449e-08
-3.7359e-08
-1.39971e-08
-3.17475e-08
-1.31617e-08
-2.65135e-08
-1.22418e-08
-2.16892e-08
-1.12417e-08
-1.73037e-08
-1.01673e-08
-1.33827e-08
-9.02644e-09
-9.94742e-09
-7.82948e-09
-7.01322e-09
-6.58999e-09
-4.58804e-09
-5.32578e-09
-2.6705e-09
-4.06025e-09
-1.24738e-09
-2.82416e-09
-2.90797e-10
-1.65812e-09
2.45393e-10
-6.15653e-10
4.29621e-10
2.32956e-10
3.57007e-10
7.96905e-10
1.5504e-10
9.6102e-10
5.7281e-10
7.35326e-11
-6.31805e-10
6.52279e-11
-8.82794e-10
-1.9116e-10
-4.11454e-10
-8.18057e-10
5.78284e-10
-1.90657e-09
1.93537e-09
-3.52174e-09
3.54044e-09
-5.70657e-09
5.30008e-09
-8.48564e-09
7.1422e-09
-1.18683e-08
9.01147e-09
-1.58515e-08
1.08655e-08
-2.0422e-08
1.26719e-08
-2.55587e-08
1.44063e-08
-3.12341e-08
1.60501e-08
-3.74159e-08
1.75894e-08
-4.40678e-08
1.9014e-08
-5.11508e-08
2.03168e-08
-5.8624e-08
2.14925e-08
-6.64449e-08
2.25381e-08
-7.45699e-08
2.34517e-08
-8.29553e-08
2.42328e-08
-9.1557e-08
2.48816e-08
-1.00331e-07
2.53994e-08
-1.09234e-07
2.57879e-08
-1.18224e-07
2.60494e-08
-1.27258e-07
2.61865e-08
-1.36294e-07
2.62025e-08
-1.45294e-07
2.61006e-08
-1.54218e-07
2.58845e-08
-1.63027e-07
2.55579e-08
-1.71687e-07
2.51249e-08
-1.80162e-07
2.45895e-08
-1.88417e-07
2.39559e-08
-1.96422e-07
2.32285e-08
-2.04145e-07
2.24117e-08
-2.11556e-07
2.15099e-08
-2.18629e-07
2.05277e-08
-2.25337e-07
1.94695e-08
-2.31655e-07
1.83401e-08
-2.37561e-07
1.71442e-08
-2.43032e-07
1.58863e-08
-2.48051e-07
1.45714e-08
-2.52598e-07
1.32041e-08
-2.56657e-07
1.17894e-08
-2.60214e-07
1.03321e-08
-2.63255e-07
8.83725e-09
-2.65769e-07
7.3098e-09
-2.67748e-07
5.75484e-09
-2.69183e-07
4.17752e-09
-2.70068e-07
2.58301e-09
-2.704e-07
9.76598e-10
-2.70176e-07
-6.36384e-10
-2.69396e-07
-2.25053e-09
-2.68061e-07
-3.86037e-09
-2.66176e-07
-5.46036e-09
-2.63744e-07
-7.0449e-09
-2.60775e-07
-8.60833e-09
-2.57277e-07
-1.01449e-08
-2.53261e-07
-1.16489e-08
-2.48741e-07
-1.31145e-08
-2.43733e-07
-1.45359e-08
-2.38252e-07
-1.59071e-08
-2.3232e-07
-1.72224e-08
-2.25956e-07
-1.84758e-08
-2.19185e-07
-1.96615e-08
-2.12032e-07
-2.07738e-08
-2.04523e-07
-2.1807e-08
-1.96688e-07
-2.27553e-08
-1.88559e-07
-2.36132e-08
-1.80167e-07
-2.43754e-08
-1.71547e-07
-2.50366e-08
-1.62736e-07
-2.55918e-08
-1.53772e-07
-2.60361e-08
-1.44693e-07
-2.63651e-08
-1.3554e-07
-2.65743e-08
-1.26355e-07
-2.666e-08
-1.17182e-07
-2.66186e-08
-1.08064e-07
-2.64469e-08
-9.90462e-08
-2.61424e-08
-9.01738e-08
-2.5703e-08
-8.14925e-08
-2.51274e-08
-7.3048e-08
-2.44147e-08
-6.48859e-08
-2.35651e-08
-5.7051e-08
-2.25798e-08
-4.95872e-08
-2.14609e-08
-4.25371e-08
-2.02119e-08
-3.59409e-08
-1.8838e-08
-2.98364e-08
-1.73462e-08
-2.42579e-08
-1.57458e-08
-1.92352e-08
-1.40491e-08
-1.47926e-08
-1.22721e-08
-1.09475e-08
-1.04351e-08
-7.70879e-09
-8.56449e-09
-5.07485e-09
-6.69419e-09
-3.03129e-09
-4.86772e-09
-1.54837e-09
-3.14105e-09
-5.7793e-10
-1.58609e-09
-5.00263e-11
-2.94935e-10
1.30893e-10
6.15994e-10
9.11074e-11
1.00079e-09
6.63919e-10
-1.27238e-11
-6.19083e-10
-2.38445e-10
-6.57103e-10
-8.23253e-10
1.73376e-10
-1.87904e-09
1.63406e-09
-3.49046e-09
3.5468e-09
-5.71873e-09
5.76872e-09
-8.60464e-09
8.18597e-09
-1.21713e-08
1.07089e-08
-1.64268e-08
1.3267e-08
-2.13666e-08
1.58053e-08
-2.69756e-08
1.82809e-08
-3.323e-08
2.06608e-08
-4.00993e-08
2.29193e-08
-4.75469e-08
2.5037e-08
-5.55323e-08
2.69994e-08
-6.40114e-08
2.87958e-08
-7.29374e-08
3.04186e-08
-8.22621e-08
3.18627e-08
-9.19355e-08
3.31252e-08
-1.01907e-07
3.42046e-08
-1.12127e-07
3.51012e-08
-1.22544e-07
3.58159e-08
-1.33107e-07
3.6351e-08
-1.43767e-07
3.67093e-08
-1.54475e-07
3.68944e-08
-1.65182e-07
3.69103e-08
-1.75843e-07
3.67614e-08
-1.86411e-07
3.64527e-08
-1.96843e-07
3.59893e-08
-2.07095e-07
3.53768e-08
-2.17126e-07
3.46206e-08
-2.26896e-07
3.37267e-08
-2.36369e-07
3.27011e-08
-2.45507e-07
3.15498e-08
-2.54276e-07
3.0279e-08
-2.62644e-07
2.88952e-08
-2.70579e-07
2.74046e-08
-2.78052e-07
2.58139e-08
-2.85038e-07
2.41294e-08
-2.91509e-07
2.23579e-08
-2.97444e-07
2.05061e-08
-3.02821e-07
1.85807e-08
-3.0762e-07
1.65886e-08
-3.11824e-07
1.45366e-08
-3.15419e-07
1.24318e-08
-3.1839e-07
1.02813e-08
-3.20728e-07
8.09209e-09
-3.22422e-07
5.87156e-09
-3.23466e-07
3.627e-09
-3.23855e-07
1.36584e-09
-3.23587e-07
-9.04415e-10
-3.22661e-07
-3.17613e-09
-3.2108e-07
-5.44161e-09
-3.18847e-07
-7.69306e-09
-3.1597e-07
-9.92259e-09
-3.12456e-07
-1.21222e-08
-3.08317e-07
-1.42839e-08
-3.03566e-07
-1.63996e-08
-2.98219e-07
-1.84611e-08
-2.92295e-07
-2.04603e-08
-2.85813e-07
-2.23888e-08
-2.78797e-07
-2.42386e-08
-2.71271e-07
-2.60014e-08
-2.63264e-07
-2.7669e-08
-2.54804e-07
-2.92334e-08
-2.45925e-07
-3.06866e-08
-2.36659e-07
-3.20207e-08
-2.27045e-07
-3.3228e-08
-2.17119e-07
-3.4301e-08
-2.06923e-07
-3.52326e-08
-1.96499e-07
-3.60156e-08
-1.85892e-07
-3.66435e-08
-1.75147e-07
-3.711e-08
-1.64312e-07
-3.74093e-08
-1.53436e-07
-3.7536e-08
-1.42569e-07
-3.74854e-08
-1.31763e-07
-3.72533e-08
-1.21069e-07
-3.68364e-08
-1.1054e-07
-3.62319e-08
-1.00229e-07
-3.54383e-08
-9.01889e-08
-3.44548e-08
-8.0472e-08
-3.32819e-08
-7.11301e-08
-3.19217e-08
-6.22133e-08
-3.03777e-08
-5.37701e-08
-2.86551e-08
-4.58465e-08
-2.67616e-08
-3.84851e-08
-2.47076e-08
-3.17246e-08
-2.25063e-08
-2.55985e-08
-2.01752e-08
-2.0134e-08
-1.77365e-08
-1.53508e-08
-1.52182e-08
-1.12593e-08
-1.2656e-08
-7.85882e-09
-1.00947e-08
-5.1357e-09
-7.59083e-09
-3.06105e-09
-5.21571e-09
-1.58822e-09
-3.05892e-09
-6.50218e-10
-1.23293e-09
-1.56728e-10
1.22508e-10
9.5137e-12
8.34548e-10
6.73434e-10
-1.07651e-10
-5.11425e-10
-5.76536e-10
-1.88208e-10
-1.52765e-09
1.12447e-09
-3.05711e-09
3.16352e-09
-5.23897e-09
5.72865e-09
-8.12709e-09
8.65684e-09
-1.17571e-08
1.1816e-08
-1.61484e-08
1.51002e-08
-2.13062e-08
1.84247e-08
-2.7223e-08
2.17222e-08
-3.38813e-08
2.49392e-08
-4.12543e-08
2.80337e-08
-4.9308e-08
3.0973e-08
-5.80024e-08
3.37314e-08
-6.72927e-08
3.62897e-08
-7.71301e-08
3.86333e-08
-8.74632e-08
4.07517e-08
-9.82382e-08
4.26377e-08
-1.094e-07
4.42867e-08
-1.20892e-07
4.56966e-08
-1.32657e-07
4.68667e-08
-1.4464e-07
4.77983e-08
-1.56782e-07
4.84936e-08
-1.69029e-07
4.89562e-08
-1.81325e-07
4.91903e-08
-1.93616e-07
4.9201e-08
-2.05848e-07
4.8994e-08
-2.17971e-07
4.85755e-08
-2.29934e-07
4.79523e-08
-2.41689e-07
4.71313e-08
-2.53188e-07
4.61199e-08
-2.64387e-07
4.49258e-08
-2.75243e-07
4.35567e-08
-2.85714e-07
4.20207e-08
-2.95761e-07
4.03261e-08
-3.05347e-07
3.84811e-08
-3.14436e-07
3.64943e-08
-3.22997e-07
3.43742e-08
-3.30997e-07
3.21295e-08
-3.38408e-07
2.97691e-08
-3.45204e-07
2.73018e-08
-3.5136e-07
2.47367e-08
-3.56854e-07
2.20829e-08
-3.61667e-07
1.93495e-08
-3.65781e-07
1.6546e-08
-3.69181e-07
1.36816e-08
-3.71855e-07
1.0766e-08
-3.73792e-07
7.80884e-09
-3.74985e-07
4.81984e-09
-3.75428e-07
1.80893e-09
-3.75119e-07
-1.21388e-09
-3.74057e-07
-4.23844e-09
-3.72244e-07
-7.25451e-09
-3.69685e-07
-1.02517e-08
-3.66388e-07
-1.32195e-08
-3.62363e-07
-1.61474e-08
-3.57622e-07
-1.90246e-08
-3.52182e-07
-2.18404e-08
-3.46059e-07
-2.4584e-08
-3.39274e-07
-2.72445e-08
-3.31852e-07
-2.98111e-08
-3.23818e-07
-3.22728e-08
-3.152e-07
-3.46188e-08
-3.06031e-07
-3.68384e-08
-2.96344e-07
-3.89208e-08
-2.86175e-07
-4.08555e-08
-2.75563e-07
-4.26321e-08
-2.64551e-07
-4.42406e-08
-2.53181e-07
-4.5671e-08
-2.41499e-07
-4.69139e-08
-2.29555e-07
-4.79602e-08
-2.17397e-07
-4.88011e-08
-2.05079e-07
-4.94285e-08
-1.92653e-07
-4.98349e-08
-1.80176e-07
-5.00133e-08
-1.67703e-07
-4.99578e-08
-1.55294e-07
-4.96631e-08
-1.43005e-07
-4.91248e-08
-1.30897e-07
-4.83399e-08
-1.19029e-07
-4.73064e-08
-1.0746e-07
-4.60239e-08
-9.62484e-08
-4.44935e-08
-8.54521e-08
-4.27181e-08
-7.51269e-08
-4.07028e-08
-6.53267e-08
-3.84553e-08
-5.61024e-08
-3.5986e-08
-4.75012e-08
-3.33088e-08
-3.95657e-08
-3.04418e-08
-3.23331e-08
-2.74079e-08
-2.58335e-08
-2.4236e-08
-2.00894e-08
-2.09624e-08
-1.51133e-08
-1.76321e-08
-1.0907e-08
-1.4301e-08
-7.45932e-09
-1.10385e-08
-4.74444e-09
-7.93059e-09
-2.72013e-09
-5.08323e-09
-1.32578e-09
-2.62729e-09
-4.80546e-10
-7.22726e-10
-8.13697e-11
4.35374e-10
5.92061e-10
-2.06253e-10
-3.05164e-10
-9.32451e-10
5.37979e-10
-2.27291e-09
2.46495e-09
-4.3052e-09
5.19583e-09
-7.08988e-09
8.51332e-09
-1.06709e-08
1.22378e-08
-1.50764e-08
1.62215e-08
-2.03202e-08
2.03439e-08
-2.64028e-08
2.45073e-08
-3.3313e-08
2.86324e-08
-4.10297e-08
3.26558e-08
-4.95225e-08
3.65266e-08
-5.87541e-08
4.02045e-08
-6.86806e-08
4.36579e-08
-7.92532e-08
4.68623e-08
-9.04191e-08
4.97991e-08
-1.02122e-07
5.24546e-08
-1.14303e-07
5.48191e-08
-1.26903e-07
5.68864e-08
-1.3986e-07
5.8653e-08
-1.53111e-07
6.01178e-08
-1.66594e-07
6.12818e-08
-1.80248e-07
6.21473e-08
-1.9401e-07
6.27184e-08
-2.0782e-07
6.30002e-08
-2.21618e-07
6.29988e-08
-2.35345e-07
6.27212e-08
-2.48944e-07
6.2175e-08
-2.62361e-07
6.13685e-08
-2.7554e-07
6.03104e-08
-2.8843e-07
5.901e-08
-3.00981e-07
5.74769e-08
-3.13145e-07
5.57208e-08
-3.24876e-07
5.3752e-08
-3.36131e-07
5.15809e-08
-3.46868e-07
4.9218e-08
-3.57048e-07
4.66741e-08
-3.66634e-07
4.39602e-08
-3.75592e-07
4.10873e-08
-3.83889e-07
3.80667e-08
-3.91497e-07
3.49097e-08
-3.98388e-07
3.16278e-08
-4.04538e-07
2.82327e-08
-4.09924e-07
2.47361e-08
-4.14528e-07
2.11499e-08
-4.18333e-07
1.74863e-08
-4.21325e-07
1.37574e-08
-4.23491e-07
9.97554e-09
-4.24825e-07
6.15322e-09
-4.25319e-07
2.30311e-09
-4.24971e-07
-1.56199e-09
-4.2378e-07
-5.42912e-09
-4.21749e-07
-9.28517e-09
-4.18884e-07
-1.31169e-08
-4.15193e-07
-1.69109e-08
-4.10686e-07
-2.06537e-08
-4.05379e-07
-2.43316e-08
-3.99289e-07
-2.79309e-08
-3.92435e-07
-3.14379e-08
-3.84841e-07
-3.48388e-08
-3.76532e-07
-3.81195e-08
-3.67539e-07
-4.12665e-08
-3.57892e-07
-4.42657e-08
-3.47626e-07
-4.71037e-08
-3.3678e-07
-4.97668e-08
-3.25394e-07
-5.22416e-08
-3.13511e-07
-5.45151e-08
-3.01178e-07
-5.65744e-08
-2.88441e-07
-5.84072e-08
-2.75354e-07
-6.00014e-08
-2.61969e-07
-6.13455e-08
-2.48341e-07
-6.24287e-08
-2.34529e-07
-6.32408e-08
-2.20591e-07
-6.37723e-08
-2.0659e-07
-6.40149e-08
-1.92587e-07
-6.39608e-08
-1.78646e-07
-6.36039e-08
-1.64832e-07
-6.29389e-08
-1.5121e-07
-6.19622e-08
-1.37844e-07
-6.06717e-08
-1.24801e-07
-5.90672e-08
-1.12144e-07
-5.71506e-08
-9.99359e-08
-5.49261e-08
-8.82382e-08
-5.24006e-08
-7.71093e-08
-4.95841e-08
-6.66049e-08
-4.64904e-08
-5.67765e-08
-4.31373e-08
-4.76705e-08
-3.95477e-08
-3.93277e-08
-3.57507e-08
-3.17818e-08
-3.1782e-08
-2.50582e-08
-2.7686e-08
-1.9173e-08
-2.35173e-08
-1.41312e-08
-1.93428e-08
-9.92573e-09
-1.5244e-08
-6.53595e-09
-1.13204e-08
-3.92625e-09
-7.69294e-09
-2.045e-09
-4.50854e-09
-8.23673e-10
-1.94405e-09
-1.76417e-10
-2.11882e-10
4.1564e-10
-3.0559e-10
4.15937e-13
-1.29541e-09
1.52781e-09
-3.03766e-09
4.2072e-09
-5.59014e-09
7.74829e-09
-8.99818e-09
1.19214e-08
-1.3294e-08
1.65337e-08
-1.84967e-08
2.14242e-08
-2.46127e-08
2.64599e-08
-3.16366e-08
3.15312e-08
-3.95524e-08
3.65482e-08
-4.83343e-08
4.14377e-08
-5.79482e-08
4.61405e-08
-6.83525e-08
5.06089e-08
-7.94997e-08
5.48051e-08
-9.13369e-08
5.86995e-08
-1.03807e-07
6.22692e-08
-1.1685e-07
6.54972e-08
-1.30402e-07
6.83712e-08
-1.44398e-07
7.0883e-08
-1.58773e-07
7.30279e-08
-1.73459e-07
7.4804e-08
-1.88389e-07
7.62118e-08
-2.03496e-07
7.72541e-08
-2.18713e-07
7.79352e-08
-2.33973e-07
7.8261e-08
-2.49213e-07
7.82387e-08
-2.64369e-07
7.78765e-08
-2.79377e-07
7.71836e-08
-2.94179e-07
7.617e-08
-3.08714e-07
7.48462e-08
-3.22928e-07
7.32235e-08
-3.36764e-07
7.13134e-08
-3.50172e-07
6.91281e-08
-3.631e-07
6.668e-08
-3.75501e-07
6.39819e-08
-3.87329e-07
6.10467e-08
-3.98543e-07
5.78877e-08
-4.09101e-07
5.45184e-08
-4.18966e-07
5.09525e-08
-4.28104e-07
4.72039e-08
-4.3648e-07
4.32866e-08
-4.44068e-07
3.92148e-08
-4.50838e-07
3.5003e-08
-4.56768e-07
3.06657e-08
-4.61835e-07
2.62178e-08
-4.66023e-07
2.1674e-08
-4.69315e-07
1.70496e-08
-4.717e-07
1.23598e-08
-4.73167e-07
7.62022e-09
-4.7371e-07
2.84639e-09
-4.73326e-07
-1.94577e-09
-4.72015e-07
-6.74023e-09
-4.69779e-07
-1.15207e-08
-4.66625e-07
-1.62709e-08
-4.62562e-07
-2.09742e-08
-4.57602e-07
-2.56139e-08
-4.5176e-07
-3.01731e-08
-4.45056e-07
-3.4635e-08
-4.37512e-07
-3.89824e-08
-4.29152e-07
-4.31984e-08
-4.20006e-07
-4.72658e-08
-4.10105e-07
-5.11676e-08
-3.99484e-07
-5.48869e-08
-3.88181e-07
-5.84067e-08
-3.76237e-07
-6.17104e-08
-3.63697e-07
-6.47816e-08
-3.50608e-07
-6.76042e-08
-3.3702e-07
-7.01626e-08
-3.22985e-07
-7.24413e-08
-3.08561e-07
-7.44259e-08
-2.93804e-07
-7.61023e-08
-2.78775e-07
-7.74573e-08
-2.63538e-07
-7.84784e-08
-2.48156e-07
-7.91543e-08
-2.32696e-07
-7.94748e-08
-2.17226e-07
-7.94308e-08
-2.01815e-07
-7.90148e-08
-1.86533e-07
-7.82208e-08
-1.7145e-07
-7.70447e-08
-1.56638e-07
-7.54842e-08
-1.42165e-07
-7.35396e-08
-1.28103e-07
-7.12135e-08
-1.14517e-07
-6.85115e-08
-1.01475e-07
-6.54426e-08
-8.90399e-08
-6.20194e-08
-7.72712e-08
-5.8259e-08
-6.62247e-08
-5.41837e-08
-5.59511e-08
-4.98213e-08
-4.64949e-08
-4.52069e-08
-3.78936e-08
-4.03833e-08
-3.01764e-08
-3.54031e-08
-2.33635e-08
-3.03302e-08
-1.74647e-08
-2.52416e-08
-1.24782e-08
-2.02305e-08
-8.38998e-09
-1.54086e-08
-5.17289e-09
-1.091e-08
-2.78607e-09
-6.89535e-09
-1.17509e-09
-3.55503e-09
-2.72554e-10
-1.11442e-09
1.43088e-10
-4.03881e-10
4.04306e-10
-1.65863e-09
2.78254e-09
-3.80765e-09
6.35622e-09
-6.8889e-09
1.08296e-08
-1.09318e-08
1.59643e-08
-1.59557e-08
2.15575e-08
-2.19692e-08
2.74377e-08
-2.89704e-08
3.34611e-08
-3.69468e-08
3.95076e-08
-4.58764e-08
4.54778e-08
-5.57283e-08
5.12896e-08
-6.64636e-08
5.68758e-08
-7.80365e-08
6.21818e-08
-9.03951e-08
6.71637e-08
-1.03482e-07
7.17868e-08
-1.17237e-07
7.60241e-08
-1.31595e-07
7.98549e-08
-1.46488e-07
8.32645e-08
-1.61848e-07
8.62425e-08
-1.77603e-07
8.87829e-08
-1.93682e-07
9.08829e-08
-2.10013e-07
9.25428e-08
-2.26524e-07
9.37651e-08
-2.43144e-07
9.45549e-08
-2.59802e-07
9.49187e-08
-2.76428e-07
9.48648e-08
-2.92954e-07
9.44028e-08
-3.09314e-07
9.35434e-08
-3.25442e-07
9.22983e-08
-3.41276e-07
9.06801e-08
-3.56754e-07
8.87019e-08
-3.71819e-07
8.63777e-08
-3.86412e-07
8.37219e-08
-4.00482e-07
8.07493e-08
-4.13975e-07
7.74752e-08
-4.26844e-07
7.39153e-08
-4.39042e-07
7.00855e-08
-4.50525e-07
6.60019e-08
-4.61254e-07
6.16811e-08
-4.7119e-07
5.71398e-08
-4.80298e-07
5.2395e-08
-4.88547e-07
4.74637e-08
-4.95907e-07
4.23635e-08
-5.02354e-07
3.7112e-08
-5.07863e-07
3.17269e-08
-5.12415e-07
2.62262e-08
-5.15994e-07
2.06284e-08
-5.18586e-07
1.49518e-08
-5.20181e-07
9.21525e-09
-5.20772e-07
3.43757e-09
-5.20356e-07
-2.36203e-09
-5.18932e-07
-8.16418e-09
-5.16503e-07
-1.39493e-08
-5.13077e-07
-1.96975e-08
-5.08662e-07
-2.5389e-08
-5.03272e-07
-3.10034e-08
-4.96925e-07
-3.65206e-08
-4.8964e-07
-4.19201e-08
-4.81441e-07
-4.71813e-08
-4.72355e-07
-5.22838e-08
-4.62414e-07
-5.7207e-08
-4.51651e-07
-6.19304e-08
-4.40105e-07
-6.64335e-08
-4.27816e-07
-7.06961e-08
-4.14828e-07
-7.46982e-08
-4.01189e-07
-7.84201e-08
-3.86951e-07
-8.18426e-08
-3.72167e-07
-8.49468e-08
-3.56894e-07
-8.77145e-08
-3.41191e-07
-9.01282e-08
-3.25123e-07
-9.21711e-08
-3.08752e-07
-9.38277e-08
-2.92148e-07
-9.5083e-08
-2.75378e-07
-9.59237e-08
-2.58515e-07
-9.63377e-08
-2.41632e-07
-9.63144e-08
-2.24801e-07
-9.58451e-08
-2.081e-07
-9.49228e-08
-1.91601e-07
-9.35429e-08
-1.75382e-07
-9.17033e-08
-1.59517e-07
-8.94044e-08
-1.44081e-07
-8.66499e-08
-1.29146e-07
-8.34469e-08
-1.14782e-07
-7.98063e-08
-1.01057e-07
-7.57438e-08
-8.80364e-08
-7.128e-08
-7.5779e-08
-6.64412e-08
-6.43397e-08
-6.12606e-08
-5.37673e-08
-5.57793e-08
-4.41036e-08
-5.0047e-08
-3.53825e-08
-4.41243e-08
-2.76289e-08
-3.80838e-08
-2.08582e-08
-3.20123e-08
-1.50753e-08
-2.60134e-08
-1.02739e-08
-2.02099e-08
-6.43659e-09
-1.47474e-08
-3.53437e-09
-9.79756e-09
-1.52774e-09
-5.56165e-09
-3.67966e-10
-2.2742e-09
-2.24872e-10
-5.00255e-10
9.04569e-10
-2.0179e-09
4.30016e-09
-4.57358e-09
8.91191e-09
-8.18602e-09
1.4442e-08
-1.28685e-08
2.06467e-08
-1.86269e-08
2.73159e-08
-2.54586e-08
3.42695e-08
-3.33524e-08
4.13548e-08
-4.22879e-08
4.84431e-08
-5.22362e-08
5.54262e-08
-6.31607e-08
6.2214e-08
-7.5017e-08
6.87321e-08
-8.77546e-08
7.49194e-08
-1.01317e-07
8.07261e-08
-1.15643e-07
8.61127e-08
-1.30667e-07
9.10479e-08
-1.4632e-07
9.55079e-08
-1.6253e-07
9.94751e-08
-1.79225e-07
1.02937e-07
-1.96329e-07
1.05887e-07
-2.13766e-07
1.0832e-07
-2.31459e-07
1.10237e-07
-2.49334e-07
1.1164e-07
-2.67313e-07
1.12534e-07
-2.85323e-07
1.12928e-07
-3.03288e-07
1.1283e-07
-3.21137e-07
1.12252e-07
-3.38798e-07
1.11205e-07
-3.56203e-07
1.09703e-07
-3.73285e-07
1.07762e-07
-3.89978e-07
1.05395e-07
-4.0622e-07
1.0262e-07
-4.21951e-07
9.94529e-08
-4.37113e-07
9.59118e-08
-4.51653e-07
9.20144e-08
-4.65516e-07
8.7779e-08
-4.78655e-07
8.32245e-08
-4.91023e-07
7.83699e-08
-5.02577e-07
7.32348e-08
-5.13276e-07
6.78388e-08
-5.23083e-07
6.22021e-08
-5.31964e-07
5.63449e-08
-5.39889e-07
5.02879e-08
-5.46829e-07
4.40518e-08
-5.5276e-07
3.76578e-08
-5.57661e-07
3.11272e-08
-5.61514e-07
2.44818e-08
-5.64305e-07
1.77433e-08
-5.66024e-07
1.0934e-08
-5.66663e-07
4.07618e-09
-5.66217e-07
-2.80734e-09
-5.64688e-07
-9.69368e-09
-5.62077e-07
-1.65596e-08
-5.58393e-07
-2.33818e-08
-5.53646e-07
-3.01366e-08
-5.47849e-07
-3.68001e-08
-5.41021e-07
-4.33483e-08
-5.33184e-07
-4.97572e-08
-5.24363e-07
-5.60024e-08
-5.14587e-07
-6.20598e-08
-5.03889e-07
-6.79051e-08
-4.92305e-07
-7.3514e-08
-4.79876e-07
-7.88625e-08
-4.66646e-07
-8.39268e-08
-4.52661e-07
-8.86833e-08
-4.37972e-07
-9.31088e-08
-4.22634e-07
-9.71806e-08
-4.06704e-07
-1.00877e-07
-3.90243e-07
-1.04176e-07
-3.73314e-07
-1.07057e-07
-3.55984e-07
-1.09501e-07
-3.38322e-07
-1.11489e-07
-3.204e-07
-1.13005e-07
-3.02292e-07
-1.14032e-07
-2.84073e-07
-1.14557e-07
-2.6582e-07
-1.14567e-07
-2.47613e-07
-1.14052e-07
-2.2953e-07
-1.13005e-07
-2.11653e-07
-1.1142e-07
-1.9406e-07
-1.09296e-07
-1.76833e-07
-1.06632e-07
-1.60048e-07
-1.03434e-07
-1.43784e-07
-9.97106e-08
-1.28116e-07
-9.54745e-08
-1.13116e-07
-9.07443e-08
-9.88516e-08
-8.5544e-08
-8.53882e-08
-7.99046e-08
-7.27846e-08
-7.38642e-08
-6.1094e-08
-6.74698e-08
-5.03631e-08
-6.07779e-08
-4.06309e-08
-5.38566e-08
-3.19279e-08
-4.67867e-08
-2.42761e-08
-3.96642e-08
-1.76876e-08
-3.26018e-08
-1.21651e-08
-2.57324e-08
-7.70145e-09
-1.9211e-08
-4.28031e-09
-1.32187e-08
-1.87725e-09
-7.96471e-09
-4.61628e-10
-3.68981e-09
-6.86497e-10
-5.94185e-10
1.49875e-09
-2.37076e-09
6.07674e-09
-5.32968e-09
1.18708e-08
-9.47136e-09
1.85837e-08
-1.47932e-08
2.59686e-08
-2.12875e-08
3.38102e-08
-2.89401e-08
4.19221e-08
-3.77296e-08
5.01443e-08
-4.76271e-08
5.83405e-08
-5.85963e-08
6.63954e-08
-7.05939e-08
7.42116e-08
-8.35699e-08
8.17081e-08
-9.74684e-08
8.88178e-08
-1.12228e-07
9.54857e-08
-1.27783e-07
1.01667e-07
-1.44063e-07
1.07328e-07
-1.60995e-07
1.1244e-07
-1.78503e-07
1.16983e-07
-1.9651e-07
1.20944e-07
-2.14936e-07
1.24313e-07
-2.33702e-07
1.27086e-07
-2.52728e-07
1.29262e-07
-2.71931e-07
1.30844e-07
-2.91234e-07
1.31837e-07
-3.10557e-07
1.32251e-07
-3.29822e-07
1.32095e-07
-3.48952e-07
1.31382e-07
-3.67873e-07
1.30126e-07
-3.86512e-07
1.28342e-07
-4.04798e-07
1.26047e-07
-4.22662e-07
1.23259e-07
-4.4004e-07
1.19997e-07
-4.56866e-07
1.16279e-07
-4.7308e-07
1.12126e-07
-4.88625e-07
1.07559e-07
-5.03445e-07
1.02599e-07
-5.17488e-07
9.72677e-08
-5.30705e-07
9.15873e-08
-5.43051e-07
8.55805e-08
-5.54482e-07
7.92702e-08
-5.6496e-07
7.26798e-08
-5.74448e-07
6.58329e-08
-5.82913e-07
5.87534e-08
-5.90327e-07
5.14656e-08
-5.96663e-07
4.39941e-08
-6.019e-07
3.63637e-08
-6.06018e-07
2.85997e-08
-6.09002e-07
2.07276e-08
-6.10841e-07
1.27731e-08
-6.11528e-07
4.76242e-09
-6.11057e-07
-3.27809e-09
-6.09429e-07
-1.13217e-08
-6.06647e-07
-1.93414e-08
-6.02719e-07
-2.731e-08
-5.97655e-07
-3.52e-08
-5.91472e-07
-4.29837e-08
-5.84187e-07
-5.06331e-08
-5.75824e-07
-5.81202e-08