/*--------------------------------*- C++ -*----------------------------------*\
| =========                 |                                                 |
| \\      /  F ield         | OpenFOAM: The Open Source CFD Toolbox           |
|  \\    /   O peration     | Version:  2212                                  |
|   \\  /    A nd           | Website:  www.openfoam.com                      |
|    \\/     M anipulation  |                                                 |
\*---------------------------------------------------------------------------*/
FoamFile
{
    version     2.0;
    format      ascii;
    arch        "LSB;label=32;scalar=64";
    class       surfaceScalarField;
    location    "0.0335";
    object      phi_0;
}
// * * * * * * * * * * * * * * * * * * * * * * * * * * * * * * * * * * * * * //

dimensions      [0 3 -1 0 0 0 0];

oriented        oriented;

internalField   nonuniform List<scalar> 
19800
(
6.13557e-11
-6.14061e-11
1.89725e-10
-1.28363e-10
3.15004e-10
-1.25286e-10
4.00313e-10
-8.52819e-11
4.23157e-10
-2.28404e-11
3.69784e-10
5.33675e-11
2.33322e-10
1.36457e-10
1.15229e-11
2.2179e-10
-2.94816e-10
3.06326e-10
-6.82972e-10
3.88167e-10
-1.14897e-09
4.66008e-10
-1.68804e-09
5.39078e-10
-2.2949e-09
6.06874e-10
-2.96397e-09
6.69081e-10
-3.68956e-09
7.25577e-10
-4.46585e-09
7.76282e-10
-5.28708e-09
8.21224e-10
-6.1475e-09
8.6042e-10
-7.04146e-09
8.93958e-10
-7.9634e-09
9.21945e-10
-8.90794e-09
9.44535e-10
-9.8698e-09
9.61856e-10
-1.08439e-08
9.74084e-10
-1.18253e-08
9.81375e-10
-1.28092e-08
9.83921e-10
-1.37911e-08
9.81898e-10
-1.47666e-08
9.75507e-10
-1.57315e-08
9.64958e-10
-1.66819e-08
9.50425e-10
-1.7614e-08
9.32083e-10
-1.85241e-08
9.10122e-10
-1.94089e-08
8.84739e-10
-2.0265e-08
8.56117e-10
-2.10894e-08
8.24426e-10
-2.18793e-08
7.89851e-10
-2.26319e-08
7.5257e-10
-2.33446e-08
7.12747e-10
-2.40152e-08
6.70547e-10
-2.46413e-08
6.26134e-10
-2.5221e-08
5.79677e-10
-2.57523e-08
5.31343e-10
-2.62336e-08
4.81286e-10
-2.66633e-08
4.29661e-10
-2.70399e-08
3.76644e-10
-2.73623e-08
3.22402e-10
-2.76294e-08
2.67089e-10
-2.78403e-08
2.10863e-10
-2.79942e-08
1.53884e-10
-2.80905e-08
9.63229e-11
-2.81288e-08
3.83523e-11
-2.8109e-08
-1.98649e-11
-2.80308e-08
-7.81694e-11
-2.78944e-08
-1.36385e-10
-2.77001e-08
-1.94315e-10
-2.74483e-08
-2.51775e-10
-2.71397e-08
-3.08605e-10
-2.67751e-08
-3.64619e-10
-2.63555e-08
-4.19615e-10
-2.58821e-08
-4.73404e-10
-2.53563e-08
-5.25794e-10
-2.47797e-08
-5.76577e-10
-2.41542e-08
-6.25554e-10
-2.34816e-08
-6.72538e-10
-2.27643e-08
-7.17311e-10
-2.20047e-08
-7.59642e-10
-2.12054e-08
-7.99323e-10
-2.03692e-08
-8.3615e-10
-1.94993e-08
-8.69911e-10
-1.85989e-08
-9.00385e-10
-1.76716e-08
-9.27356e-10
-1.6721e-08
-9.50605e-10
-1.5751e-08
-9.69917e-10
-1.4766e-08
-9.85084e-10
-1.37701e-08
-9.95906e-10
-1.27679e-08
-1.00219e-09
-1.17641e-08
-1.00375e-09
-1.07637e-08
-1.0004e-09
-9.77177e-09
-9.91958e-10
-8.7935e-09
-9.78262e-10
-7.83433e-09
-9.59167e-10
-6.89978e-09
-9.34541e-10
-5.99552e-09
-9.04267e-10
-5.12726e-09
-8.68262e-10
-4.30077e-09
-8.26482e-10
-3.52186e-09
-7.78909e-10
-2.79632e-09
-7.25545e-10
-2.12988e-09
-6.66437e-10
-1.52818e-09
-6.01704e-10
-9.96614e-10
-5.31561e-10
-5.40273e-10
-4.56344e-10
-1.63703e-10
-3.76574e-10
1.29342e-10
-2.93043e-10
3.36293e-10
-2.06948e-10
4.56403e-10
-1.20109e-10
4.91769e-10
-3.53666e-11
4.4901e-10
4.27606e-11
3.42012e-10
1.07003e-10
1.96694e-10
1.45323e-10
5.94745e-11
1.37215e-10
5.94744e-11
1.44515e-10
-2.05912e-10
3.67628e-10
-3.51474e-10
5.47966e-10
-3.05627e-10
6.13577e-10
-1.50908e-10
5.15205e-10
7.55558e-11
2.21107e-10
3.47445e-10
-2.86562e-10
6.44155e-10
-1.01548e-09
9.50715e-10
-1.96595e-09
1.25679e-09
-3.13293e-09
1.55516e-09
-4.50787e-09
1.84093e-09
-6.07957e-09
2.11078e-09
-7.83512e-09
2.36243e-09
-9.76048e-09
2.59444e-09
-1.18408e-08
2.80592e-09
-1.40609e-08
2.99635e-09
-1.64052e-08
3.16558e-09
-1.88583e-08
3.31357e-09
-2.14049e-08
3.44053e-09
-2.40297e-08
3.54674e-09
-2.67178e-08
3.63265e-09
-2.94546e-08
3.6987e-09
-3.2226e-08
3.74547e-09
-3.50182e-08
3.77355e-09
-3.78179e-08
3.78357e-09
-4.06122e-08
3.77618e-09
-4.33887e-08
3.75208e-09
-4.61357e-08
3.71197e-09
-4.88419e-08
3.65652e-09
-5.14962e-08
3.58644e-09
-5.40885e-08
3.50242e-09
-5.6609e-08
3.40519e-09
-5.90483e-08
3.2954e-09
-6.13976e-08
3.17375e-09
-6.36486e-08
3.04091e-09
-6.57936e-08
2.89756e-09
-6.78252e-08
2.74435e-09
-6.97366e-08
2.58193e-09
-7.15215e-08
2.41095e-09
-7.31738e-08
2.23205e-09
-7.46883e-08
2.04586e-09
-7.60601e-08
1.85301e-09
-7.72846e-08
1.65414e-09
-7.83578e-08
1.44987e-09
-7.92762e-08
1.24086e-09
-8.00368e-08
1.02771e-09
-8.0637e-08
8.11042e-10
-8.10746e-08
5.91502e-10
-8.13481e-08
3.69741e-10
-8.14562e-08
1.46415e-10
-8.13982e-08
-7.78303e-11
-8.1174e-08
-3.02339e-10
-8.0784e-08
-5.26435e-10
-8.02288e-08
-7.49433e-10
-7.951e-08
-9.70631e-10
-7.86293e-08
-1.18932e-09
-7.75891e-08
-1.40478e-09
-7.63925e-08
-1.61629e-09
-7.50428e-08
-1.82307e-09
-7.35442e-08
-2.02439e-09
-7.19013e-08
-2.21948e-09
-7.01193e-08
-2.40757e-09
-6.82039e-08
-2.58787e-09
-6.61617e-08
-2.75957e-09
-6.39995e-08
-2.92186e-09
-6.17249e-08
-3.0739e-09
-5.93462e-08
-3.21491e-09
-5.6872e-08
-3.34406e-09
-5.43119e-08
-3.46055e-09
-5.16757e-08
-3.56355e-09
-4.8974e-08
-3.65225e-09
-4.62181e-08
-3.72586e-09
-4.34196e-08
-3.78358e-09
-4.05908e-08
-3.82468e-09
-3.77446e-08
-3.84844e-09
-3.48941e-08
-3.85416e-09
-3.20534e-08
-3.84117e-09
-2.92365e-08
-3.80886e-09
-2.6458e-08
-3.75667e-09
-2.37331e-08
-3.68408e-09
-2.1077e-08
-3.59065e-09
-1.85053e-08
-3.47603e-09
-1.60335e-08
-3.34001e-09
-1.36775e-08
-3.18247e-09
-1.1453e-08
-3.00344e-09
-9.3754e-09
-2.80313e-09
-7.45988e-09
-2.58195e-09
-5.72095e-09
-2.34064e-09
-4.1722e-09
-2.08031e-09
-2.82594e-09
-1.80261e-09
-1.69255e-09
-1.50995e-09
-7.79792e-10
-1.2058e-09
-9.16349e-11
-8.95102e-10
3.73254e-10
-5.84994e-10
6.23779e-10
-2.85886e-10
6.79614e-10
-1.30692e-11
5.75648e-10
2.10978e-10
3.67546e-10
3.53429e-10
1.3707e-10
3.67696e-10
1.96553e-10
1.56029e-10
-3.61947e-10
3.61724e-10
-5.57162e-10
4.67723e-10
-4.11628e-10
3.82264e-10
-6.54521e-11
4.19958e-11
4.15817e-10
-5.94858e-10
9.84307e-10
-1.55309e-09
1.60238e-09
-2.84428e-09
2.24191e-09
-4.46996e-09
2.88249e-09
-6.4242e-09
3.5094e-09
-8.69542e-09
4.11216e-09
-1.1268e-08
4.6834e-09
-1.41235e-08
5.21789e-09
-1.72412e-08
5.71214e-09
-2.05991e-08
6.16382e-09
-2.41743e-08
6.5715e-09
-2.79431e-08
6.93444e-09
-3.1882e-08
7.25246e-09
-3.59671e-08
7.52566e-09
-4.0175e-08
7.7546e-09
-4.44823e-08
7.93997e-09
-4.88663e-08
8.08269e-09
-5.33046e-08
8.18384e-09
-5.77757e-08
8.24462e-09
-6.22584e-08
8.26628e-09
-6.67324e-08
8.25021e-09
-7.11782e-08
8.19782e-09
-7.55767e-08
8.11053e-09
-7.991e-08
7.98982e-09
-8.41607e-08
7.83716e-09
-8.83124e-08
7.65406e-09
-9.23492e-08
7.442e-09
-9.62563e-08
7.20246e-09
-1.00019e-07
6.93693e-09
-1.03625e-07
6.64688e-09
-1.07062e-07
6.33375e-09
-1.10316e-07
5.99897e-09
-1.13378e-07
5.64399e-09
-1.16238e-07
5.27023e-09
-1.18885e-07
4.87909e-09
-1.21311e-07
4.47196e-09
-1.23508e-07
4.05024e-09
-1.25469e-07
3.61531e-09
-1.27188e-07
3.16858e-09
-1.28658e-07
2.71143e-09
-1.29876e-07
2.24524e-09
-1.30836e-07
1.77139e-09
-1.31536e-07
1.29129e-09
-1.31973e-07
8.06353e-10
-1.32144e-07
3.18007e-10
-1.3205e-07
-1.72299e-10
-1.31689e-07
-6.63115e-10
-1.31063e-07
-1.15296e-09
-1.30172e-07
-1.64032e-09
-1.29019e-07
-2.12368e-09
-1.27606e-07
-2.60149e-09
-1.25939e-07
-3.07216e-09
-1.24021e-07
-3.53409e-09
-1.21859e-07
-3.98563e-09
-1.19458e-07
-4.42514e-09
-1.16826e-07
-4.85093e-09
-1.13973e-07
-5.26133e-09
-1.10906e-07
-5.6546e-09
-1.07637e-07
-6.02899e-09
-1.04176e-07
-6.38275e-09
-1.00535e-07
-6.7141e-09
-9.67291e-08
-7.02127e-09
-9.27707e-08
-7.30252e-09
-8.86752e-08
-7.55607e-09
-8.44585e-08
-7.78018e-09
-8.01377e-08
-7.97311e-09
-7.57304e-08
-8.13316e-09
-7.12553e-08
-8.25868e-09
-6.67319e-08
-8.34807e-09
-6.21806e-08
-8.39978e-09
-5.76223e-08
-8.41237e-09
-5.3079e-08
-8.38448e-09
-4.85731e-08
-8.31482e-09
-4.41275e-08
-8.20224e-09
-3.97658e-08
-8.04575e-09
-3.5512e-08
-7.84451e-09
-3.13901e-08
-7.59792e-09
-2.74245e-08
-7.30559e-09
-2.36395e-08
-6.96744e-09
-2.00592e-08
-6.58377e-09
-1.67071e-08
-6.15525e-09
-1.36059e-08
-5.68312e-09
-1.07772e-08
-5.1693e-09
-8.24093e-09
-4.6166e-09
-6.01446e-09
-4.02908e-09
-4.11207e-09
-3.41235e-09
-2.54364e-09
-2.77423e-09
-1.31317e-09
-2.12557e-09
-4.16738e-10
-1.48142e-09
1.60138e-10
-8.62764e-10
4.4596e-10
-2.98885e-10
4.87536e-10
1.69409e-10
3.54752e-10
4.86213e-10
1.45557e-10
5.76902e-10
3.42114e-10
1.1353e-10
-4.75455e-10
2.1323e-10
-6.56876e-10
1.45233e-10
-3.43633e-10
-1.90938e-10
2.7073e-10
-8.65167e-10
1.09003e-09
-1.92423e-09
2.04337e-09
-3.39656e-09
3.07467e-09
-5.29591e-09
4.14128e-09
-7.62461e-09
5.21118e-09
-1.03759e-08
6.26072e-09
-1.35362e-08
7.27251e-09
-1.70867e-08
8.23384e-09
-2.10044e-08
9.13558e-09
-2.52635e-08
9.97132e-09
-2.98363e-08
1.07366e-08
-3.46934e-08
1.14286e-08
-3.98046e-08
1.20457e-08
-4.51392e-08
1.2587e-08
-5.06663e-08
1.30527e-08
-5.63549e-08
1.34433e-08
-6.21747e-08
1.37597e-08
-6.80954e-08
1.40034e-08
-7.40876e-08
1.41761e-08
-8.01226e-08
1.42796e-08
-8.61722e-08
1.4316e-08
-9.22095e-08
1.42875e-08
-9.82081e-08
1.41964e-08
-1.04143e-07
1.40452e-08
-1.09989e-07
1.38363e-08
-1.15724e-07
1.35723e-08
-1.21326e-07
1.32555e-08
-1.26772e-07
1.28886e-08
-1.32044e-07
1.24741e-08
-1.37122e-07
1.20145e-08
-1.41987e-07
1.15123e-08
-1.46623e-07
1.09701e-08
-1.51015e-07
1.03904e-08
-1.55146e-07
9.77554e-09
-1.59004e-07
9.12809e-09
-1.62576e-07
8.45047e-09
-1.65849e-07
7.7451e-09
-1.68813e-07
7.0144e-09
-1.71458e-07
6.2608e-09
-1.73777e-07
5.48671e-09
-1.7576e-07
4.69455e-09
-1.77401e-07
3.88673e-09
-1.78695e-07
3.06567e-09
-1.79638e-07
2.23382e-09
-1.80225e-07
1.39364e-09
-1.80455e-07
5.47607e-10
-1.80325e-07
-3.01773e-10
-1.79837e-07
-1.15195e-09
-1.78989e-07
-2.00036e-09
-1.77785e-07
-2.84437e-09
-1.76227e-07
-3.68134e-09
-1.7432e-07
-4.50858e-09
-1.72069e-07
-5.32335e-09
-1.6948e-07
-6.12286e-09
-1.66562e-07
-6.90427e-09
-1.63322e-07
-7.66473e-09
-1.59772e-07
-8.40134e-09
-1.55922e-07
-9.11116e-09
-1.51785e-07
-9.79121e-09
-1.47376e-07
-1.04385e-08
-1.42709e-07
-1.105e-08
-1.378e-07
-1.16226e-08
-1.32668e-07
-1.21534e-08
-1.27331e-07
-1.26392e-08
-1.2181e-07
-1.30772e-08
-1.16126e-07
-1.34643e-08
-1.10302e-07
-1.37975e-08
-1.04361e-07
-1.4074e-08
-9.83287e-08
-1.4291e-08
-9.22311e-08
-1.44457e-08
-8.60951e-08
-1.45357e-08
-7.9949e-08
-1.45585e-08
-7.38218e-08
-1.45117e-08
-6.77432e-08
-1.43934e-08
-6.17438e-08
-1.42017e-08
-5.58546e-08
-1.3935e-08
-5.01071e-08
-1.3592e-08
-4.45331e-08
-1.31719e-08
-3.91644e-08
-1.26743e-08
-3.40326e-08
-1.20993e-08
-2.91688e-08
-1.14476e-08
-2.46032e-08
-1.07208e-08
-2.0365e-08
-9.92135e-09
-1.64812e-08
-9.05304e-09
-1.29767e-08
-8.12116e-09
-9.87271e-09
-7.13305e-09
-7.18634e-09
-6.09871e-09
-4.92889e-09
-5.03167e-09
-3.10428e-09
-3.95018e-09
-1.70689e-09
-2.87881e-09
-7.18998e-10
-1.85065e-09
-1.07596e-10
-9.10273e-10
1.79336e-10
-1.17524e-10
2.16965e-10
4.48584e-10
1.08693e-10
6.85179e-10
4.50803e-10
4.4045e-11
-5.19503e-10
-1.98803e-11
-5.92922e-10
-3.32812e-10
-3.07086e-11
-9.93519e-10
9.31417e-10
-2.07195e-09
2.16847e-09
-3.61554e-09
3.58696e-09
-5.65338e-09
5.11253e-09
-8.19966e-09
6.68755e-09
-1.12564e-08
8.26794e-09
-1.48159e-08
9.82025e-09
-1.88627e-08
1.13193e-08
-2.33751e-08
1.27462e-08
-2.83267e-08
1.40872e-08
-3.36877e-08
1.53322e-08
-3.94252e-08
1.64741e-08
-4.55048e-08
1.75082e-08
-5.18905e-08
1.84314e-08
-5.85456e-08
1.92422e-08
-6.5433e-08
1.99402e-08
-7.25157e-08
2.05259e-08
-7.97565e-08
2.10006e-08
-8.71191e-08
2.1366e-08
-9.45674e-08
2.16244e-08
-1.02066e-07
2.17786e-08
-1.09582e-07
2.18313e-08
-1.1708e-07
2.1786e-08
-1.2453e-07
2.16459e-08
-1.31899e-07
2.14145e-08
-1.39158e-07
2.10955e-08
-1.46278e-07
2.06926e-08
-1.53233e-07
2.02096e-08
-1.59994e-07
1.96502e-08
-1.66538e-07
1.90182e-08
-1.72841e-07
1.83176e-08
-1.78881e-07
1.75521e-08
-1.84637e-07
1.67254e-08
-1.90088e-07
1.58414e-08
-1.95216e-07
1.49039e-08
-2.00004e-07
1.39166e-08
-2.04437e-07
1.28832e-08
-2.085e-07
1.18074e-08
-2.12178e-07
1.0693e-08
-2.15461e-07
9.54365e-09
-2.18337e-07
8.36303e-09
-2.20798e-07
7.15483e-09
-2.22834e-07
5.92275e-09
-2.24438e-07
4.67053e-09
-2.25607e-07
3.40191e-09
-2.26334e-07
2.12063e-09
-2.26616e-07
8.30512e-10
-2.26454e-07
-4.64625e-10
-2.25845e-07
-1.76087e-09
-2.24791e-07
-3.0543e-09
-2.23294e-07
-4.34092e-09
-2.21359e-07
-5.61668e-09
-2.1899e-07
-6.87745e-09
-2.16194e-07
-8.11907e-09
-2.1298e-07
-9.33729e-09
-2.09356e-07
-1.05278e-08
-2.05335e-07
-1.16862e-08
-2.00928e-07
-1.28082e-08
-1.9615e-07
-1.38892e-08
-1.91017e-07
-1.49247e-08
-1.85545e-07
-1.59102e-08
-1.79754e-07
-1.6841e-08
-1.73664e-07
-1.77127e-08
-1.67296e-07
-1.85206e-08
-1.60676e-07
-1.92601e-08
-1.53826e-07
-1.99267e-08
-1.46774e-07
-2.05159e-08
-1.39548e-07
-2.10234e-08
-1.32178e-07
-2.14447e-08
-1.24693e-07
-2.17758e-08
-1.17126e-07
-2.20126e-08
-1.09511e-07
-2.21513e-08
-1.01881e-07
-2.21883e-08
-9.4272e-08
-2.21204e-08
-8.6721e-08
-2.19445e-08
-7.92647e-08
-2.1658e-08
-7.1941e-08
-2.12587e-08
-6.47879e-08
-2.0745e-08
-5.78441e-08
-2.01158e-08
-5.11476e-08
-1.93708e-08
-4.47364e-08
-1.85104e-08
-3.86478e-08
-1.75363e-08
-3.29176e-08
-1.6451e-08
-2.758e-08
-1.52589e-08
-2.26669e-08
-1.39661e-08
-1.82069e-08
-1.25811e-08
-1.42248e-08
-1.11152e-08
-1.07397e-08
-9.5838e-09
-7.76434e-09
-8.00699e-09
-5.30318e-09
-6.41135e-09
-3.35021e-09
-4.83177e-09
-1.88682e-09
-3.31402e-09
-8.79059e-10
-1.91803e-09
-2.74567e-10
-7.2202e-10
7.51166e-13
1.73272e-10
4.69841e-11
6.38943e-10
4.97787e-10
-3.72752e-11
-4.82237e-10
-2.98722e-10
-3.31499e-10
-9.03265e-10
5.73846e-10
-1.94015e-09
1.9683e-09
-3.47404e-09
3.70234e-09
-5.54916e-09
5.66209e-09
-8.19264e-09
7.756e-09
-1.14171e-08
9.91205e-09
-1.52233e-08
1.20741e-08
-1.96017e-08
1.41986e-08
-2.45347e-08
1.62523e-08
-2.99982e-08
1.82097e-08
-3.59626e-08
2.00517e-08
-4.23944e-08
2.1764e-08
-4.92567e-08
2.33365e-08
-5.65105e-08
2.4762e-08
-6.41149e-08
2.60358e-08
-7.20282e-08
2.71555e-08
-8.02079e-08
2.81198e-08
-8.86112e-08
2.89292e-08
-9.71955e-08
2.95849e-08
-1.05919e-07
3.00892e-08
-1.14739e-07
3.04448e-08
-1.23616e-07
3.06554e-08
-1.32509e-07
3.07247e-08
-1.4138e-07
3.06571e-08
-1.50192e-07
3.0457e-08
-1.58906e-07
3.01293e-08
-1.6749e-07
2.96789e-08
-1.75908e-07
2.9111e-08
-1.84129e-07
2.84306e-08
-1.92122e-07
2.76431e-08
-1.99858e-07
2.67537e-08
-2.07308e-07
2.57677e-08
-2.14446e-07
2.46905e-08
-2.21248e-07
2.35274e-08
-2.2769e-07
2.22836e-08
-2.33751e-07
2.09644e-08
-2.39409e-07
1.95752e-08
-2.44647e-07
1.81211e-08
-2.49447e-07
1.66074e-08
-2.53794e-07
1.50393e-08
-2.57672e-07
1.34221e-08
-2.6107e-07
1.17608e-08
-2.63976e-07
1.00608e-08
-2.6638e-07
8.32721e-09
-2.68275e-07
6.56534e-09
-2.69653e-07
4.78044e-09
-2.70511e-07
2.97782e-09
-2.70843e-07
1.16286e-09
-2.70649e-07
-6.59026e-10
-2.69927e-07
-2.48237e-09
-2.6868e-07
-4.30162e-09
-2.6691e-07
-6.11113e-09
-2.64621e-07
-7.90522e-09
-2.6182e-07
-9.6781e-09
-2.58516e-07
-1.14239e-08
-2.54716e-07
-1.31366e-08
-2.50434e-07
-1.48102e-08
-2.45682e-07
-1.64385e-08
-2.40474e-07
-1.80155e-08
-2.34829e-07
-1.95347e-08
-2.28764e-07
-2.09899e-08
-2.22299e-07
-2.23747e-08
-2.15457e-07
-2.36827e-08
-2.08263e-07
-2.49075e-08
-2.00741e-07
-2.60427e-08
-1.92919e-07
-2.7082e-08
-1.84826e-07
-2.8019e-08
-1.76495e-07
-2.88475e-08
-1.67957e-07
-2.95614e-08
-1.59247e-07
-3.01547e-08
-1.50401e-07
-3.06218e-08
-1.41456e-07
-3.09572e-08
-1.32452e-07
-3.11556e-08
-1.23428e-07
-3.12121e-08
-1.14426e-07
-3.11223e-08
-1.05488e-07
-3.08823e-08
-9.66577e-08
-3.04885e-08
-8.79781e-08
-2.99383e-08
-7.94937e-08
-2.92295e-08
-7.12485e-08
-2.8361e-08
-6.32866e-08
-2.73326e-08
-5.56515e-08
-2.61456e-08
-4.83854e-08
-2.48023e-08
-4.15292e-08
-2.33072e-08
-3.51216e-08
-2.16665e-08
-2.91985e-08
-1.98893e-08
-2.37919e-08
-1.79877e-08
-1.89293e-08
-1.59778e-08
-1.46324e-08
-1.38807e-08
-1.09155e-08
-1.17238e-08
-7.78442e-09
-9.54244e-09
-5.23421e-09
-7.38197e-09
-3.24755e-09
-5.30069e-09
-1.79244e-09
-3.37316e-09
-8.19934e-10
-1.69452e-09
-2.6181e-10
-3.84844e-10
-2.77542e-11
4.04886e-10
4.70039e-10
-1.2312e-10
-3.59123e-10
-6.00146e-10
1.45543e-10
-1.52478e-09
1.49847e-09
-2.97174e-09
3.41524e-09
-4.99638e-09
5.72699e-09
-7.63674e-09
8.30244e-09
-1.09155e-08
1.10348e-08
-1.48421e-08
1.38387e-08
-1.94145e-08
1.66465e-08
-2.46207e-08
1.94049e-08
-3.04407e-08
2.20723e-08
-3.68475e-08
2.46165e-08
-4.38085e-08
2.70127e-08
-5.12868e-08
2.92423e-08
-5.9242e-08
3.12917e-08
-6.7631e-08
3.31509e-08
-7.64086e-08
3.48134e-08
-8.55284e-08
3.62753e-08
-9.49434e-08
3.75347e-08
-1.04606e-07
3.85916e-08
-1.14468e-07
3.94472e-08
-1.24483e-07
4.0104e-08
-1.34604e-07
4.05656e-08
-1.44784e-07
4.0836e-08
-1.5498e-07
4.09204e-08
-1.65147e-07
4.08239e-08
-1.75242e-07
4.05525e-08
-1.85225e-07
4.01122e-08
-1.95056e-07
3.95095e-08
-2.04696e-07
3.8751e-08
-2.14109e-07
3.78435e-08
-2.23259e-07
3.67937e-08
-2.32114e-07
3.56087e-08
-2.40642e-07
3.42955e-08
-2.48813e-07
3.28609e-08
-2.56597e-07
3.13121e-08
-2.6397e-07
2.96561e-08
-2.70905e-07
2.78998e-08
-2.7738e-07
2.60503e-08
-2.83374e-07
2.41145e-08
-2.88866e-07
2.20994e-08
-2.93838e-07
2.00119e-08
-2.98275e-07
1.7859e-08
-3.02162e-07
1.56476e-08
-3.05486e-07
1.33846e-08
-3.08236e-07
1.10771e-08
-3.10402e-07
8.73192e-09
-3.11978e-07
6.35622e-09
-3.12957e-07
3.95705e-09
-3.13336e-07
1.54156e-09
-3.13112e-07
-8.83033e-10
-3.12285e-07
-3.3094e-09
-3.10856e-07
-5.73017e-09
-3.0883e-07
-8.13785e-09
-3.0621e-07
-1.05248e-08
-3.03005e-07
-1.28834e-08
-2.99223e-07
-1.52058e-08
-2.94875e-07
-1.74841e-08
-2.89975e-07
-1.97102e-08
-2.84538e-07
-2.1876e-08
-2.7858e-07
-2.39732e-08
-2.72121e-07
-2.59937e-08
-2.65182e-07
-2.79289e-08
-2.57786e-07
-2.97706e-08
-2.49959e-07
-3.15101e-08
-2.41727e-07
-3.31391e-08
-2.33121e-07
-3.46492e-08
-2.24171e-07
-3.60318e-08
-2.14911e-07
-3.72788e-08
-2.05376e-07
-3.8382e-08
-1.95604e-07
-3.93334e-08
-1.85634e-07
-4.01253e-08
-1.75506e-07
-4.075e-08
-1.65262e-07
-4.12006e-08
-1.54947e-07
-4.14703e-08
-1.44607e-07
-4.15528e-08
-1.34287e-07
-4.14424e-08
-1.24035e-07
-4.11341e-08
-1.139e-07
-4.06237e-08
-1.0393e-07
-3.99076e-08
-9.41761e-08
-3.89836e-08
-8.46866e-08
-3.78506e-08
-7.55106e-08
-3.65086e-08
-6.66964e-08
-3.49597e-08
-5.82911e-08
-3.32077e-08
-5.03397e-08
-3.12585e-08
-4.2885e-08
-2.91212e-08
-3.59664e-08
-2.68079e-08
-2.96193e-08
-2.43348e-08
-2.38739e-08
-2.17231e-08
-1.87545e-08
-1.90001e-08
-1.42778e-08
-1.62006e-08
-1.04517e-08
-1.33686e-08
-7.27379e-09
-1.05599e-08
-4.7299e-09
-7.84457e-09
-2.79237e-09
-5.31069e-09
-1.41856e-09
-3.06833e-09
-5.49498e-10
-1.25391e-09
-1.08617e-10
-3.59887e-11
3.61426e-10
-2.09675e-10
-1.49449e-10
-9.10415e-10
8.4628e-10
-2.17056e-09
2.75861e-09
-4.0479e-09
5.2926e-09
-6.58592e-09
8.26501e-09
-9.81407e-09
1.15306e-08
-1.37487e-08
1.49695e-08
-1.83945e-08
1.84844e-08
-2.37454e-08
2.19973e-08
-2.97861e-08
2.54456e-08
-3.64935e-08
2.87796e-08
-4.38375e-08
3.19604e-08
-5.17824e-08
3.49577e-08
-6.02881e-08
3.7748e-08
-6.93106e-08
4.03141e-08
-7.8803e-08
4.26433e-08
-8.87164e-08
4.47268e-08
-9.90003e-08
4.65593e-08
-1.09603e-07
4.81377e-08
-1.20473e-07
4.94616e-08
-1.31558e-07
5.05322e-08
-1.42806e-07
5.13522e-08
-1.54166e-07
5.19256e-08
-1.65588e-07
5.22574e-08
-1.77021e-07
5.23535e-08
-1.88418e-07
5.22205e-08
-1.99731e-07
5.18655e-08
-2.10915e-07
5.12962e-08
-2.21925e-07
5.05204e-08
-2.32721e-07
4.95464e-08
-2.4326e-07
4.83827e-08
-2.53504e-07
4.70379e-08
-2.63416e-07
4.55207e-08
-2.72961e-07
4.384e-08
-2.82104e-07
4.20046e-08
-2.90816e-07
4.00235e-08
-2.99065e-07
3.79055e-08
-3.06825e-07
3.56596e-08
-3.14069e-07
3.32946e-08
-3.20774e-07
3.08195e-08
-3.26918e-07
2.82431e-08
-3.3248e-07
2.55743e-08
-3.37443e-07
2.28219e-08
-3.41791e-07
1.99948e-08
-3.45508e-07
1.71019e-08
-3.48583e-07
1.41522e-08
-3.51006e-07
1.11545e-08
-3.52767e-07
8.11788e-09
-3.53862e-07
5.05139e-09
-3.54284e-07
1.96418e-09
-3.54033e-07
-1.13451e-09
-3.53107e-07
-4.23533e-09
-3.51508e-07
-7.32885e-09
-3.4924e-07
-1.04055e-08
-3.4631e-07
-1.34555e-08
-3.42724e-07
-1.64691e-08
-3.38494e-07
-1.94363e-08
-3.33631e-07
-2.2347e-08
-3.2815e-07
-2.5191e-08
-3.22068e-07
-2.79579e-08
-3.15404e-07
-3.06372e-08
-3.08179e-07
-3.32183e-08
-3.00418e-07
-3.56907e-08
-2.92145e-07
-3.80435e-08
-2.83389e-07
-4.02662e-08
-2.7418e-07
-4.23479e-08
-2.64551e-07
-4.42779e-08
-2.54537e-07
-4.60457e-08
-2.44175e-07
-4.76408e-08
-2.33504e-07
-4.90529e-08
-2.22566e-07
-5.02719e-08
-2.11403e-07
-5.12882e-08
-2.00061e-07
-5.20922e-08
-1.88586e-07
-5.26752e-08
-1.77028e-07
-5.30286e-08
-1.65436e-07
-5.31448e-08
-1.53861e-07
-5.30169e-08
-1.42357e-07
-5.26386e-08
-1.30976e-07
-5.20048e-08
-1.19772e-07
-5.11115e-08
-1.08799e-07
-4.99562e-08
-9.81121e-08
-4.85378e-08
-8.77639e-08
-4.68569e-08
-7.78072e-08
-4.49164e-08
-6.82932e-08
-4.27216e-08
-5.92711e-08
-4.02806e-08
-5.07873e-08
-3.76051e-08
-4.28845e-08
-3.47106e-08
-3.56015e-08
-3.16178e-08
-2.89715e-08
-2.83531e-08
-2.30217e-08
-2.49499e-08
-1.77717e-08
-2.14505e-08
-1.32327e-08
-1.79076e-08
-9.40607e-09
-1.43865e-08
-6.28223e-09
-1.09684e-08
-3.83975e-09
-7.75316e-09
-2.04436e-09
-4.86372e-09
-8.48532e-10
-2.44974e-09
-1.91517e-10
-6.92995e-10
1.69904e-10
-2.94991e-10
1.4553e-10
-1.22127e-09
1.77255e-09
-2.82342e-09
4.36078e-09
-5.14151e-09
7.61068e-09
-8.20566e-09
1.13292e-08
-1.20352e-08
1.53601e-08
-1.66387e-08
1.9573e-08
-2.20147e-08
2.38604e-08
-2.81521e-08
2.81348e-08
-3.50316e-08
3.23251e-08
-4.26261e-08
3.63742e-08
-5.09021e-08
4.02365e-08
-5.98207e-08
4.38763e-08
-6.93383e-08
4.72655e-08
-7.94073e-08
5.03832e-08
-8.99776e-08
5.32135e-08
-1.00996e-07
5.57456e-08
-1.12409e-07
5.79723e-08
-1.24161e-07
5.98897e-08
-1.36196e-07
6.14965e-08
-1.48458e-07
6.27939e-08
-1.6089e-07
6.37847e-08
-1.73438e-07
6.44734e-08
-1.86047e-07
6.48659e-08
-1.98662e-07
6.4969e-08
-2.11232e-07
6.47905e-08
-2.23706e-07
6.4339e-08
-2.36033e-07
6.36235e-08
-2.48166e-07
6.26537e-08
-2.6006e-07
6.14396e-08
-2.71668e-07
5.99914e-08
-2.8295e-07
5.83197e-08
-2.93865e-07
5.64351e-08
-3.04373e-07
5.43484e-08
-3.14439e-07
5.20706e-08
-3.24028e-07
4.96126e-08
-3.33108e-07
4.69853e-08
-3.41648e-07
4.41997e-08
-3.4962e-07
4.12669e-08
-3.56998e-07
3.81977e-08
-3.63758e-07
3.50033e-08
-3.69879e-07
3.16944e-08
-3.75339e-07
2.82822e-08
-3.80122e-07
2.47775e-08
-3.84211e-07
2.11915e-08
-3.87594e-07
1.75351e-08
-3.90259e-07
1.38195e-08
-3.92197e-07
1.00557e-08
-3.93401e-07
6.2551e-09
-3.93865e-07
2.42898e-09
-3.93589e-07
-1.41122e-09
-3.9257e-07
-5.25391e-09
-3.90812e-07
-9.0874e-09
-3.88317e-07
-1.28998e-08
-3.85094e-07
-1.66792e-08
-3.81149e-07
-2.04133e-08
-3.76496e-07
-2.40898e-08
-3.71147e-07
-2.76962e-08
-3.65118e-07
-3.122e-08
-3.58427e-07
-3.46482e-08
-3.51097e-07
-3.7968e-08
-3.43149e-07
-4.11663e-08
-3.34609e-07
-4.423e-08
-3.25507e-07
-4.71459e-08
-3.15872e-07
-4.99008e-08
-3.05739e-07
-5.24816e-08
-2.95142e-07
-5.48751e-08
-2.84119e-07
-5.70682e-08
-2.72712e-07
-5.90482e-08
-2.60962e-07
-6.08025e-08
-2.48915e-07
-6.23187e-08
-2.36618e-07
-6.35851e-08
-2.24121e-07
-6.45901e-08
-2.11473e-07
-6.53231e-08
-1.98727e-07
-6.57738e-08
-1.85939e-07
-6.59329e-08
-1.73164e-07
-6.57922e-08
-1.60458e-07
-6.53443e-08
-1.4788e-07
-6.45832e-08
-1.35487e-07
-6.35045e-08
-1.23338e-07
-6.21052e-08
-1.11491e-07
-6.03844e-08
-1.00005e-07
-5.83435e-08
-8.89349e-08
-5.59863e-08
-7.83368e-08
-5.33197e-08
-6.82632e-08
-5.03542e-08
-5.87643e-08
-4.7104e-08
-4.98863e-08
-4.35886e-08
-4.16712e-08
-3.98329e-08
-3.41557e-08
-3.58686e-08
-2.73702e-08
-3.17354e-08
-2.1338e-08
-2.74827e-08
-1.60744e-08
-2.31712e-08
-1.15855e-08
-1.88754e-08
-7.86792e-09
-1.4686e-08
-4.90756e-09
-1.07135e-08
-2.67996e-09
-7.09133e-09
-1.15021e-09
-3.97949e-09
-2.74074e-10
-1.56913e-09
-1.04174e-10
-3.78044e-10
5.23585e-10
-1.52799e-09
2.9225e-09
-3.47268e-09
6.30547e-09
-6.23471e-09
1.03727e-08
-9.83034e-09
1.49248e-08
-1.42679e-08
1.97976e-08
-1.95471e-08
2.48522e-08
-2.56593e-08
2.99726e-08
-3.25876e-08
3.50631e-08
-4.03077e-08
4.00451e-08
-4.87882e-08
4.48546e-08
-5.79916e-08
4.94399e-08
-6.78753e-08
5.376e-08
-7.83921e-08
5.77823e-08
-8.94911e-08
6.14822e-08
-1.01118e-07
6.48409e-08
-1.13218e-07
6.78451e-08
-1.25732e-07
7.04861e-08
-1.38601e-07
7.27587e-08
-1.51765e-07
7.46611e-08
-1.65165e-07
7.6194e-08
-1.78741e-07
7.73607e-08
-1.92434e-07
7.8166e-08
-2.06185e-07
7.86165e-08
-2.19936e-07
7.87202e-08
-2.33632e-07
7.84861e-08
-2.47217e-07
7.79242e-08
-2.60638e-07
7.70451e-08
-2.73845e-07
7.58603e-08
-2.86787e-07
7.43814e-08
-2.99416e-07
7.26209e-08
-3.11688e-07
7.0591e-08
-3.23557e-07
6.83047e-08
-3.34984e-07
6.57749e-08
-3.45928e-07
6.30145e-08
-3.56352e-07
6.00368e-08
-3.66221e-07
5.68548e-08
-3.75503e-07
5.34818e-08
-3.84168e-07
4.99311e-08
-3.92186e-07
4.62158e-08
-3.99532e-07
4.23493e-08
-4.06182e-07
3.83446e-08
-4.12115e-07
3.42152e-08
-4.17312e-07
2.99742e-08
-4.21755e-07
2.56349e-08
-4.25431e-07
2.12108e-08
-4.28327e-07
1.67152e-08
-4.30432e-07
1.21616e-08
-4.31741e-07
7.56355e-09
-4.32247e-07
2.93482e-09
-4.31947e-07
-1.71076e-09
-4.30842e-07
-6.35922e-09
-4.28933e-07
-1.09964e-08
-4.26225e-07
-1.5608e-08
-4.22724e-07
-2.01796e-08
-4.18441e-07
-2.46963e-08
-4.13388e-07
-2.91434e-08
-4.07578e-07
-3.35057e-08
-4.0103e-07
-3.77681e-08
-3.93763e-07
-4.1915e-08
-3.858e-07
-4.59311e-08
-3.77166e-07
-4.98004e-08
-3.67889e-07
-5.35074e-08
-3.57999e-07
-5.7036e-08
-3.47529e-07
-6.03705e-08
-3.36515e-07
-6.3495e-08
-3.24997e-07
-6.63938e-08
-3.13013e-07
-6.90513e-08
-3.0061e-07
-7.14522e-08
-2.87831e-07
-7.35813e-08
-2.74725e-07
-7.5424e-08
-2.61344e-07
-7.69663e-08
-2.4774e-07
-7.81944e-08
-2.33967e-07
-7.90957e-08
-2.20083e-07
-7.96581e-08
-2.06145e-07
-7.98707e-08
-1.92213e-07
-7.97238e-08
-1.78349e-07
-7.92089e-08
-1.64613e-07
-7.8319e-08
-1.51068e-07
-7.70492e-08
-1.37777e-07
-7.53964e-08
-1.24802e-07
-7.33597e-08
-1.12204e-07
-7.09413e-08
-1.00044e-07
-6.81462e-08
-8.83811e-08
-6.49828e-08
-7.72713e-08
-6.14639e-08
-6.67684e-08
-5.76069e-08
-5.69223e-08
-5.34347e-08
-4.77785e-08
-4.89767e-08
-3.93773e-08
-4.42698e-08
-3.17531e-08
-3.93596e-08
-2.49335e-08
-3.43023e-08
-1.89385e-08
-2.91662e-08
-1.37801e-08
-2.40338e-08
-9.46165e-09
-1.90045e-08
-5.97764e-09
-1.41975e-08
-3.31408e-09
-9.75489e-09
-1.44918e-09
-5.84438e-09
-3.5495e-10
-2.66336e-09
-4.5912e-10
-4.58422e-10
9.82012e-10
-1.82788e-09
4.29195e-09
-4.1118e-09
8.58938e-09
-7.31615e-09
1.35771e-08
-1.14434e-08
1.9052e-08
-1.64903e-08
2.48446e-08
-2.24473e-08
3.08092e-08
-2.92978e-08
3.68231e-08
-3.70184e-08
4.27837e-08
-4.55791e-08
4.86057e-08
-5.49434e-08
5.4219e-08
-6.50698e-08
5.95663e-08
-7.59113e-08
6.46015e-08
-8.74171e-08
6.92881e-08
-9.95325e-08
7.35976e-08
-1.122e-07
7.75086e-08
-1.25361e-07
8.10054e-08
-1.38952e-07
8.40776e-08
-1.52912e-07
8.67188e-08
-1.67178e-07
8.89266e-08
-1.81685e-07
9.07014e-08
-1.96371e-07
9.20467e-08
-2.11173e-07
9.29677e-08
-2.26028e-07
9.34719e-08
-2.40876e-07
9.35684e-08
-2.55657e-07
9.32673e-08
-2.70313e-07
9.25802e-08
-2.84788e-07
9.15194e-08
-2.99026e-07
9.00981e-08
-3.12974e-07
8.83301e-08
-3.26583e-07
8.62294e-08
-3.39803e-07
8.38109e-08
-3.52587e-07
8.10894e-08
-3.64893e-07
7.80801e-08
-3.76677e-07
7.47983e-08
-3.87899e-07
7.12595e-08
-3.98524e-07
6.74792e-08
-4.08515e-07
6.3473e-08
-4.1784e-07
5.92564e-08
-4.26469e-07
5.48451e-08
-4.34375e-07
5.02548e-08
-4.41531e-07
4.55011e-08
-4.47916e-07
4.05997e-08
-4.53508e-07
3.55663e-08
-4.5829e-07
3.04167e-08
-4.62246e-07
2.51666e-08
-4.65362e-07
1.9832e-08
-4.6763e-07
1.44288e-08
-4.69039e-07
8.97309e-09
-4.69586e-07
3.48119e-09
-4.69266e-07
-2.03057e-09
-4.68079e-07
-7.54563e-09
-4.66028e-07
-1.30472e-08
-4.63118e-07
-1.85184e-08
-4.59356e-07
-2.3942e-08
-4.54751e-07
-2.93006e-08
-4.49318e-07
-3.45767e-08
-4.43071e-07
-3.97524e-08
-4.3603e-07
-4.48097e-08
-4.28214e-07
-4.97304e-08
-4.19649e-07
-5.44961e-08
-4.10361e-07
-5.90884e-08
-4.0038e-07
-6.34885e-08
-3.89738e-07
-6.76777e-08
-3.78471e-07
-7.16375e-08
-3.66617e-07
-7.53491e-08
-3.54217e-07
-7.87941e-08
-3.41314e-07
-8.19541e-08
-3.27955e-07
-8.48111e-08
-3.14189e-07
-8.73474e-08
-3.00068e-07
-8.95458e-08
-2.85644e-07
-9.13899e-08
-2.70975e-07
-9.28637e-08
-2.56118e-07
-9.39525e-08
-2.41134e-07
-9.46422e-08
-2.26084e-07
-9.49202e-08
-2.11033e-07
-9.47753e-08
-1.96044e-07
-9.41977e-08
-1.81183e-07
-9.31798e-08
-1.66516e-07
-9.17158e-08
-1.5211e-07
-8.98025e-08
-1.38031e-07
-8.74394e-08
-1.24343e-07
-8.46291e-08
-1.11111e-07
-8.13778e-08
-9.83981e-08
-7.76959e-08
-8.62638e-08
-7.35982e-08
-7.47656e-08
-6.91052e-08
-6.3957e-08
-6.42433e-08
-5.38874e-08
-5.90463e-08
-4.46013e-08
-5.35559e-08
-3.61373e-08
-4.78236e-08
-2.85279e-08
-4.19117e-08
-2.17987e-08
-3.58954e-08
-1.5968e-08
-2.98645e-08
-1.10466e-08
-2.39258e-08
-7.03828e-09
-1.82059e-08
-3.93976e-09
-1.28534e-08
-1.74233e-09
-8.04182e-09
-4.33448e-10
-3.97223e-09
-8.92561e-10
-5.35916e-10
1.51793e-09
-2.11957e-09
5.87561e-09
-4.73715e-09
1.1207e-08
-8.37912e-09
1.72191e-08
-1.30345e-08
2.37074e-08
-1.86886e-08
3.04987e-08
-2.53221e-08
3.74426e-08
-3.291e-08
4.44111e-08
-4.14218e-08
5.12956e-08
-5.08213e-08
5.80053e-08
-6.10668e-08
6.44645e-08
-7.21117e-08
7.06112e-08
-8.39049e-08
7.63946e-08
-9.63912e-08
8.17745e-08
-1.09512e-07
8.67188e-08
-1.23207e-07
9.12035e-08
-1.37413e-07
9.52108e-08
-1.52064e-07
9.87285e-08
-1.67094e-07
1.01749e-07
-1.82437e-07
1.0427e-07
-1.98027e-07
1.06291e-07
-2.13795e-07
1.07815e-07
-2.29677e-07
1.08849e-07
-2.45606e-07
1.09401e-07
-2.61519e-07
1.09481e-07
-2.77353e-07
1.09101e-07
-2.93046e-07
1.08273e-07
-3.08538e-07
1.07012e-07
-3.23772e-07
1.05332e-07
-3.38692e-07
1.0325e-07
-3.53245e-07
1.00782e-07
-3.67379e-07
9.79446e-08
-3.81044e-07
9.4755e-08
-3.94195e-07
9.12308e-08
-4.06787e-07
8.73898e-08
-4.18777e-07
8.32498e-08
-4.30126e-07
7.88288e-08
-4.40798e-07
7.41449e-08
-4.50758e-07
6.92163e-08
-4.59974e-07
6.40611e-08
-4.68417e-07
5.86974e-08
-4.76059e-07
5.31436e-08
-4.82878e-07
4.74178e-08
-4.8885e-07
4.15384e-08
-4.93956e-07
3.55236e-08
-4.98182e-07
2.93919e-08
-5.01512e-07
2.31618e-08
-5.03935e-07
1.6852e-08
-5.05443e-07
1.04811e-08
-5.0603e-07
4.06809e-09
-5.05692e-07
-2.36795e-09
-5.0443e-07
-8.80774e-09
-5.02246e-07
-1.52318e-08
-4.99144e-07
-2.16203e-08
-4.95133e-07
-2.79533e-08
-4.90223e-07
-3.42106e-08
-4.84427e-07