/*--------------------------------*- C++ -*----------------------------------*\
| =========                 |                                                 |
| \\      /  F ield         | OpenFOAM: The Open Source CFD Toolbox           |
|  \\    /   O peration     | Version:  2212                                  |
|   \\  /    A nd           | Website:  www.openfoam.com                      |
|    \\/     M anipulation  |                                                 |
\*---------------------------------------------------------------------------*/
FoamFile
{
    version     2.0;
    format      ascii;
    arch        "LSB;label=32;scalar=64";
    class       volVectorField;
    location    "0.0335";
    object      U;
}
// * * * * * * * * * * * * * * * * * * * * * * * * * * * * * * * * * * * * * //

dimensions      [0 1 -1 0 0 0 0];

internalField   nonuniform List<vector> 
10000
(
(1.84297e-06 -3.62799e-06 0)
(1.28832e-05 -7.57597e-06 0)
(2.77255e-05 -7.36862e-06 0)
(4.12415e-05 -5.85348e-06 0)
(4.8191e-05 -3.43576e-06 0)
(4.75364e-05 -6.39662e-07 0)
(3.84351e-05 2.27087e-06 0)
(2.05884e-05 5.15548e-06 0)
(-5.97108e-06 7.93713e-06 0)
(-4.09807e-05 1.05782e-05 0)
(-8.40616e-05 1.30556e-05 0)
(-0.000134755 1.53523e-05 0)
(-0.000192533 1.74567e-05 0)
(-0.000256844 1.93654e-05 0)
(-0.000327116 2.10804e-05 0)
(-0.000402768 2.26098e-05 0)
(-0.000483215 2.39606e-05 0)
(-0.000567879 2.51348e-05 0)
(-0.000656188 2.61366e-05 0)
(-0.000747581 2.69693e-05 0)
(-0.000841509 2.7637e-05 0)
(-0.000937442 2.81475e-05 0)
(-0.00103486 2.85068e-05 0)
(-0.00113326 2.87213e-05 0)
(-0.00123217 2.8799e-05 0)
(-0.00133112 2.87418e-05 0)
(-0.00142965 2.85534e-05 0)
(-0.00152734 2.82429e-05 0)
(-0.00162378 2.78165e-05 0)
(-0.00171857 2.72783e-05 0)
(-0.00181134 2.66344e-05 0)
(-0.00190174 2.58908e-05 0)
(-0.00198943 2.50518e-05 0)
(-0.00207409 2.41237e-05 0)
(-0.00215542 2.31128e-05 0)
(-0.00223314 2.2023e-05 0)
(-0.00230698 2.08576e-05 0)
(-0.00237669 1.9623e-05 0)
(-0.00244204 1.83253e-05 0)
(-0.00250281 1.6968e-05 0)
(-0.00255881 1.55545e-05 0)
(-0.00260985 1.4091e-05 0)
(-0.00265577 1.25839e-05 0)
(-0.00269642 1.1038e-05 0)
(-0.00273167 9.45537e-06 0)
(-0.0027614 7.83967e-06 0)
(-0.00278552 6.19694e-06 0)
(-0.00280393 4.53333e-06 0)
(-0.00281657 2.85359e-06 0)
(-0.00282339 1.16121e-06 0)
(-0.00282436 -5.39889e-07 0)
(-0.00281946 -2.24419e-06 0)
(-0.00280869 -3.94588e-06 0)
(-0.00279207 -5.64e-06 0)
(-0.00276963 -7.32176e-06 0)
(-0.00274144 -8.9862e-06 0)
(-0.00270756 -1.06278e-05 0)
(-0.00266809 -1.22403e-05 0)
(-0.00262314 -1.38175e-05 0)
(-0.00257284 -1.5354e-05 0)
(-0.00251734 -1.68443e-05 0)
(-0.00245682 -1.82823e-05 0)
(-0.00239146 -1.96621e-05 0)
(-0.00232149 -2.0977e-05 0)
(-0.00224714 -2.22204e-05 0)
(-0.00216867 -2.33859e-05 0)
(-0.00208636 -2.44678e-05 0)
(-0.00200049 -2.54602e-05 0)
(-0.00191141 -2.63564e-05 0)
(-0.00181944 -2.71502e-05 0)
(-0.00172496 -2.78348e-05 0)
(-0.00162834 -2.84031e-05 0)
(-0.00153001 -2.88485e-05 0)
(-0.00143038 -2.91651e-05 0)
(-0.0013299 -2.93475e-05 0)
(-0.00122905 -2.93899e-05 0)
(-0.00112829 -2.92866e-05 0)
(-0.00102815 -2.90323e-05 0)
(-0.000929126 -2.86214e-05 0)
(-0.000831766 -2.80485e-05 0)
(-0.000736613 -2.73089e-05 0)
(-0.000644228 -2.63982e-05 0)
(-0.000555182 -2.53124e-05 0)
(-0.000470053 -2.40478e-05 0)
(-0.000389426 -2.26011e-05 0)
(-0.000313885 -2.09704e-05 0)
(-0.000244012 -1.91549e-05 0)
(-0.000180381 -1.71552e-05 0)
(-0.000123546 -1.49742e-05 0)
(-7.40334e-05 -1.26179e-05 0)
(-3.23264e-05 -1.00963e-05 0)
(1.15476e-06 -7.42631e-06 0)
(2.60862e-05 -4.63716e-06 0)
(4.22894e-05 -1.77961e-06 0)
(4.98119e-05 1.05626e-06 0)
(4.90557e-05 3.70992e-06 0)
(4.09633e-05 5.89413e-06 0)
(2.74148e-05 7.08034e-06 0)
(1.24025e-05 6.33023e-06 0)
(2.61378e-06 2.61537e-06 0)
(5.14694e-06 -1.23059e-05 0)
(2.33059e-05 -2.60664e-05 0)
(4.68044e-05 -2.51873e-05 0)
(6.28231e-05 -1.68162e-05 0)
(6.3895e-05 -3.8333e-06 0)
(4.61421e-05 1.16317e-05 0)
(7.22912e-06 2.82446e-05 0)
(-5.39916e-05 4.5169e-05 0)
(-0.000137778 6.18728e-05 0)
(-0.000243802 7.80171e-05 0)
(-0.000371311 9.33728e-05 0)
(-0.000519259 0.000107798 0)
(-0.000686408 0.000121192 0)
(-0.000871377 0.000133494 0)
(-0.0010727 0.00014467 0)
(-0.00128887 0.000154705 0)
(-0.00151833 0.000163604 0)
(-0.00175952 0.000171375 0)
(-0.00201089 0.000178032 0)
(-0.0022709 0.000183599 0)
(-0.00253805 0.000188099 0)
(-0.00281085 0.000191559 0)
(-0.00308785 0.000194013 0)
(-0.00336766 0.000195496 0)
(-0.00364892 0.000196038 0)
(-0.00393031 0.000195675 0)
(-0.00421056 0.000194444 0)
(-0.00448846 0.000192379 0)
(-0.00476284 0.000189517 0)
(-0.00503258 0.000185893 0)
(-0.00529662 0.000181547 0)
(-0.00555395 0.000176516 0)
(-0.00580358 0.000170833 0)
(-0.00604463 0.000164535 0)
(-0.00627622 0.000157657 0)
(-0.00649754 0.000150233 0)
(-0.00670782 0.000142297 0)
(-0.00690636 0.000133883 0)
(-0.00709248 0.000125025 0)
(-0.00726557 0.000115757 0)
(-0.00742505 0.000106109 0)
(-0.00757041 9.61179e-05 0)
(-0.00770117 8.58161e-05 0)
(-0.0078169 7.52359e-05 0)
(-0.00791723 6.44077e-05 0)
(-0.00800181 5.33631e-05 0)
(-0.00807038 4.21365e-05 0)
(-0.00812268 3.07616e-05 0)
(-0.00815852 1.92709e-05 0)
(-0.00817777 7.69713e-06 0)
(-0.00818033 -3.92633e-06 0)
(-0.00816616 -1.55649e-05 0)
(-0.00813526 -2.71832e-05 0)
(-0.0080877 -3.87466e-05 0)
(-0.00802358 -5.02195e-05 0)
(-0.00794306 -6.15645e-05 0)
(-0.00784637 -7.27434e-05 0)
(-0.00773376 -8.37178e-05 0)
(-0.00760557 -9.44487e-05 0)
(-0.00746218 -0.000104897 0)
(-0.00730402 -0.000115023 0)
(-0.0071316 -0.000124786 0)
(-0.00694547 -0.000134143 0)
(-0.00674625 -0.000143052 0)
(-0.00653462 -0.000151472 0)
(-0.0063113 -0.00015936 0)
(-0.00607709 -0.000166675 0)
(-0.00583286 -0.000173374 0)
(-0.00557952 -0.000179414 0)
(-0.00531805 -0.000184752 0)
(-0.00504948 -0.000189345 0)
(-0.00477491 -0.000193152 0)
(-0.0044955 -0.000196132 0)
(-0.00421244 -0.000198244 0)
(-0.00392702 -0.000199452 0)
(-0.00364054 -0.000199718 0)
(-0.00335437 -0.000199008 0)
(-0.00306992 -0.000197289 0)
(-0.00278863 -0.000194529 0)
(-0.00251201 -0.000190699 0)
(-0.00224157 -0.000185777 0)
(-0.00197885 -0.00017974 0)
(-0.00172544 -0.000172571 0)
(-0.00148291 -0.00016426 0)
(-0.00125284 -0.000154802 0)
(-0.00103681 -0.000144202 0)
(-0.000836343 -0.000132476 0)
(-0.000652939 -0.000119656 0)
(-0.00048801 -0.000105791 0)
(-0.000342861 -9.09579e-05 0)
(-0.000218637 -7.52714e-05 0)
(-0.000116261 -5.88992e-05 0)
(-3.63398e-05 -4.20903e-05 0)
(2.09617e-05 -2.52187e-05 0)
(5.61147e-05 -8.85451e-06 0)
(7.04895e-05 6.1225e-06 0)
(6.66715e-05 1.8349e-05 0)
(4.89725e-05 2.57053e-05 0)
(2.49745e-05 2.49832e-05 0)
(6.31719e-06 1.23904e-05 0)
(6.56183e-06 -2.69e-05 0)
(2.42803e-05 -4.82323e-05 0)
(4.1914e-05 -4.27672e-05 0)
(4.59142e-05 -1.97653e-05 0)
(2.70935e-05 1.42482e-05 0)
(-1.9857e-05 5.47756e-05 0)
(-9.82505e-05 9.87146e-05 0)
(-0.00020988 0.000143956 0)
(-0.000355353 0.000189049 0)
(-0.000534382 0.000232984 0)
(-0.000746038 0.000275079 0)
(-0.000988922 0.000314853 0)
(-0.00126129 0.000351982 0)
(-0.00156114 0.000386247 0)
(-0.00188632 0.000417506 0)
(-0.00223457 0.000445682 0)
(-0.00260353 0.000470737 0)
(-0.00299083 0.000492674 0)
(-0.00339408 0.000511513 0)
(-0.0038109 0.000527295 0)
(-0.00423894 0.000540084 0)
(-0.00467588 0.000549945 0)
(-0.00511944 0.000556954 0)
(-0.00556743 0.000561198 0)
(-0.0060177 0.000562768 0)
(-0.00646815 0.000561755 0)
(-0.00691678 0.000558258 0)
(-0.00736165 0.000552377 0)
(-0.0078009 0.00054421 0)
(-0.00823275 0.000533859 0)
(-0.00865549 0.000521429 0)
(-0.0090675 0.000507022 0)
(-0.00946723 0.00049074 0)
(-0.00985322 0.000472682 0)
(-0.0102241 0.00045295 0)
(-0.0105785 0.00043164 0)
(-0.0109153 0.000408852 0)
(-0.0112332 0.000384684 0)
(-0.0115313 0.000359234 0)
(-0.0118085 0.000332597 0)
(-0.0120639 0.000304867 0)
(-0.0122966 0.000276142 0)
(-0.012506 0.000246516 0)
(-0.0126913 0.000216084 0)
(-0.0128519 0.000184939 0)
(-0.0129872 0.000153175 0)
(-0.0130969 0.000120887 0)
(-0.0131805 8.8172e-05 0)
(-0.0132377 5.51244e-05 0)
(-0.0132684 2.18419e-05 0)
(-0.0132723 -1.15768e-05 0)
(-0.0132494 -4.50328e-05 0)
(-0.0131997 -7.84254e-05 0)
(-0.0131233 -0.000111652 0)
(-0.0130204 -0.00014461 0)
(-0.0128912 -0.00017719 0)
(-0.0127361 -0.000209285 0)
(-0.0125556 -0.000240783 0)
(-0.0123502 -0.000271574 0)
(-0.0121205 -0.000301545 0)
(-0.0118671 -0.000330581 0)
(-0.011591 -0.000358563 0)
(-0.0112929 -0.000385374 0)
(-0.010974 -0.000410893 0)
(-0.0106352 -0.000435001 0)
(-0.0102778 -0.000457577 0)
(-0.00990299 -0.000478501 0)
(-0.0095122 -0.000497651 0)
(-0.00910689 -0.000514907 0)
(-0.00868862 -0.000530148 0)
(-0.00825904 -0.000543256 0)
(-0.00781991 -0.000554113 0)
(-0.00737305 -0.000562604 0)
(-0.00692039 -0.000568621 0)
(-0.00646393 -0.000572058 0)
(-0.00600577 -0.000572813 0)
(-0.00554807 -0.000570792 0)
(-0.00509304 -0.000565907 0)
(-0.00464298 -0.000558076 0)
(-0.00420023 -0.000547228 0)
(-0.00376718 -0.000533303 0)
(-0.00334623 -0.000516254 0)
(-0.00293984 -0.000496046 0)
(-0.00255045 -0.000472669 0)
(-0.00218048 -0.00044613 0)
(-0.00183233 -0.00041647 0)
(-0.00150833 -0.000383762 0)
(-0.0012107 -0.000348128 0)
(-0.000941527 -0.000309751 0)
(-0.000702693 -0.000268895 0)
(-0.000495803 -0.000225933 0)
(-0.000322087 -0.000181395 0)
(-0.000182265 -0.000136027 0)
(-7.63814e-05 -9.08901e-05 0)
(-3.559e-06 -4.75004e-05 0)
(3.82965e-05 -8.03228e-06 0)
(5.28157e-05 2.44017e-05 0)
(4.56067e-05 4.54145e-05 0)
(2.57834e-05 4.89985e-05 0)
(7.07877e-06 2.73915e-05 0)
(5.4811e-06 -3.91995e-05 0)
(1.68634e-05 -6.3823e-05 0)
(2.03218e-05 -4.67475e-05 0)
(2.50491e-06 -1.52472e-06 0)
(-4.5969e-05 6.20728e-05 0)
(-0.000131001 0.000137038 0)
(-0.000256382 0.000218327 0)
(-0.000424248 0.000302312 0)
(-0.000635396 0.000386391 0)
(-0.000889577 0.00046869 0)
(-0.00118574 0.000547863 0)
(-0.00152222 0.000622948 0)
(-0.0018969 0.000693274 0)
(-0.00230732 0.000758367 0)
(-0.00275078 0.000817908 0)
(-0.00322438 0.000871704 0)
(-0.00372514 0.000919643 0)
(-0.00424998 0.000961685 0)
(-0.0047958 0.000997848 0)
(-0.00535949 0.00102819 0)
(-0.00593796 0.00105279 0)
(-0.00652818 0.00107178 0)
(-0.00712712 0.00108528 0)
(-0.00773187 0.00109345 0)
(-0.00833956 0.00109645 0)
(-0.00894743 0.00109445 0)
(-0.00955278 0.00108764 0)
(-0.010153 0.0010762 0)
(-0.0107456 0.00106032 0)
(-0.0113283 0.00104019 0)
(-0.0118986 0.00101601 0)
(-0.0124545 0.000987978 0)
(-0.0129938 0.000956286 0)
(-0.0135146 0.000921129 0)
(-0.0140149 0.000882698 0)
(-0.0144931 0.000841187 0)
(-0.0149475 0.000796789 0)
(-0.0153765 0.000749693 0)
(-0.0157786 0.000700088 0)
(-0.0161526 0.000648163 0)
(-0.0164971 0.000594104 0)
(-0.0168111 0.000538098 0)
(-0.0170936 0.00048033 0)
(-0.0173435 0.000420986 0)
(-0.01756 0.000360249 0)
(-0.0177425 0.000298307 0)
(-0.0178903 0.000235345 0)
(-0.0180029 0.000171549 0)
(-0.01808 0.00010711 0)
(-0.0181211 4.22175e-05 0)
(-0.0181261 -2.29344e-05 0)
(-0.018095 -8.81512e-05 0)
(-0.0180277 -0.000153236 0)
(-0.0179244 -0.000217989 0)
(-0.0177853 -0.000282204 0)
(-0.0176109 -0.000345673 0)
(-0.0174015 -0.000408185 0)
(-0.0171578 -0.000469525 0)
(-0.0168805 -0.000529476 0)
(-0.0165704 -0.000587818 0)
(-0.0162286 -0.000644326 0)
(-0.015856 -0.000698772 0)
(-0.015454 -0.000750926 0)
(-0.0150238 -0.000800558 0)
(-0.0145669 -0.000847434 0)
(-0.0140849 -0.000891321 0)
(-0.0135795 -0.000931985 0)
(-0.0130526 -0.000969193 0)
(-0.0125062 -0.00100271 0)
(-0.0119423 -0.00103231 0)
(-0.0113632 -0.00105776 0)
(-0.0107712 -0.00107885 0)
(-0.0101689 -0.00109534 0)
(-0.00955863 -0.00110704 0)
(-0.00894326 -0.00111375 0)
(-0.0083255 -0.00111527 0)
(-0.00770825 -0.00111144 0)
(-0.00709446 -0.00110207 0)
(-0.00648716 -0.00108705 0)
(-0.00588947 -0.00106622 0)
(-0.00530451 -0.0010395 0)
(-0.00473548 -0.00100681 0)
(-0.00418557 -0.000968112 0)
(-0.00365798 -0.000923398 0)
(-0.00315585 -0.000872718 0)
(-0.00268227 -0.000816178 0)
(-0.00224022 -0.00075396 0)
(-0.00183253 -0.000686338 0)
(-0.0014618 -0.000613709 0)
(-0.00113037 -0.000536628 0)
(-0.000840172 -0.000455861 0)
(-0.000592654 -0.000372455 0)
(-0.000388603 -0.000287846 0)
(-0.000227972 -0.000203999 0)
(-0.000109631 -0.000123607 0)
(-3.10875e-05 -5.03642e-05 0)
(1.18092e-05 1.06814e-05 0)
(2.52444e-05 5.27542e-05 0)
(1.86984e-05 6.69213e-05 0)
(5.94413e-06 4.10145e-05 0)
(3.39752e-06 -4.66706e-05 0)
(4.72735e-06 -6.55484e-05 0)
(-1.22019e-05 -2.86793e-05 0)
(-5.8961e-05 4.66677e-05 0)
(-0.000144284 0.000147794 0)
(-0.000274113 0.00026532 0)
(-0.000452316 0.000392266 0)
(-0.000681095 0.000523454 0)
(-0.00096128 0.000655039 0)
(-0.00129258 0.000784172 0)
(-0.00167381 0.000908739 0)
(-0.00210308 0.00102719 0)
(-0.00257798 0.0011384 0)
(-0.00309566 0.00124156 0)
(-0.00365296 0.00133611 0)
(-0.00424649 0.00142169 0)
(-0.00487272 0.00149808 0)
(-0.00552797 0.00156516 0)
(-0.00620854 0.00162292 0)
(-0.0069107 0.00167142 0)
(-0.00763071 0.00171077 0)
(-0.00836487 0.00174113 0)
(-0.00910954 0.0017627 0)
(-0.00986115 0.00177571 0)
(-0.0106162 0.0017804 0)
(-0.0113713 0.00177703 0)
(-0.0121231 0.00176589 0)
(-0.0128685 0.00174728 0)
(-0.0136044 0.00172148 0)
(-0.0143278 0.0016888 0)
(-0.0150359 0.00164956 0)
(-0.015726 0.00160406 0)
(-0.0163956 0.00155262 0)
(-0.0170421 0.00149556 0)
(-0.0176632 0.00143317 0)
(-0.0182568 0.00136578 0)
(-0.0188209 0.0012937 0)
(-0.0193534 0.00121722 0)
(-0.0198525 0.00113667 0)
(-0.0203167 0.00105234 0)
(-0.0207444 0.000964534 0)
(-0.0211341 0.000873564 0)
(-0.0214845 0.000779728 0)
(-0.0217946 0.000683329 0)
(-0.0220633 0.000584668 0)
(-0.0222897 0.000484048 0)
(-0.022473 0.000381773 0)
(-0.0226126 0.000278148 0)
(-0.022708 0.000173484 0)
(-0.0227589 6.8091e-05 0)
(-0.0227649 -3.77162e-05 0)
(-0.022726 -0.000143621 0)
(-0.0226423 -0.000249299 0)
(-0.0225138 -0.000354425 0)
(-0.022341 -0.000458664 0)
(-0.0221243 -0.000561678 0)
(-0.0218642 -0.000663125 0)
(-0.0215616 -0.000762658 0)
(-0.0212173 -0.000859922 0)
(-0.0208323 -0.000954559 0)
(-0.020408 -0.00104621 0)
(-0.0199456 -0.0011345 0)
(-0.0194466 -0.00121906 0)
(-0.0189127 -0.00129951 0)
(-0.0183457 -0.00137549 0)
(-0.0177476 -0.00144662 0)
(-0.0171206 -0.00151251 0)
(-0.0164669 -0.0015728 0)
(-0.0157889 -0.00162711 0)
(-0.0150894 -0.00167507 0)
(-0.0143709 -0.00171632 0)
(-0.0136364 -0.0017505 0)
(-0.012889 -0.00177728 0)
(-0.0121317 -0.00179631 0)
(-0.011368 -0.0018073 0)
(-0.0106012 -0.00180993 0)
(-0.00983473 -0.00180395 0)
(-0.00907235 -0.00178909 0)
(-0.00831773 -0.00176514 0)
(-0.00757462 -0.00173191 0)
(-0.00684685 -0.00168926 0)
(-0.00613828 -0.0016371 0)
(-0.00545276 -0.00157539 0)
(-0.00479413 -0.00150415 0)
(-0.00416615 -0.0014235 0)
(-0.00357251 -0.00133365 0)
(-0.00301673 -0.00123493 0)
(-0.00250214 -0.00112784 0)
(-0.00203177 -0.00101305 0)
(-0.00160832 -0.000891509 0)
(-0.001234 -0.000764466 0)
(-0.000910442 -0.000633603 0)
(-0.00063852 -0.000501163 0)
(-0.000418186 -0.000370125 0)
(-0.00024824 -0.000244451 0)
(-0.000126083 -0.000129399 0)
(-4.74566e-05 -3.1924e-05 0)
(-6.10856e-06 3.89106e-05 0)
(6.93491e-06 7.1392e-05 0)
(3.85431e-06 4.93764e-05 0)
(8.44679e-07 -4.68308e-05 0)
(-1.00314e-05 -4.91058e-05 0)
(-5.14036e-05 1.68137e-05 0)
(-0.000132026 0.000130677 0)
(-0.000259334 0.00027728 0)
(-0.000438898 0.000445102 0)
(-0.000674346 0.000625347 0)
(-0.000967697 0.000811311 0)
(-0.00131964 0.000997904 0)
(-0.00172973 0.00118125 0)
(-0.00219663 0.0013584 0)
(-0.00271822 0.00152717 0)
(-0.00329179 0.00168591 0)
(-0.00391417 0.0018334 0)
(-0.00458181 0.0019688 0)
(-0.00529089 0.00209151 0)
(-0.0060374 0.00220117 0)
(-0.00681718 0.00229756 0)
(-0.00762598 0.00238062 0)
(-0.00845951 0.00245039 0)
(-0.00931349 0.00250701 0)
(-0.0101837 0.00255066 0)
(-0.0110658 0.0025816 0)
(-0.0119557 0.00260015 0)
(-0.0128494 0.00260663 0)
(-0.0137429 0.00260142 0)
(-0.0146323 0.00258491 0)
(-0.0155139 0.00255751 0)
(-0.0163841 0.00251964 0)
(-0.0172395 0.00247175 0)
(-0.0180767 0.00241427 0)
(-0.0188925 0.00234765 0)
(-0.019684 0.00227235 0)
(-0.0204482 0.00218881 0)
(-0.0211824 0.0020975 0)
(-0.021884 0.00199885 0)
(-0.0225507 0.00189334 0)
(-0.02318 0.00178139 0)
(-0.0237699 0.00166347 0)
(-0.0243184 0.00154001 0)
(-0.0248238 0.00141147 0)
(-0.0252842 0.00127829 0)
(-0.0256983 0.0011409 0)
(-0.0260647 0.000999771 0)
(-0.0263821 0.000855326 0)
(-0.0266494 0.000708014 0)
(-0.0268659 0.000558283 0)
(-0.0270307 0.000406584 0)
(-0.0271433 0.00025337 0)
(-0.0272032 9.90971e-05 0)
(-0.0272101 -5.57723e-05 0)
(-0.027164 -0.000210772 0)
(-0.0270648 -0.000365428 0)
(-0.0269128 -0.000519259 0)
(-0.0267084 -0.000671777 0)
(-0.0264521 -0.000822489 0)
(-0.0261447 -0.000970892 0)
(-0.025787 -0.00111648 0)
(-0.02538 -0.00125873 0)
(-0.0249251 -0.00139712 0)
(-0.0244236 -0.00153113 0)
(-0.0238772 -0.00166021 0)
(-0.0232876 -0.00178383 0)
(-0.0226568 -0.00190144 0)
(-0.0219869 -0.0020125 0)
(-0.0212803 -0.00211645 0)
(-0.0205395 -0.00221276 0)
(-0.0197672 -0.00230088 0)
(-0.0189662 -0.00238027 0)
(-0.0181397 -0.00245039 0)
(-0.0172907 -0.00251074 0)
(-0.0164228 -0.00256079 0)
(-0.0155394 -0.00260006 0)
(-0.0146444 -0.00262807 0)
(-0.0137414 -0.00264439 0)
(-0.0128345 -0.00264858 0)
(-0.0119279 -0.00264028 0)
(-0.0110256 -0.00261913 0)
(-0.0101321 -0.00258483 0)
(-0.00925168 -0.00253715 0)
(-0.00838876 -0.00247589 0)
(-0.0075478 -0.00240095 0)
(-0.00673323 -0.00231231 0)
(-0.00594945 -0.00221006 0)
(-0.00520076 -0.00209438 0)
(-0.00449137 -0.00196565 0)
(-0.00382525 -0.00182438 0)
(-0.00320617 -0.00167135 0)
(-0.00263753 -0.00150757 0)
(-0.00212235 -0.00133444 0)
(-0.0016631 -0.00115377 0)
(-0.0012616 -0.000967964 0)
(-0.000918873 -0.00078012 0)
(-0.000634988 -0.000594285 0)
(-0.000408849 -0.000415699 0)
(-0.000238007 -0.000251142 0)
(-0.00011842 -0.000109358 0)
(-4.41701e-05 -1.49554e-06 0)
(-7.42448e-06 5.82928e-05 0)
(1.33285e-06 5.06973e-05 0)
(-1.87407e-06 -3.8855e-05 0)
(-2.60879e-05 -1.20653e-05 0)
(-9.43353e-05 9.32104e-05 0)
(-0.000211972 0.000254529 0)
(-0.000384736 0.000454694 0)
(-0.000617503 0.000680349 0)
(-0.000913401 0.00092107 0)
(-0.00127405 0.00116874 0)
(-0.00169984 0.00141706 0)
(-0.00219008 0.00166114 0)
(-0.00274318 0.00189718 0)
(-0.00335676 0.00212229 0)
(-0.00402785 0.00233429 0)
(-0.00475294 0.00253151 0)
(-0.00552814 0.00271276 0)
(-0.00634924 0.0028772 0)
(-0.00721181 0.00302427 0)
(-0.00811125 0.00315363 0)
(-0.00904285 0.00326514 0)
(-0.0100018 0.00335882 0)
(-0.0109834 0.0034348 0)
(-0.0119829 0.00349329 0)
(-0.0129954 0.00353463 0)
(-0.0140163 0.0035592 0)
(-0.0150411 0.00356742 0)
(-0.0160653 0.00355978 0)
(-0.0170846 0.00353679 0)
(-0.0180947 0.00349899 0)
(-0.0190915 0.00344695 0)
(-0.0200711 0.00338126 0)
(-0.0210298 0.00330249 0)
(-0.0219639 0.00321126 0)
(-0.0228701 0.00310818 0)
(-0.0237449 0.00299385 0)
(-0.0245853 0.00286889 0)
(-0.0253884 0.00273392 0)
(-0.0261513 0.00258954 0)
(-0.0268716 0.00243638 0)
(-0.0275467 0.00227503 0)
(-0.0281743 0.00210613 0)
(-0.0287526 0.00193026 0)
(-0.0292794 0.00174805 0)
(-0.0297532 0.00156009 0)
(-0.0301723 0.00136701 0)
(-0.0305353 0.00116939 0)
(-0.0308412 0.000967859 0)
(-0.0310887 0.000763025 0)
(-0.0312772 0.000555507 0)
(-0.0314058 0.000345925 0)
(-0.0314742 0.000134905 0)
(-0.0314819 -7.69183e-05 0)
(-0.031429 -0.000288905 0)
(-0.0313154 -0.000500407 0)
(-0.0311414 -0.000710765 0)
(-0.0309074 -0.000919312 0)
(-0.030614 -0.00112537 0)
(-0.0302621 -0.00132826 0)
(-0.0298528 -0.00152728 0)
(-0.0293871 -0.00172172 0)
(-0.0288666 -0.00191088 0)
(-0.0282928 -0.00209403 0)
(-0.0276676 -0.00227044 0)
(-0.026993 -0.00243937 0)
(-0.0262713 -0.00260009 0)
(-0.0255049 -0.00275185 0)
(-0.0246964 -0.00289391 0)
(-0.0238488 -0.00302553 0)
(-0.0229651 -0.00314598 0)
(-0.0220485 -0.00325453 0)
(-0.0211026 -0.00335045 0)
(-0.020131 -0.00343305 0)
(-0.0191375 -0.00350165 0)
(-0.0181261 -0.00355558 0)
(-0.0171011 -0.00359423 0)
(-0.0160669 -0.00361699 0)
(-0.0150278 -0.00362332 0)
(-0.0139885 -0.00361271 0)
(-0.0129538 -0.00358472 0)
(-0.0119286 -0.00353896 0)
(-0.0109176 -0.00347514 0)
(-0.00992598 -0.00339303 0)
(-0.00895857 -0.00329252 0)
(-0.00802036 -0.00317364 0)
(-0.00711624 -0.00303652 0)
(-0.00625101 -0.00288149 0)
(-0.00542929 -0.00270908 0)
(-0.00465551 -0.00252006 0)
(-0.00393378 -0.0023155 0)
(-0.00326789 -0.00209682 0)
(-0.00266112 -0.0018659 0)
(-0.00211623 -0.00162519 0)
(-0.00163527 -0.0013778 0)
(-0.0012195 -0.00112775 0)
(-0.000869197 -0.000880135 0)
(-0.000583545 -0.000641427 0)
(-0.000360459 -0.000419828 0)
(-0.000196373 -0.000225697 0)
(-8.59994e-05 -7.19834e-05 0)
(-2.30782e-05 2.51598e-05 0)
(-1.34424e-06 4.41075e-05 0)
(-4.6036e-06 -2.239e-05 0)
(-4.26259e-05 4.68846e-05 0)
(-0.000139019 0.000202596 0)
(-0.000295513 0.000420802 0)
(-0.000515902 0.000682819 0)
(-0.000804155 0.000973788 0)
(-0.00116268 0.0012819 0)
(-0.00159255 0.00159776 0)
(-0.00209369 0.00191396 0)
(-0.00266508 0.00222461 0)
(-0.00330477 0.00252511 0)
(-0.00401011 0.00281187 0)
(-0.0047778 0.0030821 0)
(-0.00560403 0.00333371 0)
(-0.00648457 0.00356512 0)
(-0.00741484 0.00377521 0)
(-0.00839004 0.0039632 0)
(-0.00940516 0.00412862 0)
(-0.0104551 0.00427123 0)
(-0.0115346 0.004391 0)
(-0.0126384 0.00448804 0)
(-0.0137614 0.00456261 0)
(-0.0148984 0.00461509 0)
(-0.0160441 0.00464592 0)
(-0.0171936 0.00465566 0)
(-0.018342 0.00464488 0)
(-0.0194844 0.00461424 0)
(-0.0206163 0.00456442 0)
(-0.021733 0.00449612 0)
(-0.0228302 0.0044101 0)
(-0.0239037 0.00430711 0)
(-0.0249496 0.00418791 0)
(-0.025964 0.0040533 0)
(-0.0269433 0.00390407 0)
(-0.0278839 0.00374099 0)
(-0.0287827 0.00356488 0)
(-0.0296364 0.00337652 0)
(-0.0304424 0.00317672 0)
(-0.0311977 0.00296626 0)
(-0.0319 0.00274594 0)
(-0.0325469 0.00251656 0)
(-0.0331363 0.0022789 0)
(-0.0336662 0.00203376 0)
(-0.034135 0.00178194 0)
(-0.0345411 0.00152421 0)
(-0.0348831 0.00126139 0)
(-0.03516 0.000994279 0)
(-0.0353707 0.000723672 0)
(-0.0355145 0.000450386 0)
(-0.0355908 0.000175238 0)
(-0.0355994 -0.000100944 0)
(-0.0355401 -0.000377324 0)
(-0.035413 -0.000653055 0)
(-0.0352182 -0.000927278 0)
(-0.0349564 -0.00119913 0)
(-0.0346283 -0.00146771 0)
(-0.0342346 -0.00173215 0)
(-0.0337767 -0.00199154 0)
(-0.0332558 -0.00224494 0)
(-0.0326735 -0.00249145 0)
(-0.0320317 -0.00273012 0)
(-0.0313324 -0.00296 0)
(-0.0305778 -0.00318014 0)
(-0.0297704 -0.00338958 0)
(-0.0289131 -0.00358736 0)
(-0.0280087 -0.00377252 0)
(-0.0270604 -0.0039441 0)
(-0.0260716 -0.00410116 0)
(-0.0250459 -0.00424275 0)
(-0.0239873 -0.00436796 0)
(-0.0228997 -0.00447588 0)
(-0.0217875 -0.00456564 0)
(-0.020655 -0.0046364 0)
(-0.0195069 -0.00468736 0)
(-0.018348 -0.00471778 0)
(-0.0171834 -0.00472694 0)
(-0.016018 -0.00471423 0)
(-0.0148572 -0.00467909 0)
(-0.0137062 -0.00462105 0)
(-0.0125704 -0.00453976 0)
(-0.0114554 -0.00443498 0)
(-0.0103664 -0.00430659 0)
(-0.00930899 -0.00415466 0)
(-0.00828845 -0.00397943 0)
(-0.00731002 -0.00378136 0)
(-0.00637872 -0.00356117 0)
(-0.00549936 -0.00331992 0)
(-0.00467643 -0.00305899 0)
(-0.00391403 -0.00278026 0)
(-0.00321577 -0.00248612 0)
(-0.0025847 -0.00217964 0)
(-0.00202316 -0.0018647 0)
(-0.00153271 -0.0015462 0)
(-0.00111397 -0.00123024 0)
(-0.000766535 -0.000924443 0)
(-0.000488856 -0.000638301 0)
(-0.000278038 -0.00038357 0)
(-0.000129643 -0.00017469 0)
(-3.92292e-05 -2.93587e-05 0)
(-4.03052e-06 2.9238e-05 0)
(-7.27176e-06 2.60894e-06 0)
(-5.91678e-05 0.000128296 0)
(-0.000184189 0.000346017 0)
(-0.00038042 0.000630942 0)
(-0.000649622 0.000963328 0)
(-0.000994705 0.00132716 0)
(-0.00141722 0.00170946 0)
(-0.00191753 0.00209976 0)
(-0.00249502 0.0024896 0)
(-0.00314818 0.00287223 0)
(-0.00387471 0.00324224 0)
(-0.00467157 0.00359536 0)
(-0.00553513 0.00392824 0)
(-0.00646124 0.0042383 0)
(-0.00744532 0.0045236 0)
(-0.00848246 0.0047827 0)
(-0.0095675 0.00501461 0)
(-0.010695 0.00521869 0)
(-0.0118596 0.0053946 0)
(-0.0130555 0.00554222 0)
(-0.0142772 0.00566168 0)
(-0.015519 0.00575324 0)
(-0.0167753 0.00581734 0)
(-0.0180406 0.00585449 0)
(-0.0193094 0.00586535 0)
(-0.0205764 0.00585061 0)
(-0.0218363 0.00581106 0)
(-0.0230841 0.00574753 0)
(-0.0243148 0.00566089 0)
(-0.0255239 0.00555206 0)
(-0.0267066 0.00542197 0)
(-0.0278586 0.00527157 0)
(-0.0289757 0.00510184 0)
(-0.030054 0.00491375 0)
(-0.0310896 0.00470829 0)
(-0.032079 0.00448647 0)
(-0.0330188 0.00424926 0)
(-0.0339058 0.00399767 0)
(-0.0347372 0.00373269 0)
(-0.03551 0.00345532 0)
(-0.0362219 0.00316656 0)
(-0.0368704 0.0028674 0)
(-0.0374536 0.00255884 0)
(-0.0379693 0.00224188 0)
(-0.0384161 0.0019175 0)
(-0.0387924 0.00158673 0)
(-0.039097 0.00125056 0)
(-0.0393288 0.00091002 0)
(-0.0394869 0.000566117 0)
(-0.039571 0.000219887 0)
(-0.0395804 -0.000127629 0)
(-0.0395152 -0.000475378 0)
(-0.0393753 -0.000822294 0)
(-0.0391611 -0.0011673 0)
(-0.0388731 -0.0015093 0)
(-0.0385121 -0.00184719 0)
(-0.0380791 -0.00217984 0)
(-0.0375753 -0.00250613 0)
(-0.0370023 -0.00282489 0)
(-0.0363618 -0.00313497 0)
(-0.0356557 -0.00343519 0)
(-0.0348864 -0.00372436 0)
(-0.0340562 -0.0040013 0)
(-0.0331679 -0.00426479 0)
(-0.0322245 -0.00451364 0)
(-0.0312292 -0.00474666 0)
(-0.0301856 -0.00496265 0)
(-0.0290972 -0.00516042 0)
(-0.0279681 -0.00533882 0)
(-0.0268025 -0.00549669 0)
(-0.0256048 -0.00563291 0)
(-0.0243797 -0.00574642 0)
(-0.0231319 -0.00583617 0)
(-0.0218665 -0.00590119 0)
(-0.0205889 -0.00594054 0)
(-0.0193042 -0.00595338 0)
(-0.0180182 -0.00593895 0)
(-0.0167365 -0.00589659 0)
(-0.0154647 -0.00582574 0)
(-0.0142089 -0.005726 0)
(-0.0129748 -0.00559709 0)
(-0.0117683 -0.00543892 0)
(-0.0105953 -0.00525162 0)
(-0.00946148 -0.00503552 0)
(-0.0083725 -0.00479126 0)
(-0.00733379 -0.00451977 0)
(-0.0063505 -0.00422238 0)
(-0.00542749 -0.00390085 0)
(-0.00456919 -0.0035575 0)
(-0.00377954 -0.00319525 0)
(-0.00306193 -0.00281781 0)
(-0.00241904 -0.0024298 0)
(-0.00185282 -0.00203694 0)
(-0.00136432 -0.00164631 0)
(-0.000953665 -0.00126656 0)
(-0.000619985 -0.000908304 0)
(-0.000361195 -0.000584481 0)
(-0.000173838 -0.000310716 0)
(-5.5401e-05 -0.000105831 0)
(-6.65161e-06 6.02862e-06 0)
(-9.84315e-06 3.60294e-05 0)
(-7.5435e-05 0.000232194 0)
(-0.000229064 0.000523808 0)
(-0.000465241 0.000885575 0)
(-0.000783703 0.00129707 0)
(-0.00118624 0.00174142 0)
(-0.00167345 0.00220472 0)
(-0.00224487 0.00267556 0)
(-0.00289926 0.00314462 0)
(-0.00363455 0.00360431 0)
(-0.00444798 0.00404851 0)
(-0.00533609 0.0044723 0)
(-0.00629488 0.00487178 0)
(-0.00731983 0.00524392 0)
(-0.00840602 0.00558637 0)
(-0.00954819 0.0058974 0)
(-0.0107408 0.00617579 0)
(-0.0119781 0.00642072 0)
(-0.0132543 0.00663173 0)
(-0.0145633 0.00680864 0)
(-0.0158991 0.00695155 0)
(-0.0172558 0.00706075 0)
(-0.0186273 0.0071367 0)
(-0.0200077 0.00718001 0)
(-0.0213912 0.00719142 0)
(-0.022772 0.00717177 0)
(-0.0241446 0.00712197 0)
(-0.0255034 0.00704301 0)
(-0.0268433 0.00693593 0)
(-0.0281592 0.00680183 0)
(-0.0294461 0.00664182 0)
(-0.0306994 0.00645705 0)
(-0.0319145 0.00624871 0)
(-0.0330871 0.00601797 0)
(-0.0342132 0.00576603 0)
(-0.0352889 0.0054941 0)
(-0.0363105 0.00520338 0)
(-0.0372747 0.0048951 0)
(-0.0381783 0.00457046 0)
(-0.0390183 0.00423068 0)
(-0.0397919 0.00387698 0)
(-0.0404967 0.00351057 0)
(-0.0411303 0.00313267 0)
(-0.0416908 0.0027445 0)
(-0.0421762 0.00234728 0)
(-0.0425851 0.00194225 0)
(-0.0429161 0.00153062 0)
(-0.0431679 0.00111366 0)
(-0.0433399 0.000692601 0)
(-0.0434312 0.000268711 0)
(-0.0434416 -0.000156737 0)
(-0.0433709 -0.000582455 0)
(-0.043219 -0.00100714 0)
(-0.0429865 -0.00142947 0)
(-0.0426738 -0.00184811 0)
(-0.0422817 -0.00226172 0)
(-0.0418115 -0.00266891 0)
(-0.0412644 -0.0030683 0)
(-0.0406421 -0.00345848 0)
(-0.0399463 -0.00383805 0)
(-0.0391794 -0.00420555 0)
(-0.0383436 -0.00455956 0)
(-0.0374416 -0.00489861 0)
(-0.0364765 -0.00522126 0)
(-0.0354513 -0.00552603 0)
(-0.0343697 -0.00581147 0)
(-0.0332353 -0.00607614 0)
(-0.0320521 -0.0063186 0)
(-0.0308244 -0.00653744 0)
(-0.0295568 -0.00673128 0)
(-0.0282539 -0.00689877 0)
(-0.0269208 -0.0070386 0)
(-0.0255627 -0.00714954 0)
(-0.0241851 -0.0072304 0)
(-0.0227934 -0.00728009 0)
(-0.0213935 -0.00729759 0)
(-0.0199914 -0.00728201 0)
(-0.0185931 -0.00723257 0)
(-0.0172048 -0.00714864 0)
(-0.0158327 -0.00702974 0)
(-0.0144831 -0.00687559 0)
(-0.0131623 -0.00668612 0)
(-0.0118766 -0.00646151 0)
(-0.010632 -0.00620223 0)
(-0.0094346 -0.00590907 0)
(-0.00829017 -0.00558319 0)
(-0.00720425 -0.00522623 0)
(-0.00618203 -0.00484033 0)
(-0.00522831 -0.00442822 0)
(-0.00434739 -0.00399339 0)
(-0.00354304 -0.00354014 0)
(-0.00281835 -0.00307381 0)
(-0.00217569 -0.00260092 0)
(-0.00161667 -0.00212938 0)
(-0.00114203 -0.0016688 0)
(-0.000751658 -0.00123074 0)
(-0.00044438 -0.000829113 0)
(-0.00021779 -0.000480441 0)
(-7.13182e-05 -0.000204321 0)
(-9.17358e-06 -2.54051e-05 0)
(-1.23007e-05 7.76465e-05 0)
(-9.12859e-05 0.000358305 0)
(-0.00027316 0.000735825 0)
(-0.000549059 0.00118476 0)
(-0.000916728 0.00168429 0)
(-0.00137682 0.00221694 0)
(-0.00192892 0.00276809 0)
(-0.0025717 0.00332556 0)
(-0.00330317 0.00387928 0)
(-0.00412069 0.00442096 0)
(-0.00502093 0.00494379 0)
(-0.006 0.00544227 0)
(-0.00705346 0.00591199 0)
(-0.0081764 0.00634945 0)
(-0.00936353 0.00675196 0)
(-0.0106092 0.00711749 0)
(-0.0119076 0.00744456 0)
(-0.0132526 0.00773218 0)
(-0.0146379 0.00797977 0)
(-0.0160572 0.0081871 0)
(-0.0175043 0.00835422 0)
(-0.0189725 0.00848144 0)
(-0.0204558 0.00856926 0)
(-0.0219476 0.00861839 0)
(-0.023442 0.00862964 0)
(-0.0249327 0.008604 0)
(-0.0264138 0.00854251 0)
(-0.0278797 0.00844634 0)
(-0.0293245 0.00831669 0)
(-0.0307431 0.00815485 0)
(-0.03213 0.00796214 0)
(-0.0334803 0.00773991 0)
(-0.0347893 0.00748956 0)
(-0.0360523 0.00721248 0)
(-0.037265 0.00691009 0)
(-0.0384232 0.00658383 0)
(-0.0395231 0.00623514 0)
(-0.0405611 0.00586545 0)
(-0.0415337 0.00547623 0)
(-0.0424378 0.00506892 0)
(-0.0432704 0.00464496 0)
(-0.0440289 0.00420582 0)
(-0.0447108 0.00375295 0)
(-0.0453139 0.00328781 0)
(-0.0458364 0.00281185 0)
(-0.0462764 0.00232655 0)
(-0.0466326 0.00183339 0)
(-0.0469038 0.00133385 0)
(-0.0470889 0.000829427 0)
(-0.0471874 0.000321628 0)
(-0.0471988 -0.000188019 0)
(-0.047123 -0.000697976 0)
(-0.0469599 -0.00120668 0)
(-0.04671 -0.00171256 0)
(-0.0463739 -0.00221402 0)
(-0.0459525 -0.00270944 0)
(-0.045447 -0.00319718 0)
(-0.0448587 -0.00367558 0)
(-0.0441894 -0.00414298 0)
(-0.0434412 -0.00459768 0)
(-0.0426163 -0.00503796 0)