/*--------------------------------*- C++ -*----------------------------------*\
| =========                 |                                                 |
| \\      /  F ield         | OpenFOAM: The Open Source CFD Toolbox           |
|  \\    /   O peration     | Version:  2212                                  |
|   \\  /    A nd           | Website:  www.openfoam.com                      |
|    \\/     M anipulation  |                                                 |
\*---------------------------------------------------------------------------*/
FoamFile
{
    version     2.0;
    format      ascii;
    arch        "LSB;label=32;scalar=64";
    class       volScalarField;
    location    "0.048";
    object      p;
}
// * * * * * * * * * * * * * * * * * * * * * * * * * * * * * * * * * * * * * //

dimensions      [0 2 -2 0 0 0 0];

internalField   nonuniform List<scalar> 
10000
(
1.25141e-07
0.00016118
7.4187e-05
-0.000343974
-0.00106214
-0.00201853
-0.0031572
-0.00442678
-0.00578137
-0.00718069
-0.00858981
-0.00997852
-0.0113208
-0.0125941
-0.013779
-0.0148587
-0.0158189
-0.0166475
-0.0173345
-0.0178715
-0.0182516
-0.0184696
-0.0185214
-0.0184045
-0.018117
-0.0176583
-0.0170284
-0.0162286
-0.0152606
-0.0141273
-0.0128318
-0.0113781
-0.00977067
-0.00801468
-0.00611574
-0.00407988
-0.00191351
0.000376534
0.00278289
0.00529796
0.00791388
0.0106224
0.0134151
0.0162832
0.0192178
0.0222095
0.0252489
0.0283265
0.0314325
0.0345574
0.0376911
0.0408234
0.0439442
0.0470434
0.0501111
0.0531373
0.0561118
0.0590245
0.0618654
0.0646249
0.0672937
0.0698626
0.0723225
0.0746646
0.0768805
0.078962
0.0809019
0.0826932
0.0843296
0.085805
0.0871141
0.0882522
0.0892157
0.0900016
0.0906082
0.0910343
0.0912801
0.0913464
0.0912356
0.0909512
0.0904981
0.0898829
0.0891136
0.0881999
0.0871531
0.0859868
0.0847163
0.0833595
0.081937
0.0804722
0.0789919
0.0775262
0.0761103
0.0747828
0.0735874
0.0725719
0.0717859
0.0712775
0.0710883
0.0711768
9.72031e-06
0.000165989
6.25378e-05
-0.000318068
-0.000936446
-0.00175363
-0.00272919
-0.00382247
-0.00499557
-0.006214
-0.0074468
-0.00866655
-0.00984905
-0.0109732
-0.0120205
-0.0129748
-0.0138223
-0.0145512
-0.0151512
-0.0156141
-0.0159331
-0.0161025
-0.0161181
-0.015977
-0.0156772
-0.0152174
-0.0145977
-0.0138187
-0.0128819
-0.0117894
-0.0105444
-0.00915025
-0.00761107
-0.00593157
-0.00411696
-0.00217277
-0.000104955
0.00208001
0.00437513
0.00677328
0.00926711
0.0118489
0.0145105
0.0172435
0.0200396
0.0228898
0.0257853
0.0287169
0.0316754
0.0346516
0.037636
0.0406188
0.0435905
0.0465415
0.0494624
0.0523436
0.0551755
0.0579484
0.060653
0.0632803
0.0658214
0.0682677
0.0706106
0.0728418
0.0749534
0.076938
0.0787888
0.0804993
0.0820636
0.0834763
0.0847325
0.085828
0.0867596
0.0875249
0.0881224
0.0885516
0.0888126
0.0889068
0.0888367
0.0886061
0.0882201
0.0876853
0.0870096
0.0862028
0.0852759
0.084242
0.083116
0.0819149
0.080658
0.0793673
0.0780675
0.0767861
0.0755537
0.0744038
0.0733726
0.072498
0.0718162
0.0713611
0.0711764
0.0712653
0.000342199
0.000465058
0.000330459
-4.23209e-05
-0.000611554
-0.00134893
-0.0022231
-0.00320098
-0.00425066
-0.0053424
-0.00644887
-0.00754532
-0.00860957
-0.00962193
-0.010565
-0.0114236
-0.0121844
-0.0128358
-0.013368
-0.013773
-0.0140437
-0.0141747
-0.0141617
-0.0140014
-0.0136917
-0.0132311
-0.0126195
-0.0118573
-0.0109456
-0.00988639
-0.00868216
-0.00733622
-0.00585239
-0.00423505
-0.00248897
-0.000619326
0.00136824
0.00346754
0.00567196
0.00797476
0.010369
0.0128473
0.0154018
0.0180247
0.0207076
0.0234424
0.0262203
0.0290328
0.031871
0.0347259
0.0375884
0.0404493
0.0432995
0.0461299
0.0489313
0.0516945
0.0544104
0.0570698
0.0596638
0.0621838
0.0646215
0.0669685
0.0692167
0.0713583
0.0733857
0.075292
0.0770709
0.0787164
0.0802228
0.0815851
0.0827988
0.0838601
0.0847662
0.0855149
0.0861052
0.0865365
0.0868094
0.0869255
0.0868874
0.0866989
0.0863653
0.085893
0.0852899
0.0845655
0.0837305
0.0827975
0.0817806
0.080696
0.0795619
0.0783985
0.0772285
0.0760769
0.0749707
0.0739392
0.0730133
0.0722245
0.0716024
0.0711752
0.0709912
0.0710773
0.000985348
0.00102819
0.000841276
0.000449446
-0.000109017
-0.000810194
-0.00162827
-0.00253549
-0.00350455
-0.00450963
-0.00552666
-0.00653345
-0.00750991
-0.00843789
-0.00930122
-0.0100856
-0.0107785
-0.0113688
-0.0118473
-0.0122058
-0.0124378
-0.0125378
-0.0125017
-0.012326
-0.0120084
-0.0115475
-0.0109429
-0.0101949
-0.00930449
-0.00827321
-0.0071035
-0.0057984
-0.00436142
-0.00279663
-0.00110857
0.000697858
0.0026173
0.00464386
0.00677127
0.00899309
0.0113027
0.013693
0.0161565
0.0186855
0.0212723
0.0239088
0.0265869
0.0292981
0.0320339
0.0347857
0.0375448
0.0403024
0.0430496
0.0457776
0.0484777
0.0511411
0.0537589
0.0563223
0.0588229
0.0612525
0.0636029
0.0658662
0.0680347
0.0701009
0.0720577
0.0738984
0.0756171
0.0772081
0.078666
0.0799861
0.0811643
0.0821971
0.0830817
0.0838165
0.0844004
0.0848331
0.0851155
0.085249
0.0852364
0.0850815
0.0847895
0.0843668
0.083821
0.0831612
0.0823977
0.0815425
0.080609
0.0796123
0.0785693
0.0774988
0.0764214
0.0753595
0.0743375
0.073381
0.072517
0.0717727
0.071174
0.0707468
0.0705359
0.0705713
0.00187811
0.00180305
0.00154043
0.00110896
0.000537402
-0.000153269
-0.000941143
-0.00180294
-0.00271553
-0.00365643
-0.00460462
-0.00554046
-0.00644589
-0.00730442
-0.0081012
-0.00882292
-0.00945788
-0.00999583
-0.0104278
-0.010746
-0.0109443
-0.0110174
-0.010961
-0.0107719
-0.0104477
-0.0099871
-0.00938941
-0.00865483
-0.00778416
-0.00677887
-0.00564118
-0.00437393
-0.00298037
-0.00146429
0.000170007
0.00191781
0.00377401
0.00573305
0.00778897
0.00993565
0.0121667
0.0144752
0.0168541
0.019296
0.0217934
0.0243388
0.0269242
0.0295413
0.0321821
0.0348382
0.0375014
0.0401632
0.0428149
0.0454482
0.0480545
0.0506254
0.0531525
0.0556273
0.0580418
0.0603878
0.0626577
0.0648439
0.0669391
0.068936
0.0708278
0.0726083
0.0742717
0.0758126
0.077226
0.0785075
0.0796531
0.0806596
0.0815244
0.0822461
0.0828238
0.0832572
0.0835474
0.0836958
0.0837053
0.0835796
0.0833236
0.0829436
0.082447
0.0818423
0.0811396
0.0803498
0.0794857
0.0785613
0.0775921
0.0765954
0.0755898
0.0745955
0.0736339
0.0727275
0.0718999
0.0711745
0.0705743
0.0701223
0.0698528
0.0697878
0.00298174
0.00275783
0.00239794
0.00190824
0.00130306
0.000600962
-0.000178997
-0.00101739
-0.00189469
-0.00279169
-0.00368996
-0.00457222
-0.00542244
-0.00622577
-0.0069687
-0.00763911
-0.0082261
-0.00872008
-0.00911278
-0.00939702
-0.00956673
-0.0096169
-0.00954341
-0.0093431
-0.00901378
-0.00855402
-0.00796315
-0.00724123
-0.00638894
-0.00540766
-0.0042995
-0.00306708
-0.00171344
-0.000242141
0.00134271
0.00303658
0.00483463
0.00673158
0.00872176
0.0107993
0.012958
0.0151912
0.0174922
0.0198539
0.0222692
0.0247308
0.0272308
0.0297614
0.0323147
0.0348829
0.0374581
0.0400318
0.042596
0.0451422
0.0476625
0.0501487
0.0525928
0.0549866
0.0573222
0.0595919
0.0617884
0.0639042
0.0659325
0.0678662
0.069699
0.0714246
0.0730377
0.0745331
0.075906
0.0771523
0.0782681
0.0792506
0.0800973
0.0808067
0.0813781
0.0818116
0.0821079
0.0822688
0.0822968
0.0821955
0.08197
0.0816259
0.0811704
0.0806116
0.0799589
0.0792226
0.0784145
0.0775475
0.0766358
0.0756951
0.0747421
0.0737949
0.0728723
0.071994
0.0711801
0.0704511
0.0698269
0.0693279
0.0689733
0.0687723
0.00425339
0.00386015
0.0033859
0.00282179
0.00216536
0.0014329
0.000641251
-0.000193393
-0.0010546
-0.00192613
-0.00279203
-0.00363705
-0.00444707
-0.00520893
-0.00591042
-0.00654052
-0.00708931
-0.00754796
-0.00790879
-0.00816522
-0.00831152
-0.00834294
-0.00825555
-0.0080464
-0.00771341
-0.0072552
-0.00667107
-0.00596104
-0.00512575
-0.00416651
-0.0030853
-0.00188457
-0.000567174
0.000863445
0.00240334
0.00404822
0.00579347
0.00763409
0.00956456
0.0115792
0.0136721
0.015837
0.0180673
0.0203562
0.0226969
0.0250822
0.0275047
0.0299567
0.0324308
0.0349193
0.0374146
0.0399086
0.0423934
0.0448609
0.0473034
0.0497131
0.0520822
0.0544028
0.0566673
0.0588682
0.0609985
0.0630511
0.0650192
0.0668962
0.0686758
0.0703523
0.0719202
0.0733747
0.0747113
0.075926
0.0770151
0.0779758
0.0788059
0.0795039
0.0800692
0.0805019
0.0808027
0.0809734
0.0810163
0.080935
0.0807341
0.0804192
0.0799968
0.0794747
0.0788615
0.078167
0.0774018
0.0765778
0.075708
0.0748065
0.0738882
0.0729691
0.0720658
0.0711955
0.0703753
0.0696225
0.0689549
0.0683901
0.0679304
0.0675703
0.00565179
0.00507698
0.00447578
0.00382422
0.00310219
0.00232385
0.00150428
0.000656832
-0.000204834
-0.00106678
-0.00191549
-0.00273776
-0.00352104
-0.00425372
-0.004925
-0.00552493
-0.0060445
-0.00647575
-0.00681166
-0.00704613
-0.00717385
-0.00719041
-0.0070922
-0.00687649
-0.0065413
-0.00608533
-0.00550791
-0.00480909
-0.00398952
-0.00305047
-0.00199378
-0.000821762
0.000462825
0.00185664
0.00335588
0.0049565
0.00665409
0.00844379
0.0103203
0.0122782
0.0143117
0.0164148
0.0185812
0.0208044
0.0230777
0.0253941
0.0277466
0.0301278
0.0325304
0.0349472
0.0373704
0.0397926
0.0422059
0.0446026
0.0469752
0.0493163
0.051618
0.053873
0.0560737
0.058213
0.0602841
0.0622802
0.0641946
0.066021
0.0677533
0.0693858
0.0709135
0.0723316
0.0736358
0.0748223
0.0758875
0.0768286
0.0776436
0.078331
0.0788903
0.0793214
0.0796252
0.0798032
0.0798578
0.0797921
0.0796106
0.0793184
0.0789218
0.0784278
0.0778446
0.0771809
0.0764468
0.0756529
0.074811
0.0739337
0.0730343
0.0721268
0.0712259
0.0703463
0.0695027
0.0687095
0.0679825
0.0673369
0.0667577
0.0662245
0.0071399
0.00637727
0.00564067
0.0048916
0.00409254
0.00325579
0.00239492
0.00152088
0.000644883
-0.000221283
-0.00106604
-0.00187807
-0.0026465
-0.00336106
-0.00401219
-0.00459104
-0.00508961
-0.00550075
-0.0058181
-0.00603602
-0.00614968
-0.00615506
-0.00604894
-0.00582878
-0.00549278
-0.00503971
-0.004469
-0.00378078
-0.00297575
-0.0020551
-0.00102061
0.00012548
0.00138049
0.0027412
0.00420395
0.00576483
0.00741961
0.00916357
0.0109917
0.0128986
0.0148788
0.0169265
0.0190356
0.0211997
0.0234125
0.0256673
0.0279571
0.0302748
0.0326135
0.0349659
0.0373248
0.0396828
0.0420322
0.0443657
0.046676
0.0489558
0.0511976
0.0533942
0.0555382
0.0576229
0.0596415
0.0615874
0.0634543
0.0652359
0.0669263
0.06852
0.0700122
0.0713982
0.0726738
0.0738353
0.0748793
0.075803
0.0766043
0.0772819
0.0778352
0.0782642
0.0785695
0.0787526
0.0788157
0.0787617
0.0785946
0.0783194
0.0779416
0.0774681
0.076906
0.0762636
0.0755498
0.0747745
0.073948
0.0730816
0.0721872
0.0712771
0.0703639
0.0694605
0.0685792
0.0677319
0.0669328
0.0661952
0.0654868
0.064773
0.00868525
0.0077327
0.00685567
0.00600176
0.00511671
0.00421149
0.00329841
0.0023862
0.00148418
0.000602089
-0.0002502
-0.00106301
-0.00182702
-0.00253325
-0.00317327
-0.00373933
-0.00422439
-0.00462207
-0.00492661
-0.00513294
-0.00523675
-0.00523443
-0.00512308
-0.00490044
-0.00456486
-0.00411529
-0.00355131
-0.00287311
-0.00208144
-0.00117749
-0.00016298
0.000959882
0.00218846
0.00351963
0.00494987
0.00647536
0.00809201
0.00979529
0.0115803
0.0134419
0.0153747
0.0173731
0.0194312
0.021543
0.0237021
0.0259021
0.0281362
0.0303976
0.0326795
0.0349749
0.0372768
0.039578
0.041871
0.0441487
0.046404
0.0486298
0.0508188
0.0529639
0.0550582
0.0570949
0.0590674
0.0609695
0.0627948
0.0645372
0.066191
0.0677509
0.0692121
0.0705701
0.0718209
0.0729606
0.073986
0.0748943
0.0756834
0.076352
0.0768995
0.0773258
0.0776315
0.0778177
0.0778864
0.0778405
0.0776834
0.0774197
0.0770547
0.0765944
0.0760456
0.0754157
0.0747127
0.0739454
0.0731232
0.0722562
0.0713547
0.0704295
0.0694917
0.0685522
0.0676213
0.0667088
0.0658277
0.0649897
0.0641461
0.0632486
0.01026
0.00911807
0.00809794
0.0071342
0.00615643
0.00517467
0.00420051
0.0032407
0.00230272
0.00139475
0.000525054
-0.000298169
-0.0010669
-0.0017734
-0.00241039
-0.00297113
-0.00344943
-0.00383961
-0.00413657
-0.00433586
-0.00443365
-0.00442679
-0.00431269
-0.00408934
-0.00375532
-0.00330977
-0.00275245
-0.00208369
-0.00130425
-0.000415314
0.000581378
0.00168363
0.00288883
0.00419391
0.00559547
0.00708979
0.00867288
0.0103404
0.0120875
0.0139092
0.0158003
0.0177554
0.0197688
0.0218345
0.0239465
0.0260984
0.0282837
0.0304958
0.0327279
0.0349735
0.0372255
0.039477
0.0417208
0.0439499
0.0461573
0.0483361
0.0504792
0.0525798
0.054631
0.0566262
0.058559
0.0604233
0.0622127
0.0639215
0.0655439
0.0670749
0.0685096
0.0698437
0.0710731
0.0721941
0.0732035
0.0740985
0.074877
0.0755376
0.0760796
0.0765028
0.0768077
0.0769953
0.0770672
0.077026
0.0768749
0.076618
0.0762601
0.0758067
0.075264
0.0746386
0.0739378
0.0731694
0.0723418
0.0714639
0.0705448
0.0695939
0.0686209
0.067635
0.0666447
0.0656581
0.0646874
0.0637431
0.0627608
0.0616794
0.0118402
0.0105111
0.00934694
0.00827001
0.00719462
0.00613011
0.00508763
0.00407242
0.00309029
0.002148
0.00125245
0.000410545
-0.000370869
-0.00108523
-0.00172635
-0.00228839
-0.00276592
-0.00315396
-0.00344808
-0.00364443
-0.0037397
-0.00373114
-0.00361649
-0.00339399
-0.0030625
-0.00262141
-0.00207066
-0.00141069
-0.000642297
0.000233285
0.00121429
0.00229849
0.00348328
0.00476564
0.00614224
0.0076095
0.00916351
0.0108
0.0125142
0.0143014
0.0161564
0.018074
0.0200486
0.0220745
0.0241457
0.0262561
0.0283993
0.0305688
0.0327581
0.0349607
0.0371699
0.0393788
0.0415804
0.0437678
0.0459341
0.0480728
0.0501769
0.0522396
0.0542542
0.0562143
0.0581135
0.0599458
0.0617051
0.0633856
0.0649817
0.0664884
0.0679011
0.0692152
0.0704269
0.0715324
0.0725284
0.0734122
0.0741816
0.0748352
0.0753722
0.0757922
0.0760955
0.0762829
0.0763558
0.0763164
0.0761676
0.0759132
0.0755574
0.0751053
0.0745623
0.0739345
0.0732283
0.0724506
0.0716091
0.0707113
0.0697655
0.0687798
0.0677626
0.0667216
0.0656642
0.0645965
0.0635304
0.0624757
0.061353
0.0600893
0.0134055
0.0118923
0.0105843
0.00939204
0.00821549
0.00706352
0.005947
0.00486996
0.00383687
0.00285316
0.00192458
0.00105691
0.000255863
-0.000473058
-0.0011246
-0.00169371
-0.00217574
-0.0025664
-0.00286194
-0.00305904
-0.00315489
-0.00314712
-0.0030338
-0.00281352
-0.0024854
-0.0020491
-0.00150473
-0.000852802
-9.42187e-05
0.000769689
0.0017371
0.00280575
0.00397304
0.005236
0.00659134
0.00803557
0.00956484
0.0111749
0.0128613
0.0146191
0.0164434
0.0183292
0.0202709
0.0222631
0.0242998
0.026375
0.0284825
0.030616
0.0327692
0.0349357
0.0371088
0.0392819
0.0414481
0.0436006
0.0457328
0.047838
0.0499097
0.051941
0.0539254
0.0558565
0.0577282
0.0595343
0.061269
0.0629265
0.0645014
0.0659886
0.0673835
0.0686817
0.0698792
0.0709722
0.0719575
0.0728323
0.0735943
0.0742421
0.0747746
0.0751913
0.0754924
0.0756784
0.0757504
0.0757104
0.0755609
0.0753051
0.0749471
0.0744911
0.0739423
0.0733058
0.0725874
0.0717934
0.0709304
0.0700051
0.0690248
0.0679965
0.0669275
0.0658245
0.0646933
0.063539
0.0623733
0.0612054
0.059942
0.0584984
0.0149382
0.0132445
0.0117934
0.0104847
0.00920451
0.00796149
0.00676649
0.00562239
0.00453263
0.00350157
0.00253393
0.0016344
0.0008077
5.84215e-05
-0.000608969
-0.0011902
-0.00168136
-0.00207886
-0.00237955
-0.00258065
-0.00267979
-0.00267496
-0.0025646
-0.00234766
-0.0020236
-0.00159226
-0.00105392
-0.0004092
0.000340851
0.00119479
0.00215071
0.00320631
0.004359
0.00560584
0.00694359
0.00836876
0.00987755
0.0114658
0.013129
0.0148625
0.0166616
0.0185211
0.0204358
0.0224001
0.0244083
0.0264546
0.0285328
0.0306369
0.0327605
0.0348975
0.0370412
0.0391852
0.0413226
0.0434469
0.0455515
0.04763
0.0496757
0.051682
0.0536424
0.0555507
0.0574007
0.0591864
0.060902
0.0625418
0.0641004
0.0655727
0.0669541
0.0682403
0.0694271
0.0705109
0.0714882
0.0723562
0.0731127
0.0737558
0.0742846
0.0746984
0.0749969
0.0751805
0.0752501
0.0752073
0.0750543
0.074794
0.0744298
0.0739656
0.0734059
0.0727553
0.072019
0.0712024
0.0703114
0.069352
0.0683305
0.067253
0.0661258
0.0649548
0.0637447
0.0624996
0.061231
0.0599482
0.0585444
0.056924
0.0164226
0.0145521
0.0129596
0.011534
0.0101483
0.00881153
0.00753451
0.0063192
0.00516812
0.00408477
0.0030729
0.0021363
0.00127878
0.000504215
-0.000183698
-0.000781439
-0.00128578
-0.00169381
-0.00200291
-0.00221079
-0.00231548
-0.0023154
-0.0022094
-0.00199675
-0.00167719
-0.00125079
-0.000717965
-7.95196e-05
0.000663352
0.00150905
0.00245561
0.00350071
0.00464173
0.00587572
0.00719947
0.00860949
0.010102
0.0116729
0.0133178
0.015032
0.016811
0.0186498
0.020543
0.0224853
0.0244711
0.0264945
0.0285498
0.0306307
0.0327312
0.0348451
0.0369661
0.0390874
0.0412027
0.0433053
0.0453889
0.047447
0.0494731
0.0514607
0.0534033
0.0552947
0.0571288
0.0588998
0.0606017
0.062229
0.0637762
0.0652383
0.0666106
0.0678887
0.0690685
0.0701461
0.0711183
0.0719819
0.0727347
0.0733747
0.0739007
0.0743118
0.0746076
0.0747883
0.0748543
0.074807
0.0746482
0.0743805
0.0740068
0.0735306
0.0729557
0.0722863
0.071527
0.0706824
0.0697579
0.0687586
0.0676901
0.0665579
0.0653673
0.0641234
0.0628301
0.0614907
0.0601169
0.0587181
0.0571746
0.0553806
0.0178453
0.0158017
0.0140693
0.0125267
0.0110346
0.00960199
0.00824014
0.0069503
0.00573411
0.00459432
0.00353386
0.00255575
0.0016631
0.000859059
0.000146611
-0.000471434
-0.000992486
-0.0014142
-0.00173445
-0.00195142
-0.00206359
-0.00206978
-0.00196924
-0.00176157
-0.00144675
-0.00102503
-0.000497053
0.000136156
0.000873245
0.00171253
0.00265196
0.00368913
0.00482142
0.00604584
0.00735919
0.00875795
0.0102384
0.0117963
0.0134276
0.0151276
0.0168917
0.018715
0.0205924
0.0225184
0.0244876
0.0264943
0.0285326
0.0305967
0.0326804
0.0347777
0.0368822
0.0389874
0.041087
0.0431744
0.0452433
0.0472874
0.0493003
0.0512754
0.0532063
0.0550867
0.0569108
0.0586725
0.0603662
0.0619861
0.0635268
0.0649833
0.0663508
0.0676248
0.0688012
0.069876
0.0708459
0.0717076
0.0724587
0.0730972
0.0736215
0.0740307
0.074324
0.0745012
0.0745628
0.0745097
0.0743433
0.0740658
0.0736798
0.0731883
0.0725945
0.0719023
0.0711155
0.0702384
0.0692754
0.0682314
0.067111
0.0659193
0.0646608
0.06334
0.0619601
0.0605237
0.0590429
0.0575274
0.0558452
0.0538806
0.0191946
0.0169811
0.0151103
0.0134511
0.0118518
0.0103219
0.00887308
0.00750599
0.00622156
0.00502187
0.00390917
0.0028859
0.00195451
0.00111744
0.00037701
-0.000264576
-0.000805298
-0.00124332
-0.00157704
-0.00180501
-0.0019262
-0.0019399
-0.00184566
-0.00164337
-0.00133323
-0.000915773
-0.000391874
0.000237269
0.000970139
0.00180492
0.00273949
0.00377139
0.00489793
0.0061161
0.00742261
0.00881397
0.0102864
0.0118359
0.0134582
0.0151489
0.0169033
0.0187165
0.0205834
0.0224988
0.0244573
0.0264531
0.0284807
0.030534
0.0326072
0.0346941
0.0367885
0.0388839
0.0409741
0.0430527
0.0451134
0.0471499
0.0491557
0.0511243
0.0530495
0.0549249
0.0567447
0.0585028
0.0601935
0.0618112
0.0633504
0.0648059
0.0661729
0.0674469
0.0686235
0.069699
0.0706695
0.071532
0.0722836
0.0729223
0.0734463
0.0738543
0.0741455
0.0743194
0.074376
0.074316
0.0741406
0.0738514
0.0734508
0.0729412
0.0723255
0.0716069
0.0707889
0.0698752
0.0688697
0.0677767
0.0666004
0.065345
0.0640149
0.0626138
0.0611444
0.0596088
0.0580196
0.056387
0.0545673
0.0524348
0.0204598
0.0180792
0.0160717
0.0142961
0.0125892
0.010961
0.00942349
0.00797693
0.00662164
0.00535919
0.00419132
0.00311987
0.00214668
0.00127357
0.000502283
-0.000165544
-0.000728399
-0.00118489
-0.00153387
-0.00177443
-0.00190594
-0.00192802
-0.00184058
-0.00164378
-0.00133809
-0.000924296
-0.000403508
0.000222879
0.000953192
0.0017855
0.00271759
0.00374694
0.00487077
0.00608597
0.00738924
0.00877707
0.0102457
0.0117912
0.0134093
0.0150954
0.0168451
0.0186534
0.0205154
0.0224258
0.0243792
0.0263702
0.0283929
0.0304417
0.0325104
0.0345931
0.0366836
0.0387757
0.0408629
0.042939
0.0449977
0.0470327
0.0490376
0.0510059
0.0529313
0.0548076
0.0566287
0.0583888
0.0600821
0.0617027
0.0632453
0.0647045
0.0660754
0.0673534
0.0685342
0.0696137
0.0705881
0.071454
0.0722086
0.0728494
0.0733747
0.0737827
0.0740724
0.0742431
0.0742946
0.0742272
0.0740416
0.0737394
0.0733222
0.0727922
0.072152
0.0714042
0.0705518
0.0695981
0.0685466
0.067401
0.0661651
0.0648428
0.0634377
0.0619534
0.0603921
0.0587556
0.057057
0.0553071
0.0533507
0.0510527
0.0216312
0.0190862
0.0169431
0.0150516
0.0132369
0.0115094
0.00988188
0.00835403
0.0069258
0.00559832
0.00437284
0.00325069
0.00223316
0.0013215
0.000516945
-0.000179307
-0.000766214
-0.00124291
-0.00160866
-0.00186302
-0.00200574
-0.00203679
-0.00195637
-0.00176492
-0.00146321
-0.00105229
-0.000533503
9.15846e-05
0.000821157
0.00165315
0.00258525
0.00361482
0.00473898
0.00595456
0.00725823
0.00864646
0.0101155
0.0116613
0.0132798
0.0149663
0.0167163
0.018525
0.0203874
0.0222983
0.0242525
0.0262443
0.0282682
0.0303183
0.0323887
0.0344734
0.0365663
0.0386611
0.0407516
0.0428315
0.0448944
0.0469342
0.0489444
0.0509185
0.0528501
0.0547331
0.0565614
0.058329
0.0600302
0.061659
0.0632099
0.0646775
0.0660569
0.0673432
0.068532
0.0696192
0.0706006
0.071473
0.0722331
0.0728783
0.0734065
0.0738159
0.0741052
0.0742733
0.0743198
0.0742447
0.0740484
0.0737319
0.0732968
0.0727447
0.0720778
0.0712983
0.0704089
0.0694124
0.0683118
0.0671107
0.0658122
0.0644199
0.0629373
0.0613673
0.0597121
0.0579731
0.056164
0.0542966
0.0522043
0.0497427
0.0227001
0.0199926
0.0177151
0.015708
0.0137852
0.0119578
0.0102391
0.00862855
0.0071257
0.00573133
0.00444629
0.00327134
0.00220733
0.00125509
0.000415397
-0.000311015
-0.000923548
-0.00142178
-0.00180545
-0.00207449
-0.002229
-0.00226926
-0.00219578
-0.00200932
-0.00171093
-0.00130191
-0.000783822
-0.000158394
0.0005724
0.00140636
0.00234102
0.00337366
0.00450128
0.00572065
0.00702839
0.00842095
0.00989456
0.0114452
0.0130686
0.0147603
0.0165157
0.0183299
0.0201981
0.0221151
0.0240756
0.0260741
0.0281049
0.0301624
0.0322405
0.0343333
0.0364348
0.0385386
0.0406386
0.0427286
0.044802
0.0468528
0.0488743
0.0508602
0.0528041
0.0546997
0.0565409
0.0583218
0.0600363
0.0616785
0.0632429
0.0647238
0.0661162
0.0674151
0.0686161
0.0697146
0.0707067
0.0715886
0.0723569
0.0730089
0.0735422
0.0739547
0.0742448
0.0744113
0.0744533
0.0743706
0.0741632
0.073832
0.0733779
0.0728024
0.0721071
0.071294
0.0703653
0.0693236
0.0681715
0.0669122
0.0655486
0.0640839
0.0625212
0.0608635
0.0591125
0.0572696
0.0553493
0.053364
0.0511361
0.0485124
0.0236582
0.0207897
0.0183787
0.0162562
0.0142252
0.0122972
0.0104864
0.00879202
0.00721323
0.00575044
0.00440413
0.00317468
0.00206252
0.0010681
0.000191787
-0.00056611
-0.00120546
-0.00172625
-0.00212864
-0.00241289
-0.00257942
-0.00262885
-0.002562
-0.00237994
-0.002084
-0.0016757
-0.0011568
-0.000529231
0.000204883
0.00104318
0.00198308
0.00302173
0.00415601
0.00538262
0.00669817
0.00809905
0.00958145
0.0111413
0.0127743
0.014476
0.0162417
0.0180666
0.019946
0.0218745
0.023847
0.0258579
0.0279016
0.0299723
0.0320642
0.0341712
0.0362874
0.0384065
0.0405223
0.0426285
0.0447187
0.0467865
0.0488256
0.0508295
0.0527916
0.0547058
0.0565658
0.0583655
0.0600989
0.06176
0.0633429
0.0648421
0.0662522
0.0675684
0.0687857
0.0698996
0.070906
0.0718007
0.0725804
0.0732418
0.0737825
0.0742
0.0744926
0.0746586
0.074697
0.0746071
0.0743889
0.0740426
0.0735689
0.072969
0.0722441
0.0713958
0.0704262
0.0693373
0.0681317
0.066812
0.065381
0.0638418
0.0621971
0.0604498
0.0586015
0.0566533
0.0546208
0.0525171
0.0501538
0.0473685
0.0244977
0.0214694
0.0189254
0.0166876
0.014548
0.012519
0.0106154
0.00883622
0.00718032
0.00564784
0.00423889
0.00295357
0.00179197
0.000754161
-0.000159886
-0.000950293
-0.00161733
-0.00216138
-0.00258293
-0.00288257
-0.00306107
-0.00311937
-0.00305861
-0.00288014
-0.00258553
-0.00217656
-0.00165518
-0.00102349
-0.00028381
0.000561354
0.00150926
0.00255693
0.00370115
0.00493857
0.00626574
0.00767898
0.00917439
0.0107479
0.0123951
0.0141116
0.0158926
0.0177335
0.0196293
0.0215749
0.023565
0.025594
0.0276564
0.0297463
0.0318579
0.0339853
0.0361223
0.0382629
0.0404007
0.0425294
0.0446425
0.0467337
0.0487966
0.0508245
0.052811
0.0547497
0.0566343
0.0584587
0.0602166
0.061902
0.0635088
0.0650314
0.0664643
0.0678022
0.0690403
0.0701739
0.0711983
0.0721095
0.0729038
0.0735777
0.0741283
0.0745532
0.0748501
0.0750172
0.0750532
0.0749571
0.0747284
0.0743671
0.0738737
0.0732488
0.0724934
0.071609
0.070597
0.0694595
0.0681985
0.0668167
0.0653165
0.0637008
0.0619723
0.0601337
0.0581865
0.0561319
0.0539861
0.0517633
0.0492643
0.0463176
0.0252114
0.0220238
0.019347
0.0169937
0.0147454
0.0126149
0.0106178
0.00875296
0.00701897
0.00541571
0.00394307
0.00260085
0.00138885
0.000306749
-0.000645864
-0.00146951
-0.0021648
-0.00273246
-0.00317328
-0.00348821
-0.00367836
-0.00374498
-0.00368951
-0.00351357
-0.00321898
-0.00280773
-0.00228199
-0.00164405
-0.000896397
-4.17293e-05
0.00091707
0.0019769
0.00313448
0.00438636
0.00572901
0.00715868
0.00867138
0.010263
0.0119291
0.0136652
0.0154667
0.0173287
0.0192463
0.0212144
0.0232277
0.0252806
0.0273674
0.0294824
0.0316198
0.0337736
0.0359378
0.038106
0.040272
0.0424295
0.0445718
0.0466927
0.0487855
0.0508437
0.0528606
0.05483
0.0567453
0.0586002
0.0603884
0.0621036
0.0637397
0.0652909
0.0667515
0.0681162
0.0693798
0.0705372
0.0715839
0.0725155
0.0733278
0.0740173
0.0745809
0.0750156
0.0753191
0.0754893
0.0755244
0.0754232
0.075185
0.0748092
0.0742961
0.0736461
0.0728598
0.0719384
0.0708832
0.0696957
0.0683782
0.0669327
0.0653618
0.063668
0.061854
0.0599226
0.057875
0.0557125
0.0534524
0.0511095
0.048474
0.0453654
0.025792
0.0224452
0.0196355
0.0171667
0.0148091
0.0125767
0.0104854
0.00853414
0.00672121
0.00504634
0.00350919
0.00210933
0.000846202
-0.000280859
-0.00127262
-0.00212992
-0.00285369
-0.00344497
-0.0039049
-0.00423477
-0.004436
-0.00451014
-0.00445892
-0.00428422
-0.00398809
-0.00357275
-0.00304058
-0.00239407
-0.00163591
-0.000768968
0.000203749
0.00127903
0.00245349
0.00372357
0.00508566
0.00653589
0.00807021
0.00968443
0.0113742
0.0131349
0.0149618
0.0168501
0.018795
0.0207911
0.0228332
0.0249157
0.0270328
0.0291789
0.0313482
0.0335345
0.0357319
0.0379341
0.0401346
0.0423271
0.0445049
0.0466617
0.0487908
0.0508855
0.0529391
0.0549452
0.0568972
0.0587886
0.0606129
0.0623637
0.0640348
0.06562
0.0671136
0.06851
0.0698038
0.0709899
0.0720632
0.0730191
0.0738533
0.074562
0.0751416
0.0755892
0.0759018
0.0760773
0.0761134
0.0760087
0.075762
0.0753726
0.0748404
0.0741655
0.0733482
0.0723894
0.0712902
0.0700521
0.0686768
0.0671665
0.0655235
0.0637502
0.0618493
0.0598234
0.057674
0.0554022
0.0530263
0.0505621
0.047789
0.0445173
0.0262327
0.0227263
0.0197834
0.0171986
0.0147313
0.0123962
0.0102102
0.00817172
0.00627916
0.00453202
0.00292979
0.00147171
0.00015691
-0.00101556
-0.00204677
-0.00293783
-0.00369002
-0.00430468
-0.0047833
-0.00512749
-0.00533897
-0.00541959
-0.00537133
-0.00519634
-0.0048969
-0.00447545
-0.0039346
-0.00327706
-0.00250569
-0.00162353
-0.000633715
0.000460442
0.00165541
0.00294753
0.00433306
0.00580808
0.00736845
0.00900991
0.010728
0.0125182
0.0143758
0.0162957
0.0182732
0.0203029
0.0223795
0.0244973
0.0266506
0.0288338
0.031041
0.0332661
0.0355029
0.0377452
0.0399866
0.0422204
0.0444401
0.0466392
0.0488108
0.0509484
0.053045
0.0550941
0.057089
0.0590229
0.0608893
0.0626815
0.0643932
0.0660181
0.0675502
0.0689836
0.0703127
0.0715321
0.0726366
0.0736213
0.0744815
0.0752131
0.0758123
0.0762759
0.0766006
0.0767838
0.0768231
0.0767168
0.0764632
0.0760614
0.075511
0.0748116
0.0739636
0.0729674
0.071824
0.0705345
0.0691008
0.0675246
0.0658083
0.0639542
0.061965
0.0598433
0.0575904
0.0552077
0.0527145
0.0501275
0.0472152
0.0437788
0.0265266
0.0228599
0.0197831
0.0170816
0.014504
0.0120655
0.00978395
0.00765771
0.00568495
0.00386505
0.00219724
0.000680502
-0.000686303
-0.00190438
-0.00297504
-0.00389972
-0.00467999
-0.00531755
-0.00581421
-0.00617187
-0.00639253
-0.00647832
-0.0064315
-0.00625445
-0.00594969
-0.00551993
-0.00496799
-0.00429677
-0.00350933
-0.00260885
-0.00159859
-0.000482013
0.000737208
0.00205529
0.0034684
0.00497252
0.00656343
0.0082368
0.00998819
0.0118129
0.0137062
0.0156631
0.0176786
0.0197475
0.0218642
0.0240232
0.0262187
0.028445
0.0306962
0.0329662
0.0352488
0.0375375
0.039826
0.0421076
0.0443756
0.0466234
0.0488441
0.0510309
0.0531769
0.0552754
0.0573193
0.059302
0.0612165
0.0630563
0.0648145
0.0664848
0.068061
0.0695369
0.0709066
0.0721645
0.073305
0.074323
0.0752136
0.0759722
0.0765949
0.0770779
0.0774179
0.0776118
0.0776569
0.0775511
0.0772925
0.0768799
0.0763124
0.0755896
0.0747113
0.073678
0.0724903
0.0711493
0.0696565
0.0680137
0.0662231
0.064287
0.0622081
0.0599889
0.057631
0.0551357
0.0525234
0.0498117
0.0467584
0.043155
0.0266667
0.0228385
0.0196269
0.0168078
0.014119
0.0115764
0.00919872
0.00698414
0.00493069
0.00303757
0.00130377
-0.000271918
-0.00169084
-0.00295445
-0.00406434
-0.00502226
-0.00583009
-0.00648985
-0.00700363
-0.00737364
-0.00760217
-0.0076916
-0.00764444
-0.00746335
-0.0071511
-0.00671063
-0.00614499
-0.00545727
-0.0046507
-0.00372863
-0.00269445
-0.00155179
-0.000304463
0.00104362
0.00248854
0.00402616
0.00565218
0.00736223
0.00915179
0.0110162
0.0129504
0.0149496
0.0170087
0.0191223
0.0212849
0.0234909
0.0257345
0.0280101
0.0303115
0.0326327
0.0349672
0.0373088
0.0396509
0.0419867
0.0443095
0.0466124
0.0488887
0.0511313
0.0533332
0.0554875
0.057587
0.0596247
0.0615938
0.0634872
0.0652981
0.0670199
0.068646
0.07017
0.0715859
0.0728876
0.0740694
0.0751256
0.0760512
0.0768413
0.0774916
0.077998
0.0783567
0.0785645
0.0786184
0.0785157
0.0782543
0.0778327
0.0772498
0.0765047
0.0755971
0.0745272
0.0732954
0.0719028
0.0703506
0.0686406
0.0667749
0.0647557
0.0625857
0.0602676
0.0578028
0.0551932
0.0524598
0.0496215
0.0464246
0.0426515
0.0266461
0.0226549
0.019307
0.0163694
0.0135684
0.010921
0.00844642
0.00614292
0.00400828
0.00204151
0.000241453
-0.00139328
-0.00286422
-0.0041731
-0.00532181
-0.0063124
-0.00714704
-0.00782807
-0.00835784
-0.00873886
-0.00897369
-0.00906498
-0.00901551
-0.0088282
-0.00850607
-0.00805231
-0.00747019
-0.00676296
-0.00593404
-0.00498694
-0.00392525
-0.00275271
-0.00147331
-9.10715e-05
0.00138997
0.00296559
0.00463141
0.00638297
0.00821571
0.0101249
0.0121054
0.0141523
0.0162604
0.0184244
0.0206387
0.0228977
0.0251955
0.0275264
0.0298842
0.0322628
0.0346558
0.0370566
0.0394587
0.0418553
0.0442394
0.0466042
0.0489427
0.0512477
0.0535122
0.0557289
0.0578905
0.0599899
0.06202
0.0639735
0.0658434
0.0676229
0.069305
0.0708832
0.0723511
0.0737022
0.0749306
0.0760303
0.076996
0.0778223
0.0785047
0.0790386
0.0794201
0.0796455
0.0797113
0.0796146
0.0793532
0.0789249
0.0783283
0.0775625