/*--------------------------------*- C++ -*----------------------------------*\
| =========                 |                                                 |
| \\      /  F ield         | OpenFOAM: The Open Source CFD Toolbox           |
|  \\    /   O peration     | Version:  2212                                  |
|   \\  /    A nd           | Website:  www.openfoam.com                      |
|    \\/     M anipulation  |                                                 |
\*---------------------------------------------------------------------------*/
FoamFile
{
    version     2.0;
    format      ascii;
    arch        "LSB;label=32;scalar=64";
    class       surfaceScalarField;
    location    "0.017";
    object      phi;
}
// * * * * * * * * * * * * * * * * * * * * * * * * * * * * * * * * * * * * * //

dimensions      [0 3 -1 0 0 0 0];

oriented        oriented;

internalField   nonuniform List<scalar> 
19800
(
6.14975e-11
-6.15065e-11
1.59402e-10
-9.7895e-11
2.25778e-10
-6.63843e-11
2.40121e-10
-1.43391e-11
1.89043e-10
5.1075e-11
6.39672e-11
1.2509e-10
-1.38753e-10
2.02716e-10
-4.18658e-10
2.79911e-10
-7.72955e-10
3.54296e-10
-1.19722e-09
4.24264e-10
-1.6862e-09
4.88976e-10
-2.23415e-09
5.47944e-10
-2.83513e-09
6.00967e-10
-3.48325e-09
6.48111e-10
-4.17267e-09
6.894e-10
-4.89762e-09
7.24955e-10
-5.65259e-09
7.54976e-10
-6.4322e-09
7.79611e-10
-7.23137e-09
7.99176e-10
-8.04531e-09
8.13931e-10
-8.86944e-09
8.24131e-10
-9.69946e-09
8.30016e-10
-1.05313e-08
8.31841e-10
-1.13611e-08
8.29781e-10
-1.21852e-08
8.24126e-10
-1.30003e-08
8.15128e-10
-1.38033e-08
8.02986e-10
-1.45912e-08
7.87895e-10
-1.53613e-08
7.7008e-10
-1.6111e-08
7.49731e-10
-1.6838e-08
7.26996e-10
-1.75401e-08
7.02064e-10
-1.82152e-08
6.75112e-10
-1.88615e-08
6.46311e-10
-1.94773e-08
6.1579e-10
-2.00609e-08
5.83672e-10
-2.0611e-08
5.50117e-10
-2.11263e-08
5.15232e-10
-2.16054e-08
4.79113e-10
-2.20473e-08
4.41872e-10
-2.24509e-08
4.03636e-10
-2.28154e-08
3.64547e-10
-2.31401e-08
3.24665e-10
-2.34241e-08
2.84017e-10
-2.36668e-08
2.42707e-10
-2.38677e-08
2.00867e-10
-2.40263e-08
1.5859e-10
-2.41422e-08
1.15942e-10
-2.42152e-08
7.29914e-11
-2.4245e-08
2.98151e-11
-2.42315e-08
-1.35065e-11
-2.41746e-08
-5.69007e-11
-2.40743e-08
-1.00293e-10
-2.39308e-08
-1.43584e-10
-2.37441e-08
-1.86654e-10
-2.35147e-08
-2.29422e-10
-2.32429e-08
-2.71827e-10
-2.29291e-08
-3.13772e-10
-2.2574e-08
-3.55143e-10
-2.21781e-08
-3.95837e-10
-2.17424e-08
-4.3572e-10
-2.12678e-08
-4.74638e-10
-2.07553e-08
-5.12501e-10
-2.0206e-08
-5.49219e-10
-1.96214e-08
-5.84621e-10
-1.90029e-08
-6.18522e-10
-1.83521e-08
-6.50787e-10
-1.76708e-08
-6.81266e-10
-1.69611e-08
-7.09773e-10
-1.62249e-08
-7.36131e-10
-1.54648e-08
-7.60172e-10
-1.46831e-08
-7.81685e-10
-1.38826e-08
-8.00464e-10
-1.30663e-08
-8.16341e-10
-1.22371e-08
-8.29138e-10
-1.13985e-08
-8.3862e-10
-1.0554e-08
-8.44535e-10
-9.70731e-09
-8.46663e-10
-8.86253e-09
-8.44786e-10
-8.0239e-09
-8.3864e-10
-7.19594e-09
-8.27953e-10
-6.38346e-09
-8.12484e-10
-5.59143e-09
-7.92024e-10
-4.82507e-09
-7.66357e-10
-4.08981e-09
-7.35256e-10
-3.3913e-09
-6.98508e-10
-2.73536e-09
-6.55947e-10
-2.12792e-09
-6.07445e-10
-1.57501e-09
-5.52906e-10
-1.0827e-09
-4.92313e-10
-6.56906e-10
-4.25803e-10
-3.03185e-10
-3.53724e-10
-2.64661e-11
-2.76719e-10
1.6943e-10
-1.95897e-10
2.82603e-10
-1.13175e-10
3.14592e-10
-3.19925e-11
2.72996e-10
4.15939e-11
1.76122e-10
9.6875e-11
6.21875e-11
1.1393e-10
6.21826e-11
1.26206e-10
-1.87702e-10
2.76142e-10
-2.47853e-10
3.33433e-10
-1.23662e-10
2.46469e-10
7.2627e-11
-1.61154e-11
3.13654e-10
-4.72899e-10
5.81865e-10
-1.13154e-09
8.61361e-10
-1.99183e-09
1.1402e-09
-3.04761e-09
1.41006e-09
-4.28886e-09
1.66552e-09
-5.70309e-09
1.9032e-09
-7.27619e-09
2.12106e-09
-8.99329e-09
2.31809e-09
-1.08391e-08
2.49388e-09
-1.27981e-08
2.64847e-09
-1.48553e-08
2.78216e-09
-1.69958e-08
2.89547e-09
-1.92053e-08
2.98905e-09
-2.14698e-08
3.06372e-09
-2.37762e-08
3.12027e-09
-2.61117e-08
3.1596e-09
-2.84642e-08
3.18259e-09
-3.08225e-08
3.19008e-09
-3.31756e-08
3.18292e-09
-3.55135e-08
3.16203e-09
-3.78267e-08
3.12824e-09
-4.01061e-08
3.08237e-09
-4.23434e-08
3.02519e-09
-4.45307e-08
2.95747e-09
-4.66609e-08
2.87992e-09
-4.87271e-08
2.79319e-09
-5.0723e-08
2.69797e-09
-5.26428e-08
2.5949e-09
-5.44811e-08
2.48457e-09
-5.62328e-08
2.36755e-09
-5.78935e-08
2.24435e-09
-5.94589e-08
2.11552e-09
-6.09252e-08
1.98151e-09
-6.22888e-08
1.84274e-09
-6.35466e-08
1.69967e-09
-6.46957e-08
1.55272e-09
-6.57335e-08
1.40231e-09
-6.66576e-08
1.24877e-09
-6.7466e-08
1.09243e-09
-6.81569e-08
9.33627e-10
-6.87288e-08
7.72737e-10
-6.91803e-08
6.10088e-10
-6.95103e-08
4.45982e-10
-6.97181e-08
2.80722e-10
-6.98029e-08
1.14624e-10
-6.97644e-08
-5.19994e-11
-6.96025e-08
-2.18852e-10
-6.93171e-08
-3.85623e-10
-6.89087e-08
-5.51965e-10
-6.83779e-08
-7.1752e-10
-6.77254e-08
-8.8193e-10
-6.69523e-08
-1.04484e-09
-6.60602e-08
-1.20591e-09
-6.50506e-08
-1.36472e-09
-6.39257e-08
-1.52083e-09
-6.26876e-08
-1.67376e-09
-6.13392e-08
-1.82307e-09
-5.98834e-08
-1.96827e-09
-5.83238e-08
-2.10886e-09
-5.66641e-08
-2.24431e-09
-5.49086e-08
-2.37402e-09
-5.3062e-08
-2.49737e-09
-5.11295e-08
-2.61378e-09
-4.91167e-08
-2.72259e-09
-4.70297e-08
-2.82311e-09
-4.48752e-08
-2.91464e-09
-4.26604e-08
-2.99648e-09
-4.0393e-08
-3.06789e-09
-3.80812e-08
-3.12811e-09
-3.5734e-08
-3.17635e-09
-3.33608e-08
-3.2118e-09
-3.09717e-08
-3.23362e-09
-2.85775e-08
-3.24095e-09
-2.61893e-08
-3.23293e-09
-2.38193e-08
-3.20869e-09
-2.14798e-08
-3.16736e-09
-1.91842e-08
-3.10811e-09
-1.69461e-08
-3.03011e-09
-1.47799e-08
-2.9326e-09
-1.27002e-08
-2.81491e-09
-1.07223e-08
-2.67643e-09
-8.86155e-09
-2.51672e-09
-7.13351e-09
-2.33548e-09
-5.5537e-09
-2.13273e-09
-4.13717e-09
-1.90884e-09
-2.89819e-09
-1.66478e-09
-1.84956e-09
-1.40235e-09
-1.00175e-09
-1.12454e-09
-3.61455e-10
-8.36186e-10
7.04157e-11
-5.45044e-10
3.0187e-10
-2.63454e-10
3.54381e-10
-1.09212e-11
2.69085e-10
1.82163e-10
1.14358e-10
2.68643e-10
1.76549e-10
1.2303e-10
-3.1074e-10
2.25199e-10
-3.49994e-10
1.68347e-10
-6.68256e-11
-1.17187e-10
3.58176e-10
-6.7337e-10
8.6984e-10
-1.52392e-09
1.43243e-09
-2.67868e-09
2.01612e-09
-4.13696e-09
2.59849e-09
-5.89033e-09
3.16344e-09
-7.92485e-09
3.70002e-09
-1.02227e-08
4.20105e-09
-1.27636e-08
4.66197e-09
-1.55258e-08
5.08026e-09
-1.84866e-08
5.45466e-09
-2.16229e-08
5.78484e-09
-2.4912e-08
6.07119e-09
-2.83311e-08
6.31455e-09
-3.18582e-08
6.51615e-09
-3.54718e-08
6.67738e-09
-3.91515e-08
6.79994e-09
-4.28773e-08
6.88546e-09
-4.66305e-08
6.93575e-09
-5.0393e-08
6.95258e-09
-5.41478e-08
6.93775e-09
-5.78789e-08
6.89308e-09
-6.1571e-08
6.82034e-09
-6.52099e-08
6.72127e-09
-6.87822e-08
6.59752e-09
-7.22755e-08
6.45072e-09
-7.56779e-08
6.2824e-09
-7.89788e-08
6.09403e-09
-8.21678e-08
5.88704e-09
-8.52357e-08
5.6628e-09
-8.81738e-08
5.42262e-09
-9.09739e-08
5.1677e-09
-9.36288e-08
4.89925e-09
-9.61316e-08
4.61834e-09
-9.84762e-08
4.32603e-09
-1.00657e-07
4.0233e-09
-1.02668e-07
3.71109e-09
-1.04506e-07
3.39034e-09
-1.06165e-07
3.06193e-09
-1.07643e-07
2.72664e-09
-1.08936e-07
2.38522e-09
-1.10041e-07
2.03846e-09
-1.10955e-07
1.6871e-09
-1.11677e-07
1.33187e-09
-1.12204e-07
9.73442e-10
-1.12536e-07
6.12508e-10
-1.12671e-07
2.49756e-10
-1.12609e-07
-1.14121e-10
-1.1235e-07
-4.78437e-10
-1.11893e-07
-8.42504e-10
-1.11239e-07
-1.20558e-09
-1.1039e-07
-1.56687e-09
-1.09346e-07
-1.92563e-09
-1.0811e-07
-2.28107e-09
-1.06683e-07
-2.63236e-09
-1.0507e-07
-2.97861e-09
-1.03272e-07
-3.31887e-09
-1.01293e-07
-3.65215e-09
-9.91388e-08
-3.97745e-09
-9.68133e-08
-4.29371e-09
-9.43224e-08
-4.59979e-09
-9.16722e-08
-4.89452e-09
-8.88696e-08
-5.17665e-09
-8.59221e-08
-5.44489e-09
-8.2838e-08
-5.69788e-09
-7.96263e-08
-5.93421e-09
-7.6297e-08
-6.15244e-09
-7.28606e-08
-6.35105e-09
-6.93286e-08
-6.52846e-09
-6.57134e-08
-6.68308e-09
-6.20283e-08
-6.81329e-09
-5.82872e-08
-6.91738e-09
-5.45054e-08
-6.99359e-09
-5.06989e-08
-7.04014e-09
-4.68846e-08
-7.05526e-09
-4.30804e-08
-7.03716e-09
-3.9305e-08
-6.98404e-09
-3.55782e-08
-6.89413e-09
-3.19206e-08
-6.76574e-09
-2.83534e-08
-6.59728e-09
-2.48988e-08
-6.38727e-09
-2.15793e-08
-6.13441e-09
-1.8418e-08
-5.83769e-09
-1.54383e-08
-5.49641e-09
-1.26635e-08
-5.11037e-09
-1.01162e-08
-4.67999e-09
-7.8184e-09
-4.20663e-09
-5.79029e-09
-3.6929e-09
-4.04943e-09
-3.14322e-09
-2.60937e-09
-2.56459e-09
-1.47783e-09
-1.96772e-09
-6.54094e-10
-1.36879e-09
-1.25479e-10
-7.92072e-10
1.3721e-10
-2.73605e-10
1.85202e-10
1.34163e-10
9.82386e-11
3.55612e-10
2.74786e-10
6.46745e-11
-3.75418e-10
3.56663e-11
-3.20977e-10
-2.22129e-10
1.90985e-10
-7.85277e-10
9.21316e-10
-1.70033e-09
1.7849e-09
-2.99342e-09
2.72552e-09
-4.67523e-09
3.69792e-09
-6.7445e-09
4.66777e-09
-9.19111e-09
5.61005e-09
-1.19982e-08
6.50713e-09
-1.51442e-08
7.34699e-09
-1.8604e-08
8.12181e-09
-2.23506e-08
8.8268e-09
-2.63553e-08
9.45939e-09
-3.05891e-08
1.00186e-08
-3.50226e-08
1.05047e-08
-3.96267e-08
1.09187e-08
-4.43729e-08
1.12623e-08
-4.92332e-08
1.15377e-08
-5.41807e-08
1.17474e-08
-5.91892e-08
1.1894e-08
-6.42339e-08
1.19805e-08
-6.9291e-08
1.20097e-08
-7.4338e-08
1.19847e-08
-7.93533e-08
1.19084e-08
-8.43167e-08
1.17837e-08
-8.92091e-08
1.16137e-08
-9.40125e-08
1.1401e-08
-9.87102e-08
1.11484e-08
-1.03286e-07
1.08586e-08
-1.07726e-07
1.0534e-08
-1.12016e-07
1.01772e-08
-1.16144e-07
9.79043e-09
-1.20097e-07
9.37596e-09
-1.23866e-07
8.93587e-09
-1.27439e-07
8.47224e-09
-1.30807e-07
7.98695e-09
-1.33963e-07
7.48178e-09
-1.36898e-07
6.95849e-09
-1.39606e-07
6.41873e-09
-1.4208e-07
5.86407e-09
-1.44314e-07
5.29603e-09
-1.46303e-07
4.71599e-09
-1.48043e-07
4.12534e-09
-1.4953e-07
3.52541e-09
-1.5076e-07
2.91748e-09
-1.51731e-07
2.3028e-09
-1.52441e-07
1.68257e-09
-1.52886e-07
1.05803e-09
-1.53067e-07
4.3039e-10
-1.52982e-07
-1.99165e-10
-1.52631e-07
-8.29449e-10
-1.52014e-07
-1.4592e-09
-1.51132e-07
-2.08712e-09
-1.49987e-07
-2.71191e-09
-1.48581e-07
-3.33224e-09
-1.46915e-07
-3.94669e-09
-1.44994e-07
-4.5538e-09
-1.4282e-07
-5.15205e-09
-1.40399e-07
-5.73984e-09
-1.37736e-07
-6.31544e-09
-1.34836e-07
-6.8771e-09
-1.31707e-07
-7.42299e-09
-1.28356e-07
-7.95117e-09
-1.24791e-07
-8.45959e-09
-1.21021e-07
-8.94609e-09
-1.17058e-07
-9.40846e-09
-1.12911e-07
-9.84442e-09
-1.08594e-07
-1.02515e-08
-1.04119e-07
-1.06272e-08
-9.9501e-08
-1.0969e-08
-9.47553e-08
-1.12741e-08
-8.98985e-08
-1.15399e-08
-8.49482e-08
-1.17635e-08
-7.99236e-08
-1.1942e-08
-7.48447e-08
-1.20725e-08
-6.97328e-08
-1.2152e-08
-6.46105e-08
-1.21775e-08
-5.95016e-08
-1.21461e-08
-5.44309e-08
-1.20548e-08
-4.94243e-08
-1.19007e-08
-4.45089e-08
-1.16812e-08
-3.97125e-08
-1.13936e-08
-3.50639e-08
-1.10358e-08
-3.05924e-08
-1.06059e-08
-2.63277e-08
-1.01024e-08
-2.22994e-08
-9.52468e-09
-1.85371e-08
-8.87272e-09
-1.50692e-08
-8.14788e-09
-1.19228e-08
-7.35304e-09
-9.12237e-09
-6.49329e-09
-6.68891e-09
-5.57668e-09
-4.63808e-09
-4.6154e-09
-2.97841e-09
-3.6274e-09
-1.70853e-09
-2.63868e-09
-8.14036e-10
-1.68656e-09
-2.63514e-10
-8.24133e-10
-4.04548e-12
-1.2531e-10
4.41473e-11
3.07419e-10
3.18926e-10
-1.59951e-11
-3.59429e-10
-2.25303e-10
-1.11671e-10
-7.42155e-10
7.07841e-10
-1.63913e-09
1.81829e-09
-2.96146e-09
3.10723e-09
-4.73443e-09
4.49849e-09
-6.96777e-09
5.93126e-09
-9.65902e-09
7.35901e-09
-1.27962e-08
8.74722e-09
-1.63601e-08
1.0071e-08
-2.03259e-08
1.13128e-08
-2.46649e-08
1.24609e-08
-2.93459e-08
1.35078e-08
-3.43355e-08
1.4449e-08
-3.95996e-08
1.52827e-08
-4.51035e-08
1.60086e-08
-5.08127e-08
1.66279e-08
-5.6693e-08
1.71426e-08
-6.2711e-08
1.75558e-08
-6.88343e-08
1.78706e-08
-7.50313e-08
1.8091e-08
-8.12719e-08
1.8221e-08
-8.7527e-08
1.82648e-08
-9.37691e-08
1.82268e-08
-9.99719e-08
1.81112e-08
-1.06111e-07
1.79225e-08
-1.12162e-07
1.76648e-08
-1.18103e-07
1.73425e-08
-1.23914e-07
1.69594e-08
-1.29575e-07
1.65197e-08
-1.35069e-07
1.60272e-08
-1.40377e-07
1.54854e-08
-1.45484e-07
1.4898e-08
-1.50377e-07
1.42682e-08
-1.5504e-07
1.35993e-08
-1.59462e-07
1.28944e-08
-1.63632e-07
1.21563e-08
-1.67538e-07
1.13879e-08
-1.71171e-07
1.05917e-08
-1.74523e-07
9.77036e-09
-1.77585e-07
8.92617e-09
-1.8035e-07
8.06145e-09
-1.82812e-07
7.17836e-09
-1.84966e-07
6.27903e-09
-1.86806e-07
5.36553e-09
-1.88329e-07
4.43976e-09
-1.89529e-07
3.50367e-09
-1.90406e-07
2.55916e-09
-1.90956e-07
1.60807e-09
-1.91178e-07
6.52254e-10
-1.91071e-07
-3.06404e-10
-1.90634e-07
-1.26605e-09
-1.89869e-07
-2.2248e-09
-1.88775e-07
-3.18068e-09
-1.87355e-07
-4.13168e-09
-1.85612e-07
-5.07571e-09
-1.83548e-07
-6.01065e-09
-1.81167e-07
-6.93428e-09
-1.78475e-07
-7.84423e-09
-1.75477e-07
-8.73802e-09
-1.72179e-07
-9.61312e-09
-1.68589e-07
-1.04669e-08
-1.64716e-07
-1.12964e-08
-1.60568e-07
-1.20988e-08
-1.56157e-07
-1.2871e-08
-1.51493e-07
-1.36097e-08
-1.4659e-07
-1.43116e-08
-1.41461e-07
-1.49732e-08
-1.36122e-07
-1.55907e-08
-1.30589e-07
-1.61605e-08
-1.24879e-07
-1.66787e-08
-1.19012e-07
-1.71411e-08
-1.13009e-07
-1.75437e-08
-1.0689e-07
-1.78823e-08
-1.00679e-07
-1.81525e-08
-9.44019e-08
-1.83499e-08
-8.80836e-08
-1.84703e-08
-8.1752e-08
-1.85091e-08
-7.5436e-08
-1.84621e-08
-6.91658e-08
-1.8325e-08
-6.29729e-08
-1.80936e-08
-5.68898e-08
-1.77642e-08
-5.09502e-08
-1.73333e-08
-4.51884e-08
-1.67977e-08
-3.96393e-08
-1.6155e-08
-3.43381e-08
-1.54037e-08
-2.93198e-08
-1.45429e-08
-2.46189e-08
-1.35736e-08
-2.02685e-08
-1.24983e-08
-1.62997e-08
-1.13219e-08
-1.27404e-08
-1.00526e-08
-9.61421e-09
-8.70283e-09
-6.93891e-09
-7.29071e-09
-4.72427e-09
-5.84205e-09
-2.96986e-09
-4.39308e-09
-1.66236e-09
-2.99406e-09
-7.72424e-10
-1.71408e-09
-2.51416e-10
-6.46312e-10
-2.78473e-11
8.38436e-11
2.91078e-10
-1.02398e-10
-2.57018e-10
-5.14886e-10
3.00813e-10
-1.32378e-09
1.51676e-09
-2.58967e-09
3.08418e-09
-4.35123e-09
4.86879e-09
-6.62955e-09
6.77684e-09
-9.43146e-09
8.73316e-09
-1.2752e-08
1.06796e-08
-1.65769e-08
1.25721e-08
-2.08844e-08
1.43785e-08
-2.56469e-08
1.60753e-08
-3.08327e-08
1.76467e-08
-3.64067e-08
1.90818e-08
-4.23318e-08
2.03741e-08
-4.85697e-08
2.15206e-08
-5.50812e-08
2.25201e-08
-6.18273e-08
2.33739e-08
-6.8769e-08
2.40844e-08
-7.58682e-08
2.4655e-08
-8.30876e-08
2.509e-08
-9.0391e-08
2.53945e-08
-9.77436e-08
2.55736e-08
-1.05112e-07
2.5633e-08
-1.12464e-07
2.55786e-08
-1.19769e-07
2.54161e-08
-1.26998e-07
2.51515e-08
-1.34123e-07
2.47906e-08
-1.4112e-07
2.43391e-08
-1.47963e-07
2.38027e-08
-1.5463e-07
2.31867e-08
-1.611e-07
2.24965e-08
-1.67351e-07
2.17372e-08
-1.73367e-07
2.09137e-08
-1.7913e-07
2.00306e-08
-1.84623e-07
1.90925e-08
-1.89832e-07
1.81036e-08
-1.94744e-07
1.70679e-08
-1.99345e-07
1.59895e-08
-2.03625e-07
1.48719e-08
-2.07574e-07
1.37188e-08
-2.11181e-07
1.25334e-08
-2.14439e-07
1.13191e-08
-2.17339e-07
1.00789e-08
-2.19876e-07
8.81576e-09
-2.22043e-07
7.53259e-09
-2.23835e-07
6.23219e-09
-2.25249e-07
4.91723e-09
-2.2628e-07
3.59039e-09
-2.26926e-07
2.25435e-09
-2.27186e-07
9.11742e-10
-2.27058e-07
-4.34836e-10
-2.26541e-07
-1.78274e-09
-2.25636e-07
-3.12923e-09
-2.24346e-07
-4.47151e-09
-2.22671e-07
-5.8068e-09
-2.20614e-07
-7.1322e-09
-2.1818e-07
-8.44463e-09
-2.15373e-07
-9.74091e-09
-2.122e-07
-1.10178e-08
-2.08666e-07
-1.22718e-08
-2.0478e-07
-1.34994e-08
-2.0055e-07
-1.46967e-08
-1.95987e-07
-1.58599e-08
-1.91101e-07
-1.69848e-08
-1.85905e-07
-1.8067e-08
-1.80412e-07
-1.91021e-08
-1.74638e-07
-2.00854e-08
-1.686e-07
-2.1012e-08
-1.62313e-07
-2.18768e-08
-1.558e-07
-2.26745e-08
-1.49078e-07
-2.33997e-08
-1.42173e-07
-2.40469e-08
-1.35106e-07
-2.46103e-08
-1.27904e-07
-2.5084e-08
-1.20595e-07
-2.54622e-08
-1.13206e-07
-2.57389e-08
-1.05768e-07
-2.5908e-08
-9.83134e-08
-2.59637e-08
-9.08755e-08
-2.58999e-08
-8.34893e-08
-2.57112e-08
-7.6191e-08
-2.5392e-08
-6.9018e-08
-2.49372e-08
-6.20088e-08
-2.43425e-08
-5.52026e-08
-2.36039e-08
-4.86391e-08
-2.27185e-08
-4.23581e-08
-2.16846e-08
-3.63991e-08
-2.05019e-08
-3.08006e-08
-1.91721e-08
-2.55996e-08
-1.76993e-08
-2.08306e-08
-1.6091e-08
-1.65244e-08
-1.43588e-08
-1.27074e-08
-1.25199e-08
-9.39944e-09
-1.05986e-08
-6.61262e-09
-8.62887e-09
-4.34906e-09
-6.65664e-09
-2.59891e-09
-4.74422e-09
-1.3382e-09
-2.97479e-09
-5.2688e-10
-1.45762e-09
-1.07032e-10
-3.36008e-10
1.84054e-10
-1.87867e-10
-6.91546e-11
-8.11197e-10
9.24154e-10
-1.92721e-09
2.63278e-09
-3.58028e-09
4.73725e-09
-5.79884e-09
7.08736e-09
-8.59705e-09
9.57504e-09
-1.19768e-08
1.21129e-08
-1.59293e-08
1.46321e-08
-2.04373e-08
1.70801e-08
-2.54761e-08
1.94172e-08
-3.10152e-08
2.16145e-08
-3.70198e-08
2.36513e-08
-4.34518e-08
2.55137e-08
-5.02707e-08
2.7193e-08
-5.74344e-08
2.86843e-08
-6.49001e-08
2.99859e-08
-7.26247e-08
3.10985e-08
-8.05653e-08
3.2025e-08
-8.86796e-08
3.27693e-08
-9.69262e-08
3.33366e-08
-1.05265e-07
3.3733e-08
-1.13656e-07
3.39651e-08
-1.22063e-07
3.40401e-08
-1.3045e-07
3.39652e-08
-1.38782e-07
3.37479e-08
-1.47026e-07
3.33959e-08
-1.55152e-07
3.29166e-08
-1.63131e-07
3.23175e-08
-1.70934e-07
3.16058e-08
-1.78536e-07
3.07888e-08
-1.85913e-07
2.98733e-08
-1.93041e-07
2.88661e-08
-1.99901e-07
2.77734e-08
-2.06472e-07
2.66016e-08
-2.12736e-07
2.53566e-08
-2.18677e-07
2.40439e-08
-2.24278e-07
2.2669e-08
-2.29525e-07
2.1237e-08
-2.34406e-07
1.97529e-08
-2.38909e-07
1.82215e-08
-2.43022e-07
1.6647e-08
-2.46737e-07
1.50339e-08
-2.50045e-07
1.33862e-08
-2.52937e-07
1.1708e-08
-2.55407e-07
1.00031e-08
-2.5745e-07
8.27519e-09
-2.59061e-07
6.52792e-09
-2.60236e-07
4.76491e-09
-2.60971e-07
2.98967e-09
-2.61265e-07
1.20568e-09
-2.61116e-07
-5.83479e-10
-2.60525e-07
-2.37424e-09
-2.59491e-07
-4.163e-09
-2.58016e-07
-5.94608e-09
-2.56103e-07
-7.71968e-09
-2.53756e-07
-9.47988e-09
-2.50978e-07
-1.12227e-08
-2.47775e-07
-1.29438e-08
-2.44154e-07
-1.46389e-08
-2.40122e-07
-1.63034e-08
-2.35689e-07
-1.79326e-08
-2.30864e-07
-1.95214e-08
-2.25659e-07
-2.10646e-08
-2.20088e-07
-2.25567e-08
-2.14163e-07
-2.3992e-08
-2.079e-07
-2.53646e-08
-2.01317e-07
-2.66682e-08
-1.94433e-07
-2.78965e-08
-1.87267e-07
-2.90427e-08
-1.79842e-07
-3.00998e-08
-1.7218e-07
-3.10609e-08
-1.64309e-07
-3.19185e-08
-1.56254e-07
-3.26651e-08
-1.48045e-07
-3.32932e-08
-1.39712e-07
-3.37951e-08
-1.31288e-07
-3.41629e-08
-1.22807e-07
-3.4389e-08
-1.14305e-07
-3.44657e-08
-1.05819e-07
-3.43854e-08
-9.73894e-08
-3.4141e-08
-8.90557e-08
-3.37257e-08
-8.08597e-08
-3.31332e-08
-7.28441e-08
-3.2358e-08
-6.50524e-08
-3.13956e-08
-5.75284e-08
-3.02426e-08
-5.03158e-08
-2.88973e-08
-4.34579e-08
-2.73599e-08
-3.69968e-08
-2.56332e-08
-3.09727e-08
-2.37233e-08
-2.54234e-08
-2.16403e-08
-2.03825e-08
-1.93996e-08
-1.58792e-08
-1.70232e-08
-1.19361e-08
-1.45417e-08
-8.56859e-09
-1.19964e-08
-5.78275e-09
-9.44249e-09
-3.57421e-09
-6.95277e-09
-1.92678e-09
-4.6222e-09
-8.11756e-10
-2.57265e-09
-1.87521e-10
-9.60237e-10
-3.46442e-12
-2.69981e-10
2.00835e-10
-1.10297e-09
1.75714e-09
-2.52941e-09
4.05921e-09
-4.57572e-09
6.78359e-09
-7.25793e-09
9.76955e-09
-1.05813e-08
1.28984e-08
-1.4541e-08
1.60726e-08
-1.91236e-08
1.92147e-08
-2.43076e-08
2.2264e-08
-3.00648e-08
2.51745e-08
-3.63618e-08
2.79115e-08
-4.31607e-08
3.04502e-08
-5.04203e-08
3.27733e-08
-5.8097e-08
3.48697e-08
-6.61455e-08
3.67327e-08
-7.45195e-08
3.83599e-08
-8.31726e-08
3.97517e-08
-9.20584e-08
4.09107e-08
-1.01131e-07
4.18417e-08
-1.10345e-07
4.25507e-08
-1.19657e-07
4.30448e-08
-1.29024e-07
4.33321e-08
-1.38405e-07
4.34211e-08
-1.4776e-07
4.33209e-08
-1.57053e-07
4.30406e-08
-1.66247e-07
4.25895e-08
-1.75307e-07
4.19771e-08
-1.84202e-07
4.12126e-08
-1.92901e-07
4.0305e-08
-2.01376e-07
3.92635e-08
-2.09599e-07
3.80965e-08
-2.17546e-07
3.68126e-08
-2.25192e-07
3.54199e-08
-2.32517e-07
3.39262e-08
-2.39499e-07
3.2339e-08
-2.46121e-07
3.06653e-08
-2.52364e-07
2.89122e-08
-2.58213e-07
2.70862e-08
-2.63654e-07
2.51936e-08
-2.68673e-07
2.32402e-08
-2.73257e-07
2.12319e-08
-2.77398e-07
1.91741e-08
-2.81084e-07
1.70722e-08
-2.84307e-07
1.49311e-08
-2.8706e-07
1.27559e-08
-2.89336e-07
1.05513e-08
-2.9113e-07
8.32201e-09
-2.92437e-07
6.07256e-09
-2.93255e-07
3.80754e-09
-2.93581e-07
1.53147e-09
-2.93414e-07
-7.5112e-10
-2.92752e-07
-3.03568e-09
-2.91598e-07
-5.31754e-09
-2.89952e-07
-7.59194e-09
-2.87817e-07
-9.85408e-09
-2.85198e-07
-1.2099e-08
-2.821e-07
-1.43214e-08
-2.78527e-07
-1.65159e-08
-2.74489e-07
-1.8677e-08
-2.69994e-07
-2.07989e-08
-2.65051e-07
-2.28754e-08
-2.59672e-07
-2.49002e-08
-2.5387e-07
-2.68666e-08
-2.47659e-07
-2.87677e-08
-2.41055e-07
-3.05962e-08
-2.34075e-07
-3.23446e-08
-2.26738e-07
-3.4005e-08
-2.19066e-07
-3.55692e-08
-2.11079e-07
-3.70288e-08
-2.02804e-07
-3.8375e-08
-1.94266e-07
-3.95989e-08
-1.85493e-07
-4.06913e-08
-1.76516e-07
-4.16427e-08
-1.67366e-07
-4.24436e-08
-1.58076e-07
-4.30843e-08
-1.48684e-07
-4.35553e-08
-1.39226e-07
-4.38469e-08
-1.29742e-07
-4.39496e-08
-1.20273e-07
-4.38542e-08
-1.10862e-07
-4.3552e-08
-1.01554e-07
-4.30346e-08
-9.23921e-08
-4.22947e-08
-8.34244e-08
-4.13257e-08
-7.46977e-08
-4.01223e-08
-6.62592e-08
-3.8681e-08
-5.81563e-08
-3.70002e-08
-5.04356e-08
-3.50806e-08
-4.31423e-08
-3.29264e-08
-3.632e-08
-3.05457e-08
-3.0009e-08
-2.79512e-08
-2.42464e-08
-2.51622e-08
-1.90642e-08
-2.22054e-08
-1.44887e-08
-1.91172e-08
-1.05393e-08
-1.59458e-08
-7.22729e-09
-1.27545e-08
-4.55525e-09
-9.6248e-09
-2.51643e-09
-6.66102e-09
-1.09485e-09
-3.99423e-09
-2.66181e-10
-1.7889e-09
-2.69651e-10
-3.47653e-10
5.48493e-10
-1.3846e-09
2.79408e-09
-3.11735e-09
5.79196e-09
-5.55449e-09
9.22074e-09
-8.69863e-09
1.29137e-08
-1.2545e-08
1.67447e-08
-1.70811e-08
2.06088e-08
-2.22874e-08
2.4421e-08
-2.81377e-08
2.81143e-08
-3.45999e-08
3.16366e-08
-4.16369e-08
3.49485e-08
-4.92077e-08
3.8021e-08
-5.72679e-08
4.08336e-08
-6.5771e-08
4.33727e-08
-7.46686e-08
4.56304e-08
-8.39115e-08
4.76028e-08
-9.345e-08
4.92902e-08
-1.03234e-07
5.06952e-08
-1.13216e-07
5.1823e-08
-1.23346e-07
5.26806e-08
-1.33577e-07
5.32762e-08
-1.43864e-07
5.36192e-08
-1.54163e-07
5.37198e-08
-1.64431e-07
5.35884e-08
-1.74626e-07
5.32363e-08
-1.84711e-07
5.26746e-08
-1.94649e-07
5.19144e-08
-2.04403e-07
5.09672e-08
-2.13942e-07
4.98438e-08
-2.23234e-07
4.85552e-08
-2.32249e-07
4.7112e-08
-2.40961e-07
4.55244e-08
-2.49344e-07
4.38024e-08
-2.57373e-07
4.19555e-08
-2.65027e-07
3.99929e-08
-2.72285e-07
3.79235e-08
-2.79128e-07
3.57557e-08
-2.8554e-07
3.34975e-08
-2.91503e-07
3.11568e-08
-2.97004e-07
2.8741e-08
-3.02029e-07
2.6257e-08
-3.06566e-07
2.37117e-08
-3.10606e-07
2.11116e-08
-3.14138e-07
1.84631e-08
-3.17154e-07
1.57723e-08
-3.19648e-07
1.3045e-08
-3.21613e-07
1.02872e-08
-3.23045e-07
7.50446e-09
-3.2394e-07
4.7025e-09
-3.24295e-07
1.88691e-09
-3.2411e-07
-9.36646e-10
-3.23383e-07
-3.76247e-09
-3.22116e-07
-6.58481e-09
-3.2031e-07
-9.3978e-09
-3.17969e-07
-1.21954e-08
-3.15096e-07
-1.49715e-08
-3.11698e-07
-1.77195e-08
-3.07781e-07
-2.04328e-08
-3.03353e-07
-2.31046e-08
-2.98425e-07
-2.57276e-08
-2.93006e-07
-2.82942e-08
-2.87109e-07
-3.07967e-08
-2.80749e-07
-3.32268e-08
-2.73941e-07
-3.5576e-08
-2.66702e-07
-3.78353e-08
-2.59051e-07
-3.99954e-08
-2.51009e-07
-4.20467e-08
-2.42599e-07
-4.39791e-08
-2.33846e-07
-4.57824e-08
-2.24775e-07
-4.74457e-08
-2.15416e-07
-4.89582e-08
-2.05799e-07
-5.03085e-08
-1.95956e-07
-5.14853e-08
-1.85923e-07
-5.24769e-08
-1.75735e-07
-5.32716e-08
-1.65433e-07
-5.38578e-08
-1.55056e-07
-5.42239e-08
-1.44647e-07
-5.43585e-08
-1.3425e-07
-5.42507e-08
-1.23912e-07
-5.389e-08
-1.1368e-07
-5.32668e-08
-1.03603e-07
-5.23722e-08
-9.37294e-08
-5.11988e-08
-8.41109e-08
-4.97408e-08
-7.47977e-08
-4.79943e-08
-6.58402e-08
-4.59577e-08
-5.72881e-08
-4.36327e-08
-4.91897e-08
-4.10248e-08
-4.15916e-08
-3.81438e-08
-3.45373e-08
-3.50055e-08
-2.80669e-08
-3.16326e-08
-2.2216e-08
-2.80563e-08
-1.70151e-08
-2.43181e-08
-1.24885e-08
-2.04725e-08
-8.65354e-09
-1.65894e-08
-5.52081e-09
-1.27575e-08
-3.09381e-09
-9.08804e-09
-1.3698e-09
-5.71824e-09
-3.41512e-10
-2.81719e-09
-6.11166e-10
-4.20705e-10
9.69203e-10
-1.65339e-09
4.02678e-09
-3.68385e-09
7.82241e-09
-6.50376e-09
1.20407e-08
-1.01023e-08
1.65123e-08
-1.44642e-08
2.11065e-08
-1.95684e-08
2.5713e-08
-2.53887e-08
3.02414e-08
-3.18935e-08
3.46191e-08
-3.9046e-08
3.87892e-08
-4.68055e-08
4.27079e-08
-5.51273e-08
4.63428e-08
-6.39639e-08
4.96702e-08
-7.32657e-08
5.26746e-08
-8.29815e-08
5.53461e-08
-9.3059e-08
5.76803e-08
-1.03446e-07
5.96768e-08
-1.14089e-07
6.13385e-08
-1.24937e-07
6.2671e-08
-1.35938e-07
6.3682e-08
-1.47043e-07
6.43811e-08
-1.58203e-07
6.47788e-08
-1.6937e-07
6.48871e-08
-1.805e-07
6.47181e-08
-1.91548e-07
6.42849e-08
-2.02474e-07
6.36005e-08
-2.13238e-07
6.26782e-08
-2.23802e-07
6.15313e-08
-2.34131e-07
6.01727e-08
-2.44191e-07
5.86155e-08
-2.53951e-07
5.68722e-08
-2.63382e-07
5.49551e-08
-2.72456e-07
5.28759e-08
-2.81146e-07
5.06462e-08
-2.89431e-07
4.8277e-08
-2.97286e-07
4.57788e-08
-3.04692e-07
4.31619e-08
-3.1163e-07
4.04359e-08
-3.18084e-07
3.76101e-08
-3.24036e-07
3.46934e-08
-3.29474e-07
3.16945e-08
-3.34384e-07
2.86215e-08
-3.38754e-07
2.54823e-08
-3.42576e-07
2.22845e-08
-3.45839e-07
1.90355e-08
-3.48536e-07
1.57426e-08
-3.50662e-07
1.24127e-08
-3.5221e-07
9.05278e-09
-3.53177e-07
5.66969e-09
-3.53561e-07
2.27024e-09
-3.53359e-07
-1.13872e-09
-3.52571e-07
-4.55031e-09
-3.51198e-07
-7.95756e-09
-3.49243e-07
-1.13533e-08
-3.46708e-07
-1.47304e-08
-3.43598e-07
-1.80812e-08
-3.3992e-07
-2.13979e-08
-3.3568e-07
-2.46726e-08
-3.30887e-07
-2.78969e-08
-3.25553e-07
-3.10621e-08
-3.19688e-07
-3.4159e-08
-3.13306e-07
-3.71784e-08
-3.06423e-07
-4.01102e-08
-2.99055e-07
-4.29443e-08
-2.9122e-07
-4.56698e-08
-2.8294e-07
-4.82756e-08
-2.74236e-07
-5.07502e-08
-2.65134e-07
-5.30815e-08
-2.55659e-07
-5.52571e-08
-2.45841e-07
-5.72643e-08
-2.35709e-07
-5.909e-08
-2.25297e-07
-6.07207e-08
-2.14639e-07
-6.21429e-08
-2.03773e-07
-6.33427e-08
-1.92739e-07
-6.43064e-08
-1.81576e-07
-6.50201e-08
-1.7033e-07
-6.54703e-08
-1.59045e-07
-6.56436e-08
-1.47769e-07
-6.55271e-08
-1.3655e-07
-6.51089e-08
-1.25439e-07
-6.43776e-08
-1.14488e-07
-6.33233e-08
-1.03749e-07
-6.19376e-08
-9.32759e-08
-6.02139e-08
-8.31221e-08
-5.8148e-08
-7.3341e-08
-5.57388e-08
-6.39852e-08
-5.29885e-08
-5.51061e-08
-4.99039e-08
-4.67532e-08
-4.64967e-08
-3.89733e-08
-4.27854e-08
-3.181e-08
-3.87959e-08
-2.5303e-08
-3.45633e-08
-1.94872e-08
-3.01339e-08
-1.43924e-08
-2.55673e-08
-1.0043e-08
-2.09388e-08
-6.45788e-09
-1.63426e-08
-3.65115e-09
-1.18948e-08
-1.63321e-09
-7.73617e-09
-4.12842e-10
-4.03756e-09
-1.024e-09
-4.89181e-10
1.45838e-09
-1.90829e-09
5.4459e-09
-4.22535e-09
1.01395e-08
-7.41658e-09
1.52319e-08
-1.14582e-08
2.05539e-08
-1.63242e-08
2.59725e-08
-2.19849e-08
3.13737e-08
-2.84069e-08
3.66634e-08
-3.55525e-08
4.17647e-08
-4.33803e-08
4.66169e-08
-5.18449e-08
5.11726e-08
-6.08981e-08
5.5396e-08
-7.04891e-08
5.92612e-08
-8.0565e-08
6.27505e-08
-9.10716e-08
6.58527e-08
-1.01954e-07
6.85627e-08
-1.13157e-07
7.08795e-08
-1.24624e-07
7.28062e-08
-1.36302e-07
7.4349e-08
-1.48137e-07
7.55166e-08
-1.60075e-07
7.63194e-08
-1.72066e-07
7.67698e-08
-1.8406e-07
7.68809e-08
-1.96009e-07
7.6667e-08
-2.07867e-07
7.61429e-08
-2.1959e-07
7.53237e-08
-2.31137e-07
7.42247e-08
-2.42467e-07
7.28613e-08
-2.53543e-07
7.12487e-08
-2.64329e-07
6.94019e-08
-2.74792e-07
6.73355e-08
-2.84901e-07
6.5064e-08
-2.94627e-07
6.26012e-08
-3.03941e-07
5.99605e-08
-3.12819e-07
5.71549e-08
-3.21237e-07
5.41968e-08
-3.29173e-07
5.10981e-08
-3.36607e-07
4.78703e-08
-3.43522e-07
4.45245e-08
-3.49899e-07
4.10711e-08
-3.55725e-07
3.75202e-08
-3.60985e-07
3.38815e-08
-3.65667e-07
3.01645e-08
-3.69761e-07
2.63781e-08
-3.73256e-07
2.2531e-08
-3.76146e-07
1.8632e-08
-3.78422e-07
1.46891e-08
-3.8008e-07
1.07108e-08
-3.81116e-07
6.7051e-09
-3.81526e-07
2.68011e-09
-3.81308e-07
-1.35605e-09
-3.80463e-07
-5.3952e-09
-3.78992e-07
-9.42907e-09
-3.76896e-07
-1.34492e-08
-3.74179e-07
-1.7447e-08
-3.70847e-07
-2.14135e-08
-3.66905e-07
-2.53395e-08
-3.62362e-07
-2.92156e-08
-3.57227e-07
-3.30318e-08
-3.51512e-07
-3.67779e-08
-3.45227e-07
-4.04432e-08
-3.38389e-07
-4.40164e-08
-3.31014e-07
-4.7486e-08
-3.23118e-07
-5.08397e-08
-3.14723e-07
-5.40651e-08
-3.0585e-07
-5.71489e-08
-2.96522e-07
-6.00776e-08
-2.86767e-07
-6.28369e-08
-2.76611e-07
-6.54125e-08
-2.66087e-07
-6.77892e-08
-2.55225e-07
-6.99519e-08
-2.44061e-07
-7.18847e-08
-2.32632e-07
-7.35719e-08
-2.20977e-07
-7.49973e-08
-2.09139e-07
-7.6145e-08
-1.9716e-07
-7.69989e-08
-1.85087e-07
-7.75432e-08
-1.72968e-07
-7.77627e-08
-1.60852e-07
-7.76426e-08
-1.48792e-07
-7.7169e-08
-1.36841e-07
-7.63292e-08
-1.25052e-07
-7.5112e-08
-1.13482e-07
-7.35079e-08
-1.02186e-07
-7.15096e-08
-9.12212e-08
-6.91128e-08
-8.06436e-08
-6.63164e-08
-7.05087e-08
-6.31234e-08
-6.08708e-08
-5.95417e-08
-5.17828e-08
-5.55848e-08
-4.32948e-08
-5.12734e-08
-3.54543e-08
-4.66364e-08
-2.83051e-08
-4.17125e-08
-2.18873e-08
-3.65517e-08
-1.62367e-08
-3.12179e-08
-1.13847e-08
-2.57908e-08
-7.35915e-09
-2.03682e-08
-4.18443e-09
-1.50695e-08
-1.88354e-09
-1.00371e-08
-4.79912e-10
-5.44118e-09
-1.50391e-09
-5.53321e-10
2.01169e-09
-2.14928e-09
7.04188e-09
-4.74066e-09
1.27308e-08
-8.28977e-09
1.8781e-08
-1.27608e-08
2.50249e-08
-1.81172e-08
3.13289e-08
-2.43206e-08
3.75772e-08
-3.13303e-08
4.3673e-08
-3.91022e-08
4.95366e-08
-4.75895e-08
5.51042e-08
-5.67424e-08
6.03255e-08
-6.65086e-08
6.51622e-08
-7.68338e-08
6.95864e-08
-8.76618e-08
7.35785e-08
-9.89354e-08
7.71264e-08
-1.10597e-07
8.0224e-08
-1.22588e-07
8.28704e-08
-1.3485e-07
8.50689e-08
-1.47327e-07
8.68261e-08
-1.59963e-07
8.81516e-08
-1.727e-07
8.90574e-08
-1.85488e-07
8.95569e-08
-1.98272e-07
8.96652e-08
-2.11003e-07
8.93983e-08
-2.23633e-07
8.8773e-08
-2.36116e-07
8.78064e-08
-2.48407e-07
8.65162e-08
-2.60466e-07
8.49196e-08
-2.72251e-07
8.30343e-08
-2.83727e-07
8.08775e-08
-2.94857e-07
7.84659e-08
-3.05609e-07
7.58161e-08
-3.15952e-07
7.2944e-08
-3.25857e-07
6.98653e-08
-3.35297e-07
6.65948e-08
-3.44247e-07
6.31469e-08
-3.52685e-07
5.95355e-08
-3.60588e-07
5.57739e-08
-3.67939e-07
5.18748e-08
-3.74718e-07
4.78505e-08
-3.8091e-07
4.37126e-08
-3.86501e-07
3.94725e-08
-3.91478e-07
3.51411e-08
-3.95829e-07
3.07289e-08
-3.99544e-07
2.62461e-08
-4.02615e-07
2.17027e-08
-4.05034e-07
1.71084e-08
-4.06796e-07
1.24728e-08
-4.07896e-07
7.80533e-09
-4.08332e-07
3.1155e-09
-4.081e-07
-1.58723e-09
-4.07202e-07
-6.29335e-09
-4.05638e-07
-1.09932e-08
-4.0341e-07
-1.56769e-08
-4.00523e-07
-2.03344e-08
-3.96981e-07
-2.49554e-08
-3.92792e-07
-2.9529e-08
-3.87963e-07
-3.40444e-08