/*--------------------------------*- C++ -*----------------------------------*\
| =========                 |                                                 |
| \\      /  F ield         | OpenFOAM: The Open Source CFD Toolbox           |
|  \\    /   O peration     | Version:  2212                                  |
|   \\  /    A nd           | Website:  www.openfoam.com                      |
|    \\/     M anipulation  |                                                 |
\*---------------------------------------------------------------------------*/
FoamFile
{
    version     2.0;
    format      ascii;
    arch        "LSB;label=32;scalar=64";
    class       volVectorField;
    location    "0.017";
    object      U;
}
// * * * * * * * * * * * * * * * * * * * * * * * * * * * * * * * * * * * * * //

dimensions      [0 1 -1 0 0 0 0];

internalField   nonuniform List<vector> 
10000
(
(3.12519e-06 -2.82517e-06 0)
(1.14225e-05 -4.2729e-06 0)
(2.0099e-05 -3.21402e-06 0)
(2.46679e-05 -1.73867e-06 0)
(2.30236e-05 2.02444e-07 0)
(1.43521e-05 2.48131e-06 0)
(-1.9901e-06 4.92848e-06 0)
(-2.61311e-05 7.37363e-06 0)
(-5.79182e-05 9.71968e-06 0)
(-9.69388e-05 1.19194e-05 0)
(-0.000142722 1.39355e-05 0)
(-0.0001947 1.5752e-05 0)
(-0.000252274 1.73823e-05 0)
(-0.000314869 1.88259e-05 0)
(-0.000381887 2.00813e-05 0)
(-0.000452733 2.1159e-05 0)
(-0.000526856 2.20528e-05 0)
(-0.00060371 2.27753e-05 0)
(-0.00068276 2.33522e-05 0)
(-0.000763528 2.37961e-05 0)
(-0.000845544 2.41051e-05 0)
(-0.000928352 2.42858e-05 0)
(-0.00101154 2.43396e-05 0)
(-0.00109471 2.42647e-05 0)
(-0.00117749 2.40772e-05 0)
(-0.00125953 2.37954e-05 0)
(-0.0013405 2.34275e-05 0)
(-0.00142012 2.29775e-05 0)
(-0.00149808 2.24535e-05 0)
(-0.00157413 2.18587e-05 0)
(-0.00164802 2.11929e-05 0)
(-0.00171953 2.04585e-05 0)
(-0.00178843 1.96645e-05 0)
(-0.00185455 1.88214e-05 0)
(-0.00191769 1.79299e-05 0)
(-0.0019777 1.69927e-05 0)
(-0.00203443 1.60136e-05 0)
(-0.00208772 1.49946e-05 0)
(-0.00213747 1.39412e-05 0)
(-0.00218354 1.28552e-05 0)
(-0.00222585 1.17419e-05 0)
(-0.00226428 1.06086e-05 0)
(-0.00229875 9.45288e-06 0)
(-0.0023292 8.27089e-06 0)
(-0.00235555 7.0646e-06 0)
(-0.00237774 5.84162e-06 0)
(-0.00239573 4.61081e-06 0)
(-0.00240946 3.37389e-06 0)
(-0.00241892 2.12778e-06 0)
(-0.00242406 8.71154e-07 0)
(-0.00242488 -3.94017e-07 0)
(-0.00242136 -1.66225e-06 0)
(-0.0024135 -2.9283e-06 0)
(-0.0024013 -4.18971e-06 0)
(-0.00238478 -5.44403e-06 0)
(-0.00236397 -6.68979e-06 0)
(-0.0023389 -7.92714e-06 0)
(-0.00230961 -9.15349e-06 0)
(-0.00227614 -1.03643e-05 0)
(-0.00223858 -1.1556e-05 0)
(-0.00219698 -1.27229e-05 0)
(-0.00215144 -1.38587e-05 0)
(-0.00210205 -1.49635e-05 0)
(-0.00204893 -1.60389e-05 0)
(-0.00199221 -1.70791e-05 0)
(-0.00193201 -1.80749e-05 0)
(-0.0018685 -1.90221e-05 0)
(-0.00180185 -1.99177e-05 0)
(-0.00173225 -2.0756e-05 0)
(-0.0016599 -2.1532e-05 0)
(-0.00158503 -2.22416e-05 0)
(-0.00150788 -2.28787e-05 0)
(-0.0014287 -2.34356e-05 0)
(-0.00134779 -2.39072e-05 0)
(-0.00126543 -2.42898e-05 0)
(-0.00118196 -2.45764e-05 0)
(-0.00109772 -2.47583e-05 0)
(-0.00101306 -2.4828e-05 0)
(-0.000928391 -2.47796e-05 0)
(-0.000844115 -2.46056e-05 0)
(-0.000760677 -2.42967e-05 0)
(-0.000678539 -2.38443e-05 0)
(-0.000598192 -2.32408e-05 0)
(-0.000520146 -2.24776e-05 0)
(-0.000444933 -2.15451e-05 0)
(-0.00037311 -2.04343e-05 0)
(-0.000305251 -1.91397e-05 0)
(-0.000241945 -1.76573e-05 0)
(-0.000183793 -1.59803e-05 0)
(-0.0001314 -1.41e-05 0)
(-8.53681e-05 -1.20108e-05 0)
(-4.62787e-05 -9.7146e-06 0)
(-1.46689e-05 -7.22536e-06 0)
(9.00823e-06 -4.56986e-06 0)
(2.44445e-05 -1.79805e-06 0)
(3.1584e-05 9.80675e-07 0)
(3.0788e-05 3.53879e-06 0)
(2.32144e-05 5.41879e-06 0)
(1.19716e-05 5.7178e-06 0)
(3.01222e-06 3.00818e-06 0)
(7.02468e-06 -1.22176e-05 0)
(2.13783e-05 -1.76402e-05 0)
(3.3227e-05 -1.13006e-05 0)
(3.2949e-05 -1.00787e-06 0)
(1.59968e-05 1.18059e-05 0)
(-1.96799e-05 2.62002e-05 0)
(-7.5343e-05 4.12756e-05 0)
(-0.000151364 5.62855e-05 0)
(-0.000247344 7.07904e-05 0)
(-0.000362466 8.44661e-05 0)
(-0.000495561 9.71346e-05 0)
(-0.000645268 0.000108714 0)
(-0.000810145 0.000119138 0)
(-0.000988664 0.000128413 0)
(-0.00117927 0.000136555 0)
(-0.00138045 0.000143571 0)
(-0.0015907 0.000149498 0)
(-0.00180854 0.000154375 0)
(-0.00203257 0.000158254 0)
(-0.00226143 0.000161179 0)
(-0.00249382 0.000163215 0)
(-0.00272852 0.000164398 0)
(-0.00296433 0.000164775 0)
(-0.00320016 0.000164386 0)
(-0.00343496 0.000163281 0)
(-0.00366773 0.000161509 0)
(-0.00389757 0.000159112 0)
(-0.0041236 0.000156134 0)
(-0.00434502 0.000152617 0)
(-0.00456107 0.000148597 0)
(-0.00477106 0.000144103 0)
(-0.00497431 0.000139172 0)
(-0.00517024 0.000133838 0)
(-0.00535827 0.000128133 0)
(-0.00553789 0.000122087 0)
(-0.00570862 0.000115724 0)
(-0.00587002 0.000109075 0)
(-0.00602169 0.000102161 0)
(-0.00616327 9.50007e-05 0)
(-0.00629442 8.76187e-05 0)
(-0.00641484 8.00386e-05 0)
(-0.00652424 7.22862e-05 0)
(-0.00662238 6.43769e-05 0)
(-0.00670905 5.63192e-05 0)
(-0.00678406 4.81315e-05 0)
(-0.00684724 3.98356e-05 0)
(-0.00689843 3.14506e-05 0)
(-0.00693753 2.29934e-05 0)
(-0.00696444 1.44773e-05 0)
(-0.00697909 5.91676e-06 0)
(-0.00698141 -2.6727e-06 0)
(-0.00697139 -1.12767e-05 0)
(-0.00694902 -1.98789e-05 0)
(-0.00691432 -2.84597e-05 0)
(-0.00686735 -3.69991e-05 0)
(-0.00680815 -4.54787e-05 0)
(-0.00673684 -5.38832e-05 0)
(-0.00665355 -6.21965e-05 0)
(-0.00655842 -7.03973e-05 0)
(-0.00645163 -7.84605e-05 0)
(-0.00633342 -8.63608e-05 0)
(-0.00620403 -9.40737e-05 0)
(-0.00606373 -0.000101576 0)
(-0.00591287 -0.000108844 0)
(-0.00575181 -0.00011585 0)
(-0.00558094 -0.000122563 0)
(-0.00540071 -0.00012895 0)
(-0.00521162 -0.000134979 0)
(-0.00501421 -0.000140617 0)
(-0.00480906 -0.00014583 0)
(-0.00459682 -0.000150581 0)
(-0.00437817 -0.000154831 0)
(-0.00415387 -0.000158542 0)
(-0.00392469 -0.000161676 0)
(-0.00369151 -0.000164195 0)
(-0.00345525 -0.000166055 0)
(-0.00321689 -0.000167209 0)
(-0.00297745 -0.000167613 0)
(-0.00273804 -0.000167221 0)
(-0.00249983 -0.000165986 0)
(-0.00226404 -0.000163856 0)
(-0.00203196 -0.000160785 0)
(-0.00180493 -0.000156729 0)
(-0.00158436 -0.000151647 0)
(-0.0013717 -0.000145495 0)
(-0.00116845 -0.000138236 0)
(-0.000976139 -0.000129839 0)
(-0.000796324 -0.000120282 0)
(-0.000630567 -0.000109555 0)
(-0.000480401 -9.76617e-05 0)
(-0.000347299 -8.46353e-05 0)
(-0.000232638 -7.05522e-05 0)
(-0.000137615 -5.55526e-05 0)
(-6.31279e-05 -3.98759e-05 0)
(-9.60679e-06 -2.39235e-05 0)
(2.32231e-05 -8.37764e-06 0)
(3.66614e-05 5.60632e-06 0)
(3.35941e-05 1.61002e-05 0)
(1.99469e-05 1.9887e-05 0)
(5.75169e-06 1.19824e-05 0)
(7.47778e-06 -2.56014e-05 0)
(2.00449e-05 -3.20081e-05 0)
(2.43832e-05 -1.33643e-05 0)
(8.79004e-06 1.5596e-05 0)
(-3.25656e-05 5.08856e-05 0)
(-0.000102502 9.00057e-05 0)
(-0.000202664 0.000130673 0)
(-0.000333418 0.000171277 0)
(-0.000494269 0.000210607 0)
(-0.000684058 0.000247889 0)
(-0.000901138 0.000282644 0)
(-0.0011436 0.000314533 0)
(-0.0014093 0.000343413 0)
(-0.001696 0.000369218 0)
(-0.00200143 0.00039193 0)
(-0.00232326 0.000411595 0)
(-0.00265922 0.000428289 0)
(-0.00300707 0.000442089 0)
(-0.00336462 0.000453104 0)
(-0.00372978 0.000461461 0)
(-0.00410053 0.000467276 0)
(-0.00447494 0.000470686 0)
(-0.00485116 0.000471814 0)
(-0.00522743 0.000470786 0)
(-0.00560212 0.000467727 0)
(-0.00597364 0.000462761 0)
(-0.00634053 0.000456003 0)
(-0.00670141 0.00044757 0)
(-0.00705499 0.000437574 0)
(-0.00740005 0.000426122 0)
(-0.00773548 0.000413312 0)
(-0.00806022 0.000399242 0)
(-0.00837329 0.000384009 0)
(-0.0086738 0.000367696 0)
(-0.0089609 0.000350389 0)
(-0.00923383 0.000332169 0)
(-0.00949187 0.000313111 0)
(-0.00973438 0.000293285 0)
(-0.00996077 0.000272754 0)
(-0.0101705 0.000251579 0)
(-0.0103631 0.00022983 0)
(-0.010538 0.000207564 0)
(-0.010695 0.000184837 0)
(-0.0108336 0.000161698 0)
(-0.0109535 0.000138194 0)
(-0.0110546 0.000114379 0)
(-0.0111364 9.03029e-05 0)
(-0.0111989 6.60089e-05 0)
(-0.0112419 4.15454e-05 0)
(-0.0112653 1.69599e-05 0)
(-0.0112689 -7.7019e-06 0)
(-0.0112528 -3.2396e-05 0)
(-0.011217 -5.70777e-05 0)
(-0.0111615 -8.16954e-05 0)
(-0.0110863 -0.000106195 0)
(-0.0109916 -0.000130524 0)
(-0.0108776 -0.000154631 0)
(-0.0107444 -0.000178458 0)
(-0.0105923 -0.000201949 0)
(-0.0104216 -0.000225041 0)
(-0.0102327 -0.000247662 0)
(-0.0100259 -0.000269742 0)
(-0.00980178 -0.000291212 0)
(-0.00956081 -0.000312 0)
(-0.0093036 -0.000332023 0)
(-0.00903078 -0.000351192 0)
(-0.00874307 -0.000369422 0)
(-0.00844127 -0.000386622 0)
(-0.00812625 -0.000402695 0)
(-0.00779896 -0.000417541 0)
(-0.0074604 -0.000431056 0)
(-0.00711168 -0.000443135 0)
(-0.00675401 -0.000453669 0)
(-0.00638865 -0.000462545 0)
(-0.00601697 -0.000469649 0)
(-0.00564045 -0.000474861 0)
(-0.00526063 -0.000478058 0)
(-0.00487915 -0.000479116 0)
(-0.00449777 -0.000477907 0)
(-0.00411831 -0.000474304 0)
(-0.00374271 -0.000468181 0)
(-0.00337298 -0.000459418 0)
(-0.0030112 -0.000447901 0)
(-0.00265956 -0.000433521 0)
(-0.00232028 -0.000416183 0)
(-0.00199567 -0.000395807 0)
(-0.00168805 -0.000372331 0)
(-0.00139976 -0.000345726 0)
(-0.00113311 -0.000316 0)
(-0.000890342 -0.000283225 0)
(-0.000673579 -0.00024756 0)
(-0.000484745 -0.000209289 0)
(-0.000325439 -0.000168878 0)
(-0.000196774 -0.000127056 0)
(-9.91642e-05 -8.49667e-05 0)
(-3.20312e-05 -4.43809e-05 0)
(6.54785e-06 -8.02189e-06 0)
(2.0367e-05 2.00101e-05 0)
(1.63288e-05 3.35888e-05 0)
(5.49449e-06 2.33064e-05 0)
(5.20673e-06 -3.57328e-05 0)
(9.385e-06 -3.72628e-05 0)
(-2.68433e-06 5.42165e-07 0)
(-4.21539e-05 5.63727e-05 0)
(-0.000115212 0.000123204 0)
(-0.000225188 0.000196393 0)
(-0.000373822 0.000272257 0)
(-0.000561514 0.000347936 0)
(-0.000787651 0.000421406 0)
(-0.0010508 0.000491275 0)
(-0.00134903 0.000556586 0)
(-0.00167998 0.000616747 0)
(-0.00204098 0.000671409 0)
(-0.00242926 0.00072038 0)
(-0.00284191 0.000763608 0)
(-0.003276 0.00080114 0)
(-0.0037286 0.000833067 0)
(-0.00419682 0.000859544 0)
(-0.00467782 0.000880741 0)
(-0.00516886 0.000896864 0)
(-0.00566729 0.000908122 0)
(-0.00617056 0.000914752 0)
(-0.00667623 0.000916985 0)
(-0.00718198 0.000915056 0)
(-0.00768561 0.000909202 0)
(-0.00818503 0.000899651 0)
(-0.00867828 0.000886624 0)
(-0.0091635 0.000870342 0)
(-0.00963896 0.000851013 0)
(-0.010103 0.000828841 0)
(-0.0105542 0.000804022 0)
(-0.010991 0.000776744 0)
(-0.0114122 0.00074719 0)
(-0.0118166 0.000715524 0)
(-0.0122029 0.000681908 0)
(-0.0125702 0.000646501 0)
(-0.0129175 0.000609449 0)
(-0.0132439 0.000570888 0)
(-0.0135486 0.000530948 0)
(-0.0138309 0.000489754 0)
(-0.0140902 0.00044743 0)
(-0.0143257 0.000404089 0)
(-0.014537 0.000359834 0)
(-0.0147235 0.000314773 0)
(-0.014885 0.000269009 0)
(-0.0150209 0.000222637 0)
(-0.0151311 0.000175751 0)
(-0.0152151 0.000128442 0)
(-0.0152729 8.08009e-05 0)
(-0.0153042 3.29214e-05 0)
(-0.015309 -1.51025e-05 0)
(-0.0152872 -6.31812e-05 0)
(-0.0152388 -0.000111225 0)
(-0.0151639 -0.000159137 0)
(-0.0150625 -0.000206815 0)
(-0.0149349 -0.000254152 0)
(-0.0147812 -0.000301047 0)
(-0.0146018 -0.000347391 0)
(-0.0143969 -0.000393065 0)
(-0.0141671 -0.000437941 0)
(-0.0139127 -0.000481895 0)
(-0.0136344 -0.000524794 0)
(-0.0133328 -0.000566497 0)
(-0.0130086 -0.000606852 0)
(-0.0126625 -0.000645704 0)
(-0.0122955 -0.00068289 0)
(-0.0119086 -0.00071824 0)
(-0.0115028 -0.000751575 0)
(-0.0110793 -0.000782711 0)
(-0.0106394 -0.000811455 0)
(-0.0101844 -0.000837607 0)
(-0.00971579 -0.000860964 0)
(-0.00923524 -0.000881314 0)
(-0.00874443 -0.000898442 0)
(-0.0082452 -0.000912125 0)
(-0.0077395 -0.000922134 0)
(-0.00722942 -0.000928239 0)
(-0.00671714 -0.000930205 0)
(-0.00620497 -0.000927798 0)
(-0.00569536 -0.000920787 0)
(-0.00519084 -0.000908946 0)
(-0.00469406 -0.000892058 0)
(-0.00420777 -0.000869918 0)
(-0.0037348 -0.000842341 0)
(-0.00327807 -0.000809171 0)
(-0.00284052 -0.000770285 0)
(-0.00242514 -0.000725603 0)
(-0.00203489 -0.00067511 0)
(-0.00167269 -0.00061888 0)
(-0.00134134 -0.000557113 0)
(-0.00104343 -0.000490181 0)
(-0.000781281 -0.000418688 0)
(-0.000556765 -0.000343566 0)
(-0.000371146 -0.000266222 0)
(-0.000224849 -0.000188746 0)
(-0.000117174 -0.000114207 0)
(-4.59581e-05 -4.70708e-05 0)
(-7.12675e-06 6.30744e-06 0)
(6.06232e-06 3.69245e-05 0)
(3.65896e-06 3.10622e-05 0)
(2.08594e-06 -3.85937e-05 0)
(-5.56859e-06 -2.63046e-05 0)
(-3.96999e-05 3.80876e-05 0)
(-0.000108962 0.00012822 0)
(-0.000219123 0.00023404 0)
(-0.000373458 0.000348917 0)
(-0.000573687 0.000467501 0)
(-0.000820114 0.000585756 0)
(-0.00111192 0.000700712 0)
(-0.00144752 0.000810239 0)
(-0.00182467 0.000912873 0)
(-0.00224066 0.00100767 0)
(-0.00269247 0.001094 0)
(-0.00317684 0.00117154 0)
(-0.00369038 0.00124015 0)
(-0.00422964 0.00129983 0)
(-0.00479114 0.00135069 0)
(-0.00537145 0.00139295 0)
(-0.00596719 0.00142683 0)
(-0.00657505 0.00145265 0)
(-0.00719183 0.00147073 0)
(-0.00781445 0.00148139 0)
(-0.00843993 0.001485 0)
(-0.00906546 0.00148192 0)
(-0.00968834 0.00147251 0)
(-0.010306 0.00145714 0)
(-0.0109161 0.00143615 0)
(-0.0115162 0.0014099 0)
(-0.0121044 0.00137872 0)
(-0.0126784 0.00134292 0)
(-0.0132366 0.00130283 0)
(-0.0137771 0.00125874 0)
(-0.0142982 0.00121094 0)
(-0.0147986 0.00115971 0)
(-0.0152767 0.00110531 0)
(-0.0157313 0.00104799 0)
(-0.0161611 0.00098798 0)
(-0.0165651 0.000925505 0)
(-0.0169423 0.000860785 0)
(-0.0172918 0.000794025 0)
(-0.0176127 0.000725418 0)
(-0.0179042 0.000655149 0)
(-0.0181657 0.000583391 0)
(-0.0183967 0.000510312 0)
(-0.0185965 0.000436086 0)
(-0.0187647 0.000360873 0)
(-0.0189009 0.000284822 0)
(-0.0190049 0.000208083 0)
(-0.0190763 0.00013081 0)
(-0.0191149 5.31548e-05 0)
(-0.0191206 -2.4736e-05 0)
(-0.0190934 -0.000102714 0)
(-0.0190333 -0.000180622 0)
(-0.0189403 -0.000258298 0)
(-0.0188146 -0.000335583 0)
(-0.0186564 -0.000412312 0)
(-0.0184659 -0.00048831 0)
(-0.0182436 -0.000563394 0)
(-0.0179898 -0.000637374 0)
(-0.0177051 -0.000710051 0)
(-0.0173902 -0.000781216 0)
(-0.0170456 -0.000850653 0)
(-0.0166722 -0.000918133 0)
(-0.0162709 -0.000983415 0)
(-0.0158427 -0.00104625 0)
(-0.0153886 -0.00110636 0)
(-0.01491 -0.00116349 0)
(-0.014408 -0.00121735 0)
(-0.0138842 -0.00126763 0)
(-0.0133402 -0.00131403 0)
(-0.0127776 -0.00135623 0)
(-0.0121982 -0.0013939 0)
(-0.0116042 -0.0014267 0)
(-0.0109975 -0.00145429 0)
(-0.0103804 -0.00147632 0)
(-0.00975542 -0.00149241 0)
(-0.00912496 -0.00150221 0)
(-0.00849177 -0.00150534 0)
(-0.00785865 -0.00150146 0)
(-0.00722857 -0.00149021 0)
(-0.00660462 -0.00147123 0)
(-0.00599 -0.00144421 0)
(-0.00538802 -0.00140884 0)
(-0.00480208 -0.00136486 0)
(-0.00423567 -0.00131204 0)
(-0.00369229 -0.00125024 0)
(-0.00317545 -0.00117938 0)
(-0.00268865 -0.00109949 0)
(-0.00223529 -0.00101075 0)
(-0.00181859 -0.000913558 0)
(-0.00144154 -0.000808553 0)
(-0.00110675 -0.00069675 0)
(-0.000816328 -0.000579649 0)
(-0.000571704 -0.00045943 0)
(-0.000373407 -0.000339205 0)
(-0.00022083 -0.000223371 0)
(-0.000111909 -0.000118077 0)
(-4.27635e-05 -3.17526e-05 0)
(-7.61535e-06 2.40754e-05 0)
(1.1594e-06 3.21834e-05 0)
(-1.10679e-06 -3.27679e-05 0)
(-2.19174e-05 4.41811e-06 0)
(-8.10267e-05 0.000103821 0)
(-0.000183736 0.000235718 0)
(-0.000334415 0.000387632 0)
(-0.000536062 0.000550978 0)
(-0.000790066 0.000718909 0)
(-0.00109642 0.000886185 0)
(-0.00145416 0.00104886 0)
(-0.0018614 0.00120406 0)
(-0.00231564 0.00134977 0)
(-0.00281389 0.00148459 0)
(-0.00335278 0.00160762 0)
(-0.00392867 0.00171832 0)
(-0.00453779 0.00181645 0)
(-0.00517624 0.00190196 0)
(-0.00584008 0.00197494 0)
(-0.00652543 0.00203564 0)
(-0.00722841 0.00208437 0)
(-0.00794526 0.00212153 0)
(-0.00867228 0.00214754 0)
(-0.00940594 0.00216288 0)
(-0.0101428 0.00216803 0)
(-0.0108796 0.0021635 0)
(-0.0116132 0.0021498 0)
(-0.0123406 0.00212742 0)
(-0.013059 0.00209687 0)
(-0.0137657 0.00205866 0)
(-0.0144583 0.00201324 0)
(-0.0151343 0.0019611 0)
(-0.0157917 0.00190267 0)
(-0.0164282 0.00183841 0)
(-0.017042 0.00176871 0)
(-0.0176314 0.00169398 0)
(-0.0181945 0.00161461 0)
(-0.01873 0.00153095 0)
(-0.0192363 0.00144335 0)
(-0.0197123 0.00135213 0)
(-0.0201567 0.0012576 0)
(-0.0205683 0.00116009 0)
(-0.0209463 0.00105986 0)
(-0.0212898 0.000957179 0)
(-0.0215979 0.000852317 0)
(-0.0218699 0.000745524 0)
(-0.0221052 0.00063704 0)
(-0.0223033 0.000527097 0)
(-0.0224637 0.000415928 0)
(-0.022586 0.00030376 0)
(-0.0226699 0.000190812 0)
(-0.0227153 7.73036e-05 0)
(-0.0227218 -3.65418e-05 0)
(-0.0226896 -0.000150503 0)
(-0.0226185 -0.000264352 0)
(-0.0225087 -0.000377853 0)
(-0.0223603 -0.000490766 0)
(-0.0221737 -0.000602849 0)
(-0.021949 -0.000713845 0)
(-0.0216869 -0.000823488 0)
(-0.0213877 -0.0009315 0)
(-0.0210522 -0.00103759 0)
(-0.020681 -0.00114145 0)
(-0.0202749 -0.00124276 0)
(-0.019835 -0.00134119 0)
(-0.0193622 -0.0014364 0)
(-0.0188578 -0.00152801 0)
(-0.018323 -0.00161563 0)
(-0.0177593 -0.00169888 0)
(-0.0171683 -0.00177734 0)
(-0.0165516 -0.00185057 0)
(-0.0159111 -0.00191813 0)
(-0.0152488 -0.00197956 0)
(-0.0145669 -0.00203437 0)
(-0.0138676 -0.00208209 0)
(-0.0131536 -0.00212222 0)
(-0.0124273 -0.00215424 0)
(-0.0116916 -0.00217765 0)
(-0.0109495 -0.00219192 0)
(-0.0102041 -0.00219655 0)
(-0.00945861 -0.00219102 0)
(-0.00871651 -0.00217485 0)
(-0.00798137 -0.00214756 0)
(-0.00725687 -0.0021087 0)
(-0.00654679 -0.00205788 0)
(-0.00585503 -0.00199474 0)
(-0.00518556 -0.00191903 0)
(-0.00454236 -0.00183056 0)
(-0.00392938 -0.00172928 0)
(-0.00335056 -0.00161531 0)
(-0.0028097 -0.00148898 0)
(-0.00231038 -0.00135091 0)
(-0.0018559 -0.00120207 0)
(-0.00144916 -0.00104394 0)
(-0.00109251 -0.000878642 0)
(-0.000787584 -0.000709159 0)
(-0.00053515 -0.000539624 0)
(-0.000334886 -0.000375696 0)
(-0.000185113 -0.000225042 0)
(-8.25044e-05 -9.78738e-05 0)
(-2.27847e-05 -7.75924e-06 0)
(-1.54179e-06 2.55551e-05 0)
(-4.10116e-06 -1.82365e-05 0)
(-3.83234e-05 5.61465e-05 0)
(-0.000123675 0.000199851 0)
(-0.000261549 0.000381384 0)
(-0.000454669 0.000586355 0)
(-0.000705299 0.000804566 0)
(-0.00101428 0.00102786 0)
(-0.00138123 0.00124983 0)
(-0.00180479 0.00146564 0)
(-0.00228282 0.00167169 0)
(-0.00281253 0.00186533 0)
(-0.00339064 0.00204476 0)
(-0.00401345 0.00220873 0)
(-0.00467702 0.00235648 0)
(-0.00537721 0.00248763 0)
(-0.00610975 0.00260204 0)
(-0.00687034 0.00269981 0)
(-0.00765466 0.0027812 0)
(-0.00845845 0.00284658 0)
(-0.00927751 0.00289643 0)
(-0.0101078 0.0029313 0)
(-0.0109452 0.00295178 0)
(-0.0117861 0.00295852 0)
(-0.0126266 0.00295217 0)
(-0.0134634 0.00293338 0)
(-0.014293 0.00290284 0)
(-0.0151122 0.00286121 0)
(-0.0159182 0.00280913 0)
(-0.0167079 0.00274725 0)
(-0.0174788 0.00267621 0)
(-0.0182283 0.0025966 0)
(-0.0189542 0.002509 0)
(-0.0196541 0.00241399 0)
(-0.0203261 0.0023121 0)
(-0.0209683 0.00220386 0)
(-0.0215789 0.00208974 0)
(-0.0221563 0.00197022 0)
(-0.0226991 0.00184575 0)
(-0.0232059 0.00171676 0)
(-0.0236753 0.00158365 0)
(-0.0241064 0.00144681 0)
(-0.024498 0.00130663 0)
(-0.0248493 0.00116345 0)
(-0.0251595 0.00101762 0)
(-0.0254278 0.000869475 0)
(-0.0256536 0.000719333 0)
(-0.0258364 0.000567508 0)
(-0.0259757 0.000414314 0)
(-0.0260713 0.000260059 0)
(-0.0261228 0.000105045 0)
(-0.0261301 -5.04233e-05 0)
(-0.0260931 -0.000206038 0)
(-0.0260118 -0.000361486 0)
(-0.0258863 -0.000516445 0)
(-0.0257169 -0.000670587 0)
(-0.0255037 -0.000823575 0)
(-0.0252473 -0.00097506 0)
(-0.0249481 -0.00112467 0)
(-0.0246068 -0.00127204 0)
(-0.0242239 -0.00141675 0)
(-0.0238004 -0.0015584 0)
(-0.0233373 -0.00169656 0)
(-0.0228355 -0.00183076 0)
(-0.0222963 -0.00196052 0)
(-0.0217211 -0.00208536 0)
(-0.0211113 -0.00220476 0)
(-0.0204686 -0.00231816 0)
(-0.0197948 -0.00242502 0)
(-0.0190917 -0.00252474 0)
(-0.0183616 -0.00261672 0)
(-0.0176067 -0.00270034 0)
(-0.0168294 -0.00277495 0)
(-0.0160324 -0.0028399 0)
(-0.0152184 -0.00289453 0)
(-0.0143905 -0.00293815 0)
(-0.0135518 -0.00297007 0)
(-0.0127057 -0.00298962 0)
(-0.0118557 -0.00299612 0)
(-0.0110053 -0.0029889 0)
(-0.0101586 -0.00296732 0)
(-0.00931935 -0.00293077 0)
(-0.00849181 -0.00287869 0)
(-0.00768016 -0.00281057 0)
(-0.00688872 -0.00272599 0)
(-0.00612184 -0.00262464 0)
(-0.00538392 -0.00250634 0)
(-0.00467933 -0.00237108 0)
(-0.00401235 -0.00221909 0)
(-0.00338712 -0.00205087 0)
(-0.00280756 -0.0018673 0)
(-0.00227727 -0.00166973 0)
(-0.0017994 -0.00146011 0)
(-0.0013766 -0.00124119 0)
(-0.00101079 -0.00101675 0)
(-0.000703094 -0.000791888 0)
(-0.000453646 -0.00057338 0)
(-0.000261371 -0.0003702 0)
(-0.000123754 -0.000193994 0)
(-3.83293e-05 -5.98553e-05 0)
(-4.21715e-06 1.08495e-05 0)
(-6.85941e-06 4.73485e-06 0)
(-5.42455e-05 0.000129034 0)
(-0.000165927 0.000326999 0)
(-0.00033952 0.000566325 0)
(-0.000575753 0.000831332 0)
(-0.000875994 0.00111063 0)
(-0.00124038 0.00139486 0)
(-0.00166795 0.00167671 0)
(-0.0021569 0.00195046 0)
(-0.00270473 0.00221182 0)
(-0.00330834 0.0024576 0)
(-0.00396413 0.00268553 0)
(-0.00466812 0.00289403 0)
(-0.00541604 0.00308211 0)
(-0.00620344 0.0032492 0)
(-0.00702572 0.0033951 0)
(-0.00787824 0.00351987 0)
(-0.00875633 0.00362377 0)
(-0.00965537 0.00370724 0)
(-0.0105708 0.00377086 0)
(-0.0114982 0.00381526 0)
(-0.0124332 0.0038412 0)
(-0.0133716 0.00384945 0)
(-0.0143094 0.00384082 0)
(-0.0152427 0.00381616 0)
(-0.0161679 0.0037763 0)
(-0.0170814 0.00372208 0)
(-0.01798 0.00365433 0)
(-0.0188604 0.00357388 0)
(-0.0197198 0.00348153 0)
(-0.0205554 0.00337804 0)
(-0.0213645 0.00326418 0)
(-0.0221447 0.00314066 0)
(-0.0228937 0.00300819 0)
(-0.0236096 0.00286743 0)
(-0.0242902 0.00271901 0)
(-0.0249339 0.00256355 0)
(-0.0255389 0.00240163 0)
(-0.0261037 0.00223382 0)
(-0.026627 0.00206063 0)
(-0.0271075 0.00188257 0)
(-0.027544 0.00170013 0)
(-0.0279355 0.00151378 0)
(-0.0282812 0.00132398 0)
(-0.0285801 0.00113114 0)
(-0.0288317 0.000935703 0)
(-0.0290354 0.000738074 0)
(-0.0291905 0.000538662 0)
(-0.0292969 0.000337868 0)
(-0.0293541 0.000136092 0)
(-0.029362 -6.62682e-05 0)
(-0.0293206 -0.000268807 0)
(-0.0292298 -0.000471111 0)
(-0.0290897 -0.000672762 0)
(-0.0289006 -0.000873335 0)
(-0.0286628 -0.00107239 0)
(-0.0283768 -0.00126946 0)
(-0.0280431 -0.00146407 0)
(-0.0276624 -0.00165573 0)
(-0.0272354 -0.00184392 0)
(-0.0267633 -0.0020281 0)
(-0.0262469 -0.0022077 0)
(-0.0256875 -0.00238213 0)
(-0.0250865 -0.00255078 0)
(-0.0244453 -0.002713 0)
(-0.0237656 -0.00286812 0)
(-0.0230493 -0.00301544 0)
(-0.0222983 -0.00315424 0)
(-0.0215148 -0.00328375 0)
(-0.0207011 -0.0034032 0)
(-0.0198597 -0.00351179 0)
(-0.0189935 -0.00360869 0)
(-0.0181052 -0.00369307 0)
(-0.017198 -0.00376407 0)
(-0.0162751 -0.00382082 0)
(-0.0153401 -0.00386246 0)
(-0.0143967 -0.00388812 0)
(-0.0134486 -0.00389695 0)
(-0.0124999 -0.00388812 0)
(-0.0115548 -0.00386083 0)
(-0.0106177 -0.00381432 0)
(-0.00969304 -0.00374791 0)
(-0.00878542 -0.003661 0)
(-0.00789952 -0.00355309 0)
(-0.00704008 -0.00342384 0)
(-0.00621184 -0.00327308 0)
(-0.00541951 -0.00310086 0)
(-0.0046677 -0.00290754 0)
(-0.00396087 -0.00269379 0)
(-0.00330324 -0.00246079 0)
(-0.0026987 -0.00221025 0)
(-0.00215072 -0.00194461 0)
(-0.00166226 -0.00166725 0)
(-0.00123562 -0.00138266 0)
(-0.000872369 -0.00109678 0)
(-0.000573249 -0.000817387 0)
(-0.000337947 -0.000554498 0)
(-0.000164911 -0.000320838 0)
(-5.36245e-05 -0.000132545 0)
(-6.7649e-06 -1.18713e-05 0)
(-9.38516e-06 3.56981e-05 0)
(-6.94018e-05 0.000222701 0)
(-0.000206931 0.000485121 0)
(-0.000415921 0.000790629 0)
(-0.000695079 0.00112278 0)
(-0.00104478 0.00146923 0)
(-0.00146431 0.00181981 0)
(-0.00195202 0.00216636 0)
(-0.00250558 0.00250245 0)
(-0.00312207 0.00282314 0)
(-0.00379801 0.00312475 0)
(-0.00452946 0.00340455 0)
(-0.00531216 0.00366066 0)
(-0.00614151 0.00389184 0)
(-0.00701276 0.00409734 0)
(-0.00792103 0.00427688 0)
(-0.00886133 0.00443045 0)
(-0.00982871 0.00455835 0)
(-0.0108182 0.00466107 0)
(-0.011825 0.00473925 0)
(-0.0128442 0.00479367 0)
(-0.0138713 0.00482519 0)
(-0.0149016 0.00483475 0)
(-0.015931 0.00482332 0)
(-0.0169551 0.00479193 0)
(-0.0179701 0.00474158 0)
(-0.0189721 0.00467332 0)
(-0.0199576 0.00458816 0)
(-0.0209231 0.0044871 0)
(-0.0218653 0.00437115 0)
(-0.0227814 0.00424125 0)
(-0.0236684 0.00409833 0)
(-0.0245238 0.0039433 0)
(-0.0253449 0.00377704 0)
(-0.0261296 0.00360035 0)
(-0.0268757 0.00341404 0)
(-0.0275812 0.00321888 0)
(-0.0282444 0.00301559 0)
(-0.0288635 0.00280488 0)
(-0.029437 0.0025874 0)
(-0.0299636 0.0023638 0)
(-0.0304421 0.00213469 0)
(-0.0308711 0.00190065 0)
(-0.0312499 0.00166225 0)
(-0.0315775 0.00142004 0)
(-0.0318532 0.00117456 0)
(-0.0320763 0.000926323 0)
(-0.0322462 0.000675851 0)
(-0.0323627 0.000423642 0)
(-0.0324252 0.000170202 0)
(-0.0324338 -8.3958e-05 0)
(-0.0323881 -0.000338327 0)
(-0.0322884 -0.000592389 0)
(-0.0321347 -0.000845619 0)
(-0.0319272 -0.00109747 0)
(-0.0316664 -0.00134739 0)
(-0.0313527 -0.0015948 0)
(-0.0309868 -0.0018391 0)
(-0.0305693 -0.00207967 0)
(-0.0301013 -0.00231585 0)
(-0.0295836 -0.00254697 0)
(-0.0290175 -0.00277233 0)
(-0.0284043 -0.00299117 0)
(-0.0277455 -0.00320274 0)
(-0.0270427 -0.00340621 0)
(-0.0262977 -0.00360077 0)
(-0.0255125 -0.00378552 0)
(-0.0246893 -0.00395957 0)
(-0.0238305 -0.00412197 0)
(-0.0229386 -0.00427177 0)
(-0.0220164 -0.00440796 0)
(-0.0210668 -0.00452953 0)
(-0.0200929 -0.00463543 0)
(-0.0190982 -0.00472461 0)
(-0.0180863 -0.00479601 0)
(-0.0170608 -0.00484857 0)
(-0.0160258 -0.00488122 0)
(-0.0149854 -0.00489293 0)
(-0.013944 -0.00488269 0)
(-0.0129061 -0.00484954 0)
(-0.0118764 -0.00479258 0)
(-0.0108597 -0.00471101 0)
(-0.00986089 -0.00460413 0)
(-0.00888504 -0.00447136 0)
(-0.00793719 -0.00431235 0)
(-0.00702241 -0.00412694 0)
(-0.00614571 -0.00391526 0)
(-0.005312 -0.00367777 0)
(-0.00452605 -0.00341538 0)
(-0.00379238 -0.00312951 0)
(-0.00311519 -0.00282227 0)
(-0.0024983 -0.00249656 0)
(-0.00194503 -0.0021563 0)
(-0.00145811 -0.00180665 0)
(-0.00103968 -0.00145429 0)
(-0.000691168 -0.00110777 0)
(-0.000413118 -0.000777941 0)
(-0.000205032 -0.000478274 0)
(-6.83451e-05 -0.000225537 0)
(-9.15252e-06 -4.23276e-05 0)
(-1.16909e-05 7.42182e-05 0)
(-8.37265e-05 0.000336383 0)
(-0.000246228 0.000673514 0)
(-0.00048975 0.00105374 0)
(-0.000811083 0.00146016 0)
(-0.00120951 0.00187988 0)
(-0.00168339 0.00230208 0)
(-0.00223036 0.00271797 0)
(-0.00284747 0.00312052 0)
(-0.00353131 0.00350425 0)
(-0.00427798 0.00386501 0)
(-0.0050832 0.00419969 0)
(-0.00594233 0.00450608 0)
(-0.00685052 0.00478273 0)
(-0.00780269 0.00502874 0)
(-0.00879366 0.00524369 0)
(-0.00981818 0.00542758 0)
(-0.010871 0.00558067 0)
(-0.0119468 0.00570352 0)
(-0.0130406 0.00579685 0)
(-0.0141471 0.00586156 0)
(-0.0152615 0.00589864 0)
(-0.016379 0.00590918 0)
(-0.017495 0.00589434 0)
(-0.0186049 0.00585532 0)
(-0.0197047 0.00579331 0)
(-0.0207901 0.00570955 0)
(-0.0218574 0.00560526 0)
(-0.022903 0.00548165 0)
(-0.0239232 0.00533988 0)
(-0.024915 0.00518114 0)
(-0.0258753 0.00500654 0)
(-0.0268011 0.00481716 0)
(-0.02769 0.00461405 0)
(-0.0285393 0.00439822 0)
(-0.0293468 0.00417064 0)
(-0.0301103 0.00393224 0)
(-0.030828 0.0036839 0)
(-0.031498 0.00342648 0)
(-0.0321187 0.00316078 0)
(-0.0326885 0.00288758 0)
(-0.0332062 0.00260764 0)
(-0.0336705 0.00232168 0)
(-0.0340803 0.00203037 0)
(-0.0344347 0.00173441 0)
(-0.034733 0.00143444 0)
(-0.0349743 0.00113111 0)
(-0.0351581 0.000825042 0)
(-0.0352839 0.000516859 0)
(-0.0353515 0.000207183 0)
(-0.0353606 -0.000103366 0)
(-0.0353111 -0.000414161 0)
(-0.035203 -0.000724565 0)
(-0.0350365 -0.00103393 0)
(-0.0348119 -0.0013416 0)
(-0.0345295 -0.00164689 0)
(-0.03419 -0.00194908 0)
(-0.0337939 -0.00224745 0)
(-0.033342 -0.00254124 0)
(-0.0328354 -0.00282965 0)
(-0.0322751 -0.00311186 0)
(-0.0316624 -0.003387 0)
(-0.0309988 -0.00365417 0)
(-0.0302858 -0.00391244 0)
(-0.0295251 -0.00416082 0)
(-0.0287189 -0.00439829 0)
(-0.0278691 -0.0046238 0)
(-0.0269782 -0.00483624 0)
(-0.0260486 -0.00503448 0)
(-0.0250832 -0.00521736 0)
(-0.0240849 -0.00538366 0)
(-0.0230569 -0.00553216 0)
(-0.0220025 -0.00566161 0)
(-0.0209253 -0.00577075 0)
(-0.0198293 -0.00585829 0)
(-0.0187184 -0.00592298 0)
(-0.0175969 -0.00596355 0)
(-0.0164691 -0.00597877 0)
(-0.0153399 -0.00596745 0)
(-0.0142139 -0.00592846 0)
(-0.0130961 -0.00586077 0)
(-0.0119917 -0.00576342 0)
(-0.0109059 -0.00563564 0)
(-0.00984395 -0.0054768 0)
(-0.00881127 -0.0052865 0)
(-0.00781321 -0.00506461 0)
(-0.00685507 -0.00481131 0)
(-0.00594206 -0.00452723 0)
(-0.00507925 -0.00421344 0)
(-0.00427148 -0.00387166 0)
(-0.00352328 -0.00350434 0)
(-0.00283883 -0.00311479 0)
(-0.00222187 -0.00270744 0)
(-0.00167565 -0.002288 0)
(-0.0012029 -0.00186376 0)
(-0.000805821 -0.00144392 0)
(-0.00048586 -0.00103988 0)
(-0.000243594 -0.000665613 0)
(-8.23358e-05 -0.000338165 0)
(-1.1373e-05 -8.0132e-05 0)
(-1.38117e-05 0.000119805 0)
(-9.72074e-05 0.000469192 0)
(-0.000283599 0.000891179 0)
(-0.000560517 0.0013546 0)
(-0.000922875 0.00184248 0)
(-0.00136888 0.00234158 0)
(-0.001896 0.00284065 0)
(-0.00250103 0.00333042 0)
(-0.00318041 0.00380339 0)
(-0.00393017 0.00425366 0)
(-0.00474596 0.00467664 0)
(-0.00562309 0.00506891 0)
(-0.0065566 0.005428 0)
(-0.00754128 0.0057522 0)
(-0.00857177 0.0060405 0)
(-0.0096426 0.00629238 0)
(-0.0107482 0.00650779 0)
(-0.0118831 0.00668702 0)
(-0.0130418 0.00683067 0)
(-0.0142187 0.00693954 0)
(-0.0154087 0.00701464 0)
(-0.0166064 0.00705711 0)
(-0.0178069 0.00706822 0)
(-0.0190052 0.00704927 0)
(-0.0201966 0.00700165 0)
(-0.0213768 0.00692678 0)
(-0.0225413 0.00682608 0)
(-0.023686 0.00670098 0)
(-0.0248073 0.00655289 0)
(-0.0259012 0.00638321 0)
(-0.0269645 0.00619329 0)
(-0.0279939 0.00598446 0)
(-0.0289863 0.00575802 0)
(-0.029939 0.00551519 0)
(-0.0308492 0.00525716 0)
(-0.0317145 0.00498511 0)
(-0.0325328 0.00470013 0)
(-0.0333018 0.00440326 0)
(-0.0340196 0.00409553 0)
(-0.0346846 0.00377791 0)
(-0.0352952 0.00345131 0)
(-0.0358498 0.00311665 0)
(-0.0363472 0.00277478 0)
(-0.0367862 0.00242652 0)
(-0.0371659 0.00207269 0)
(-0.0374853 0.00171407 0)
(-0.0377438 0.00135143 0)
(-0.0379406 0.000985518 0)
(-0.0380754 0.000617084 0)
(-0.0381477 0.000246872 0)
(-0.0381573 -0.000124371 0)
(-0.0381042 -0.000495892 0)
(-0.0379884 -0.000866935 0)
(-0.0378099 -0.00123672 0)
(-0.0375692 -0.00160446 0)
(-0.0372666 -0.00196933 0)
(-0.0369027 -0.00233049 0)
(-0.0364783 -0.00268705 0)