/*--------------------------------*- C++ -*----------------------------------*\
| =========                 |                                                 |
| \\      /  F ield         | OpenFOAM: The Open Source CFD Toolbox           |
|  \\    /   O peration     | Version:  2212                                  |
|   \\  /    A nd           | Website:  www.openfoam.com                      |
|    \\/     M anipulation  |                                                 |
\*---------------------------------------------------------------------------*/
FoamFile
{
    version     2.0;
    format      ascii;
    arch        "LSB;label=32;scalar=64";
    class       volVectorField;
    location    "0.0925";
    object      U;
}
// * * * * * * * * * * * * * * * * * * * * * * * * * * * * * * * * * * * * * //

dimensions      [0 1 -1 0 0 0 0];

internalField   nonuniform List<vector> 
10000
(
(3.01398e-06 -3.00737e-06 0)
(1.49845e-05 -7.74747e-06 0)
(3.40732e-05 -8.95361e-06 0)
(5.20435e-05 -7.73056e-06 0)
(6.38541e-05 -5.21992e-06 0)
(6.70561e-05 -2.08122e-06 0)
(6.03774e-05 1.31953e-06 0)
(4.3236e-05 4.77302e-06 0)
(1.55082e-05 8.15981e-06 0)
(-2.26348e-05 1.14123e-05 0)
(-7.0832e-05 1.44918e-05 0)
(-0.000128597 1.73755e-05 0)
(-0.00019536 2.00495e-05 0)
(-0.000270496 2.25064e-05 0)
(-0.000353345 2.4743e-05 0)
(-0.000443223 2.6759e-05 0)
(-0.000539438 2.85561e-05 0)
(-0.000641295 3.01372e-05 0)
(-0.0007481 3.15064e-05 0)
(-0.000859164 3.26684e-05 0)
(-0.000973812 3.36284e-05 0)
(-0.00109138 3.43918e-05 0)
(-0.00121121 3.49642e-05 0)
(-0.00133268 3.53516e-05 0)
(-0.00145517 3.55602e-05 0)
(-0.00157808 3.55965e-05 0)
(-0.00170083 3.54671e-05 0)
(-0.00182287 3.51783e-05 0)
(-0.00194366 3.47364e-05 0)
(-0.00206268 3.41477e-05 0)
(-0.00217943 3.34185e-05 0)
(-0.00229344 3.25551e-05 0)
(-0.00240426 3.15643e-05 0)
(-0.00251146 3.04524e-05 0)
(-0.00261462 2.92259e-05 0)
(-0.00271335 2.78908e-05 0)
(-0.0028073 2.64534e-05 0)
(-0.00289611 2.49206e-05 0)
(-0.00297946 2.3298e-05 0)
(-0.00305705 2.15918e-05 0)
(-0.0031286 1.98084e-05 0)
(-0.00319386 1.79542e-05 0)
(-0.00325258 1.60357e-05 0)
(-0.00330456 1.40598e-05 0)
(-0.00334961 1.20328e-05 0)
(-0.00338756 9.96129e-06 0)
(-0.00341827 7.85197e-06 0)
(-0.00344162 5.71109e-06 0)
(-0.00345751 3.54593e-06 0)
(-0.00346588 1.3639e-06 0)
(-0.00346668 -8.28483e-07 0)
(-0.00345989 -3.02412e-06 0)
(-0.00344552 -5.21515e-06 0)
(-0.00342358 -7.39422e-06 0)
(-0.00339415 -9.55395e-06 0)
(-0.00335731 -1.16864e-05 0)
(-0.00331316 -1.37839e-05 0)
(-0.00326184 -1.58391e-05 0)
(-0.00320352 -1.78435e-05 0)
(-0.00313839 -1.97888e-05 0)
(-0.00306667 -2.16672e-05 0)
(-0.00298861 -2.34708e-05 0)
(-0.00290449 -2.51908e-05 0)
(-0.00281461 -2.68189e-05 0)
(-0.00271931 -2.83475e-05 0)
(-0.00261894 -2.97682e-05 0)
(-0.0025139 -3.10724e-05 0)
(-0.0024046 -3.2252e-05 0)
(-0.00229148 -3.32991e-05 0)
(-0.00217503 -3.42055e-05 0)
(-0.00205572 -3.49638e-05 0)
(-0.00193409 -3.55669e-05 0)
(-0.00181067 -3.60077e-05 0)
(-0.00168605 -3.62787e-05 0)
(-0.00156079 -3.63727e-05 0)
(-0.00143553 -3.62839e-05 0)
(-0.00131088 -3.60069e-05 0)
(-0.00118749 -3.55361e-05 0)
(-0.00106603 -3.48665e-05 0)
(-0.000947164 -3.3993e-05 0)
(-0.000831582 -3.29122e-05 0)
(-0.000719976 -3.16211e-05 0)
(-0.000613045 -3.01171e-05 0)
(-0.000511488 -2.83983e-05 0)
(-0.000416 -2.64639e-05 0)
(-0.000327269 -2.43149e-05 0)
(-0.000245969 -2.19536e-05 0)
(-0.000172746 -1.93844e-05 0)
(-0.000108215 -1.66148e-05 0)
(-5.2943e-05 -1.36564e-05 0)
(-7.42746e-06 -1.05273e-05 0)
(2.79308e-05 -7.25547e-06 0)
(5.28704e-05 -3.88539e-06 0)
(6.73327e-05 -4.90639e-07 0)
(7.15639e-05 2.8048e-06 0)
(6.62773e-05 5.78879e-06 0)
(5.28785e-05 8.09468e-06 0)
(3.39304e-05 9.07197e-06 0)
(1.45276e-05 7.62198e-06 0)
(2.78635e-06 2.78643e-06 0)
(7.75519e-06 -1.49779e-05 0)
(3.14597e-05 -3.14353e-05 0)
(6.32895e-05 -3.36141e-05 0)
(8.88092e-05 -2.57031e-05 0)
(9.84542e-05 -1.15686e-05 0)
(8.66842e-05 6.16866e-06 0)
(5.00912e-05 2.57968e-05 0)
(-1.32067e-05 4.61942e-05 0)
(-0.000103951 6.66255e-05 0)
(-0.000222072 8.66049e-05 0)
(-0.000366929 0.000105808 0)
(-0.000537478 0.000124017 0)
(-0.000732384 0.000141085 0)
(-0.000950111 0.000156911 0)
(-0.00118898 0.000171435 0)
(-0.00144723 0.000184618 0)
(-0.00172301 0.000196442 0)
(-0.00201447 0.000206902 0)
(-0.00231972 0.000216005 0)
(-0.00263688 0.000223764 0)
(-0.00296409 0.0002302 0)
(-0.0032995 0.000235339 0)
(-0.00364131 0.00023921 0)
(-0.00398773 0.000241845 0)
(-0.00433704 0.000243279 0)
(-0.00468755 0.000243549 0)
(-0.00503764 0.000242694 0)
(-0.0053857 0.000240753 0)
(-0.00573022 0.000237766 0)
(-0.00606973 0.000233774 0)
(-0.00640281 0.000228819 0)
(-0.00672809 0.000222942 0)
(-0.0070443 0.000216187 0)
(-0.00735018 0.000208596 0)
(-0.00764456 0.000200211 0)
(-0.00792633 0.000191076 0)
(-0.00819443 0.000181234 0)
(-0.00844787 0.000170728 0)
(-0.00868573 0.000159602 0)
(-0.00890714 0.000147899 0)
(-0.0091113 0.000135663 0)
(-0.00929747 0.000122939 0)
(-0.00946497 0.000109772 0)
(-0.00961321 9.62066e-05 0)
(-0.00974164 8.22898e-05 0)
(-0.00984978 6.8067e-05 0)
(-0.00993723 5.35851e-05 0)
(-0.0100037 3.88914e-05 0)
(-0.0100488 2.40336e-05 0)
(-0.0100724 9.06117e-06 0)
(-0.0100744 -5.97648e-06 0)
(-0.0100548 -2.10294e-05 0)
(-0.0100135 -3.60463e-05 0)
(-0.00995057 -5.09751e-05 0)
(-0.0098663 -6.57638e-05 0)
(-0.00976087 -8.03592e-05 0)
(-0.00963462 -9.47074e-05 0)
(-0.00948794 -0.000108755 0)
(-0.0093213 -0.000122446 0)
(-0.00913528 -0.000135727 0)
(-0.0089305 -0.000148541 0)
(-0.00870769 -0.000160832 0)
(-0.00846764 -0.000172544 0)
(-0.00821122 -0.000183622 0)
(-0.00793939 -0.000194011 0)
(-0.00765319 -0.000203654 0)
(-0.00735373 -0.000212499 0)
(-0.0070422 -0.00022049 0)
(-0.00671987 -0.000227574 0)
(-0.00638807 -0.000233701 0)
(-0.00604821 -0.00023882 0)
(-0.00570178 -0.000242882 0)
(-0.00535031 -0.000245842 0)
(-0.00499541 -0.000247655 0)
(-0.00463876 -0.000248281 0)
(-0.00428206 -0.000247679 0)
(-0.00392709 -0.000245816 0)
(-0.00357566 -0.000242661 0)
(-0.00322962 -0.000238185 0)
(-0.00289084 -0.000232368 0)
(-0.00256123 -0.000225191 0)
(-0.00224271 -0.000216644 0)
(-0.00193719 -0.000206721 0)
(-0.00164658 -0.000195428 0)
(-0.00137276 -0.00018278 0)
(-0.00111757 -0.000168801 0)
(-0.000882783 -0.000153535 0)
(-0.000670085 -0.000137044 0)
(-0.000481028 -0.000119415 0)
(-0.000316994 -0.000100772 0)
(-0.000179127 -8.12878e-05 0)
(-6.82531e-05 -6.12072e-05 0)
(1.52358e-05 -4.08784e-05 0)
(7.15433e-05 -2.08087e-05 0)
(0.000101702 -1.74817e-06 0)
(0.000107889 1.51785e-05 0)
(9.37886e-05 2.82783e-05 0)
(6.51548e-05 3.4998e-05 0)
(3.16525e-05 3.16494e-05 0)
(7.61392e-06 1.45159e-05 0)
(8.98311e-06 -3.40875e-05 0)
(3.37686e-05 -6.33053e-05 0)
(6.21988e-05 -6.19143e-05 0)
(7.70103e-05 -3.87605e-05 0)
(6.6656e-05 -1.06767e-06 0)
(2.39563e-05 4.57671e-05 0)
(-5.584e-05 9.78605e-05 0)
(-0.00017557 0.000152466 0)
(-0.000336536 0.000207648 0)
(-0.000538876 0.000262047 0)
(-0.000781863 0.000314701 0)
(-0.00106412 0.000364928 0)
(-0.0013838 0.000412248 0)
(-0.00173869 0.000456325 0)
(-0.00212634 0.000496928 0)
(-0.00254409 0.000533906 0)
(-0.00298918 0.000567168 0)
(-0.00345877 0.00059667 0)
(-0.00394995 0.000622399 0)
(-0.00445982 0.000644374 0)
(-0.00498548 0.000662634 0)
(-0.00552404 0.000677236 0)
(-0.00607265 0.000688248 0)
(-0.00662853 0.000695752 0)
(-0.00718894 0.000699838 0)
(-0.00775119 0.000700603 0)
(-0.00831271 0.000698149 0)
(-0.00887096 0.000692583 0)
(-0.00942351 0.000684016 0)
(-0.00996801 0.000672562 0)
(-0.0105022 0.000658337 0)
(-0.0110239 0.000641458 0)
(-0.011531 0.000622047 0)
(-0.0120216 0.000600224 0)
(-0.0124937 0.000576111 0)
(-0.0129456 0.000549831 0)
(-0.0133756 0.000521509 0)
(-0.013782 0.000491269 0)
(-0.0141635 0.000459237 0)
(-0.0145185 0.000425538 0)
(-0.0148459 0.000390302 0)
(-0.0151443 0.000353657 0)
(-0.0154129 0.000315733 0)
(-0.0156504 0.00027666 0)
(-0.0158562 0.000236574 0)
(-0.0160295 0.000195608 0)
(-0.0161695 0.000153897 0)
(-0.0162758 0.00011158 0)
(-0.0163478 6.87956e-05 0)
(-0.0163855 2.56856e-05 0)
(-0.0163884 -1.76058e-05 0)
(-0.0163565 -6.0933e-05 0)
(-0.0162899 -0.000104149 0)
(-0.0161888 -0.000147104 0)
(-0.0160533 -0.000189645 0)
(-0.0158839 -0.00023162 0)
(-0.0156812 -0.000272875 0)
(-0.0154457 -0.000313253 0)
(-0.0151783 -0.000352596 0)
(-0.0148798 -0.000390746 0)
(-0.0145513 -0.000427542 0)
(-0.014194 -0.000462826 0)
(-0.013809 -0.000496437 0)
(-0.0133979 -0.000528217 0)
(-0.0129621 -0.000558006 0)
(-0.0125034 -0.000585648 0)
(-0.0120235 -0.000610989 0)
(-0.0115242 -0.000633875 0)
(-0.0110077 -0.000654159 0)
(-0.0104761 -0.000671693 0)
(-0.00993163 -0.000686339 0)
(-0.00937662 -0.00069796 0)
(-0.00881354 -0.000706429 0)
(-0.00824496 -0.000711624 0)
(-0.00767352 -0.000713433 0)
(-0.00710194 -0.000711751 0)
(-0.00653302 -0.000706485 0)
(-0.00596962 -0.000697553 0)
(-0.00541465 -0.000684888 0)
(-0.00487107 -0.000668437 0)
(-0.00434185 -0.000648162 0)
(-0.00382998 -0.000624047 0)
(-0.00333845 -0.000596098 0)
(-0.0028702 -0.000564348 0)
(-0.00242812 -0.000528863 0)
(-0.00201501 -0.000489746 0)
(-0.00163356 -0.000447153 0)
(-0.00128628 -0.000401299 0)
(-0.000975428 -0.00035248 0)
(-0.000702994 -0.000301099 0)
(-0.000470549 -0.000247701 0)
(-0.000279147 -0.00019303 0)
(-0.000129156 -0.000138104 0)
(-2.00474e-05 -8.43274e-05 0)
(4.98863e-05 -3.36565e-05 0)
(8.38864e-05 1.11716e-05 0)
(8.70699e-05 4.63423e-05 0)
(6.68995e-05 6.66322e-05 0)
(3.5119e-05 6.51769e-05 0)
(9.08132e-06 3.39193e-05 0)
(7.82516e-06 -5.21981e-05 0)
(2.61633e-05 -8.91046e-05 0)
(3.97259e-05 -7.68703e-05 0)
(3.09124e-05 -2.96964e-05 0)
(-1.2393e-05 4.16266e-05 0)
(-9.81169e-05 0.000128762 0)
(-0.000231679 0.000225425 0)
(-0.000416445 0.000326966 0)
(-0.000654061 0.00042997 0)
(-0.000944815 0.00053193 0)
(-0.00128793 0.00063101 0)
(-0.00168181 0.000725869 0)
(-0.00212421 0.000815528 0)
(-0.00261243 0.000899282 0)
(-0.00314337 0.000976631 0)
(-0.00371369 0.00104723 0)
(-0.00431986 0.00111086 0)
(-0.00495819 0.00116739 0)
(-0.00562493 0.00121676 0)
(-0.00631628 0.00125897 0)
(-0.00702844 0.00129408 0)
(-0.00775759 0.00132217 0)
(-0.00849999 0.00134335 0)
(-0.00925192 0.00135776 0)
(-0.0100097 0.00136557 0)
(-0.0107699 0.00136695 0)
(-0.0115289 0.00136209 0)
(-0.0122834 0.00135119 0)
(-0.0130301 0.00133445 0)
(-0.0137659 0.00131209 0)
(-0.0144877 0.00128434 0)
(-0.0151926 0.00125142 0)
(-0.0158777 0.00121355 0)
(-0.0165405 0.00117097 0)
(-0.0171783 0.00112393 0)
(-0.0177888 0.00107265 0)
(-0.0183696 0.00101738 0)
(-0.0189186 0.000958358 0)
(-0.0194338 0.000895836 0)
(-0.0199134 0.000830059 0)
(-0.0203554 0.000761276 0)
(-0.0207585 0.000689741 0)
(-0.021121 0.000615707 0)
(-0.0214418 0.000539434 0)
(-0.0217195 0.000461181 0)
(-0.0219533 0.000381213 0)
(-0.0221421 0.000299795 0)
(-0.0222853 0.0002172 0)
(-0.0223824 0.000133699 0)
(-0.0224329 4.95719e-05 0)
(-0.0224364 -3.49015e-05 0)
(-0.0223931 -0.000119435 0)
(-0.0223028 -0.00020374 0)
(-0.0221658 -0.000287523 0)
(-0.0219825 -0.000370489 0)
(-0.0217534 -0.000452338 0)
(-0.0214793 -0.000532768 0)
(-0.021161 -0.000611474 0)
(-0.0207995 -0.000688149 0)
(-0.0203963 -0.000762484 0)
(-0.0199525 -0.000834169 0)
(-0.0194697 -0.000902893 0)
(-0.0189498 -0.000968347 0)
(-0.0183946 -0.00103022 0)
(-0.0178062 -0.00108821 0)
(-0.0171868 -0.00114201 0)
(-0.0165388 -0.00119133 0)
(-0.0158648 -0.00123586 0)
(-0.0151675 -0.00127533 0)
(-0.0144498 -0.00130945 0)
(-0.0137148 -0.00133796 0)
(-0.0129655 -0.00136059 0)
(-0.0122053 -0.00137712 0)
(-0.0114375 -0.0013873 0)
(-0.0106658 -0.00139093 0)
(-0.00989369 -0.00138781 0)
(-0.00912498 -0.00137777 0)
(-0.00836345 -0.00136067 0)
(-0.00761296 -0.00133638 0)
(-0.00687742 -0.00130483 0)
(-0.00616075 -0.00126595 0)
(-0.0054669 -0.00121974 0)
(-0.00479976 -0.00116622 0)
(-0.00416318 -0.0011055 0)
(-0.00356091 -0.00103774 0)
(-0.00299657 -0.00096316 0)
(-0.00247359 -0.000882112 0)
(-0.00199513 -0.000795057 0)
(-0.00156406 -0.000702614 0)
(-0.00118279 -0.000605609 0)
(-0.000853221 -0.000505134 0)
(-0.000576547 -0.000402641 0)
(-0.000353106 -0.000300056 0)
(-0.000182135 -0.000199952 0)
(-6.14971e-05 -0.000105774 0)
(1.26576e-05 -2.21401e-05 0)
(4.61939e-05 4.47908e-05 0)
(4.73988e-05 8.69615e-05 0)
(2.87283e-05 9.40948e-05 0)
(8.16687e-06 5.2977e-05 0)
(5.41692e-06 -6.43556e-05 0)
(1.24785e-05 -9.94438e-05 0)
(3.00386e-06 -6.71492e-05 0)
(-3.88999e-05 1.33553e-05 0)
(-0.00012484 0.000127825 0)
(-0.000262858 0.00026508 0)
(-0.000458531 0.000416455 0)
(-0.000715366 0.000575344 0)
(-0.00103512 0.00073674 0)
(-0.00141809 0.000896857 0)
(-0.00186343 0.00105284 0)
(-0.00236932 0.00120255 0)
(-0.00293322 0.00134439 0)
(-0.00355199 0.00147717 0)
(-0.00422205 0.00160003 0)
(-0.00493945 0.00171237 0)
(-0.00570002 0.00181376 0)
(-0.00649937 0.00190395 0)
(-0.00733302 0.00198279 0)
(-0.00819639 0.00205026 0)
(-0.00908488 0.00210639 0)
(-0.00999388 0.00215129 0)
(-0.0109188 0.00218511 0)
(-0.0118552 0.00220807 0)
(-0.0127985 0.00222039 0)
(-0.0137444 0.00222235 0)
(-0.0146887 0.00221423 0)
(-0.0156272 0.00219634 0)
(-0.0165558 0.00216901 0)
(-0.0174707 0.00213259 0)
(-0.0183681 0.00208741 0)
(-0.0192443 0.00203384 0)
(-0.020096 0.00197226 0)
(-0.0209198 0.00190302 0)
(-0.0217126 0.00182652 0)
(-0.0224712 0.00174314 0)
(-0.023193 0.00165328 0)
(-0.0238753 0.00155731 0)
(-0.0245154 0.00145565 0)
(-0.0251112 0.0013487 0)
(-0.0256604 0.00123686 0)
(-0.0261611 0.00112054 0)
(-0.0266114 0.00100017 0)
(-0.0270097 0.000876156 0)
(-0.0273545 0.000748928 0)
(-0.0276447 0.000618915 0)
(-0.027879 0.000486554 0)
(-0.0280566 0.000352286 0)
(-0.0281769 0.000216557 0)
(-0.0282392 7.98207e-05 0)
(-0.0282433 -5.7465e-05 0)
(-0.028189 -0.000194835 0)
(-0.0280764 -0.000331819 0)
(-0.0279059 -0.00046794 0)
(-0.0276778 -0.000602717 0)
(-0.0273928 -0.000735664 0)
(-0.027052 -0.000866289 0)
(-0.0266563 -0.000994097 0)
(-0.0262071 -0.00111859 0)
(-0.0257058 -0.00123927 0)
(-0.0251544 -0.00135563 0)
(-0.0245545 -0.00146717 0)
(-0.0239086 -0.00157339 0)
(-0.0232188 -0.0016738 0)
(-0.0224878 -0.00176789 0)
(-0.0217184 -0.00185518 0)
(-0.0209135 -0.00193519 0)
(-0.0200763 -0.00200745 0)
(-0.0192101 -0.00207151 0)
(-0.0183186 -0.0021269 0)
(-0.0174054 -0.00217322 0)
(-0.0164745 -0.00221005 0)
(-0.0155298 -0.002237 0)
(-0.0145756 -0.00225372 0)
(-0.0136163 -0.00225988 0)
(-0.0126562 -0.00225517 0)
(-0.0117 -0.00223933 0)
(-0.0107523 -0.00221215 0)
(-0.00981777 -0.00217345 0)
(-0.00890123 -0.00212311 0)
(-0.00800742 -0.00206107 0)
(-0.00714111 -0.00198734 0)
(-0.00630701 -0.00190202 0)
(-0.00550975 -0.00180528 0)
(-0.00475381 -0.00169742 0)
(-0.0040435 -0.00157888 0)
(-0.00338289 -0.00145024 0)
(-0.0027757 -0.0013123 0)
(-0.00222525 -0.00116611 0)
(-0.00173435 -0.00101302 0)
(-0.00130514 -0.000854823 0)
(-0.000938984 -0.000693803 0)
(-0.000636229 -0.000532949 0)
(-0.00039603 -0.000376139 0)
(-0.000216075 -0.000228417 0)
(-9.22975e-05 -9.63399e-05 0)
(-1.85961e-05 1.16051e-05 0)
(1.35232e-05 8.45941e-05 0)
(1.61801e-05 0.000108998 0)
(5.97331e-06 6.67189e-05 0)
(2.40682e-06 -6.81839e-05 0)
(-4.73376e-06 -8.88847e-05 0)
(-4.27589e-05 -2.56521e-05 0)
(-0.00012446 9.8282e-05 0)
(-0.000260118 0.00026558 0)
(-0.000457398 0.000462437 0)
(-0.000721623 0.000677942 0)
(-0.00105612 0.000903578 0)
(-0.00146252 0.00113273 0)
(-0.00194099 0.00136029 0)
(-0.00249051 0.00158229 0)
(-0.00310903 0.00179572 0)
(-0.00379372 0.00199826 0)
(-0.00454105 0.00218817 0)
(-0.005347 0.00236415 0)
(-0.00620714 0.00252527 0)
(-0.00711672 0.00267084 0)
(-0.00807076 0.00280045 0)
(-0.00906412 0.00291383 0)
(-0.0100916 0.00301089 0)
(-0.0111478 0.00309163 0)
(-0.0122275 0.00315617 0)
(-0.0133253 0.00320471 0)
(-0.0144361 0.00323751 0)
(-0.0155546 0.00325488 0)
(-0.0166757 0.0032572 0)
(-0.0177945 0.00324487 0)
(-0.0189061 0.00321831 0)
(-0.0200059 0.00317799 0)
(-0.0210891 0.0031244 0)
(-0.0221515 0.00305804 0)
(-0.0231887 0.00297942 0)
(-0.0241967 0.00288907 0)
(-0.0251716 0.00278755 0)
(-0.0261096 0.00267539 0)
(-0.0270073 0.00255317 0)
(-0.0278612 0.00242144 0)
(-0.0286683 0.00228079 0)
(-0.0294255 0.0021318 0)
(-0.0301301 0.00197506 0)
(-0.0307797 0.00181116 0)
(-0.0313717 0.00164071 0)
(-0.0319041 0.00146432 0)
(-0.032375 0.0012826 0)
(-0.0327826 0.00109619 0)
(-0.0331255 0.000905699 0)
(-0.0334023 0.000711783 0)
(-0.0336121 0.000515085 0)
(-0.0337539 0.000316261 0)
(-0.0338273 0.000115977 0)
(-0.0338318 -8.50956e-05 0)
(-0.0337672 -0.000286274 0)
(-0.0336337 -0.000486869 0)
(-0.0334317 -0.000686182 0)
(-0.0331616 -0.000883508 0)
(-0.0328244 -0.00107814 0)
(-0.032421 -0.00126934 0)
(-0.0319528 -0.00145641 0)
(-0.0314213 -0.00163861 0)
(-0.0308284 -0.00181521 0)
(-0.0301761 -0.00198548 0)
(-0.0294667 -0.00214869 0)
(-0.0287027 -0.0023041 0)
(-0.0278869 -0.002451 0)
(-0.0270224 -0.00258867 0)
(-0.0261124 -0.00271639 0)
(-0.0251605 -0.00283348 0)
(-0.0241703 -0.00293925 0)
(-0.0231458 -0.00303304 0)
(-0.0220912 -0.00311421 0)
(-0.0210109 -0.00318214 0)
(-0.0199094 -0.00323626 0)
(-0.0187914 -0.00327601 0)
(-0.017662 -0.00330087 0)
(-0.016526 -0.00331039 0)
(-0.0153888 -0.00330414 0)
(-0.0142557 -0.00328176 0)
(-0.0131321 -0.00324295 0)
(-0.0120234 -0.0031875 0)
(-0.0109351 -0.00311524 0)
(-0.00987283 -0.00302612 0)
(-0.00884203 -0.0029202 0)
(-0.00784812 -0.00279765 0)
(-0.00689642 -0.00265877 0)
(-0.00599205 -0.00250404 0)
(-0.00513992 -0.00233414 0)
(-0.00434465 -0.00214997 0)
(-0.00361043 -0.00195275 0)
(-0.00294102 -0.00174401 0)
(-0.00233954 -0.00152576 0)
(-0.00180842 -0.00130054 0)
(-0.00134919 -0.00107158 0)
(-0.000962317 -0.000843027 0)
(-0.00064704 -0.000620105 0)
(-0.00040111 -0.000409481 0)
(-0.000220564 -0.000219611 0)
(-9.94721e-05 -6.12025e-05 0)
(-2.96133e-05 5.23451e-05 0)
(-9.29215e-09 0.00010436 0)
(3.14551e-06 7.26991e-05 0)
(-8.55818e-07 -6.24339e-05 0)
(-2.38535e-05 -5.40088e-05 0)
(-9.39254e-05 5.24618e-05 0)
(-0.000219948 0.000230698 0)
(-0.000410315 0.000460774 0)
(-0.00067193 0.000726582 0)
(-0.00100953 0.00101517 0)
(-0.001426 0.00131622 0)
(-0.00192261 0.00162159 0)
(-0.00249927 0.00192481 0)
(-0.00315466 0.00222084 0)
(-0.00388648 0.0025057 0)
(-0.00469153 0.00277634 0)
(-0.00556597 0.00303038 0)
(-0.00650534 0.00326604 0)
(-0.00750476 0.00348198 0)
(-0.00855899 0.00367726 0)
(-0.00966251 0.00385122 0)
(-0.0108096 0.00400346 0)
(-0.0119945 0.00413378 0)
(-0.0132111 0.00424214 0)
(-0.0144537 0.00432866 0)
(-0.0157162 0.00439357 0)
(-0.0169927 0.00443717 0)
(-0.0182775 0.00445987 0)
(-0.0195647 0.00446214 0)
(-0.0208487 0.00444451 0)
(-0.0221241 0.00440753 0)
(-0.0233855 0.00435183 0)
(-0.0246276 0.00427804 0)
(-0.0258456 0.00418683 0)
(-0.0270346 0.00407891 0)
(-0.0281898 0.00395499 0)
(-0.029307 0.00381579 0)
(-0.0303818 0.00366208 0)
(-0.0314102 0.0034946 0)
(-0.0323884 0.00331414 0)
(-0.0333128 0.00312148 0)
(-0.0341801 0.00291742 0)
(-0.034987 0.00270276 0)
(-0.0357308 0.00247831 0)
(-0.0364086 0.00224491 0)
(-0.0370181 0.00200339 0)
(-0.0375571 0.00175459 0)
(-0.0380237 0.00149936 0)
(-0.038416 0.00123859 0)
(-0.0387328 0.000973132 0)
(-0.0389726 0.000703887 0)
(-0.0391348 0.000431751 0)
(-0.0392184 0.000157635 0)
(-0.0392233 -0.000117539 0)
(-0.039149 -0.000392837 0)
(-0.0389959 -0.000667316 0)
(-0.0387643 -0.00094002 0)
(-0.0384548 -0.00120999 0)
(-0.0380684 -0.00147624 0)
(-0.0376064 -0.0017378 0)
(-0.0370701 -0.00199367 0)
(-0.0364615 -0.00224288 0)
(-0.0357825 -0.00248441 0)
(-0.0350355 -0.00271728 0)
(-0.0342231 -0.00294048 0)
(-0.0333482 -0.00315303 0)
(-0.0324141 -0.00335394 0)
(-0.0314241 -0.00354224 0)
(-0.0303821 -0.00371697 0)
(-0.0292918 -0.00387718 0)
(-0.0281577 -0.00402196 0)
(-0.0269843 -0.00415041 0)
(-0.0257761 -0.00426167 0)
(-0.0245383 -0.00435491 0)
(-0.0232759 -0.00442936 0)
(-0.0219944 -0.00448427 0)
(-0.0206993 -0.00451896 0)
(-0.0193963 -0.00453283 0)
(-0.0180914 -0.00452531 0)
(-0.0167904 -0.00449595 0)
(-0.0154996 -0.00444436 0)
(-0.014225 -0.00437026 0)
(-0.0129729 -0.00427349 0)
(-0.0117494 -0.00415401 0)
(-0.0105608 -0.00401192 0)
(-0.00941293 -0.00384751 0)
(-0.00831186 -0.00366124 0)
(-0.00726326 -0.00345381 0)
(-0.00627257 -0.00322619 0)
(-0.00534489 -0.00297965 0)
(-0.00448486 -0.00271586 0)
(-0.00369663 -0.00243694 0)
(-0.00298366 -0.00214557 0)
(-0.00234865 -0.00184514 0)
(-0.0017934 -0.00153988 0)
(-0.00131861 -0.00123508 0)
(-0.000923741 -0.000937333 0)
(-0.00060682 -0.000654886 0)
(-0.000364269 -0.000397989 0)
(-0.000190648 -0.000179381 0)
(-7.83877e-05 -1.4751e-05 0)
(-1.82172e-05 7.66509e-05 0)
(3.78804e-08 6.96002e-05 0)
(-4.18279e-06 -4.6492e-05 0)
(-4.38658e-05 7.21196e-06 0)
(-0.000148028 0.000170322 0)
(-0.000321238 0.000414425 0)
(-0.000569654 0.000717552 0)
(-0.000899134 0.00106166 0)
(-0.00131358 0.00143201 0)
(-0.00181519 0.00181667 0)
(-0.00240473 0.00220602 0)
(-0.00308166 0.00259236 0)
(-0.00384431 0.00296952 0)
(-0.00468998 0.00333262 0)
(-0.00561516 0.00367778 0)
(-0.00661559 0.00400201 0)
(-0.00768643 0.00430298 0)
(-0.00882237 0.00457894 0)
(-0.0100177 0.00482862 0)
(-0.0112664 0.0050511 0)
(-0.0125623 0.00524582 0)
(-0.013899 0.00541245 0)
(-0.0152701 0.0055509 0)
(-0.0166689 0.00566126 0)
(-0.018089 0.00574377 0)
(-0.0195239 0.0057988 0)
(-0.0209672 0.00582684 0)
(-0.0224126 0.00582845 0)
(-0.0238537 0.00580429 0)
(-0.0252847 0.00575507 0)
(-0.0266994 0.00568156 0)
(-0.0280923 0.00558457 0)
(-0.0294576 0.00546497 0)
(-0.0307902 0.00532364 0)
(-0.0320847 0.0051615 0)
(-0.0333364 0.0049795 0)
(-0.0345404 0.0047786 0)
(-0.0356922 0.00455979 0)
(-0.0367878 0.00432408 0)
(-0.0378229 0.00407248 0)
(-0.038794 0.00380602 0)
(-0.0396974 0.00352576 0)
(-0.04053 0.00323277 0)
(-0.0412887 0.0029281 0)
(-0.0419709 0.00261286 0)
(-0.0425741 0.00228815 0)
(-0.0430961 0.00195508 0)
(-0.0435351 0.00161478 0)
(-0.0438894 0.00126841 0)
(-0.0441577 0.000917109 0)
(-0.0443389 0.000562063 0)
(-0.0444323 0.000204458 0)
(-0.0444374 -0.000154503 0)
(-0.0443542 -0.000513603 0)
(-0.0441826 -0.000871612 0)
(-0.0439231 -0.00122728 0)
(-0.0435766 -0.00157936 0)
(-0.043144 -0.00192658 0)
(-0.0426267 -0.00226766 0)
(-0.0420264 -0.00260133 0)
(-0.0413451 -0.00292627 0)
(-0.0405851 -0.00324122 0)
(-0.0397489 -0.00354486 0)
(-0.0388396 -0.00383591 0)
(-0.0378603 -0.00411309 0)
(-0.0368146 -0.00437512 0)
(-0.0357063 -0.00462074 0)
(-0.0345396 -0.0048487 0)
(-0.0333188 -0.0050578 0)
(-0.0320488 -0.00524685 0)
(-0.0307345 -0.00541469 0)
(-0.0293811 -0.00556022 0)
(-0.0279942 -0.00568238 0)
(-0.0265794 -0.00578017 0)
(-0.0251428 -0.00585265 0)
(-0.0236904 -0.00589896 0)
(-0.0222287 -0.00591832 0)
(-0.020764 -0.00591004 0)
(-0.019303 -0.00587355 0)
(-0.0178524 -0.00580838 0)
(-0.0164191 -0.0057142 0)
(-0.0150097 -0.00559084 0)
(-0.0136311 -0.00543829 0)
(-0.01229 -0.00525673 0)
(-0.0109931 -0.00504657 0)
(-0.00974676 -0.00480846 0)
(-0.0085573 -0.00454335 0)
(-0.00743061 -0.00425254 0)
(-0.00637224 -0.00393771 0)
(-0.00538728 -0.00360103 0)
(-0.00448024 -0.00324524 0)
(-0.00365496 -0.00287376 0)
(-0.00291447 -0.00249081 0)
(-0.00226088 -0.00210164 0)
(-0.00169525 -0.00171269 0)
(-0.00121742 -0.00133189 0)
(-0.000825865 -0.000968954 0)
(-0.000517616 -0.000635775 0)
(-0.000287977 -0.000346899 0)
(-0.000130311 -0.000119958 0)
(-3.74111e-05 2.37313e-05 0)
(-3.15304e-06 5.67521e-05 0)
(-7.47384e-06 -2.01475e-05 0)
(-6.41467e-05 9.58069e-05 0)
(-0.000203426 0.000329739 0)
(-0.000425459 0.000651853 0)
(-0.000733986 0.00103865 0)
(-0.00113363 0.00147052 0)
(-0.00162727 0.00193122 0)
(-0.00221625 0.00240738 0)
(-0.00290065 0.00288807 0)
(-0.0036794 0.00336441 0)
(-0.0045503 0.00382919 0)
(-0.00551027 0.00427658 0)
(-0.00655535 0.00470197 0)
(-0.00768089 0.00510169 0)
(-0.00888164 0.00547286 0)
(-0.0101519 0.00581329 0)
(-0.0114854 0.00612136 0)
(-0.0128758 0.00639589 0)
(-0.0143164 0.0066361 0)
(-0.0158003 0.00684154 0)
(-0.0173206 0.00701204 0)
(-0.0188701 0.00714766 0)
(-0.0204419 0.00724865 0)
(-0.0220289 0.00731542 0)
(-0.0236241 0.00734853 0)
(-0.0252208 0.00734867 0)
(-0.0268121 0.00731662 0)
(-0.0283914 0.00725323 0)
(-0.0299524 0.00715945 0)
(-0.0314887 0.00703628 0)
(-0.0329942 0.00688478 0)
(-0.0344633 0.00670604 0)
(-0.0358901 0.0065012 0)
(-0.0372694 0.00627145 0)
(-0.0385959 0.00601798 0)
(-0.0398649 0.00574202 0)
(-0.0410716 0.00544484 0)
(-0.0422116 0.0051277 0)
(-0.0432809 0.00479191 0)
(-0.0442757 0.00443878 0)
(-0.0451923 0.00406965 0)
(-0.0460276 0.00368586 0)
(-0.0467785 0.00328879 0)
(-0.0474424 0.00287983 0)
(-0.048017 0.00246037 0)
(-0.0485 0.00203185 0)
(-0.0488899 0.00159571 0)
(-0.049185 0.0011534 0)
(-0.0493844 0.000706395 0)
(-0.0494871 0.000256199 0)
(-0.0494926 -0.000195677 0)
(-0.0494008 -0.000647704 0)
(-0.0492119 -0.00109833 0)
(-0.0489263 -0.001546 0)
(-0.0485448 -0.00198913 0)
(-0.0480686 -0.00242612 0)
(-0.0474993 -0.00285538 0)
(-0.0468386 -0.0032753 0)
(-0.0460887 -0.00368425 0)
(-0.0452521 -0.00408062 0)
(-0.0443317 -0.00446279 0)
(-0.0433307 -0.00482913 0)
(-0.0422527 -0.00517805 0)
(-0.0411014 -0.00550795 0)
(-0.0398812 -0.00581726 0)
(-0.0385964 -0.00610442 0)
(-0.037252 -0.00636793 0)
(-0.0358531 -0.00660631 0)
(-0.0344052 -0.00681813 0)
(-0.0329139 -0.00700201 0)
(-0.0313852 -0.00715664 0)
(-0.0298253 -0.0072808 0)
(-0.0282409 -0.00737331 0)
(-0.0266385 -0.00743313 0)
(-0.025025 -0.00745931 0)
(-0.0234074 -0.00745101 0)
(-0.021793 -0.00740753 0)
(-0.020189 -0.00732834 0)
(-0.0186027 -0.00721306 0)
(-0.0170416 -0.00706151 0)
(-0.0155129 -0.00687371 0)
(-0.0140239 -0.00664995 0)
(-0.0125818 -0.00639078 0)
(-0.0111936 -0.00609705 0)
(-0.00986597 -0.00577001 0)
(-0.00860529 -0.00541128 0)
(-0.00741758 -0.00502301 0)
(-0.00630833 -0.00460789 0)
(-0.00528246 -0.00416929 0)
(-0.00434421 -0.00371137 0)
(-0.00349699 -0.00323923 0)
(-0.00274333 -0.0027591 0)
(-0.00208473 -0.00227854 0)
(-0.00152152 -0.00180671 0)
(-0.00105282 -0.0013547 0)
(-0.000676414 -0.000935855 0)
(-0.000388551 -0.000566284 0)
(-0.000183713 -0.000265212 0)
(-5.69466e-05 -5.5526e-05 0)
(-6.32146e-06 3.38989e-05 0)
(-1.06776e-05 1.65719e-05 0)
(-8.43162e-05 0.000212139 0)
(-0.00025905 0.000531579 0)
(-0.00053065 0.000944293 0)
(-0.000900384 0.0014257 0)
(-0.00137153 0.00195497 0)
(-0.00194581 0.00251462 0)
(-0.00262358 0.00309004 0)
(-0.00340413 0.00366917 0)
(-0.0042857 0.00424202 0)
(-0.00526555 0.00480041 0)
(-0.00634005 0.00533768 0)
(-0.0075048 0.00584842 0)
(-0.00875469 0.00632832 0)
(-0.0100841 0.00677397 0)
(-0.0114867 0.00718273 0)
(-0.0129561 0.00755261 0)
(-0.0144853 0.00788214 0)
(-0.0160672 0.00817034 0)
(-0.0176944 0.00841661 0)
(-0.0193596 0.00862069 0)
(-0.0210551 0.00878258 0)
(-0.0227734 0.00890256 0)
(-0.0245071 0.00898107 0)
(-0.0262487 0.00901877 0)
(-0.0279908 0.00901642 0)
(-0.0297263 0.00897495 0)
(-0.0314479 0.00889538 0)
(-0.0331488 0.00877882 0)
(-0.0348223 0.00862647 0)
(-0.0364618 0.0084396 0)
(-0.0380611 0.00821953 0)
(-0.0396142 0.00796763 0)
(-0.0411151 0.00768534 0)
(-0.0425584 0.0073741 0)
(-0.0439387 0.00703542 0)
(-0.0452512 0.00667081 0)
(-0.046491 0.00628184 0)
(-0.0476537 0.00587009 0)
(-0.0487352 0.00543716 0)
(-0.0497317 0.00498469 0)
(-0.0506397 0.00451431 0)
(-0.0514559 0.00402772 0)
(-0.0521775 0.0035266 0)
(-0.0528019 0.00301268 0)
(-0.0533269 0.00248769 0)
(-0.0537506 0.0019534 0)
(-0.0540713 0.0014116 0)
(-0.0542879 0.000864087 0)
(-0.0543995 0.000312693 0)
(-0.0544056 -0.000240731 0)
(-0.0543059 -0.000794312 0)
(-0.0541006 -0.00134616 0)
(-0.0537904 -0.00189436 0)
(-0.0533759 -0.00243699 0)
(-0.0528586 -0.00297211 0)
(-0.05224 -0.00349775 0)
(-0.0515221 -0.00401196 0)
(-0.0507073 -0.00451275 0)
(-0.0497982 -0.00499817 0)
(-0.0487981 -0.00546622 0)
(-0.0477102 -0.00591495 0)
(-0.0465385 -0.0063424 0)
(-0.045287 -0.00674663 0)
(-0.0439604 -0.00712574 0)
(-0.0425634 -0.00747784 0)
(-0.0411014 -0.0078011 0)
(-0.0395798 -0.00809373 0)
(-0.0380044 -0.008354 0)
(-0.0363815 -0.00858025 0)
(-0.0347174 -0.0087709 0)
(-0.0330189 -0.00892446 0)
(-0.0312929 -0.00903955 0)
(-0.0295466 -0.00911491 0)
(-0.0277873 -0.00914939 0)
(-0.0260228 -0.00914203 0)
(-0.0242605 -0.009092 0)
(-0.0225083 -0.00899867 0)
(-0.0207741 -0.00886164 0)
(-0.0190658 -0.00868071 0)
(-0.0173911 -0.00845597 0)
(-0.015758 -0.00818779 0)
(-0.014174 -0.00787689 0)
(-0.0126465 -0.00752435 0)
(-0.0111828 -0.0071317 0)
(-0.00978975 -0.00670095 0)
(-0.00847373 -0.00623469 0)
(-0.00724069 -0.00573616 0)
(-0.00609598 -0.00520938 0)
(-0.00504427 -0.00465924 0)
(-0.00408942 -0.00409169 0)
(-0.00323445 -0.0035139 0)
(-0.00248139 -0.0029345 0)
(-0.0018312 -0.00236379 0)
(-0.00128373 -0.00181408 0)
(-0.000837689 -0.00130001 0)
(-0.000490367 -0.000838985 0)
(-0.000237491 -0.000451492 0)
(-7.64297e-05 -0.000161567 0)
(-9.41307e-06 1.03396e-06 0)
(-1.37718e-05 6.35032e-05 0)
(-0.000104153 0.000356145 0)
(-0.000314216 0.00077606 0)
(-0.0006355 0.00129228 0)
(-0.00106682 0.00187949 0)
(-0.00161007 0.00251599 0)
(-0.00226572 0.00318326 0)
(-0.00303307 0.00386569 0)
(-0.00391049 0.00455019 0)
(-0.00489547 0.00522584 0)
(-0.00598461 0.00588355 0)
(-0.00717371 0.00651585 0)
(-0.00845784 0.00711663 0)
(-0.00983142 0.00768097 0)
(-0.0112883 0.00820491 0)
(-0.0128219 0.00868536 0)
(-0.0144251 0.00911997 0)
(-0.0160907 0.009507 0)
(-0.0178111 0.00984523 0)
(-0.0195784 0.0101339 0)
(-0.0213848 0.0103727 0)
(-0.0232223 0.0105616 0)
(-0.025083 0.0107007 0)
(-0.0269589 0.0107907 0)
(-0.028842 0.0108323 0)
(-0.0307246 0.0108262 0)
(-0.0325989 0.0107737 0)
(-0.0344575 0.0106758 0)
(-0.036293 0.0105339 0)
(-0.0380983 0.0103493 0)
(-0.0398664 0.0101236 0)
(-0.0415906 0.00985838 0)
(-0.0432644 0.00955516 0)
(-0.0448818 0.00921566 0)
(-0.0464367 0.00884163 0)
(-0.0479236 0.00843483 0)
(-0.049337 0.00799708 0)
(-0.0506721 0.00753024 0)
(-0.051924 0.00703618 0)
(-0.0530883 0.00651684 0)
(-0.0541611 0.00597414 0)
(-0.0551384 0.00541007 0)
(-0.0560169 0.00482662 0)
(-0.0567935 0.00422584 0)
(-0.0574655 0.00360976 0)
(-0.0580305 0.00298048 0)
(-0.0584865 0.0023401 0)
(-0.0588317 0.00169075 0)
(-0.059065 0.00103461 0)
(-0.0591852 0.000373851 0)
(-0.0591919 -0.000289309 0)
(-0.0590849 -0.000952633 0)
(-0.0588643 -0.00161386 0)
(-0.0585308 -0.00227071 0)
(-0.0580852 -0.00292088 0)
(-0.0575289 -0.00356204 0)
(-0.0568636 -0.00419187 0)
(-0.0560915 -0.00480802 0)
(-0.0552151 -0.00540813 0)
(-0.0542372 -0.00598986 0)
(-0.0531611 -0.00655084 0)
(-0.0519906 -0.00708875 0)
(-0.0507296 -0.00760125 0)
(-0.0493827 -0.00808603 0)