/*--------------------------------*- C++ -*----------------------------------*\
| =========                 |                                                 |
| \\      /  F ield         | OpenFOAM: The Open Source CFD Toolbox           |
|  \\    /   O peration     | Version:  2212                                  |
|   \\  /    A nd           | Website:  www.openfoam.com                      |
|    \\/     M anipulation  |                                                 |
\*---------------------------------------------------------------------------*/
FoamFile
{
    version     2.0;
    format      ascii;
    arch        "LSB;label=32;scalar=64";
    class       volVectorField;
    location    "0.089";
    object      U_0;
}
// * * * * * * * * * * * * * * * * * * * * * * * * * * * * * * * * * * * * * //

dimensions      [0 1 -1 0 0 0 0];

internalField   nonuniform List<vector> 
10000
(
(3.0055e-06 -3.0012e-06 0)
(1.49407e-05 -7.72585e-06 0)
(3.39646e-05 -8.92532e-06 0)
(5.18677e-05 -7.70284e-06 0)
(6.36241e-05 -5.19719e-06 0)
(6.67971e-05 -2.06754e-06 0)
(6.01204e-05 1.32132e-06 0)
(4.30145e-05 4.76294e-06 0)
(1.53558e-05 8.13951e-06 0)
(-2.26847e-05 1.13829e-05 0)
(-7.07464e-05 1.44533e-05 0)
(-0.000128344 1.73272e-05 0)
(-0.00019491 1.99918e-05 0)
(-0.00026982 2.24403e-05 0)
(-0.000352417 2.46696e-05 0)
(-0.00044202 2.66791e-05 0)
(-0.000537939 2.84703e-05 0)
(-0.000639479 3.00457e-05 0)
(-0.000745949 3.14095e-05 0)
(-0.000856663 3.25667e-05 0)
(-0.000970946 3.35228e-05 0)
(-0.00108814 3.42831e-05 0)
(-0.00120759 3.4853e-05 0)
(-0.00132866 3.52385e-05 0)
(-0.00145075 3.54463e-05 0)
(-0.00157327 3.54825e-05 0)
(-0.00169562 3.53537e-05 0)
(-0.00181726 3.50658e-05 0)
(-0.00193766 3.4625e-05 0)
(-0.00205629 3.40378e-05 0)
(-0.00217266 3.33106e-05 0)
(-0.0022863 3.24498e-05 0)
(-0.00239676 3.14619e-05 0)
(-0.0025036 3.03534e-05 0)
(-0.00260642 2.91304e-05 0)
(-0.00270483 2.77996e-05 0)
(-0.00279847 2.63672e-05 0)
(-0.00288699 2.48395e-05 0)
(-0.00297007 2.32224e-05 0)
(-0.00304741 2.1522e-05 0)
(-0.00311873 1.97449e-05 0)
(-0.00318377 1.78973e-05 0)
(-0.00324231 1.59859e-05 0)
(-0.00329413 1.40173e-05 0)
(-0.00333904 1.19973e-05 0)
(-0.00337688 9.9329e-06 0)
(-0.0034075 7.83093e-06 0)
(-0.00343079 5.69756e-06 0)
(-0.00344665 3.53983e-06 0)
(-0.00345501 1.36524e-06 0)
(-0.00345583 -8.19645e-07 0)
(-0.00344908 -3.00776e-06 0)
(-0.00343477 -5.19125e-06 0)
(-0.00341294 -7.36298e-06 0)
(-0.00338363 -9.51568e-06 0)
(-0.00334693 -1.16412e-05 0)
(-0.00330294 -1.3732e-05 0)
(-0.00325182 -1.57808e-05 0)
(-0.00319371 -1.77796e-05 0)
(-0.00312882 -1.97196e-05 0)
(-0.00305735 -2.15925e-05 0)
(-0.00297957 -2.33904e-05 0)
(-0.00289574 -2.5105e-05 0)
(-0.00280617 -2.67281e-05 0)
(-0.00271119 -2.82519e-05 0)
(-0.00261117 -2.96679e-05 0)
(-0.00250649 -3.09676e-05 0)
(-0.00239755 -3.21436e-05 0)
(-0.00228482 -3.31883e-05 0)
(-0.00216875 -3.40933e-05 0)
(-0.00204984 -3.48503e-05 0)
(-0.0019286 -3.54522e-05 0)
(-0.00180559 -3.58923e-05 0)
(-0.00168136 -3.61636e-05 0)
(-0.0015565 -3.62592e-05 0)
(-0.00143163 -3.61726e-05 0)
(-0.00130737 -3.58982e-05 0)
(-0.00118436 -3.54302e-05 0)
(-0.00106326 -3.47636e-05 0)
(-0.000944754 -3.3894e-05 0)
(-0.000829513 -3.28176e-05 0)
(-0.000718234 -3.15314e-05 0)
(-0.000611611 -3.00327e-05 0)
(-0.000510343 -2.83197e-05 0)
(-0.000415123 -2.63919e-05 0)
(-0.000326636 -2.42502e-05 0)
(-0.000245554 -2.18969e-05 0)
(-0.000172522 -1.93363e-05 0)
(-0.000108154 -1.65756e-05 0)
(-5.30149e-05 -1.36265e-05 0)
(-7.60155e-06 -1.0507e-05 0)
(2.76857e-05 -7.24522e-06 0)
(5.25851e-05 -3.88534e-06 0)
(6.7037e-05 -5.00206e-07 0)
(7.12856e-05 2.78677e-06 0)
(6.6041e-05 5.76383e-06 0)
(5.2703e-05 8.06531e-06 0)
(3.38254e-05 9.04263e-06 0)
(1.4487e-05 7.59999e-06 0)
(2.78008e-06 2.7803e-06 0)
(7.72858e-06 -1.49328e-05 0)
(3.13521e-05 -3.13315e-05 0)
(6.30627e-05 -3.34916e-05 0)
(8.84703e-05 -2.5596e-05 0)
(9.80433e-05 -1.14987e-05 0)
(8.62642e-05 6.18661e-06 0)
(4.97391e-05 2.5753e-05 0)
(-1.34066e-05 4.6084e-05 0)
(-0.000103911 6.64487e-05 0)
(-0.000221703 8.63635e-05 0)
(-0.000366142 0.000105504 0)
(-0.000536186 0.000123653 0)
(-0.000730506 0.000140662 0)
(-0.00094757 0.000156436 0)
(-0.00118571 0.00017091 0)
(-0.00144315 0.000184048 0)
(-0.00171807 0.000195831 0)
(-0.00200861 0.000206255 0)
(-0.00231289 0.000215324 0)
(-0.00262904 0.000223054 0)
(-0.0029552 0.000229466 0)
(-0.00328953 0.000234584 0)
(-0.00363024 0.000238439 0)
(-0.00397554 0.000241063 0)
(-0.00432371 0.00024249 0)
(-0.00467308 0.000242758 0)
(-0.00502202 0.000241904 0)
(-0.00536895 0.000239968 0)
(-0.00571234 0.00023699 0)
(-0.00605073 0.00023301 0)
(-0.00638271 0.00022807 0)
(-0.00670693 0.000222211 0)
(-0.00702209 0.000215477 0)
(-0.00732696 0.00020791 0)
(-0.00762038 0.000199553 0)
(-0.00790122 0.000190449 0)
(-0.00816844 0.000180641 0)
(-0.00842106 0.000170171 0)
(-0.00865814 0.000159083 0)
(-0.00887883 0.000147421 0)
(-0.00908233 0.000135227 0)
(-0.0092679 0.000122548 0)
(-0.00943488 0.000109427 0)
(-0.00958265 9.59097e-05 0)
(-0.00971069 8.20417e-05 0)
(-0.00981851 6.78683e-05 0)
(-0.00990571 5.34369e-05 0)
(-0.00997196 3.87944e-05 0)
(-0.010017 2.39882e-05 0)
(-0.0100406 9.06762e-06 0)
(-0.0100427 -5.91779e-06 0)
(-0.0100231 -2.09186e-05 0)
(-0.00998199 -3.58837e-05 0)
(-0.00991938 -5.07616e-05 0)
(-0.00983545 -6.55006e-05 0)
(-0.00973043 -8.00477e-05 0)
(-0.00960466 -9.43492e-05 0)
(-0.00945853 -0.000108352 0)
(-0.00929252 -0.000122001 0)
(-0.00910717 -0.00013524 0)
(-0.00890313 -0.000148014 0)
(-0.00868111 -0.000160267 0)
(-0.0084419 -0.000171943 0)
(-0.00818638 -0.000182987 0)
(-0.00791549 -0.000193345 0)
(-0.00763027 -0.00020296 0)
(-0.00733184 -0.000211779 0)
(-0.00702136 -0.000219748 0)
(-0.00670011 -0.000226815 0)
(-0.00636942 -0.000232927 0)
(-0.00603068 -0.000238036 0)
(-0.00568538 -0.000242092 0)
(-0.00533505 -0.000245049 0)
(-0.0049813 -0.000246864 0)
(-0.00462578 -0.000247496 0)
(-0.00427021 -0.000246906 0)
(-0.00391635 -0.000245058 0)
(-0.003566 -0.000241921 0)
(-0.00322102 -0.000237468 0)
(-0.00288327 -0.000231676 0)
(-0.00255464 -0.000224529 0)
(-0.00223706 -0.000216014 0)
(-0.00193243 -0.000206128 0)
(-0.00164266 -0.000194876 0)
(-0.00136961 -0.000182272 0)
(-0.00111513 -0.000168342 0)
(-0.00088099 -0.000153127 0)
(-0.000668858 -0.00013669 0)
(-0.000480291 -0.000119118 0)
(-0.000316667 -0.000100534 0)
(-0.000179129 -8.11107e-05 0)
(-6.85008e-05 -6.10906e-05 0)
(1.48249e-05 -4.08214e-05 0)
(7.1048e-05 -2.0808e-05 0)
(0.000101194 -1.79834e-06 0)
(0.000107432 1.50864e-05 0)
(9.34319e-05 2.81583e-05 0)
(6.49262e-05 3.48715e-05 0)
(3.15496e-05 3.15473e-05 0)
(7.59123e-06 1.44749e-05 0)
(8.95084e-06 -3.39758e-05 0)
(3.3643e-05 -6.30791e-05 0)
(6.19494e-05 -6.16664e-05 0)
(7.66657e-05 -3.85648e-05 0)
(6.62838e-05 -9.76204e-07 0)
(2.36516e-05 4.57189e-05 0)
(-5.59623e-05 9.76498e-05 0)
(-0.000175383 0.000152079 0)
(-0.000335906 0.000207082 0)
(-0.000537668 0.000261303 0)
(-0.000779943 0.000313782 0)
(-0.00106136 0.00036384 0)
(-0.00138006 0.000411 0)
(-0.00173387 0.000454927 0)
(-0.00212031 0.000495391 0)
(-0.00253675 0.000532241 0)
(-0.00298044 0.000565387 0)
(-0.00344853 0.000594784 0)
(-0.00393815 0.000620422 0)
(-0.00444638 0.000642317 0)
(-0.00497035 0.000660508 0)
(-0.00550716 0.000675053 0)
(-0.006054 0.000686022 0)
(-0.00660807 0.000693494 0)
(-0.00716664 0.000697561 0)
(-0.00772706 0.000698317 0)
(-0.00828674 0.000695866 0)
(-0.00884315 0.000690315 0)
(-0.00939388 0.000681772 0)
(-0.00993659 0.000670353 0)
(-0.010469 0.000656172 0)
(-0.010989 0.000639348 0)
(-0.0114944 0.00062 0)
(-0.0119834 0.000598249 0)
(-0.012454 0.000574217 0)
(-0.0129044 0.000548027 0)
(-0.0133329 0.000519801 0)
(-0.013738 0.000489665 0)
(-0.0141182 0.000457744 0)
(-0.0144721 0.000424163 0)
(-0.0147984 0.000389049 0)
(-0.0150959 0.000352532 0)
(-0.0153636 0.00031474 0)
(-0.0156005 0.000275805 0)
(-0.0158056 0.000235859 0)
(-0.0159783 0.000195036 0)
(-0.016118 0.000153471 0)
(-0.0162239 0.000111301 0)
(-0.0162959 6.86654e-05 0)
(-0.0163334 2.57049e-05 0)
(-0.0163364 -1.74367e-05 0)
(-0.0163048 -6.06145e-05 0)
(-0.0162385 -0.000103682 0)
(-0.0161378 -0.00014649 0)
(-0.0160029 -0.000188888 0)
(-0.0158342 -0.000230723 0)
(-0.0156322 -0.000271842 0)
(-0.0153976 -0.000312088 0)
(-0.0151312 -0.000351305 0)
(-0.0148338 -0.000389334 0)
(-0.0145065 -0.000426016 0)
(-0.0141504 -0.00046119 0)
(-0.0137668 -0.000494698 0)
(-0.0133571 -0.000526381 0)
(-0.0129229 -0.000556082 0)
(-0.0124657 -0.000583645 0)
(-0.0119874 -0.000608915 0)
(-0.0114899 -0.00063174 0)
(-0.0109751 -0.000651972 0)
(-0.0104453 -0.000669466 0)
(-0.0099026 -0.000684081 0)
(-0.00934941 -0.000695684 0)
(-0.00878817 -0.000704146 0)
(-0.00822142 -0.000709346 0)
(-0.0076518 -0.000711171 0)
(-0.00708203 -0.000709517 0)
(-0.0065149 -0.000704291 0)
(-0.00595325 -0.00069541 0)
(-0.00539998 -0.000682808 0)
(-0.00485806 -0.00066643 0)
(-0.00433043 -0.000646238 0)
(-0.00382009 -0.000622217 0)
(-0.00333 -0.000594373 0)
(-0.00286311 -0.000562739 0)
(-0.00242229 -0.000527379 0)
(-0.00201035 -0.000488398 0)
(-0.00162995 -0.000445948 0)
(-0.0012836 -0.000400245 0)
(-0.000973576 -0.000351584 0)
(-0.000701839 -0.000300366 0)
(-0.000469967 -0.000247134 0)
(-0.000279011 -0.000192628 0)
(-0.000129341 -0.000137863 0)
(-2.04353e-05 -8.42382e-05 0)
(4.94053e-05 -3.3704e-05 0)
(8.34079e-05 1.1011e-05 0)
(8.66703e-05 4.61037e-05 0)
(6.66294e-05 6.63653e-05 0)
(3.49904e-05 6.49483e-05 0)
(9.05097e-06 3.38122e-05 0)
(7.7965e-06 -5.20173e-05 0)
(2.60549e-05 -8.87657e-05 0)
(3.95299e-05 -7.65254e-05 0)
(3.06833e-05 -2.94658e-05 0)
(-1.25574e-05 4.16547e-05 0)
(-9.80904e-05 0.000128528 0)
(-0.000231314 0.000224889 0)
(-0.000415578 0.000326105 0)
(-0.000652522 0.000428773 0)
(-0.000942428 0.000530397 0)
(-0.00128452 0.000629147 0)
(-0.00167721 0.000723687 0)
(-0.00211826 0.000813042 0)
(-0.00260496 0.00089651 0)
(-0.00313424 0.000973593 0)
(-0.00370277 0.00104395 0)
(-0.00430701 0.00110735 0)
(-0.0049433 0.00116368 0)
(-0.00560791 0.00121288 0)
(-0.00629703 0.00125494 0)
(-0.00700688 0.00128991 0)
(-0.00773367 0.00131789 0)
(-0.00847366 0.00133899 0)
(-0.00922313 0.00135335 0)
(-0.00997847 0.00136112 0)
(-0.0107361 0.00136248 0)
(-0.0114926 0.00135763 0)
(-0.0122447 0.00134675 0)
(-0.0129889 0.00133006 0)
(-0.0137223 0.00130778 0)
(-0.0144417 0.00128011 0)
(-0.0151442 0.00124729 0)
(-0.0158271 0.00120955 0)
(-0.0164877 0.00116712 0)
(-0.0171234 0.00112023 0)
(-0.0177319 0.00106912 0)
(-0.0183108 0.00101404 0)
(-0.018858 0.000955228 0)
(-0.0193715 0.000892922 0)
(-0.0198495 0.000827374 0)
(-0.0202902 0.000758832 0)
(-0.0206919 0.000687546 0)
(-0.0210533 0.000613772 0)
(-0.021373 0.000537766 0)
(-0.0216499 0.000459787 0)
(-0.021883 0.000380098 0)
(-0.0220713 0.000298965 0)
(-0.0222142 0.000216657 0)
(-0.022311 0.000133448 0)
(-0.0223614 4.96118e-05 0)
(-0.0223651 -3.45695e-05 0)
(-0.022322 -0.000118812 0)
(-0.0222321 -0.000202827 0)
(-0.0220957 -0.000286325 0)
(-0.0219131 -0.000369011 0)
(-0.0216849 -0.000450586 0)
(-0.0214119 -0.000530749 0)
(-0.0210948 -0.000609198 0)
(-0.0207347 -0.000685625 0)
(-0.0203329 -0.000759722 0)
(-0.0198907 -0.000831181 0)
(-0.0194097 -0.000899692 0)
(-0.0188916 -0.000964945 0)
(-0.0183383 -0.00102663 0)
(-0.017752 -0.00108445 0)
(-0.0171347 -0.0011381 0)
(-0.0164889 -0.00118728 0)
(-0.0158172 -0.00123169 0)
(-0.0151223 -0.00127106 0)
(-0.014407 -0.0013051 0)
(-0.0136744 -0.00133355 0)
(-0.0129276 -0.00135615 0)
(-0.0121698 -0.00137266 0)
(-0.0114046 -0.00138285 0)
(-0.0106353 -0.0013865 0)
(-0.00986567 -0.00138344 0)
(-0.00909938 -0.00137347 0)
(-0.00834023 -0.00135647 0)
(-0.00759205 -0.0013323 0)
(-0.00685876 -0.00130089 0)
(-0.00614426 -0.00126217 0)
(-0.00545249 -0.00121614 0)
(-0.00478732 -0.00116283 0)
(-0.0041526 -0.00110233 0)
(-0.00355207 -0.00103481 0)
(-0.00298933 -0.000960486 0)
(-0.0024678 -0.000879712 0)
(-0.00199066 -0.000792943 0)
(-0.00156074 -0.0007008 0)
(-0.00118046 -0.000604103 0)
(-0.000851725 -0.000503941 0)
(-0.000575721 -0.000401758 0)
(-0.000352789 -0.000299474 0)
(-0.000182176 -0.000199654 0)
(-6.1753e-05 -0.000105733 0)
(1.2312e-05 -2.23135e-05 0)
(4.58621e-05 4.44641e-05 0)
(4.71553e-05 8.65649e-05 0)
(2.86055e-05 9.37371e-05 0)
(8.13655e-06 5.27971e-05 0)
(5.39644e-06 -6.4123e-05 0)
(1.24105e-05 -9.90348e-05 0)
(2.91423e-06 -6.67781e-05 0)
(-3.89268e-05 1.35227e-05 0)
(-0.000124674 0.000127663 0)
(-0.000262343 0.000264501 0)
(-0.000457488 0.000415401 0)
(-0.0007136 0.000573782 0)
(-0.00103242 0.000734652 0)
(-0.00141426 0.00089424 0)
(-0.00185826 0.0010497 0)
(-0.00236261 0.00119891 0)
(-0.00292476 0.00134027 0)
(-0.00354161 0.00147259 0)
(-0.00420956 0.00159503 0)
(-0.00492469 0.00170698 0)
(-0.00568284 0.00180801 0)
(-0.00647963 0.00189788 0)
(-0.0073106 0.00197644 0)
(-0.00817118 0.00204366 0)
(-0.00905679 0.00209959 0)
(-0.00996283 0.00214431 0)
(-0.0108848 0.00217801 0)
(-0.0118181 0.00220086 0)
(-0.0127583 0.00221313 0)
(-0.0137011 0.00221506 0)
(-0.0146423 0.00220695 0)
(-0.0155776 0.00218911 0)
(-0.0165032 0.00216187 0)
(-0.017415 0.00212555 0)
(-0.0183095 0.00208052 0)
(-0.0191828 0.00202713 0)
(-0.0200317 0.00196575 0)
(-0.0208528 0.00189675 0)
(-0.0216429 0.00182051 0)
(-0.0223991 0.00173741 0)
(-0.0231185 0.00164786 0)
(-0.0237985 0.00155222 0)
(-0.0244366 0.00145092 0)
(-0.0250304 0.00134434 0)
(-0.0255779 0.00123289 0)
(-0.0260769 0.00111698 0)
(-0.0265258 0.000997027 0)
(-0.0269229 0.000873447 0)
(-0.0272667 0.000746664 0)
(-0.0275559 0.000617106 0)
(-0.0277896 0.000485208 0)
(-0.0279668 0.000351408 0)
(-0.0280867 0.000216152 0)
(-0.028149 7.98898e-05 0)
(-0.0281532 -5.6921e-05 0)
(-0.0280993 -0.000193818 0)
(-0.0279872 -0.000330333 0)
(-0.0278174 -0.000465991 0)
(-0.0275903 -0.000600312 0)
(-0.0273065 -0.000732813 0)
(-0.0269669 -0.000863004 0)
(-0.0265727 -0.000990393 0)
(-0.0261251 -0.00111448 0)
(-0.0256257 -0.00123477 0)
(-0.0250763 -0.00135077 0)
(-0.0244786 -0.00146196 0)
(-0.0238349 -0.00156786 0)
(-0.0231476 -0.00166796 0)
(-0.0224191 -0.00176177 0)
(-0.0216524 -0.00184881 0)
(-0.0208502 -0.0019286 0)
(-0.0200158 -0.00200067 0)
(-0.0191526 -0.00206457 0)
(-0.0182641 -0.00211983 0)
(-0.0173539 -0.00216606 0)
(-0.016426 -0.00220282 0)
(-0.0154844 -0.00222975 0)
(-0.0145334 -0.00224648 0)
(-0.0135771 -0.00225268 0)
(-0.0126201 -0.00224805 0)
(-0.0116669 -0.00223233 0)
(-0.0107221 -0.00220531 0)
(-0.00979051 -0.00216679 0)
(-0.00887678 -0.00211668 0)
(-0.00798568 -0.0020549 0)
(-0.00712197 -0.00198146 0)
(-0.00629035 -0.00189646 0)
(-0.00549543 -0.00180007 0)
(-0.00474168 -0.0016926 0)
(-0.0040334 -0.00157447 0)
(-0.00337464 -0.00144626 0)
(-0.00276913 -0.00130878 0)
(-0.00222018 -0.00116306 0)
(-0.00173058 -0.00101046 0)
(-0.00130248 -0.000852753 0)
(-0.000937233 -0.00069222 0)
(-0.0006352 -0.00053184 0)
(-0.000395541 -0.000375478 0)
(-0.000215956 -0.000228162 0)
(-9.23939e-05 -9.64273e-05 0)
(-1.87778e-05 1.12635e-05 0)
(1.33561e-05 8.41172e-05 0)
(1.60848e-05 0.000108539 0)
(5.94771e-06 6.6476e-05 0)
(2.39521e-06 -6.79244e-05 0)
(-4.74854e-06 -8.8468e-05 0)
(-4.2708e-05 -2.53506e-05 0)
(-0.000124224 9.82573e-05 0)
(-0.000259537 0.000265069 0)
(-0.000456283 0.000461325 0)
(-0.000719764 0.000676153 0)
(-0.0010533 0.000901065 0)
(-0.00145849 0.00112947 0)
(-0.00193553 0.00135627 0)
(-0.00248337 0.00157754 0)
(-0.00309999 0.00179025 0)
(-0.00378255 0.0019921 0)
(-0.00452754 0.00218136 0)
(-0.00533095 0.00235674 0)
(-0.00618836 0.00251729 0)
(-0.00709504 0.00266236 0)
(-0.00804601 0.0027915 0)
(-0.00903617 0.00290448 0)
(-0.0100603 0.00300118 0)
(-0.0111131 0.00308162 0)
(-0.0121892 0.00314592 0)
(-0.0132835 0.00319427 0)
(-0.0143906 0.00322693 0)
(-0.0155055 0.00324423 0)
(-0.0166229 0.00324651 0)
(-0.017738 0.0032342 0)
(-0.018846 0.00320771 0)
(-0.0199421 0.00316752 0)
(-0.0210218 0.00311409 0)
(-0.0220806 0.00304794 0)
(-0.0231144 0.00296958 0)
(-0.0241191 0.00287954 0)
(-0.0250907 0.00277835 0)
(-0.0260257 0.00266658 0)
(-0.0269204 0.00254477 0)
(-0.0277715 0.0024135 0)
(-0.0285759 0.00227334 0)
(-0.0293307 0.00212487 0)
(-0.0300331 0.00196867 0)
(-0.0306805 0.00180535 0)
(-0.0312706 0.00163549 0)
(-0.0318014 0.00145972 0)
(-0.0322708 0.00127864 0)
(-0.0326772 0.00109288 0)
(-0.033019 0.000903056 0)
(-0.0332951 0.000709817 0)
(-0.0335043 0.000513806 0)
(-0.0336459 0.000315674 0)
(-0.0337191 0.000116085 0)
(-0.0337238 -8.42921e-05 0)
(-0.0336596 -0.000284778 0)
(-0.0335268 -0.000484686 0)
(-0.0333256 -0.000683321 0)
(-0.0330566 -0.00087998 0)
(-0.0327207 -0.00107395 0)
(-0.0323189 -0.00126453 0)
(-0.0318524 -0.00145098 0)
(-0.031323 -0.00163259 0)
(-0.0307322 -0.00180862 0)
(-0.0300822 -0.00197835 0)
(-0.0293754 -0.00214105 0)
(-0.0286141 -0.00229599 0)
(-0.0278012 -0.00244245 0)
(-0.0269397 -0.00257971 0)
(-0.0260328 -0.00270707 0)
(-0.0250842 -0.00282383 0)
(-0.0240973 -0.00292932 0)
(-0.0230763 -0.00302287 0)
(-0.0220253 -0.00310385 0)
(-0.0209485 -0.00317164 0)
(-0.0198506 -0.00322567 0)
(-0.0187363 -0.00326537 0)
(-0.0176105 -0.00329025 0)
(-0.0164782 -0.00329983 0)
(-0.0153446 -0.0032937 0)
(-0.0142151 -0.00327149 0)
(-0.013095 -0.0032329 0)
(-0.0119897 -0.00317771 0)
(-0.0109048 -0.00310578 0)
(-0.00984572 -0.00301703 0)
(-0.00881803 -0.00291153 0)
(-0.00782708 -0.00278944 0)
(-0.00687817 -0.00265107 0)
(-0.00597644 -0.00249689 0)
(-0.00512676 -0.00232758 0)
(-0.00433373 -0.00214404 0)
(-0.00360156 -0.00194746 0)
(-0.00293398 -0.00173941 0)
(-0.00233412 -0.00152185 0)
(-0.0018044 -0.00129732 0)
(-0.00134633 -0.00106906 0)
(-0.000960419 -0.000841181 0)
(-0.000645888 -0.000618899 0)
(-0.000400506 -0.000408856 0)
(-0.000220327 -0.000219485 0)
(-9.94453e-05 -6.14576e-05 0)
(-2.96698e-05 5.18624e-05 0)
(-6.31495e-08 0.000103847 0)
(3.12721e-06 7.2412e-05 0)
(-8.58851e-07 -6.21764e-05 0)
(-2.38089e-05 -5.3659e-05 0)
(-9.37135e-05 5.25806e-05 0)
(-0.00021941 0.000230333 0)
(-0.00040926 0.000459733 0)
(-0.000670137 0.000724727 0)
(-0.00100676 0.0010124 0)
(-0.001422 0.00131249 0)
(-0.00191712 0.00161686 0)
(-0.00249203 0.00191909 0)
(-0.00314542 0.00221412 0)
(-0.00387496 0.00249803 0)
(-0.00467751 0.00276775 0)
(-0.0055492 0.00302092 0)
(-0.0064856 0.00325576 0)
(-0.00748184 0.00347096 0)
(-0.0085327 0.00366555 0)
(-0.00963267 0.00383889 0)
(-0.0107761 0.00399059 0)
(-0.0119571 0.00412043 0)
(-0.0131698 0.00422839 0)
(-0.0144083 0.00431459 0)
(-0.0156667 0.00437924 0)
(-0.0169391 0.00442266 0)
(-0.0182196 0.00444526 0)
(-0.0195026 0.00444749 0)
(-0.0207824 0.00442989 0)
(-0.0220536 0.00439301 0)
(-0.0233108 0.00433747 0)
(-0.0245489 0.00426392 0)
(-0.0257628 0.00417301 0)
(-0.0269478 0.00406544 0)
(-0.0280993 0.00394193 0)
(-0.0292128 0.00380321 0)
(-0.030284 0.00365002 0)
(-0.031309 0.00348312 0)
(-0.0322841 0.00330328 0)
(-0.0332055 0.00311129 0)
(-0.0340699 0.00290794 0)
(-0.0348742 0.00269402 0)
(-0.0356156 0.00247036 0)
(-0.0362913 0.00223778 0)
(-0.0368989 0.0019971 0)
(-0.0374362 0.00174917 0)
(-0.0379014 0.00149484 0)
(-0.0382926 0.00123498 0)
(-0.0386084 0.000970452 0)
(-0.0388477 0.000702147 0)
(-0.0390094 0.000430958 0)
(-0.039093 0.000157793 0)
(-0.039098 -0.00011643 0)
(-0.0390243 -0.000390781 0)
(-0.0388719 -0.00066432 0)
(-0.0386413 -0.000936097 0)
(-0.0383331 -0.00120515 0)
(-0.0379482 -0.00147051 0)
(-0.0374879 -0.0017312 0)
(-0.0369537 -0.00198624 0)
(-0.0363473 -0.00223463 0)
(-0.0356708 -0.00247539 0)
(-0.0349265 -0.00270751 0)
(-0.034117 -0.00293002 0)
(-0.0332452 -0.00314192 0)
(-0.0323144 -0.00334222 0)
(-0.0313278 -0.00352997 0)
(-0.0302894 -0.0037042 0)
(-0.0292029 -0.00386397 0)
(-0.0280726 -0.00400836 0)
(-0.0269031 -0.00413649 0)
(-0.025699 -0.00424749 0)
(-0.0244652 -0.00434054 0)
(-0.023207 -0.00441486 0)
(-0.0219297 -0.00446971 0)
(-0.0206387 -0.00450442 0)
(-0.01934 -0.00451836 0)
(-0.0180392 -0.004511 0)
(-0.0167423 -0.00448186 0)
(-0.0154555 -0.00443056 0)
(-0.0141849 -0.00435683 0)
(-0.0129366 -0.00426049 0)
(-0.0117169 -0.0041415 0)
(-0.0105318 -0.00399998 0)
(-0.00938739 -0.00383619 0)
(-0.00828957 -0.0036506 0)
(-0.00724403 -0.00344391 0)
(-0.0062562 -0.00321708 0)
(-0.00533115 -0.00297138 0)
(-0.00447354 -0.00270846 0)
(-0.00368748 -0.00243044 0)
(-0.00297644 -0.00214 0)
(-0.00234313 -0.00184051 0)
(-0.00178932 -0.00153617 0)
(-0.00131573 -0.00123227 0)
(-0.000921829 -0.00093538 0)
(-0.000605654 -0.000653717 0)
(-0.000363641 -0.000397498 0)
(-0.000190373 -0.000179428 0)
(-7.83116e-05 -1.5147e-05 0)
(-1.82214e-05 7.6145e-05 0)
(2.81517e-08 6.92926e-05 0)
(-4.17552e-06 -4.62692e-05 0)
(-4.3758e-05 7.4108e-06 0)
(-0.000147643 0.000170132 0)
(-0.000320375 0.000413557 0)
(-0.000568088 0.000715785 0)
(-0.000896613 0.00105884 0)
(-0.00130984 0.00142801 0)
(-0.00180995 0.00181144 0)
(-0.0023977 0.00219952 0)
(-0.00307256 0.00258459 0)
(-0.00383286 0.0029605 0)
(-0.0046759 0.00332237 0)
(-0.00559818 0.00366636 0)
(-0.00659546 0.00398948 0)
(-0.00766292 0.00428941 0)
(-0.00879524 0.00456442 0)
(-0.00998675 0.00481322 0)
(-0.0112315 0.00503491 0)
(-0.0125232 0.00522893 0)
(-0.0138556 0.00539496 0)
(-0.0152222 0.0055329 0)
(-0.0166165 0.00564284 0)
(-0.018032 0.00572503 0)
(-0.0194622 0.00577984 0)
(-0.0209008 0.00580774 0)
(-0.0223414 0.00580931 0)
(-0.0237778 0.0057852 0)
(-0.025204 0.00573611 0)
(-0.0266141 0.00566282 0)
(-0.0280024 0.00556615 0)
(-0.0293632 0.00544693 0)
(-0.0306914 0.00530607 0)
(-0.0319817 0.00514447 0)
(-0.0332292 0.00496309 0)
(-0.0344293 0.00476288 0)
(-0.0355774 0.00454482 0)
(-0.0366693 0.00430992 0)
(-0.0377011 0.00405919 0)
(-0.038669 0.00379366 0)
(-0.0395695 0.00351438 0)
(-0.0403995 0.00322241 0)
(-0.0411558 0.00291881 0)
(-0.0418359 0.00260468 0)
(-0.0424372 0.0022811 0)
(-0.0429577 0.0019492 0)
(-0.0433953 0.00161009 0)
(-0.0437486 0.00126493 0)
(-0.0440162 0.000914854 0)
(-0.0441971 0.000561043 0)
(-0.0442904 0.000204678 0)
(-0.0442958 -0.000153044 0)
(-0.044213 -0.00051091 0)
(-0.0440422 -0.000867695 0)
(-0.0437839 -0.00122216 0)
(-0.0434388 -0.00157305 0)
(-0.0430079 -0.00191911 0)
(-0.0424926 -0.00225906 0)
(-0.0418946 -0.00259162 0)
(-0.0412158 -0.00291551 0)
(-0.0404585 -0.00322945 0)
(-0.0396253 -0.00353213 0)
(-0.0387192 -0.00382227 0)
(-0.0377434 -0.0040986 0)
(-0.0367014 -0.00435984 0)
(-0.0355969 -0.00460474 0)
(-0.0344342 -0.00483205 0)
(-0.0332177 -0.00504057 0)
(-0.0319519 -0.00522912 0)
(-0.030642 -0.00539654 0)
(-0.0292932 -0.00554173 0)
(-0.0279108 -0.00566363 0)
(-0.0265007 -0.00576125 0)
(-0.0250687 -0.00583365 0)
(-0.023621 -0.00587997 0)
(-0.0221639 -0.00589943 0)
(-0.0207039 -0.00589135 0)
(-0.0192475 -0.00585513 0)
(-0.0178015 -0.00579034 0)
(-0.0163726 -0.00569662 0)
(-0.0149675 -0.00557381 0)
(-0.0135931 -0.0054219 0)
(-0.0122561 -0.00524106 0)
(-0.010963 -0.00503169 0)
(-0.00972037 -0.00479445 0)
(-0.00853437 -0.00453029 0)
(-0.00741093 -0.00424049 0)
(-0.00635559 -0.00392672 0)
(-0.0053734 -0.00359116 0)
(-0.00446888 -0.00323653 0)
(-0.00364585 -0.00286622 0)
(-0.00290735 -0.00248446 0)
(-0.00225549 -0.00209647 0)
(-0.00169132 -0.00170868 0)
(-0.00121468 -0.00132897 0)
(-0.000824084 -0.000967048 0)
(-0.000516558 -0.000634756 0)
(-0.00028743 -0.0003466 0)
(-0.00013009 -0.000120162 0)
(-3.73611e-05 2.33016e-05 0)
(-3.15373e-06 5.64513e-05 0)
(-7.45468e-06 -1.9994e-05 0)
(-6.39724e-05 9.57654e-05 0)
(-0.000202862 0.000329105 0)
(-0.000424259 0.000650308 0)
(-0.000731888 0.00103595 0)
(-0.00113035 0.00146649 0)
(-0.00162252 0.00192573 0)
(-0.00220972 0.00240036 0)
(-0.00289204 0.00287949 0)
(-0.00366838 0.00335426 0)
(-0.0045366 0.00381749 0)
(-0.00549357 0.00426339 0)
(-0.00653538 0.00468734 0)
(-0.00765737 0.00508568 0)
(-0.00885432 0.00545558 0)
(-0.0101205 0.00579483 0)
(-0.0114498 0.00610182 0)
(-0.0128358 0.00637538 0)
(-0.0142717 0.00661473 0)
(-0.0157508 0.00681943 0)
(-0.0172662 0.00698931 0)
(-0.0188107 0.00712441 0)
(-0.0203773 0.007225 0)
(-0.0219592 0.0072915 0)
(-0.0235492 0.00732446 0)
(-0.0251407 0.00732455 0)
(-0.0267268 0.00729256 0)
(-0.0283009 0.00722936 0)
(-0.0298568 0.00713586 0)
(-0.031388 0.00701308 0)
(-0.0328887 0.00686207 0)
(-0.0343529 0.00668393 0)
(-0.0357751 0.00647978 0)
(-0.0371498 0.0062508 0)
(-0.0384721 0.0059982 0)
(-0.0397369 0.00572319 0)
(-0.0409396 0.00542703 0)
(-0.042076 0.005111 0)
(-0.0431418 0.00477638 0)
(-0.0441334 0.00442448 0)
(-0.0450471 0.00405663 0)
(-0.0458798 0.00367419 0)
(-0.0466284 0.00327851 0)
(-0.0472903 0.00287098 0)
(-0.0478631 0.00245299 0)
(-0.0483447 0.00202597 0)
(-0.0487335 0.00159135 0)
(-0.0490279 0.00115058 0)
(-0.0492268 0.000705128 0)
(-0.0493294 0.000256491 0)
(-0.0493352 -0.000193827 0)
(-0.049244 -0.000644301 0)
(-0.049056 -0.00109339 0)
(-0.0487716 -0.00153954 0)
(-0.0483917 -0.00198117 0)
(-0.0479174 -0.00241671 0)
(-0.0473502 -0.00284455 0)
(-0.046692 -0.00326309 0)
(-0.0459448 -0.00367072 0)
(-0.0451113 -0.00406581 0)
(-0.0441942 -0.00444677 0)
(-0.0431968 -0.00481198 0)
(-0.0421225 -0.00515983 0)
(-0.0409753 -0.00548873 0)
(-0.0397593 -0.00579713 0)
(-0.0384789 -0.00608348 0)
(-0.0371391 -0.00634626 0)
(-0.0357449 -0.00658401 0)
(-0.0343018 -0.00679529 0)
(-0.0328154 -0.00697874 0)
(-0.0312918 -0.00713305 0)
(-0.029737 -0.00725699 0)
(-0.0281577 -0.00734939 0)
(-0.0265605 -0.00740922 0)
(-0.0249521 -0.00743551 0)
(-0.0233397 -0.00742744 0)
(-0.0217303 -0.00738431 0)
(-0.0201313 -0.00730558 0)
(-0.0185499 -0.00719087 0)
(-0.0169936 -0.00703999 0)
(-0.0154695 -0.00685298 0)
(-0.013985 -0.0066301 0)
(-0.0125472 -0.00637191 0)
(-0.0111631 -0.00607927 0)
(-0.00983932 -0.00575338 0)
(-0.00858228 -0.0053959 0)
(-0.00739796 -0.00500894 0)
(-0.00629183 -0.0045952 0)
(-0.00526882 -0.00415802 0)
(-0.00433314 -0.00370155 0)
(-0.00348822 -0.00323088 0)
(-0.00273657 -0.00275221 0)
(-0.00207969 -0.00227307 0)
(-0.00151792 -0.00180261 0)
(-0.00105039 -0.00135185 0)
(-0.000674903 -0.000934132 0)
(-0.000387716 -0.000565494 0)
(-0.000183338 -0.00026511 0)
(-5.68403e-05 -5.58043e-05 0)
(-6.31308e-06 3.3634e-05 0)
(-1.0647e-05 1.66222e-05 0)
(-8.4075e-05 0.000211767 0)
(-0.000258303 0.000530364 0)
(-0.000529108 0.000941894 0)
(-0.000897747 0.00142185 0)
(-0.00136749 0.00194949 0)
(-0.00194003 0.00250737 0)
(-0.00261574 0.00308095 0)
(-0.0033939 0.00365819 0)
(-0.00427275 0.00422916 0)
(-0.00524956 0.0047857 0)
(-0.00632072 0.00532116 0)
(-0.00748182 0.00583018 0)
(-0.00872779 0.00630845 0)
(-0.010053 0.00675257 0)
(-0.0114512 0.00715992 0)
(-0.0129159 0.0075285 0)
(-0.0144402 0.00785687 0)
(-0.016017 0.00814404 0)
(-0.017639 0.00838942 0)
(-0.0192988 0.00859275 0)
(-0.0209888 0.00875404 0)
(-0.0227016 0.00887355 0)
(-0.0244297 0.00895174 0)
(-0.0261657 0.00898925 0)
(-0.0279021 0.00898686 0)
(-0.0296319 0.00894548 0)
(-0.0313479 0.00886613 0)
(-0.0330433 0.00874993 0)
(-0.0347113 0.00859807 0)
(-0.0363455 0.00841181 0)
(-0.0379396 0.00819247 0)
(-0.0394875 0.00794142 0)
(-0.0409836 0.00766009 0)
(-0.0424222 0.00734991 0)
(-0.0437981 0.00701239 0)
(-0.0451063 0.00664905 0)
(-0.0463421 0.00626142 0)
(-0.0475011 0.0058511 0)
(-0.0485792 0.00541968 0)
(-0.0495725 0.00496879 0)
(-0.0504777 0.00450006 0)
(-0.0512914 0.00401516 0)
(-0.0520108 0.0035158 0)
(-0.0526333 0.00300367 0)
(-0.0531568 0.00248052 0)
(-0.0535793 0.00194809 0)
(-0.0538992 0.00140817 0)
(-0.0541154 0.000862558 0)
(-0.0542269 0.00031307 0)
(-0.0542332 -0.000238448 0)
(-0.0541342 -0.000790133 0)
(-0.0539299 -0.0013401 0)
(-0.053621 -0.00188645 0)
(-0.0532082 -0.00242725 0)
(-0.0526929 -0.00296058 0)
(-0.0520767 -0.00348449 0)
(-0.0513615 -0.00399701 0)
(-0.0505496 -0.00449619 0)
(-0.0496439 -0.00498005 0)
(-0.0486473 -0.00544663 0)
(-0.0475633 -0.00589396 0)
(-0.0463956 -0.0063201 0)
(-0.0451485 -0.00672312 0)
(-0.0438265 -0.00710112 0)
(-0.0424343 -0.00745222 0)
(-0.0409772 -0.00777459 0)
(-0.0394607 -0.00806644 0)
(-0.0378905 -0.00832605 0)
(-0.036273 -0.00855177 0)
(-0.0346143 -0.00874202 0)
(-0.0329213 -0.00889531 0)
(-0.0312009 -0.00901027 0)
(-0.0294602 -0.00908562 0)
(-0.0277066 -0.00912024 0)
(-0.0259475 -0.00911315 0)
(-0.0241908 -0.00906352 0)
(-0.022444 -0.00897074 0)
(-0.0207152 -0.00883439 0)
(-0.019012 -0.00865427 0)
(-0.0173424 -0.00843047 0)
(-0.0157142 -0.00816335 0)
(-0.0141348 -0.00785363 0)
(-0.0126119 -0.00750238 0)
(-0.0111524 -0.00711113 0)
(-0.00976339 -0.00668187 0)
(-0.00845112 -0.00621719 0)
(-0.00722156 -0.00572031 0)
(-0.00608004 -0.00519523 0)
(-0.00503122 -0.00464683 0)
(-0.00407897 -0.00408104 0)
(-0.0032263 -0.00350501 0)
(-0.00247522 -0.00292732 0)
(-0.00182672 -0.00235826 0)
(-0.00128065 -0.00181008 0)
(-0.000835715 -0.0012974 0)
(-0.000489238 -0.000837551 0)
(-0.00023696 -0.000450968 0)
(-7.62664e-05 -0.000161617 0)
(-9.39562e-06 8.34471e-07 0)
(-1.3731e-05 6.34173e-05 0)
(-0.000103846 0.000355352 0)
(-0.000313289 0.000774126 0)
(-0.000633619 0.00128885 0)
(-0.00106365 0.00187429 0)
(-0.00160526 0.00250881 0)
(-0.00225892 0.00317398 0)
(-0.00302393 0.00385422 0)
(-0.00389865 0.0045365 0)
(-0.0048806 0.00520993 0)
(-0.00596637 0.00586546 0)
(-0.00715177 0.00649566 0)
(-0.00843189 0.00709442 0)
(-0.00980116 0.00765684 0)
(-0.0112535 0.00817898 0)
(-0.0127822 0.00865778 0)
(-0.0143804 0.00909087 0)
(-0.0160407 0.00947654 0)
(-0.0177555 0.00981357 0)
(-0.0195172 0.0101012 0)
(-0.0213178 0.0103391 0)
(-0.0231495 0.0105273 0)
(-0.0250042 0.0106659 0)
(-0.026874 0.0107555 0)
(-0.028751 0.0107969 0)
(-0.0306275 0.0107908 0)
(-0.0324958 0.0107384 0)
(-0.0343484 0.0106408 0)
(-0.036178 0.0104993 0)
(-0.0379774 0.0103153 0)
(-0.0397397 0.0100904 0)
(-0.0414583 0.009826 0)
(-0.0431268 0.00952379 0)
(-0.0447389 0.00918545 0)
(-0.0462888 0.00881269 0)
(-0.0477709 0.00840729 0)
(-0.0491798 0.00797105 0)
(-0.0505106 0.00750582 0)
(-0.0517585 0.00701348 0)
(-0.0529192 0.00649594 0)
(-0.0539886 0.00595514 0)
(-0.0549629 0.00539304 0)
(-0.0558387 0.00481163 0)
(-0.056613 0.00421294 0)
(-0.057283 0.00359901 0)
(-0.0578464 0.00297192 0)
(-0.0583011 0.00233377 0)
(-0.0586455 0.00168668 0)
(-0.0588782 0.00103281 0)
(-0.0589984 0.000374325 0)
(-0.0590054 -0.000286558 0)
(-0.0588991 -0.000947615 0)
(-0.0586796 -0.00160659 0)
(-0.0583474 -0.00226122 0)
(-0.0579037 -0.00290921 0)
(-0.0573495 -0.00354824 0)
(-0.0566868 -0.00417599 0)
(-0.0559176 -0.00479013 0)
(-0.0550443 -0.00538831 0)
(-0.0540699 -0.00596818 0)
(-0.0529977 -0.0065274 0)
(-0.0518313 -0.00706363 0)
(-0.0505748 -0.00757457 0)
(-0.0492325 -0.00805791 0)
(-0.0478093 -0.00851139 0)