/*--------------------------------*- C++ -*----------------------------------*\
| =========                 |                                                 |
| \\      /  F ield         | OpenFOAM: The Open Source CFD Toolbox           |
|  \\    /   O peration     | Version:  2212                                  |
|   \\  /    A nd           | Website:  www.openfoam.com                      |
|    \\/     M anipulation  |                                                 |
\*---------------------------------------------------------------------------*/
FoamFile
{
    version     2.0;
    format      ascii;
    arch        "LSB;label=32;scalar=64";
    class       surfaceScalarField;
    location    "0.0305";
    object      phi_0;
}
// * * * * * * * * * * * * * * * * * * * * * * * * * * * * * * * * * * * * * //

dimensions      [0 3 -1 0 0 0 0];

oriented        oriented;

internalField   nonuniform List<scalar> 
19800
(
6.07683e-11
-6.07188e-11
1.89481e-10
-1.28731e-10
3.16295e-10
-1.26807e-10
4.00729e-10
-8.44397e-11
4.19967e-10
-1.92327e-11
3.6144e-10
5.85183e-11
2.19445e-10
1.42e-10
-7.33479e-12
2.26774e-10
-3.17402e-10
3.10078e-10
-7.07593e-10
3.90197e-10
-1.17361e-09
4.66013e-10
-1.71047e-09
5.36875e-10
-2.31283e-09
6.02362e-10
-2.97506e-09
6.62241e-10
-3.69146e-09
7.16409e-10
-4.45627e-09
7.64797e-10
-5.26374e-09
8.07475e-10
-6.10826e-09
8.44518e-10
-6.98427e-09
8.76017e-10
-7.88637e-09
9.02102e-10
-8.80932e-09
9.22942e-10
-9.74802e-09
9.38683e-10
-1.06975e-08
9.49521e-10
-1.16532e-08
9.55634e-10
-1.26104e-08
9.57198e-10
-1.35648e-08
9.54398e-10
-1.45122e-08
9.47428e-10
-1.54487e-08
9.36464e-10
-1.63704e-08
9.21691e-10
-1.72737e-08
9.03291e-10
-1.81551e-08
8.81449e-10
-1.90114e-08
8.56336e-10
-1.98396e-08
8.28128e-10
-2.06366e-08
7.97021e-10
-2.13998e-08
7.63193e-10
-2.21266e-08
7.26808e-10
-2.28146e-08
6.88021e-10
-2.34616e-08
6.4699e-10
-2.40655e-08
6.03885e-10
-2.46243e-08
5.58859e-10
-2.51364e-08
5.12069e-10
-2.56001e-08
4.63675e-10
-2.60139e-08
4.13836e-10
-2.63766e-08
3.62709e-10
-2.66871e-08
3.1044e-10
-2.69443e-08
2.57171e-10
-2.71473e-08
2.03052e-10
-2.72955e-08
1.48242e-10
-2.73884e-08
9.29015e-11
-2.74256e-08
3.71702e-11
-2.74068e-08
-1.88077e-11
-2.73319e-08
-7.48519e-11
-2.72012e-08
-1.30798e-10
-2.70147e-08
-1.86494e-10
-2.67729e-08
-2.41759e-10
-2.64765e-08
-2.96438e-10
-2.61261e-08
-3.50385e-10
-2.57227e-08
-4.03401e-10
-2.52674e-08
-4.55275e-10
-2.47616e-08
-5.05846e-10
-2.42067e-08
-5.54932e-10
-2.36043e-08
-6.02312e-10
-2.29565e-08
-6.478e-10
-2.22653e-08
-6.91227e-10
-2.15329e-08
-7.32379e-10
-2.07619e-08
-7.71025e-10
-1.99549e-08
-8.06975e-10
-1.91149e-08
-8.40038e-10
-1.82449e-08
-8.69992e-10
-1.73483e-08
-8.96617e-10
-1.64286e-08
-9.19723e-10
-1.54895e-08
-9.39116e-10
-1.45349e-08
-9.54577e-10
-1.3569e-08
-9.65886e-10
-1.25962e-08
-9.72852e-10
-1.16209e-08
-9.75302e-10
-1.06478e-08
-9.73062e-10
-9.68184e-09
-9.65954e-10
-8.72804e-09
-9.53807e-10
-7.79159e-09
-9.36462e-10
-6.87783e-09
-9.13766e-10
-5.99225e-09
-8.85576e-10
-5.14047e-09
-8.51783e-10
-4.32815e-09
-8.12319e-10
-3.561e-09
-7.67141e-10
-2.84478e-09
-7.1622e-10
-2.18521e-09
-6.59576e-10
-1.5879e-09
-5.97308e-10
-1.05828e-09
-5.29615e-10
-6.01466e-10
-4.56804e-10
-2.22133e-10
-3.79333e-10
7.5778e-11
-2.97909e-10
2.89432e-10
-2.13647e-10
4.1771e-10
-1.28276e-10
4.62221e-10
-4.45162e-11
4.28929e-10
3.32919e-11
3.3082e-10
9.8119e-11
1.92616e-10
1.38211e-10
5.93338e-11
1.33281e-10
5.9337e-11
1.35573e-10
-1.96312e-10
3.47708e-10
-3.40862e-10
5.19409e-10
-2.98516e-10
5.75919e-10
-1.40958e-10
4.67296e-10
8.93896e-11
1.62814e-10
3.63008e-10
-3.54015e-10
6.58831e-10
-1.08947e-09
9.62235e-10
-2.04271e-09
1.26331e-09
-3.20784e-09
1.55532e-09
-4.57559e-09
1.83376e-09
-6.13437e-09
2.09563e-09
-7.87096e-09
2.33895e-09
-9.7712e-09
2.56247e-09
-1.18202e-08
2.76546e-09
-1.4003e-08
2.94752e-09
-1.63041e-08
3.10859e-09
-1.87083e-08
3.24876e-09
-2.12006e-08
3.36833e-09
-2.37662e-08
3.46765e-09
-2.63904e-08
3.54721e-09
-2.90592e-08
3.60751e-09
-3.17589e-08
3.64919e-09
-3.44761e-08
3.67286e-09
-3.71981e-08
3.67915e-09
-3.99124e-08
3.66876e-09
-4.26073e-08
3.64236e-09
-4.52715e-08
3.60062e-09
-4.7894e-08
3.54423e-09
-5.04646e-08
3.47388e-09
-5.29735e-08
3.39027e-09
-5.54112e-08
3.29406e-09
-5.7769e-08
3.18592e-09
-6.00385e-08
3.06656e-09
-6.22119e-08
2.93662e-09
-6.42819e-08
2.79676e-09
-6.62415e-08
2.64761e-09
-6.80843e-08
2.4898e-09
-6.98044e-08
2.32397e-09
-7.13962e-08
2.15071e-09
-7.28548e-08
1.97063e-09
-7.41754e-08
1.78434e-09
-7.53541e-08
1.59245e-09
-7.63869e-08
1.39555e-09
-7.72707e-08
1.19423e-09
-7.80026e-08
9.89056e-10
-7.85801e-08
7.80629e-10
-7.90014e-08
5.69545e-10
-7.9265e-08
3.56403e-10
-7.93696e-08
1.41799e-10
-7.93147e-08
-7.36752e-11
-7.91002e-08
-2.89403e-10
-7.87262e-08
-5.04739e-10
-7.81937e-08
-7.19056e-10
-7.75037e-08
-9.31729e-10
-7.66581e-08
-1.14209e-09
-7.5659e-08
-1.34947e-09
-7.45092e-08
-1.55319e-09
-7.3212e-08
-1.75252e-09
-7.17711e-08
-1.94677e-09
-7.01908e-08
-2.1352e-09
-6.8476e-08
-2.3171e-09
-6.66321e-08
-2.49171e-09
-6.46651e-08
-2.65825e-09
-6.25815e-08
-2.81597e-09
-6.03884e-08
-2.96409e-09
-5.80936e-08
-3.10181e-09
-5.57053e-08
-3.22834e-09
-5.32324e-08
-3.34292e-09
-5.06843e-08
-3.44473e-09
-4.8071e-08
-3.533e-09
-4.54032e-08
-3.60696e-09
-4.26919e-08
-3.66583e-09
-3.9949e-08
-3.70885e-09
-3.71865e-08
-3.73529e-09
-3.44174e-08
-3.74447e-09
-3.16547e-08
-3.73573e-09
-2.89122e-08
-3.70842e-09
-2.62041e-08
-3.66197e-09
-2.35447e-08
-3.59582e-09
-2.0949e-08
-3.50948e-09
-1.84321e-08
-3.40252e-09
-1.60092e-08
-3.27465e-09
-1.36959e-08
-3.12569e-09
-1.15074e-08
-2.95556e-09
-9.45929e-09
-2.76436e-09
-7.56645e-09
-2.5524e-09
-5.84344e-09
-2.32032e-09
-4.30396e-09
-2.0691e-09
-2.96054e-09
-1.80023e-09
-1.82395e-09
-1.51592e-09
-9.02462e-10
-1.21939e-09
-2.00796e-10
-9.15317e-10
2.81418e-10
-6.10501e-10
5.51826e-10
-3.14927e-10
6.28502e-10
-4.33753e-11
5.44375e-10
1.82248e-10
3.5284e-10
3.29739e-10
1.33329e-10
3.528e-10
1.92666e-10
1.40806e-10
-3.37112e-10
3.24258e-10
-5.24344e-10
4.09752e-10
-3.84006e-10
3.05785e-10
-3.69911e-11
-5.07598e-11
4.45939e-10
-7.00962e-10
1.01321e-09
-1.66839e-09
1.62627e-09
-2.96338e-09
2.25723e-09
-4.58629e-09
2.88622e-09
-6.53016e-09
3.4992e-09
-8.78268e-09
4.08629e-09
-1.13277e-08
4.64065e-09
-1.41463e-08
5.15758e-09
-1.72178e-08
5.63393e-09
-2.052e-08
6.06772e-09
-2.40303e-08
6.45778e-09
-2.77253e-08
6.80359e-09
-3.15817e-08
7.10517e-09
-3.55762e-08
7.36283e-09
-3.96858e-08
7.57723e-09
-4.38878e-08
7.74921e-09
-4.81601e-08
7.8798e-09
-5.24811e-08
7.97014e-09
-5.68297e-08
8.0215e-09
-6.11858e-08
8.0352e-09
-6.55296e-08
8.01264e-09
-6.98425e-08
7.95523e-09
-7.41063e-08
7.86441e-09
-7.83037e-08
7.74164e-09
-8.24182e-08
7.58841e-09
-8.64341e-08
7.40617e-09
-9.03365e-08
7.19639e-09
-9.41111e-08
6.96055e-09
-9.77446e-08
6.7001e-09
-1.01224e-07
6.41648e-09
-1.04539e-07
6.11109e-09
-1.07677e-07
5.78533e-09
-1.10627e-07
5.44059e-09
-1.13382e-07
5.07824e-09
-1.15931e-07
4.69961e-09
-1.18266e-07
4.30605e-09
-1.2038e-07
3.89886e-09
-1.22267e-07
3.47938e-09
-1.23921e-07
3.04891e-09
-1.25335e-07
2.60875e-09
-1.26506e-07
2.16019e-09
-1.2743e-07
1.7045e-09
-1.28104e-07
1.24302e-09
-1.28524e-07
7.77052e-10
-1.2869e-07
3.07899e-10
-1.28601e-07
-1.63094e-10
-1.28256e-07
-6.34566e-10
-1.27656e-07
-1.10515e-09
-1.26801e-07
-1.57346e-09
-1.25695e-07
-2.03807e-09
-1.24339e-07
-2.49756e-09
-1.22738e-07
-2.95046e-09
-1.20896e-07
-3.39524e-09
-1.18818e-07
-3.83038e-09
-1.16511e-07
-4.25433e-09
-1.13981e-07
-4.66551e-09
-1.11235e-07
-5.06231e-09
-1.08284e-07
-5.4431e-09
-1.05136e-07
-5.80624e-09
-1.01802e-07
-6.15003e-09
-9.82932e-08
-6.47278e-09
-9.46222e-08
-6.77281e-09
-9.08022e-08
-7.0484e-09
-8.68473e-08
-7.29783e-09
-8.27726e-08
-7.51942e-09
-7.85941e-08
-7.71147e-09
-7.43288e-08
-7.87232e-09
-6.99943e-08
-8.00032e-09
-6.56092e-08
-8.09388e-09
-6.11931e-08
-8.15144e-09
-5.6766e-08
-8.17154e-09
-5.2349e-08
-8.15278e-09
-4.79635e-08
-8.09385e-09
-4.3632e-08
-7.99352e-09
-3.93771e-08
-7.85073e-09
-3.5222e-08
-7.66453e-09
-3.11904e-08
-7.43419e-09
-2.73058e-08
-7.15918e-09
-2.35923e-08
-6.83925e-09
-2.00734e-08
-6.47449e-09
-1.67723e-08
-6.06537e-09
-1.37119e-08
-5.61288e-09
-1.09135e-08
-5.1187e-09
-8.39721e-09
-4.58535e-09
-6.18092e-09
-4.01651e-09
-4.27943e-09
-3.41741e-09
-2.70346e-09
-2.79538e-09
-1.45809e-09
-2.16069e-09
-5.40829e-10
-1.52776e-09
6.10161e-11
-9.16766e-10
3.73764e-10
-3.56126e-10
4.41664e-10
1.14335e-10
3.31736e-10
4.39667e-10
1.38836e-10
5.45708e-10
3.31495e-10
9.81131e-11
-4.35219e-10
1.71674e-10
-5.97918e-10
7.70005e-11
-2.89333e-10
-2.83144e-10
3.23153e-10
-9.76947e-10
1.13974e-09
-2.04986e-09
2.08613e-09
-3.52901e-09
3.10542e-09
-5.42693e-09
4.15514e-09
-7.74474e-09
5.20403e-09
-1.04747e-08
6.22919e-09
-1.36025e-08
7.21406e-09
-1.71086e-08
8.14672e-09
-2.09697e-08
9.01871e-09
-2.516e-08
9.82423e-09
-2.96516e-08
1.05593e-08
-3.44155e-08
1.12217e-08
-3.94218e-08
1.18099e-08
-4.46402e-08
1.23236e-08
-5.00404e-08
1.27631e-08
-5.55923e-08
1.31291e-08
-6.1266e-08
1.3423e-08
-6.70324e-08
1.36462e-08
-7.28629e-08
1.38006e-08
-7.87295e-08
1.38881e-08
-8.46053e-08
1.3911e-08
-9.04641e-08
1.38715e-08
-9.62808e-08
1.37719e-08
-1.02031e-07
1.36147e-08
-1.07692e-07
1.34024e-08
-1.13241e-07
1.31374e-08
-1.18657e-07
1.28222e-08
-1.2392e-07
1.24594e-08
-1.29011e-07
1.20514e-08
-1.33911e-07
1.16008e-08
-1.38605e-07
1.111e-08
-1.43075e-07
1.05814e-08
-1.47307e-07
1.00175e-08
-1.51287e-07
9.42063e-09
-1.55002e-07
8.79317e-09
-1.5844e-07
8.13747e-09
-1.6159e-07
7.45583e-09
-1.64442e-07
6.75055e-09
-1.66986e-07
6.02394e-09
-1.69216e-07
5.27825e-09
-1.71123e-07
4.51573e-09
-1.72701e-07
3.73865e-09
-1.73946e-07
2.94928e-09
-1.74853e-07
2.14987e-09
-1.75418e-07
1.34271e-09
-1.75641e-07
5.30106e-10
-1.75518e-07
-2.85639e-10
-1.7505e-07
-1.10216e-09
-1.74239e-07
-1.91705e-09
-1.73084e-07
-2.72791e-09
-1.7159e-07
-3.53228e-09
-1.6976e-07
-4.32764e-09
-1.67599e-07
-5.11147e-09
-1.65113e-07
-5.88114e-09
-1.62309e-07
-6.63402e-09
-1.59196e-07
-7.36741e-09
-1.55783e-07
-8.07859e-09
-1.52081e-07
-8.76477e-09
-1.48101e-07
-9.42314e-09
-1.43856e-07
-1.00508e-08
-1.39361e-07
-1.0645e-08
-1.34631e-07
-1.12027e-08
-1.29683e-07
-1.1721e-08
-1.24534e-07
-1.21971e-08
-1.19204e-07
-1.26279e-08
-1.13713e-07
-1.30105e-08
-1.08082e-07
-1.33422e-08
-1.02335e-07
-1.362e-08
-9.64939e-08
-1.38412e-08
-9.05848e-08
-1.4003e-08
-8.46333e-08
-1.41029e-08
-7.86664e-08
-1.41384e-08
-7.2712e-08
-1.41072e-08
-6.67987e-08
-1.40071e-08
-6.0956e-08
-1.38362e-08
-5.52141e-08
-1.35927e-08
-4.96035e-08
-1.32752e-08
-4.41551e-08
-1.28826e-08
-3.89e-08
-1.24143e-08
-3.38692e-08
-1.18701e-08
-2.90933e-08
-1.12504e-08
-2.46023e-08
-1.05564e-08
-2.0425e-08
-9.79018e-09
-1.65886e-08
-8.95509e-09
-1.31181e-08
-8.05588e-09
-1.00353e-08
-7.09932e-09
-7.35793e-09
-6.09473e-09
-5.09845e-09
-5.05487e-09
-3.26208e-09
-3.99707e-09
-1.84494e-09
-2.94489e-09
-8.31457e-10
-1.93025e-09
-1.9115e-10
-9.96441e-10
1.25064e-10
-2.01879e-10
1.88982e-10
3.75762e-10
1.00209e-10
6.34476e-10
4.31699e-10
3.09384e-11
-4.66149e-10
-5.83021e-11
-5.08681e-10
-3.98998e-10
5.13703e-11
-1.08465e-09
1.0088e-09
-2.18216e-09
2.23726e-09
-3.73688e-09
3.64086e-09
-5.7763e-09
5.14484e-09
-8.31319e-09
6.69204e-09
-1.13484e-08
8.23924e-09
-1.48732e-08
9.754e-09
-1.88713e-08
1.12122e-08
-2.33205e-08
1.25959e-08
-2.81941e-08
1.38923e-08
-3.3462e-08
1.50921e-08
-3.90916e-08
1.6189e-08
-4.50487e-08
1.71787e-08
-5.12977e-08
1.80589e-08
-5.78026e-08
1.88285e-08
-6.4527e-08
1.94874e-08
-7.14345e-08
2.00367e-08
-7.84892e-08
2.04776e-08
-8.56554e-08
2.08125e-08
-9.28985e-08
2.10437e-08
-1.00184e-07
2.1174e-08
-1.0748e-07
2.12066e-08
-1.14753e-07
2.11448e-08
-1.21973e-07
2.0992e-08
-1.29111e-07
2.07518e-08
-1.36136e-07
2.04278e-08
-1.43022e-07
2.00238e-08
-1.49744e-07
1.95435e-08
-1.56275e-07
1.89906e-08
-1.62592e-07
1.83689e-08
-1.68674e-07
1.76823e-08
-1.74498e-07
1.69343e-08
-1.80045e-07
1.61287e-08
-1.85297e-07
1.52692e-08
-1.90236e-07
1.43593e-08
-1.94845e-07
1.34028e-08
-1.99111e-07
1.24031e-08
-2.03019e-07
1.13639e-08
-2.06557e-07
1.02886e-08
-2.09714e-07
9.18063e-09
-2.12479e-07
8.04359e-09
-2.14844e-07
6.88088e-09
-2.16802e-07
5.69596e-09
-2.18345e-07
4.4923e-09
-2.19468e-07
3.27339e-09
-2.20168e-07
2.04272e-09
-2.20442e-07
8.03793e-10
-2.20288e-07
-4.3982e-10
-2.19705e-07
-1.68452e-09
-2.18696e-07
-2.92666e-09
-2.17261e-07
-4.16252e-09
-2.15405e-07
-5.38837e-09
-2.13132e-07
-6.60036e-09
-2.10449e-07
-7.7946e-09
-2.07363e-07
-8.96714e-09
-2.03883e-07
-1.0114e-08
-2.0002e-07
-1.1231e-08
-1.95784e-07
-1.2314e-08
-1.9119e-07
-1.33587e-08
-1.86252e-07
-1.43611e-08
-1.80987e-07
-1.53166e-08
-1.75411e-07
-1.62209e-08
-1.69544e-07
-1.70696e-08
-1.63407e-07
-1.78584e-08
-1.57021e-07
-1.85827e-08
-1.5041e-07
-1.92383e-08
-1.436e-07
-1.98206e-08
-1.36617e-07
-2.03254e-08
-1.29489e-07
-2.07485e-08
-1.22244e-07
-2.10857e-08
-1.14914e-07
-2.13329e-08
-1.07531e-07
-2.14864e-08
-1.00127e-07
-2.15425e-08
-9.27363e-08
-2.14977e-08
-8.53945e-08
-2.1349e-08
-7.81371e-08
-2.10935e-08
-7.10008e-08
-2.07289e-08
-6.40227e-08
-2.02533e-08
-5.72402e-08
-1.96651e-08
-5.06906e-08
-1.89639e-08
-4.44112e-08
-1.81495e-08
-3.84385e-08
-1.72231e-08
-3.2808e-08
-1.61868e-08
-2.75539e-08
-1.50443e-08
-2.27079e-08
-1.38011e-08
-1.82989e-08
-1.24648e-08
-1.43522e-08
-1.10461e-08
-1.08878e-08
-9.55907e-09
-7.91977e-09
-8.02294e-09
-5.45388e-09
-6.46297e-09
-3.48613e-09
-4.91263e-09
-2.00026e-09
-3.41612e-09
-9.65092e-10
-2.03161e-09
-3.31477e-10
-8.35479e-10
-2.90974e-11
7.33923e-11
3.77873e-11
5.67581e-10
4.69489e-10
-4.76552e-11
-4.185e-10
-3.3107e-10
-2.25265e-10
-9.60687e-10
6.80987e-10
-2.01952e-09
2.06764e-09
-3.56824e-09
3.78598e-09
-5.64839e-09
5.72101e-09
-8.28506e-09
7.78151e-09
-1.14894e-08
9.89633e-09
-1.52606e-08
1.20105e-08
-1.95884e-08
1.40818e-08
-2.44543e-08
1.60781e-08
-2.98337e-08
1.79753e-08
-3.56967e-08
1.97553e-08
-4.20096e-08
2.14051e-08
-4.87359e-08
2.29153e-08
-5.58368e-08
2.42796e-08
-6.3272e-08
2.54941e-08
-7.10004e-08
2.65569e-08
-7.89804e-08
2.74674e-08
-8.71701e-08
2.82264e-08
-9.55282e-08
2.88357e-08
-1.04014e-07
2.92979e-08
-1.12586e-07
2.9616e-08
-1.21206e-07
2.97938e-08
-1.29834e-07
2.98354e-08
-1.38435e-07
2.97451e-08
-1.46971e-07
2.95278e-08
-1.55407e-07
2.91882e-08
-1.6371e-07
2.87312e-08
-1.71849e-07
2.81621e-08
-1.79791e-07
2.7486e-08
-1.87509e-07
2.67081e-08
-1.94973e-07
2.58336e-08
-2.02159e-07
2.48677e-08
-2.0904e-07
2.38156e-08
-2.15594e-07
2.26825e-08
-2.21798e-07
2.14735e-08
-2.27633e-07
2.01938e-08
-2.33078e-07
1.88483e-08
-2.38117e-07
1.74421e-08
-2.42733e-07
1.59802e-08
-2.46912e-07
1.44674e-08
-2.50641e-07
1.29089e-08
-2.53906e-07
1.13093e-08
-2.56699e-07
9.67361e-09
-2.5901e-07
8.00672e-09
-2.60831e-07
6.31351e-09
-2.62156e-07
4.59889e-09
-2.62982e-07
2.86777e-09
-2.63303e-07
1.12514e-09
-2.63119e-07
-6.23974e-10
-2.62429e-07
-2.3745e-09
-2.61234e-07
-4.1213e-09
-2.59537e-07
-5.85916e-09
-2.57343e-07
-7.58276e-09
-2.54657e-07
-9.28673e-09
-2.51486e-07
-1.09656e-08
-2.47839e-07
-1.26138e-08
-2.43727e-07
-1.42257e-08
-2.39163e-07
-1.57955e-08
-2.34159e-07
-1.73173e-08
-2.28733e-07
-1.87854e-08
-2.229e-07
-2.01936e-08
-2.16681e-07
-2.1536e-08
-2.10095e-07
-2.28064e-08
-2.03166e-07
-2.39987e-08
-1.95918e-07
-2.51067e-08
-1.88376e-07
-2.61243e-08
-1.80569e-07
-2.70453e-08
-1.72526e-07
-2.78637e-08
-1.64278e-07
-2.85736e-08
-1.55858e-07
-2.91689e-08
-1.47299e-07
-2.96441e-08
-1.38638e-07
-2.99936e-08
-1.29913e-07
-3.02121e-08
-1.2116e-07
-3.02948e-08
-1.12421e-07
-3.02369e-08
-1.03736e-07
-3.00343e-08
-9.5146e-08
-2.96833e-08
-8.66941e-08
-2.91809e-08
-7.84228e-08
-2.85245e-08
-7.03753e-08
-2.77126e-08
-6.25946e-08
-2.67446e-08
-5.51231e-08
-2.5621e-08
-4.80026e-08
-2.43436e-08
-4.12733e-08
-2.2916e-08
-3.49739e-08
-2.13438e-08
-2.914e-08
-1.9635e-08
-2.38041e-08
-1.78007e-08
-1.89943e-08
-1.58559e-08
-1.4733e-08
-1.38203e-08
-1.1036e-08
-1.17199e-08
-7.91063e-09
-9.58837e-09
-5.35397e-09
-7.46928e-09
-3.35118e-09
-5.4189e-09
-1.8732e-09
-3.5096e-09
-8.7452e-10
-1.83415e-09
-2.90947e-10
-5.10184e-10
-3.68415e-11
3.13474e-10
4.3265e-10
-1.30822e-10
-2.87671e-10
-6.25133e-10
2.69045e-10
-1.56944e-09
1.62531e-09
-3.03213e-09
3.53032e-09
-5.06404e-09
5.8179e-09
-7.70008e-09
8.35705e-09
-1.09606e-08
1.10421e-08
-1.48534e-08
1.37891e-08
-1.93749e-08
1.65319e-08
-2.45121e-08
1.9219e-08
-3.02443e-08
2.18103e-08
-3.65439e-08
2.42749e-08
-4.33782e-08
2.65896e-08
-5.07103e-08
2.87371e-08
-5.84998e-08
3.07048e-08
-6.67042e-08
3.2484e-08
-7.5279e-08
3.40689e-08
-8.41785e-08
3.54564e-08
-9.33566e-08
3.66455e-08
-1.02767e-07
3.76366e-08
-1.12363e-07
3.84316e-08
-1.22098e-07
3.90335e-08
-1.31928e-07
3.94461e-08
-1.41809e-07
3.96739e-08
-1.51695e-07
3.97222e-08
-1.61547e-07
3.95966e-08
-1.71322e-07
3.93029e-08
-1.80981e-07
3.88475e-08
-1.90487e-07
3.82368e-08
-1.99802e-07
3.74774e-08
-2.08892e-07
3.65762e-08
-2.17724e-07
3.55398e-08
-2.26266e-07
3.43752e-08
-2.34487e-07
3.30893e-08
-2.42361e-07
3.16887e-08
-2.49859e-07
3.01805e-08
-2.56956e-07
2.85714e-08
-2.63631e-07
2.68681e-08
-2.6986e-07
2.50774e-08
-2.75624e-07
2.32059e-08
-2.80904e-07
2.12602e-08
-2.85683e-07
1.92469e-08
-2.89947e-07
1.71726e-08
-2.93681e-07
1.50437e-08
-2.96875e-07
1.28669e-08
-2.99516e-07
1.06485e-08
-3.01598e-07
8.39521e-09
-3.03113e-07
6.11346e-09
-3.04055e-07
3.80987e-09
-3.04421e-07
1.49105e-09
-3.04208e-07
-8.36288e-10
-3.03417e-07
-3.16537e-09
-3.02049e-07
-5.48934e-09
-3.00107e-07
-7.80126e-09
-2.97596e-07
-1.00941e-08
-2.94522e-07
-1.23606e-08
-2.90894e-07
-1.45936e-08
-2.86722e-07
-1.67856e-08
-2.82019e-07
-1.89292e-08
-2.76798e-07
-2.10167e-08
-2.71075e-07
-2.30403e-08
-2.64868e-07
-2.49923e-08
-2.58197e-07
-2.68646e-08
-2.51083e-07
-2.86494e-08
-2.43551e-07
-3.03384e-08
-2.35626e-07
-3.19237e-08
-2.27336e-07
-3.3397e-08
-2.1871e-07
-3.47503e-08
-2.0978e-07
-3.59755e-08
-2.00579e-07
-3.70648e-08
-1.91142e-07
-3.80101e-08
-1.81508e-07
-3.88038e-08
-1.71713e-07
-3.94386e-08
-1.61799e-07
-3.99072e-08
-1.51809e-07
-4.02028e-08
-1.41784e-07
-4.03191e-08
-1.31771e-07
-4.02501e-08
-1.21815e-07
-3.99906e-08
-1.11963e-07
-3.95358e-08
-1.02261e-07
-3.88821e-08
-9.27592e-08
-3.80266e-08
-8.35045e-08
-3.69674e-08
-7.45448e-08
-3.57042e-08
-6.59276e-08
-3.42382e-08
-5.76991e-08
-3.25722e-08
-4.99037e-08
-3.07113e-08
-4.2584e-08
-2.86635e-08
-3.57792e-08
-2.64397e-08
-2.95252e-08
-2.40548e-08
-2.38526e-08
-2.15284e-08
-1.87867e-08
-1.88862e-08
-1.43454e-08
-1.61612e-08
-1.05384e-08
-1.33954e-08
-7.36527e-09
-1.06424e-08
-4.81446e-09
-7.96971e-09
-2.86129e-09
-5.46277e-09
-1.46667e-09
-3.22877e-09
-5.75797e-10
-1.40107e-09
-1.16971e-10
-1.45346e-10
3.15674e-10
-2.14885e-10
-7.27908e-11
-9.27389e-10
9.81556e-10
-2.19994e-09
2.89786e-09
-4.08424e-09
5.41461e-09
-6.61915e-09
8.35282e-09
-9.83078e-09
1.15687e-08
-1.3733e-08
1.49443e-08
-1.83286e-08
1.83846e-08
-2.361e-08
2.18134e-08
-2.9561e-08
2.517e-08
-3.61576e-08
2.84069e-08
-4.33694e-08
3.14867e-08
-5.11605e-08
3.43807e-08
-5.94907e-08
3.70674e-08
-6.83164e-08
3.95305e-08
-7.75913e-08
4.17589e-08
-8.72672e-08
4.37448e-08
-9.72945e-08
4.54837e-08
-1.07623e-07
4.69738e-08
-1.18201e-07
4.82152e-08
-1.2898e-07
4.92098e-08
-1.39907e-07
4.99609e-08
-1.50934e-07
5.04731e-08
-1.62012e-07
5.07517e-08
-1.73092e-07
5.08029e-08
-1.8413e-07
5.06337e-08
-1.95078e-07
5.02513e-08
-2.05894e-07
4.96636e-08
-2.16536e-07
4.88785e-08
-2.26963e-07
4.79043e-08
-2.37136e-07
4.67495e-08
-2.47019e-07
4.54227e-08
-2.56576e-07
4.39325e-08
-2.65774e-07
4.22875e-08
-2.74582e-07
4.04964e-08
-2.82969e-07
3.85679e-08
-2.90909e-07
3.65106e-08
-2.98374e-07
3.43331e-08
-3.0534e-07
3.2044e-08
-3.11786e-07
2.96517e-08
-3.1769e-07
2.71646e-08
-3.23035e-07
2.45913e-08
-3.27802e-07
2.194e-08
-3.31978e-07
1.92191e-08
-3.35548e-07
1.64369e-08
-3.38501e-07
1.36017e-08
-3.40828e-07
1.0722e-08
-3.4252e-07
7.80599e-09
-3.43572e-07
4.86219e-09
-3.4398e-07
1.89907e-09
-3.43742e-07
-1.0748e-09
-3.42857e-07
-4.05076e-09
-3.41326e-07
-7.02006e-09
-3.39153e-07
-9.97381e-09
-3.36344e-07
-1.2903e-08
-3.32907e-07
-1.57984e-08
-3.28849e-07
-1.86509e-08
-3.24184e-07
-2.14509e-08
-3.18924e-07
-2.41889e-08
-3.13086e-07
-2.68551e-08
-3.06687e-07
-2.94397e-08
-2.99746e-07
-3.19328e-08
-2.92287e-07
-3.43242e-08
-2.84332e-07
-3.66037e-08
-2.75909e-07
-3.87612e-08
-2.67047e-07
-4.07863e-08
-2.57775e-07
-4.26687e-08
-2.48127e-07
-4.43983e-08
-2.38138e-07
-4.59647e-08
-2.27845e-07
-4.73581e-08
-2.17286e-07
-4.85684e-08
-2.06504e-07
-4.95861e-08
-1.95541e-07
-5.04019e-08
-1.84441e-07
-5.10067e-08
-1.73252e-07
-5.13921e-08
-1.62021e-07
-5.15503e-08
-1.50797e-07
-5.14738e-08
-1.39631e-07
-5.11564e-08
-1.28575e-07
-5.05923e-08
-1.1768e-07
-4.97771e-08
-1.06999e-07
-4.87075e-08
-9.65847e-08
-4.73817e-08
-8.64892e-08
-4.57997e-08
-7.67642e-08
-4.39632e-08
-6.74599e-08
-4.18765e-08
-5.86247e-08
-3.95465e-08
-5.03047e-08
-3.69836e-08
-4.25427e-08
-3.42018e-08
-3.53774e-08
-3.122e-08
-2.88429e-08
-2.8063e-08
-2.2967e-08
-2.47621e-08
-1.77707e-08
-2.13575e-08
-1.32668e-08
-1.78993e-08
-9.45888e-09
-1.44503e-08
-6.33985e-09
-1.10887e-08
-3.89131e-09
-7.9113e-09
-2.08258e-09
-5.03751e-09
-8.7031e-10
-2.61333e-09
-1.98675e-10
-8.1698e-10
1.16992e-10
-2.97791e-10
2.25006e-10
-1.22984e-09
1.91359e-09
-2.83579e-09
4.50382e-09
-5.15011e-09
7.72892e-09
-8.19847e-09
1.14012e-08
-1.19968e-08
1.5367e-08
-1.65512e-08
1.94987e-08
-2.18581e-08
2.36916e-08
-2.79052e-08
2.78605e-08
-3.4672e-08
3.19368e-08
-4.21306e-08
3.58656e-08
-5.02474e-08
3.96034e-08
-5.89831e-08
4.31164e-08
-6.82943e-08
4.63785e-08
-7.81339e-08
4.93702e-08
-8.84524e-08
5.20773e-08
-9.91978e-08
5.44902e-08
-1.10317e-07
5.66029e-08
-1.21756e-07
5.84126e-08
-1.33459e-07
5.99189e-08
-1.45374e-07
6.11239e-08
-1.57444e-07
6.2031e-08
-1.69616e-07
6.26454e-08
-1.81838e-07
6.29735e-08
-1.94057e-07
6.30225e-08
-2.06224e-07
6.28005e-08
-2.18289e-07
6.23164e-08
-2.30205e-07
6.15794e-08
-2.41926e-07
6.05993e-08
-2.53408e-07
5.93862e-08
-2.64608e-07
5.79502e-08
-2.75487e-07
5.63018e-08
-2.86007e-07
5.44516e-08
-2.96129e-07
5.24103e-08
-3.05821e-07
5.01884e-08
-3.1505e-07
4.77965e-08
-3.23785e-07
4.52454e-08
-3.31997e-07
4.25456e-08
-3.39661e-07
3.97076e-08
-3.46751e-07
3.6742e-08
-3.53246e-07
3.36592e-08
-3.59124e-07
3.04695e-08
-3.64367e-07
2.71833e-08
-3.68959e-07
2.3811e-08
-3.72885e-07
2.03629e-08
-3.76133e-07
1.68492e-08
-3.78691e-07
1.32805e-08
-3.80552e-07
9.66692e-09
-3.81709e-07
6.01906e-09
-3.82157e-07
2.3474e-09
-3.81895e-07
-1.33744e-09
-3.80921e-07
-5.02474e-09
-3.79237e-07
-8.70363e-09
-3.76848e-07
-1.23631e-08
-3.73759e-07
-1.5992e-08
-3.69978e-07
-1.9579e-08
-3.65516e-07
-2.31126e-08
-3.60386e-07
-2.65812e-08
-3.54602e-07
-2.99729e-08
-3.48181e-07
-3.32757e-08
-3.41144e-07
-3.64774e-08
-3.33511e-07
-3.95658e-08
-3.25307e-07
-4.25283e-08
-3.16558e-07
-4.53525e-08
-3.07293e-07
-4.80258e-08
-2.97544e-07
-5.05355e-08
-2.87344e-07
-5.2869e-08
-2.76728e-07
-5.50137e-08
-2.65736e-07
-5.69572e-08
-2.54407e-07
-5.8687e-08
-2.42784e-07
-6.01913e-08
-2.30912e-07
-6.14581e-08
-2.18837e-07
-6.24763e-08
-2.06609e-07
-6.32349e-08
-1.94278e-07
-6.37237e-08
-1.81895e-07
-6.39331e-08
-1.69514e-07
-6.38545e-08
-1.5719e-07
-6.34801e-08
-1.44979e-07
-6.28035e-08
-1.32937e-07
-6.18195e-08
-1.2112e-07
-6.05244e-08
-1.09585e-07
-5.89164e-08
-9.83891e-08
-5.69958e-08
-8.7587e-08
-5.47653e-08
-7.7233e-08
-5.22305e-08
-6.73791e-08
-4.94004e-08
-5.8075e-08
-4.62877e-08
-4.93667e-08
-4.291e-08
-4.12964e-08
-3.92903e-08
-3.39012e-08
-3.54582e-08
-2.72125e-08
-3.14509e-08
-2.12547e-08
-2.73153e-08
-1.60447e-08
-2.31093e-08
-1.15908e-08
-1.89042e-08
-7.89193e-09
-1.47876e-08
-4.93716e-09
-1.08661e-08
-2.70547e-09
-7.26919e-09
-1.16612e-09
-4.15267e-09
-2.79677e-10
-1.70343e-09
-1.62684e-10
-3.78482e-10
6.03493e-10
-1.52781e-09
3.0629e-09
-3.46669e-09
6.44272e-09
-6.21275e-09
1.0475e-08
-9.77806e-09
1.49665e-08
-1.41677e-08
1.97566e-08
-1.93789e-08
2.47099e-08
-2.54011e-08
2.97138e-08
-3.2216e-08
3.46754e-08
-3.97982e-08
3.9519e-08
-4.81158e-08
4.41831e-08
-5.71309e-08
4.86186e-08
-6.68009e-08
5.27864e-08
-7.70788e-08
5.66565e-08
-8.79143e-08
6.02057e-08
-9.92542e-08
6.34172e-08
-1.11043e-07
6.62793e-08
-1.23225e-07
6.87844e-08
-1.35741e-07
7.09289e-08
-1.48534e-07
7.27118e-08
-1.61545e-07
7.41351e-08
-1.74717e-07
7.52025e-08
-1.87991e-07
7.59199e-08
-2.01312e-07
7.62943e-08
-2.14624e-07
7.63343e-08
-2.27873e-07
7.60494e-08
-2.41006e-07
7.54497e-08
-2.53973e-07
7.45462e-08
-2.66724e-07
7.33504e-08
-2.79212e-07
7.18743e-08
-2.91392e-07
7.01299e-08
-3.0322e-07
6.81298e-08
-3.14655e-07
6.58864e-08
-3.25657e-07
6.34127e-08
-3.3619e-07
6.07212e-08
-3.46218e-07
5.78247e-08
-3.55709e-07
5.47361e-08
-3.64631e-07
5.1468e-08
-3.72957e-07
4.80332e-08
-3.80659e-07
4.44442e-08
-3.87713e-07
4.07137e-08
-3.94098e-07
3.68543e-08
-3.99793e-07
3.28783e-08
-4.04781e-07
2.87983e-08
-4.09045e-07
2.46269e-08
-4.12572e-07
2.03763e-08
-4.1535e-07
1.60593e-08
-4.17372e-07
1.16882e-08
-4.18628e-07
7.27583e-09
-4.19116e-07
2.83481e-09
-4.18831e-07
-1.62201e-09
-4.17774e-07
-6.08165e-09
-4.15947e-07
-1.0531e-08
-4.13353e-07
-1.49567e-08
-4.1e-07
-1.93454e-08
-4.05896e-07
-2.36834e-08
-4.01052e-07
-2.79567e-08
-3.95481e-07
-3.21514e-08
-3.89201e-07
-3.62531e-08
-3.82229e-07
-4.02474e-08
-3.74587e-07
-4.41197e-08
-3.66298e-07
-4.78551e-08
-3.57387e-07
-5.14386e-08
-3.47885e-07
-5.48552e-08
-3.37821e-07
-5.80898e-08
-3.27229e-07
-6.11271e-08
-3.16146e-07
-6.39521e-08
-3.0461e-07
-6.65496e-08
-2.92663e-07
-6.89048e-08
-2.80347e-07
-7.10029e-08
-2.67709e-07
-7.28295e-08
-2.54796e-07
-7.43707e-08
-2.41659e-07
-7.56129e-08
-2.28351e-07
-7.65434e-08
-2.14925e-07
-7.71499e-08
-2.01437e-07
-7.74212e-08
-1.87944e-07
-7.73473e-08
-1.74505e-07
-7.69191e-08
-1.61179e-07
-7.61291e-08
-1.48027e-07
-7.49715e-08
-1.35109e-07
-7.34422e-08
-1.22486e-07
-7.15395e-08
-1.10218e-07
-6.92641e-08
-9.83633e-08
-6.66197e-08
-8.69805e-08
-6.36133e-08
-7.6125e-08
-6.02559e-08
-6.58497e-08
-5.6563e-08
-5.62043e-08
-5.25554e-08
-4.72344e-08
-4.82602e-08
-3.89807e-08
-4.37119e-08
-3.14783e-08
-3.89533e-08
-2.4756e-08
-3.40376e-08
-1.88353e-08
-2.90299e-08
-1.37302e-08
-2.40093e-08
-9.44643e-09
-1.90714e-08
-5.98142e-09
-1.43311e-08
-3.32458e-09
-9.92602e-09
-1.45814e-09
-6.01911e-09
-3.58695e-10
-2.80289e-09
-5.21375e-10
-4.56456e-10
1.05995e-09
-1.81859e-09
4.42501e-09
-4.08639e-09
8.71051e-09
-7.26141e-09
1.365e-08
-1.13423e-08
1.90473e-08
-1.63229e-08
2.47372e-08
-2.21911e-08
3.05781e-08
-2.89287e-08
3.64514e-08
-3.65108e-08
4.22576e-08
-4.49066e-08
4.79147e-08
-5.40791e-08
5.33556e-08
-6.39863e-08
5.85258e-08
-7.45817e-08
6.33818e-08
-8.58145e-08
6.78893e-08
-9.76309e-08
7.20221e-08
-1.09974e-07
7.57606e-08
-1.22786e-07
7.9091e-08
-1.36006e-07
8.20044e-08
-1.49573e-07
8.44959e-08
-1.63425e-07
8.65644e-08
-1.77502e-07
8.82115e-08
-1.91741e-07
8.94413e-08
-2.06081e-07
9.02603e-08
-2.20463e-07
9.06766e-08
-2.34829e-07
9.06996e-08
-2.4912e-07
9.03403e-08
-2.6328e-07
8.96104e-08
-2.77257e-07
8.85227e-08
-2.90997e-07
8.70903e-08
-3.0445e-07
8.53272e-08
-3.17567e-07
8.32476e-08
-3.30303e-07
8.0866e-08
-3.42614e-07
7.81971e-08
-3.54457e-07
7.52559e-08
-3.65794e-07
7.20574e-08
-3.76585e-07
6.86165e-08
-3.86798e-07
6.49484e-08
-3.96398e-07
6.1068e-08
-4.05355e-07
5.69902e-08
-4.13641e-07
5.27301e-08
-4.21229e-07
4.83025e-08
-4.28097e-07
4.37223e-08
-4.34223e-07
3.90042e-08
-4.39588e-07
3.4163e-08
-4.44175e-07
2.92135e-08
-4.47969e-07
2.41705e-08
-4.50958e-07
1.90488e-08
-4.53133e-07
1.38633e-08
-4.54486e-07
8.62885e-09
-4.55012e-07
3.36066e-09
-4.54708e-07
-1.92613e-09
-4.53574e-07
-7.21614e-09
-4.51611e-07
-1.24938e-08
-4.48824e-07
-1.77435e-08
-4.4522e-07
-2.29491e-08
-4.40809e-07
-2.80946e-08
-4.35602e-07
-3.31635e-08
-4.29615e-07
-3.81391e-08
-4.22863e-07
-4.30047e-08
-4.15367e-07
-4.77431e-08
-4.0715e-07
-5.2337e-08
-3.98236e-07
-5.6769e-08
-3.88653e-07
-6.10214e-08
-3.78432e-07
-6.50763e-08
-3.67606e-07
-6.89161e-08
-3.5621e-07
-7.25227e-08
-3.44284e-07
-7.58785e-08
-3.31868e-07
-7.89656e-08
-3.19006e-07
-8.17666e-08
-3.05745e-07
-8.42642e-08
-2.92133e-07
-8.64415e-08
-2.78221e-07
-8.82822e-08
-2.64064e-07
-8.97706e-08
-2.49715e-07
-9.08916e-08
-2.35234e-07
-9.16312e-08
-2.20679e-07
-9.19764e-08
-2.06111e-07
-9.19155e-08
-1.91592e-07
-9.14382e-08
-1.77185e-07
-9.0536e-08
-1.62954e-07
-8.92023e-08
-1.48963e-07
-8.74328e-08
-1.35277e-07
-8.52256e-08
-1.21959e-07
-8.25821e-08
-1.09072e-07
-7.95069e-08
-9.6677e-08
-7.60084e-08
-8.48332e-08
-7.20997e-08
-7.35972e-08
-6.7799e-08
-6.30223e-08
-6.31303e-08
-5.31577e-08
-5.81248e-08
-4.40482e-08
-5.28213e-08
-3.57332e-08
-4.72683e-08
-2.8246e-08
-4.15248e-08
-2.16136e-08
-3.56622e-08
-1.58564e-08
-2.97666e-08
-1.09874e-08
-2.39404e-08
-7.01302e-09
-1.83055e-08
-3.93336e-09
-1.30057e-08
-1.74346e-09
-8.20902e-09
-4.35094e-10
-4.11125e-09
-9.56473e-10
-5.31517e-10
1.59148e-09
-2.1009e-09
5.99436e-09
-4.69142e-09
1.1301e-08
-8.28974e-09
1.72483e-08
-1.28815e-08
2.36391e-08
-1.84493e-08
3.0305e-08
-2.49717e-08
3.71005e-08
-3.24221e-08
4.39017e-08
-4.07687e-08
5.06042e-08
-4.99746e-08
5.71206e-08
-5.99976e-08
6.33786e-08
-7.0791e-08
6.93192e-08
-8.23039e-08
7.48947e-08
-9.44817e-08
8.00671e-08
-1.07267e-07
8.48071e-08
-1.20599e-07
8.90928e-08
-1.34416e-07
9.29083e-08
-1.48655e-07
9.62432e-08
-1.63251e-07
9.9092e-08
-1.7814e-07
1.01453e-07
-1.93255e-07
1.03327e-07
-2.08534e-07
1.0472e-07
-2.23911e-07
1.05637e-07
-2.39323e-07
1.06089e-07
-2.5471e-07
1.06086e-07
-2.70009e-07
1.0564e-07
-2.85163e-07
1.04765e-07
-3.00115e-07
1.03474e-07
-3.14809e-07
1.01784e-07
-3.29191e-07
9.971e-08
-3.43212e-07
9.72684e-08
-3.56822e-07
9.44761e-08
-3.69975e-07
9.13499e-08
-3.82626e-07
8.79072e-08
-3.94734e-07
8.41652e-08
-4.06259e-07
8.01413e-08
-4.17164e-07
7.5853e-08
-4.27413e-07
7.13177e-08
-4.36976e-07
6.65528e-08
-4.45822e-07
6.15756e-08
-4.53923e-07
5.64035e-08
-4.61254e-07
5.10536e-08
-4.67793e-07
4.55433e-08
-4.7352e-07
3.98896e-08
-4.78416e-07
3.41099e-08
-4.82467e-07
2.82213e-08
-4.85659e-07
2.22411e-08
-4.87983e-07
1.61867e-08
-4.89429e-07
1.00754e-08
-4.89993e-07
3.92483e-09
-4.89672e-07
-2.24729e-09
-4.88465e-07
-8.42308e-09
-4.86374e-07
-1.45844e-08
-4.83405e-07
-2.0713e-08
-4.79564e-07
-2.67903e-08
-4.74861e-07
-3.27974e-08
-4.69309e-07
-3.87153e-08