/*--------------------------------*- C++ -*----------------------------------*\
| =========                 |                                                 |
| \\      /  F ield         | OpenFOAM: The Open Source CFD Toolbox           |
|  \\    /   O peration     | Version:  2212                                  |
|   \\  /    A nd           | Website:  www.openfoam.com                      |
|    \\/     M anipulation  |                                                 |
\*---------------------------------------------------------------------------*/
FoamFile
{
    version     2.0;
    format      ascii;
    arch        "LSB;label=32;scalar=64";
    class       volVectorField;
    location    "0.0305";
    object      U;
}
// * * * * * * * * * * * * * * * * * * * * * * * * * * * * * * * * * * * * * //

dimensions      [0 1 -1 0 0 0 0];

internalField   nonuniform List<vector> 
10000
(
(1.83012e-06 -3.64194e-06 0)
(1.26471e-05 -7.39014e-06 0)
(2.6836e-05 -7.01426e-06 0)
(3.95195e-05 -5.45685e-06 0)
(4.56138e-05 -3.07043e-06 0)
(4.41938e-05 -3.30331e-07 0)
(3.44505e-05 2.51926e-06 0)
(1.612e-05 5.34162e-06 0)
(-1.0739e-05 8.05746e-06 0)
(-4.58546e-05 1.0628e-05 0)
(-8.88338e-05 1.30321e-05 0)
(-0.000139208 1.5257e-05 0)
(-0.000196447 1.72916e-05 0)
(-0.000259996 1.91316e-05 0)
(-0.000329285 2.07816e-05 0)
(-0.000403736 2.22486e-05 0)
(-0.000482774 2.35396e-05 0)
(-0.000565829 2.46567e-05 0)
(-0.00065234 2.5604e-05 0)
(-0.00074176 2.63873e-05 0)
(-0.000833554 2.70107e-05 0)
(-0.000927206 2.74819e-05 0)
(-0.00102221 2.78058e-05 0)
(-0.00111808 2.79872e-05 0)
(-0.00121436 2.80349e-05 0)
(-0.00131058 2.79541e-05 0)
(-0.00140632 2.77482e-05 0)
(-0.00150117 2.74249e-05 0)
(-0.00159473 2.69906e-05 0)
(-0.00168663 2.64493e-05 0)
(-0.00177651 2.58078e-05 0)
(-0.00186403 2.5072e-05 0)
(-0.00194888 2.42454e-05 0)
(-0.00203076 2.33328e-05 0)
(-0.00210936 2.2341e-05 0)
(-0.00218443 2.12747e-05 0)
(-0.00225572 2.01376e-05 0)
(-0.00232299 1.89355e-05 0)
(-0.00238601 1.76743e-05 0)
(-0.0024446 1.63574e-05 0)
(-0.00249857 1.49877e-05 0)
(-0.00254774 1.35709e-05 0)
(-0.00259196 1.21139e-05 0)
(-0.0026311 1.0621e-05 0)
(-0.00266502 9.09417e-06 0)
(-0.00269363 7.5365e-06 0)
(-0.00271682 5.95365e-06 0)
(-0.00273452 4.35215e-06 0)
(-0.00274668 2.7364e-06 0)
(-0.00275324 1.10917e-06 0)
(-0.00275417 -5.26068e-07 0)
(-0.00274946 -2.16447e-06 0)
(-0.00273911 -3.80024e-06 0)
(-0.00272314 -5.42805e-06 0)
(-0.00270158 -7.04374e-06 0)
(-0.00267448 -8.64302e-06 0)
(-0.00264191 -1.02208e-05 0)
(-0.00260396 -1.17718e-05 0)
(-0.00256073 -1.329e-05 0)
(-0.00251235 -1.477e-05 0)
(-0.00245895 -1.62072e-05 0)
(-0.0024007 -1.75969e-05 0)
(-0.00233778 -1.89334e-05 0)
(-0.00227038 -2.02103e-05 0)
(-0.00219872 -2.14212e-05 0)
(-0.00212304 -2.25594e-05 0)
(-0.00204362 -2.3619e-05 0)
(-0.00196071 -2.45948e-05 0)
(-0.00187464 -2.54805e-05 0)
(-0.00178572 -2.62692e-05 0)
(-0.0016943 -2.6954e-05 0)
(-0.00160074 -2.7528e-05 0)
(-0.00150543 -2.79845e-05 0)
(-0.00140879 -2.83176e-05 0)
(-0.00131124 -2.8522e-05 0)
(-0.00121323 -2.85918e-05 0)
(-0.00111522 -2.85209e-05 0)
(-0.0010177 -2.83036e-05 0)
(-0.000921173 -2.79348e-05 0)
(-0.000826153 -2.74092e-05 0)
(-0.000733172 -2.67218e-05 0)
(-0.000642772 -2.58683e-05 0)
(-0.000555508 -2.48454e-05 0)
(-0.000471942 -2.36498e-05 0)
(-0.000392646 -2.22776e-05 0)
(-0.000318192 -2.07254e-05 0)
(-0.000249154 -1.89905e-05 0)
(-0.000186103 -1.70718e-05 0)
(-0.000129594 -1.49704e-05 0)
(-8.01597e-05 -1.26907e-05 0)
(-3.82952e-05 -1.02415e-05 0)
(-4.43669e-06 -7.63795e-06 0)
(2.10686e-05 -4.90672e-06 0)
(3.80105e-05 -2.09497e-06 0)
(4.63941e-05 7.1182e-07 0)
(4.65646e-05 3.35922e-06 0)
(3.93897e-05 5.56872e-06 0)
(2.66536e-05 6.82363e-06 0)
(1.22197e-05 6.19607e-06 0)
(2.62686e-06 2.62905e-06 0)
(5.04536e-06 -1.21178e-05 0)
(2.25052e-05 -2.51931e-05 0)
(4.46456e-05 -2.37881e-05 0)
(5.8981e-05 -1.52555e-05 0)
(5.83398e-05 -2.33128e-06 0)
(3.9022e-05 1.29426e-05 0)
(-1.18197e-06 2.92883e-05 0)
(-6.33137e-05 4.58937e-05 0)
(-0.000147563 6.22378e-05 0)
(-0.000253537 7.7988e-05 0)
(-0.000380441 9.29281e-05 0)
(-0.000527202 0.000106923 0)
(-0.000692563 0.00011988 0)
(-0.000875136 0.000131745 0)
(-0.00107346 0.000142488 0)
(-0.00128603 0.000152104 0)
(-0.0015113 0.0001606 0)
(-0.00174776 0.000167988 0)
(-0.00199387 0.000174285 0)
(-0.00224813 0.000179517 0)
(-0.00250907 0.000183711 0)
(-0.00277523 0.000186893 0)
(-0.00304524 0.0001891 0)
(-0.00331771 0.000190364 0)
(-0.00359135 0.000190719 0)
(-0.00386487 0.000190201 0)
(-0.00413708 0.000188849 0)
(-0.00440678 0.000186699 0)
(-0.00467287 0.000183787 0)
(-0.00493428 0.000180149 0)
(-0.00518999 0.000175823 0)
(-0.00543904 0.000170845 0)
(-0.00568051 0.000165247 0)
(-0.00591353 0.000159063 0)
(-0.00613729 0.000152328 0)
(-0.00635102 0.000145077 0)
(-0.00655398 0.000137343 0)
(-0.00674552 0.00012916 0)
(-0.00692501 0.000120562 0)
(-0.00709185 0.00011158 0)
(-0.00724553 0.000102242 0)
(-0.00738556 9.25826e-05 0)
(-0.00751149 8.26327e-05 0)
(-0.00762292 7.24231e-05 0)
(-0.00771949 6.19831e-05 0)
(-0.0078009 5.1343e-05 0)
(-0.00786688 4.05345e-05 0)
(-0.00791722 2.95894e-05 0)
(-0.00795173 1.8538e-05 0)
(-0.00797028 7.40944e-06 0)
(-0.00797279 -3.76483e-06 0)
(-0.00795922 -1.49523e-05 0)
(-0.00792957 -2.61205e-05 0)
(-0.0078839 -3.72365e-05 0)
(-0.0078223 -4.82672e-05 0)
(-0.00774494 -5.91785e-05 0)
(-0.00765201 -6.9935e-05 0)
(-0.00754376 -8.05005e-05 0)
(-0.00742049 -9.08395e-05 0)
(-0.00728257 -0.000100916 0)
(-0.00713039 -0.000110694 0)
(-0.00696443 -0.000120135 0)
(-0.00678519 -0.0001292 0)
(-0.00659327 -0.000137848 0)
(-0.00638928 -0.000146039 0)
(-0.00617392 -0.000153731 0)
(-0.00594793 -0.000160885 0)
(-0.00571213 -0.000167459 0)
(-0.00546737 -0.000173413 0)
(-0.0052146 -0.000178702 0)
(-0.00495477 -0.000183283 0)
(-0.00468895 -0.000187117 0)
(-0.00441822 -0.000190161 0)
(-0.00414374 -0.000192376 0)
(-0.00386672 -0.000193725 0)
(-0.00358842 -0.00019417 0)
(-0.00331015 -0.000193675 0)
(-0.00303327 -0.000192206 0)
(-0.00275918 -0.00018973 0)
(-0.00248931 -0.00018622 0)
(-0.00222516 -0.00018165 0)
(-0.00196821 -0.000175997 0)
(-0.00172 -0.000169244 0)
(-0.00148208 -0.000161376 0)
(-0.00125599 -0.000152386 0)
(-0.00104327 -0.00014227 0)
(-0.00084546 -0.000131039 0)
(-0.000664036 -0.000118714 0)
(-0.000500416 -0.000105337 0)
(-0.000355923 -9.09746e-05 0)
(-0.000231731 -7.57324e-05 0)
(-0.000128808 -5.9766e-05 0)
(-4.78241e-05 -4.33096e-05 0)
(1.0975e-05 -2.67174e-05 0)
(4.79513e-05 -1.05363e-05 0)
(6.43371e-05 4.38228e-06 0)
(6.25488e-05 1.67081e-05 0)
(4.6701e-05 2.43572e-05 0)
(2.4129e-05 2.41441e-05 0)
(6.17878e-06 1.22056e-05 0)
(6.403e-06 -2.62304e-05 0)
(2.31205e-05 -4.60374e-05 0)
(3.89258e-05 -3.95526e-05 0)
(4.07619e-05 -1.62302e-05 0)
(1.98007e-05 1.76413e-05 0)
(-2.90349e-05 5.77163e-05 0)
(-0.000108886 0.000100984 0)
(-0.0002214 0.000145384 0)
(-0.000367065 0.000189505 0)
(-0.0005455 0.000232371 0)
(-0.000755709 0.000273323 0)
(-0.000996244 0.00031191 0)
(-0.00126533 0.000347826 0)
(-0.00156096 0.000380871 0)
(-0.00188098 0.000410924 0)
(-0.00222313 0.00043792 0)
(-0.0025851 0.000461839 0)
(-0.00296454 0.000482691 0)
(-0.0033591 0.00050051 0)
(-0.00376646 0.000515343 0)
(-0.00418433 0.000527258 0)
(-0.00461043 0.000536328 0)
(-0.00504257 0.00054263 0)
(-0.00547862 0.000546255 0)
(-0.00591649 0.000547298 0)
(-0.00635418 0.000545852 0)
(-0.00678974 0.000542019 0)
(-0.00722133 0.000535901 0)
(-0.00764716 0.000527597 0)
(-0.00806551 0.000517209 0)
(-0.00847478 0.00050484 0)
(-0.00887341 0.000490589 0)
(-0.00925992 0.000474555 0)
(-0.00963294 0.000456835 0)
(-0.00999115 0.000437528 0)
(-0.0103333 0.000416732 0)
(-0.0106583 0.00039454 0)
(-0.0109649 0.000371052 0)
(-0.0112523 0.00034636 0)
(-0.0115195 0.000320557 0)
(-0.0117655 0.000293731 0)
(-0.0119897 0.000265973 0)
(-0.0121913 0.000237373 0)
(-0.0123697 0.000208021 0)
(-0.0125243 0.000178005 0)
(-0.0126545 0.000147414 0)
(-0.0127601 0.000116338 0)
(-0.0128406 8.48651e-05 0)
(-0.0128957 5.30846e-05 0)
(-0.0129253 2.10862e-05 0)
(-0.0129291 -1.10391e-05 0)
(-0.0129072 -4.31981e-05 0)
(-0.0128596 -7.52974e-05 0)
(-0.0127862 -0.000107242 0)
(-0.0126874 -0.000138936 0)
(-0.0125634 -0.000170279 0)
(-0.0124144 -0.000201169 0)
(-0.0122409 -0.000231506 0)
(-0.0120434 -0.000261183 0)
(-0.0118224 -0.000290098 0)
(-0.0115787 -0.000318143 0)
(-0.0113129 -0.000345208 0)
(-0.0110259 -0.000371181 0)
(-0.0107187 -0.000395948 0)
(-0.0103922 -0.000419392 0)
(-0.0100475 -0.000441398 0)
(-0.00968591 -0.000461851 0)
(-0.00930867 -0.000480633 0)
(-0.00891717 -0.000497625 0)
(-0.00851289 -0.00051271 0)
(-0.00809739 -0.00052577 0)
(-0.00767234 -0.000536688 0)
(-0.00723949 -0.000545353 0)
(-0.00680066 -0.000551654 0)
(-0.00635778 -0.000555485 0)
(-0.00591285 -0.000556743 0)
(-0.00546794 -0.00055533 0)
(-0.00502519 -0.000551155 0)
(-0.00458681 -0.000544133 0)
(-0.00415507 -0.000534191 0)
(-0.00373227 -0.000521263 0)
(-0.00332077 -0.000505297 0)
(-0.00292295 -0.000486252 0)
(-0.0025412 -0.000464105 0)
(-0.00217791 -0.000438854 0)
(-0.00183544 -0.000410521 0)
(-0.00151609 -0.000379163 0)
(-0.00122208 -0.000344882 0)
(-0.000955515 -0.000307836 0)
(-0.000718286 -0.000268264 0)
(-0.000512047 -0.000226514 0)
(-0.000338094 -0.000183081 0)
(-0.000197243 -0.000138674 0)
(-8.9657e-05 -9.43043e-05 0)
(-1.46148e-05 -5.14333e-05 0)
(2.97866e-05 -1.21724e-05 0)
(4.69518e-05 2.04336e-05 0)
(4.2234e-05 4.20597e-05 0)
(2.44224e-05 4.67296e-05 0)
(6.81636e-06 2.66206e-05 0)
(5.25008e-06 -3.78296e-05 0)
(1.54203e-05 -5.99452e-05 0)
(1.67806e-05 -4.13252e-05 0)
(-3.42086e-06 4.32589e-06 0)
(-5.4155e-05 6.75916e-05 0)
(-0.000141043 0.000141694 0)
(-0.000267666 0.00022171 0)
(-0.000435983 0.000304103 0)
(-0.000646655 0.000386341 0)
(-0.000899319 0.00046661 0)
(-0.00119284 0.000543614 0)
(-0.00152549 0.000616442 0)
(-0.00189513 0.00068446 0)
(-0.00229928 0.000747232 0)
(-0.00273522 0.000804474 0)
(-0.0032001 0.00085602 0)
(-0.00369094 0.000901786 0)
(-0.00420473 0.000941752 0)
(-0.00473842 0.000975957 0)
(-0.00528896 0.00100447 0)
(-0.00585335 0.0010274 0)
(-0.0064286 0.00104486 0)
(-0.00701182 0.001057 0)
(-0.00760015 0.00106399 0)
(-0.00819084 0.00106598 0)
(-0.00878121 0.00106316 0)
(-0.00936868 0.00105571 0)
(-0.00995076 0.00104382 0)
(-0.0105251 0.00102768 0)
(-0.0110893 0.00100749 0)
(-0.0116412 0.00098344 0)
(-0.0121789 0.000955719 0)
(-0.0127002 0.000924522 0)
(-0.0132033 0.000890039 0)
(-0.0136864 0.000852458 0)
(-0.0141479 0.000811966 0)
(-0.0145862 0.000768752 0)
(-0.0149998 0.000723 0)
(-0.0153874 0.000674893 0)
(-0.0157478 0.00062461 0)
(-0.0160796 0.00057233 0)
(-0.016382 0.000518228 0)
(-0.0166539 0.000462479 0)
(-0.0168944 0.000405258 0)
(-0.0171028 0.000346741 0)
(-0.0172785 0.000287102 0)
(-0.0174207 0.000226515 0)
(-0.0175291 0.000165153 0)
(-0.0176033 0.000103192 0)
(-0.017643 4.08111e-05 0)
(-0.017648 -2.18121e-05 0)
(-0.0176183 -8.44964e-05 0)
(-0.0175538 -0.000147058 0)
(-0.0174546 -0.000209311 0)
(-0.0173212 -0.000271065 0)
(-0.0171536 -0.000332127 0)
(-0.0169525 -0.000392299 0)
(-0.0167183 -0.000451381 0)
(-0.0164517 -0.00050917 0)
(-0.0161536 -0.000565461 0)
(-0.0158247 -0.000620044 0)
(-0.0154662 -0.000672704 0)
(-0.0150792 -0.000723224 0)
(-0.0146648 -0.000771383 0)
(-0.0142246 -0.000816958 0)
(-0.0137599 -0.000859725 0)
(-0.0132724 -0.000899459 0)
(-0.0127639 -0.000935934 0)
(-0.0122362 -0.000968923 0)
(-0.0116914 -0.000998199 0)
(-0.0111314 -0.00102354 0)
(-0.0105586 -0.00104472 0)
(-0.00997527 -0.00106154 0)
(-0.0093839 -0.00107377 0)
(-0.00878703 -0.00108123 0)
(-0.00818734 -0.00108371 0)
(-0.00758758 -0.00108104 0)
(-0.00699061 -0.00107304 0)
(-0.00639935 -0.00105957 0)
(-0.00581681 -0.00104048 0)
(-0.00524602 -0.00101567 0)
(-0.0046901 -0.000985055 0)
(-0.00415215 -0.000948569 0)
(-0.00363531 -0.000906191 0)
(-0.00314267 -0.000857947 0)
(-0.00267727 -0.000803914 0)
(-0.00224207 -0.000744242 0)
(-0.00183989 -0.000679168 0)
(-0.00147334 -0.000609047 0)
(-0.00114479 -0.000534389 0)
(-0.000856228 -0.000455906 0)
(-0.000609187 -0.000374587 0)
(-0.00040457 -0.000291797 0)
(-0.000242475 -0.00020942 0)
(-0.000121962 -0.000130055 0)
(-4.07625e-05 -5.72951e-05 0)
(5.01133e-06 3.91906e-06 0)
(2.12492e-05 4.69061e-05 0)
(1.70434e-05 6.27922e-05 0)
(5.61428e-06 3.94221e-05 0)
(3.11992e-06 -4.44987e-05 0)
(3.16073e-06 -5.98382e-05 0)
(-1.59078e-05 -2.09433e-05 0)
(-6.4998e-05 5.48445e-05 0)
(-0.000152392 0.000155306 0)
(-0.000283722 0.000271374 0)
(-0.000462619 0.000396246 0)
(-0.000691086 0.000524871 0)
(-0.000969795 0.00065351 0)
(-0.00129834 0.000779401 0)
(-0.00167543 0.000900515 0)
(-0.00209914 0.00101537 0)
(-0.00256698 0.0011229 0)
(-0.00307612 0.00122237 0)
(-0.00362338 0.00131327 0)
(-0.00420541 0.00139527 0)
(-0.0048187 0.00146819 0)
(-0.00545964 0.00153196 0)
(-0.0061246 0.0015866 0)
(-0.0068099 0.00163218 0)
(-0.00751193 0.00166885 0)
(-0.00822706 0.00169678 0)
(-0.00895177 0.00171618 0)
(-0.0096826 0.00172729 0)
(-0.0104162 0.00173038 0)
(-0.0111492 0.0017257 0)
(-0.0118785 0.00171356 0)
(-0.012601 0.00169424 0)
(-0.0133138 0.00166805 0)
(-0.0140141 0.00163529 0)
(-0.0146991 0.00159628 0)
(-0.0153663 0.00155131 0)
(-0.0160133 0.0015007 0)
(-0.0166376 0.00144475 0)
(-0.0172372 0.00138377 0)
(-0.0178099 0.00131806 0)
(-0.0183538 0.00124793 0)
(-0.0188671 0.00117366 0)
(-0.0193481 0.00109557 0)
(-0.0197952 0.00101393 0)
(-0.020207 0.000929039 0)
(-0.0205821 0.000841186 0)
(-0.0209194 0.000750654 0)
(-0.0212178 0.000657729 0)
(-0.0214763 0.000562696 0)
(-0.0216941 0.000465838 0)
(-0.0218705 0.000367439 0)
(-0.0220049 0.000267785 0)
(-0.0220968 0.000167162 0)
(-0.0221458 6.58609e-05 0)
(-0.0221518 -3.58269e-05 0)
(-0.0221147 -0.000137607 0)
(-0.0220344 -0.000239179 0)
(-0.0219112 -0.000340239 0)
(-0.0217454 -0.000440477 0)
(-0.0215373 -0.000539578 0)
(-0.0212875 -0.000637224 0)
(-0.0209968 -0.000733089 0)
(-0.0206659 -0.000826843 0)
(-0.0202958 -0.00091815 0)
(-0.0198877 -0.00100667 0)
(-0.0194428 -0.00109205 0)
(-0.0189625 -0.00117395 0)
(-0.0184484 -0.00125201 0)
(-0.0179023 -0.00132586 0)
(-0.0173258 -0.00139515 0)
(-0.0167212 -0.00145952 0)
(-0.0160904 -0.00151859 0)
(-0.015436 -0.00157202 0)
(-0.0147602 -0.00161943 0)
(-0.0140657 -0.00166047 0)
(-0.0133552 -0.00169479 0)
(-0.0126317 -0.00172205 0)
(-0.0118981 -0.00174193 0)
(-0.0111576 -0.00175409 0)
(-0.0104135 -0.00175825 0)
(-0.00966914 -0.00175411 0)
(-0.00892801 -0.00174142 0)
(-0.00819369 -0.00171995 0)
(-0.00746982 -0.0016895 0)
(-0.00676012 -0.0016499 0)
(-0.00606833 -0.00160104 0)
(-0.00539821 -0.00154284 0)
(-0.00475352 -0.00147532 0)
(-0.00413797 -0.00139853 0)
(-0.00355518 -0.00131264 0)
(-0.00300864 -0.00121795 0)
(-0.00250168 -0.00111489 0)
(-0.00203734 -0.00100407 0)
(-0.00161834 -0.000886364 0)
(-0.00124698 -0.00076294 0)
(-0.000924965 -0.000635392 0)
(-0.000653311 -0.000505855 0)
(-0.000432132 -0.000377193 0)
(-0.000260436 -0.000253234 0)
(-0.00013587 -0.000139092 0)
(-5.44649e-05 -4.15719e-05 0)
(-1.02954e-05 3.03982e-05 0)
(5.17725e-06 6.52181e-05 0)
(3.50105e-06 4.68591e-05 0)
(5.58537e-07 -4.38249e-05 0)
(-1.15547e-05 -4.16058e-05 0)
(-5.48832e-05 2.67151e-05 0)
(-0.000137511 0.000140912 0)
(-0.000266414 0.000286367 0)
(-0.000446828 0.000451949 0)
(-0.000682121 0.000629108 0)
(-0.000974099 0.000811317 0)
(-0.00132328 0.000993625 0)
(-0.0017291 0.00117228 0)
(-0.00219011 0.00134445 0)
(-0.00270414 0.00150804 0)
(-0.00326843 0.00166149 0)
(-0.00387981 0.00180368 0)
(-0.00453472 0.00193382 0)
(-0.00522938 0.00205138 0)
(-0.00595982 0.00215606 0)
(-0.00672194 0.0022477 0)
(-0.00751159 0.00232627 0)
(-0.00832456 0.00239185 0)
(-0.00915666 0.0024446 0)
(-0.0100038 0.00248475 0)
(-0.0108617 0.00251258 0)
(-0.0117266 0.00252841 0)
(-0.0125944 0.00253259 0)
(-0.0134613 0.00252552 0)
(-0.0143237 0.00250758 0)
(-0.0151778 0.00247919 0)
(-0.0160204 0.00244079 0)
(-0.0168481 0.00239282 0)
(-0.0176577 0.0023357 0)
(-0.0184461 0.00226989 0)
(-0.0192106 0.00219584 0)
(-0.0199484 0.00211397 0)
(-0.0206568 0.00202475 0)
(-0.0213335 0.00192861 0)
(-0.0219761 0.00182598 0)
(-0.0225825 0.00171731 0)
(-0.0231508 0.00160302 0)
(-0.023679 0.00148354 0)
(-0.0241654 0.00135929 0)
(-0.0246086 0.0012307 0)
(-0.025007 0.00109819 0)
(-0.0253594 0.000962179 0)
(-0.0256647 0.000823075 0)
(-0.0259219 0.000681299 0)
(-0.0261301 0.00053727 0)
(-0.0262887 0.000391407 0)
(-0.026397 0.000244133 0)
(-0.0264548 9.58712e-05 0)
(-0.0264617 -5.29485e-05 0)
(-0.0264176 -0.000201892 0)
(-0.0263226 -0.00035052 0)
(-0.0261768 -0.000498386 0)
(-0.0259807 -0.000645035 0)
(-0.0257347 -0.000790007 0)
(-0.0254395 -0.000932835 0)
(-0.0250959 -0.00107304 0)
(-0.0247049 -0.00121015 0)
(-0.0242676 -0.00134366 0)
(-0.0237855 -0.00147307 0)
(-0.0232599 -0.00159789 0)
(-0.0226926 -0.00171759 0)
(-0.0220853 -0.00183166 0)
(-0.0214402 -0.00193959 0)
(-0.0207594 -0.00204083 0)
(-0.0200452 -0.00213487 0)
(-0.0193003 -0.00222119 0)
(-0.0185273 -0.00229925 0)
(-0.0177291 -0.00236853 0)
(-0.0169087 -0.00242853 0)
(-0.0160695 -0.00247875 0)
(-0.0152147 -0.00251868 0)
(-0.014348 -0.00254787 0)
(-0.0134729 -0.00256586 0)
(-0.0125933 -0.00257223 0)
(-0.0117132 -0.00256657 0)
(-0.0108366 -0.00254854 0)
(-0.00996758 -0.0025178 0)
(-0.00911046 -0.0024741 0)
(-0.0082695 -0.00241722 0)
(-0.00744903 -0.00234701 0)
(-0.00665338 -0.00226342 0)
(-0.00588683 -0.00216648 0)
(-0.00515364 -0.00205634 0)
(-0.00445792 -0.00193329 0)
(-0.00380365 -0.00179779 0)
(-0.00319454 -0.00165052 0)
(-0.00263403 -0.00149243 0)
(-0.00212516 -0.00132479 0)
(-0.00167048 -0.00114932 0)
(-0.00127191 -0.000968286 0)
(-0.000930616 -0.000784651 0)
(-0.000646835 -0.000602304 0)
(-0.000419691 -0.000426309 0)
(-0.000246999 -0.000263259 0)
(-0.000125021 -0.000121704 0)
(-4.81854e-05 -1.26004e-05 0)
(-9.13192e-06 5.00772e-05 0)
(9.86451e-07 4.72448e-05 0)
(-2.14501e-06 -3.50676e-05 0)
(-2.74301e-05 -2.9805e-06 0)
(-9.72567e-05 0.000104902 0)
(-0.000216343 0.000266291 0)
(-0.000389968 0.000464653 0)
(-0.000622664 0.000687098 0)
(-0.000917284 0.000923517 0)
(-0.00127523 0.00116603 0)
(-0.00169671 0.0014085 0)
(-0.00218091 0.00164621 0)
(-0.00272613 0.00187551 0)
(-0.00332995 0.00209364 0)
(-0.00398933 0.00229851 0)
(-0.00470077 0.00248859 0)
(-0.00546038 0.00266277 0)
(-0.00626401 0.00282028 0)
(-0.00710727 0.00296066 0)
(-0.00798563 0.00308362 0)
(-0.00889447 0.0031891 0)
(-0.00982913 0.00327715 0)
(-0.0107849 0.00334793 0)
(-0.0117572 0.00340173 0)
(-0.0127415 0.00343889 0)
(-0.0137331 0.00345982 0)
(-0.0147277 0.00346497 0)
(-0.0157209 0.00345485 0)
(-0.0167087 0.00342997 0)
(-0.0176869 0.00339089 0)
(-0.0186516 0.00333818 0)
(-0.0195991 0.00327242 0)
(-0.0205258 0.00319421 0)
(-0.0214282 0.00310414 0)
(-0.0223031 0.0030028 0)
(-0.0231473 0.00289081 0)
(-0.0239579 0.00276877 0)
(-0.0247321 0.00263726 0)
(-0.0254674 0.00249689 0)
(-0.0261612 0.00234825 0)
(-0.0268112 0.00219193 0)
(-0.0274155 0.00202851 0)
(-0.0279719 0.00185857 0)
(-0.0284788 0.00168268 0)
(-0.0289345 0.00150143 0)
(-0.0293375 0.00131539 0)
(-0.0296866 0.00112512 0)
(-0.0299807 0.000931198 0)
(-0.0302187 0.000734201 0)
(-0.0303999 0.0005347 0)
(-0.0305237 0.000333276 0)
(-0.0305896 0.00013051 0)
(-0.0305974 -7.3008e-05 0)
(-0.0305468 -0.000276684 0)
(-0.0304379 -0.000479914 0)
(-0.0302711 -0.000682087 0)
(-0.0300466 -0.000882582 0)
(-0.0297651 -0.00108077 0)
(-0.0294273 -0.00127601 0)
(-0.0290341 -0.00146765 0)
(-0.0285868 -0.00165503 0)
(-0.0280866 -0.00183748 0)
(-0.0275351 -0.00201433 0)
(-0.0269339 -0.00218487 0)
(-0.026285 -0.00234842 0)
(-0.0255904 -0.00250427 0)
(-0.0248526 -0.00265171 0)
(-0.0240739 -0.00279002 0)
(-0.023257 -0.0029185 0)
(-0.0224049 -0.00303644 0)
(-0.0215206 -0.00314311 0)
(-0.0206075 -0.00323784 0)
(-0.019669 -0.00331991 0)
(-0.0187087 -0.00338867 0)
(-0.0177305 -0.00344345 0)
(-0.0167384 -0.00348363 0)
(-0.0157365 -0.00350861 0)
(-0.0147292 -0.00351783 0)
(-0.0137209 -0.00351075 0)
(-0.0127161 -0.00348693 0)
(-0.0117196 -0.00344594 0)
(-0.010736 -0.00338746 0)
(-0.00977026 -0.00331122 0)
(-0.00882711 -0.00321706 0)
(-0.0079114 -0.00310494 0)
(-0.00702793 -0.00297496 0)
(-0.0061814 -0.00282735 0)
(-0.00537636 -0.00266256 0)
(-0.0046172 -0.00248127 0)
(-0.00390801 -0.00228445 0)
(-0.00325258 -0.0020734 0)
(-0.00265425 -0.00184987 0)
(-0.00211582 -0.00161616 0)
(-0.00163947 -0.00137523 0)
(-0.00122658 -0.00113091 0)
(-0.000877618 -0.000888105 0)
(-0.000591993 -0.000653064 0)
(-0.000367888 -0.000433759 0)
(-0.000202048 -0.000240302 0)
(-8.95503e-05 -8.53938e-05 0)
(-2.46198e-05 1.50636e-05 0)
(-1.66266e-06 3.97788e-05 0)
(-4.84349e-06 -1.79346e-05 0)
(-4.36876e-05 5.72134e-05 0)
(-0.00014113 0.000215516 0)
(-0.000298316 0.00043333 0)
(-0.00051861 0.000692695 0)
(-0.00080563 0.000979291 0)
(-0.00116151 0.00128168 0)
(-0.0015871 0.00159076 0)
(-0.00208215 0.00189933 0)
(-0.00264548 0.00220173 0)
(-0.00327509 0.00249352 0)
(-0.00396824 0.00277126 0)
(-0.00472161 0.00303233 0)
(-0.00553137 0.00327476 0)
(-0.00639331 0.00349709 0)
(-0.00730292 0.00369829 0)
(-0.00825544 0.0038777 0)
(-0.00924595 0.00403492 0)
(-0.0102694 0.00416979 0)
(-0.0113208 0.00428234 0)
(-0.0123949 0.00437274 0)
(-0.0134868 0.0044413 0)
(-0.0145912 0.00448844 0)
(-0.0157034 0.00451464 0)
(-0.0168184 0.00452047 0)
(-0.0179315 0.00450655 0)
(-0.0190381 0.00447353 0)
(-0.0201337 0.00442211 0)
(-0.0212139 0.00435302 0)
(-0.0222746 0.004267 0)
(-0.0233119 0.0041648 0)
(-0.0243218 0.00404719 0)
(-0.0253008 0.00391493 0)
(-0.0262455 0.00376881 0)
(-0.0271524 0.00360961 0)
(-0.0280185 0.00343808 0)
(-0.028841 0.00325502 0)
(-0.0296171 0.00306118 0)
(-0.0303442 0.00285732 0)
(-0.03102 0.00264422 0)
(-0.0316423 0.00242261 0)
(-0.0322091 0.00219327 0)
(-0.0327187 0.00195693 0)
(-0.0331693 0.00171434 0)
(-0.0335597 0.00146625 0)
(-0.0338884 0.0012134 0)
(-0.0341545 0.000956552 0)
(-0.0343571 0.000696446 0)
(-0.0344954 0.000433841 0)
(-0.034569 0.000169499 0)
(-0.0345775 -9.58126e-05 0)
(-0.0345209 -0.000361315 0)
(-0.0343991 -0.000626223 0)
(-0.0342124 -0.000889737 0)
(-0.0339613 -0.00115105 0)
(-0.0336464 -0.00140934 0)
(-0.0332686 -0.00166377 0)
(-0.0328289 -0.00191349 0)
(-0.0323287 -0.00215766 0)
(-0.0317693 -0.00239539 0)
(-0.0311526 -0.00262579 0)
(-0.0304803 -0.00284798 0)
(-0.0297546 -0.00306106 0)
(-0.028978 -0.0032641 0)
(-0.0281528 -0.00345619 0)
(-0.0272819 -0.00363641 0)
(-0.0263683 -0.00380384 0)
(-0.0254152 -0.00395755 0)
(-0.0244261 -0.00409664 0)
(-0.0234046 -0.00422021 0)
(-0.0223545 -0.00432736 0)
(-0.0212798 -0.00441724 0)
(-0.0201849 -0.00448902 0)
(-0.0190742 -0.00454188 0)
(-0.0179522 -0.00457508 0)
(-0.0168237 -0.00458789 0)
(-0.0156937 -0.00457967 0)
(-0.014567 -0.00454984 0)
(-0.013449 -0.0044979 0)
(-0.0123447 -0.00442343 0)
(-0.0112595 -0.00432615 0)
(-0.0101987 -0.00420588 0)
(-0.00916747 -0.00406261 0)
(-0.00817111 -0.00389651 0)
(-0.00721472 -0.00370793 0)
(-0.00630327 -0.00349751 0)
(-0.0054415 -0.00326616 0)
(-0.00463388 -0.00301516 0)
(-0.00388452 -0.00274621 0)
(-0.00319705 -0.00246157 0)
(-0.00257459 -0.00216412 0)
(-0.00201958 -0.00185754 0)
(-0.00153373 -0.00154651 0)
(-0.00111783 -0.00123689 0)
(-0.000771705 -0.000936047 0)
(-0.000494076 -0.00065319 0)
(-0.000282364 -0.000399776 0)
(-0.000132496 -0.000189935 0)
(-4.05174e-05 -4.10418e-05 0)
(-4.30656e-06 2.4145e-05 0)
(-7.46498e-06 7.57198e-06 0)
(-5.98726e-05 0.000139404 0)
(-0.000185297 0.000359447 0)
(-0.000381302 0.000643283 0)
(-0.000649257 0.000971954 0)
(-0.00099174 0.00133004 0)
(-0.00141002 0.00170498 0)
(-0.00190425 0.00208666 0)
(-0.00247363 0.0024669 0)
(-0.00311654 0.00283917 0)
(-0.00383056 0.00319829 0)
(-0.00461262 0.00354018 0)
(-0.00545904 0.00386166 0)
(-0.00636569 0.00416032 0)
(-0.00732802 0.00443435 0)
(-0.00834117 0.00468244 0)
(-0.00940004 0.00490372 0)
(-0.0104993 0.00509765 0)
(-0.0116337 0.00526397 0)
(-0.0127976 0.00540267 0)
(-0.0139856 0.00551393 0)
(-0.0151921 0.00559808 0)
(-0.0164119 0.00565559 0)
(-0.0176393 0.00568705 0)
(-0.0188694 0.00569311 0)
(-0.0200967 0.00567454 0)
(-0.0213165 0.00563211 0)
(-0.0225237 0.00556669 0)
(-0.0237137 0.00547916 0)
(-0.024882 0.00537043 0)
(-0.0260242 0.00524144 0)
(-0.0271361 0.00509312 0)
(-0.0282138 0.00492644 0)
(-0.0292535 0.00474237 0)
(-0.0302516 0.00454187 0)
(-0.0312048 0.0043259 0)
(-0.0321097 0.00409543 0)
(-0.0329636 0.00385143 0)
(-0.0337635 0.00359484 0)
(-0.034507 0.00332662 0)
(-0.0351915 0.00304773 0)
(-0.035815 0.0027591 0)
(-0.0363755 0.00246168 0)
(-0.0368712 0.00215641 0)
(-0.0373005 0.00184422 0)
(-0.0376621 0.00152606 0)
(-0.0379547 0.00120288 0)
(-0.0381774 0.000875605 0)
(-0.0383295 0.000545201 0)
(-0.0384104 0.000212625 0)
(-0.0384198 -0.000121157 0)
(-0.0383574 -0.000455166 0)
(-0.0382234 -0.00078841 0)
(-0.0380181 -0.00111989 0)
(-0.0377419 -0.00144858 0)
(-0.0373956 -0.00177346 0)
(-0.0369802 -0.00209347 0)
(-0.0364966 -0.00240755 0)
(-0.0359465 -0.00271463 0)
(-0.0353314 -0.00301361 0)
(-0.0346531 -0.00330337 0)
(-0.0339137 -0.00358281 0)
(-0.0331156 -0.00385079 0)
(-0.0322613 -0.00410616 0)
(-0.0313536 -0.00434778 0)
(-0.0303956 -0.0045745 0)
(-0.0293905 -0.00478517 0)
(-0.0283418 -0.00497865 0)
(-0.0272533 -0.0051538 0)
(-0.026129 -0.0053095 0)
(-0.0249731 -0.00544466 0)
(-0.0237899 -0.00555821 0)
(-0.0225841 -0.00564912 0)
(-0.0213605 -0.00571639 0)
(-0.0201241 -0.00575911 0)
(-0.01888 -0.0057764 0)
(-0.0176337 -0.00576748 0)
(-0.0163904 -0.00573164 0)
(-0.0151559 -0.00566828 0)
(-0.0139357 -0.00557694 0)
(-0.0127355 -0.00545729 0)
(-0.0115611 -0.00530915 0)
(-0.010418 -0.00513255 0)
(-0.00931205 -0.00492774 0)
(-0.00824863 -0.00469522 0)
(-0.00723309 -0.00443581 0)
(-0.00627056 -0.00415069 0)
(-0.00536583 -0.00384146 0)
(-0.00452333 -0.00351026 0)
(-0.00374706 -0.00315982 0)
(-0.00304043 -0.00279364 0)
(-0.00240624 -0.0024161 0)
(-0.00184657 -0.00203267 0)
(-0.00136264 -0.00165012 0)
(-0.000954808 -0.00127684 0)
(-0.000622458 -0.000923079 0)
(-0.000363821 -0.000601438 0)
(-0.000175806 -0.00032717 0)
(-5.6369e-05 -0.000118703 0)
(-6.87564e-06 3.2149e-07 0)
(-9.97646e-06 4.12964e-05 0)
(-7.57272e-05 0.000243539 0)
(-0.000229015 0.000536904 0)
(-0.000463924 0.000896623 0)
(-0.000779834 0.0013031 0)
(-0.00117823 0.00174009 0)
(-0.00165942 0.00219419 0)
(-0.00222276 0.00265436 0)
(-0.00286683 0.00311162 0)
(-0.00358945 0.00355867 0)
(-0.00438776 0.00398961 0)
(-0.00525827 0.00439976 0)
(-0.00619695 0.00478543 0)
(-0.00719929 0.00514376 0)
(-0.00826042 0.00547258 0)
(-0.00937513 0.00577033 0)
(-0.010538 0.00603589 0)
(-0.0117433 0.00626859 0)
(-0.0129854 0.00646806 0)
(-0.0142585 0.00663424 0)
(-0.0155565 0.00676729 0)
(-0.0168739 0.00686759 0)
(-0.0182046 0.00693565 0)
(-0.0195429 0.00697215 0)
(-0.0208834 0.00697787 0)
(-0.0222203 0.00695366 0)
(-0.0235484 0.00690049 0)
(-0.0248624 0.00681936 0)
(-0.0261573 0.00671132 0)
(-0.0274282 0.00657747 0)
(-0.0286705 0.00641893 0)
(-0.0298796 0.00623684 0)
(-0.0310513 0.00603235 0)
(-0.0321815 0.00580664 0)
(-0.0332664 0.00556088 0)
(-0.0343022 0.00529623 0)
(-0.0352857 0.00501387 0)
(-0.0362134 0.00471497 0)
(-0.0370825 0.0044007 0)
(-0.0378902 0.00407222 0)
(-0.0386339 0.00373069 0)
(-0.0393112 0.00337726 0)
(-0.03992 0.00301309 0)
(-0.0404584 0.00263932 0)
(-0.0409247 0.00225711 0)
(-0.0413174 0.00186759 0)
(-0.0416353 0.00147194 0)
(-0.0418772 0.0010713 0)
(-0.0420425 0.000666841 0)
(-0.0421304 0.000259738 0)
(-0.0421406 -0.000148825 0)
(-0.042073 -0.000557652 0)
(-0.0419275 -0.00096553 0)
(-0.0417047 -0.00137123 0)
(-0.0414048 -0.00177352 0)
(-0.0410289 -0.00217112 0)
(-0.0405778 -0.00256276 0)
(-0.0400528 -0.00294714 0)
(-0.0394555 -0.00332295 0)
(-0.0387875 -0.00368884 0)
(-0.0380509 -0.00404348 0)
(-0.0372479 -0.00438548 0)
(-0.0363811 -0.00471348 0)
(-0.0354532 -0.00502609 0)
(-0.0344672 -0.00532191 0)
(-0.0334264 -0.00559954 0)
(-0.0323343 -0.00585759 0)
(-0.0311947 -0.00609468 0)
(-0.0300117 -0.00630942 0)
(-0.0287895 -0.00650048 0)
(-0.0275326 -0.00666651 0)
(-0.0262457 -0.00680625 0)
(-0.024934 -0.00691844 0)
(-0.0236024 -0.00700191 0)
(-0.0222563 -0.00705555 0)
(-0.0209014 -0.00707832 0)
(-0.0195433 -0.00706929 0)
(-0.0181879 -0.00702763 0)
(-0.016841 -0.00695266 0)
(-0.0155088 -0.00684384 0)
(-0.0141972 -0.0067008 0)
(-0.0129125 -0.00652337 0)
(-0.0116607 -0.00631164 0)
(-0.0104477 -0.00606593 0)
(-0.00927953 -0.00578691 0)
(-0.00816178 -0.0054756 0)
(-0.00709993 -0.00513345 0)
(-0.00609916 -0.0047624 0)
(-0.00516423 -0.004365 0)
(-0.00429947 -0.00394449 0)
(-0.00350869 -0.00350494 0)
(-0.00279508 -0.0030514 0)
(-0.00216114 -0.0025901 0)
(-0.00160863 -0.00212864 0)
(-0.00113851 -0.00167625 0)
(-0.000750933 -0.00124415 0)
(-0.00044502 -0.000845812 0)
(-0.000218723 -0.000497351 0)
(-7.19146e-05 -0.000217899 0)
(-9.33882e-06 -3.15478e-05 0)
(-1.2365e-05 8.29917e-05 0)
(-9.11197e-05 0.00036928 0)
(-0.000271843 0.000747646 0)
(-0.000545326 0.00119328 0)
(-0.000909005 0.00168621 0)
(-0.00136325 0.00220966 0)
(-0.00190739 0.00274952 0)
(-0.00253992 0.00329407 0)
(-0.00325869 0.00383359 0)
(-0.00406094 0.00436011 0)
(-0.00494328 0.00486712 0)
(-0.00590177 0.00534938 0)
(-0.00693198 0.0058027 0)
(-0.00802901 0.00622381 0)
(-0.00918762 0.00661019 0)
(-0.0104023 0.00696 0)
(-0.0116671 0.00727193 0)
(-0.0129763 0.00754512 0)
(-0.0143236 0.00777912 0)
(-0.015703 0.00797381 0)
(-0.0171081 0.00812934 0)
(-0.0185329 0.00824611 0)
(-0.0199711 0.0083247 0)
(-0.0214167 0.00836586 0)
(-0.0228637 0.00837048 0)
(-0.0243062 0.00833958 0)
(-0.0257386 0.00827423 0)
(-0.0271553 0.00817563 0)
(-0.028551 0.008045 0)
(-0.0299204 0.00788363 0)
(-0.0312586 0.00769283 0)
(-0.0325608 0.00747395 0)
(-0.0338224 0.00722836 0)
(-0.0350392 0.00695745 0)
(-0.036207 0.00666259 0)
(-0.0373219 0.00634519 0)
(-0.0383802 0.00600663 0)
(-0.0393786 0.00564832 0)
(-0.0403137 0.00527164 0)
(-0.0411827 0.00487798 0)
(-0.0419827 0.00446871 0)
(-0.0427114 0.00404523 0)
(-0.0433663 0.00360891 0)
(-0.0439455 0.00316112 0)
(-0.0444471 0.00270323 0)
(-0.0448696 0.00223663 0)
(-0.0452116 0.00176269 0)
(-0.0454719 0.0012828 0)
(-0.0456498 0.000798349 0)
(-0.0457445 0.000310749 0)
(-0.0457556 -0.000178585 0)
(-0.0456831 -0.000668221 0)
(-0.0455269 -0.00115671 0)
(-0.0452875 -0.00164258 0)
(-0.0449653 -0.00212436 0)
(-0.0445612 -0.00260052 0)
(-0.0440764 -0.00306954 0)
(-0.0435121 -0.00352988 0)
(-0.0428699 -0.00397995 0)
(-0.0421517 -0.00441818 0)