/*--------------------------------*- C++ -*----------------------------------*\
| =========                 |                                                 |
| \\      /  F ield         | OpenFOAM: The Open Source CFD Toolbox           |
|  \\    /   O peration     | Version:  2212                                  |
|   \\  /    A nd           | Website:  www.openfoam.com                      |
|    \\/     M anipulation  |                                                 |
\*---------------------------------------------------------------------------*/
FoamFile
{
    version     2.0;
    format      ascii;
    arch        "LSB;label=32;scalar=64";
    class       volScalarField;
    location    "0.092";
    object      p;
}
// * * * * * * * * * * * * * * * * * * * * * * * * * * * * * * * * * * * * * //

dimensions      [0 2 -2 0 0 0 0];

internalField   nonuniform List<scalar> 
10000
(
-2.82244e-07
9.27384e-05
-0.000128511
-0.000708444
-0.00159819
-0.00274236
-0.00408482
-0.00557168
-0.00715419
-0.00878915
-0.0104385
-0.0120693
-0.0136525
-0.0151633
-0.01658
-0.0178839
-0.0190592
-0.0200923
-0.0209717
-0.0216881
-0.0222338
-0.0226026
-0.0227901
-0.0227929
-0.022609
-0.0222374
-0.0216782
-0.0209325
-0.0200022
-0.01889
-0.0175995
-0.0161348
-0.0145008
-0.0127028
-0.0107469
-0.00863969
-0.0063881
-0.00399974
-0.00148258
0.00115508
0.0039045
0.00675665
0.00970223
0.0127315
0.0158347
0.0190016
0.0222217
0.0254843
0.0287788
0.0320939
0.0354188
0.0387423
0.0420531
0.04534
0.0485918
0.051797
0.0549446
0.0580234
0.0610224
0.0639308
0.0667383
0.0694344
0.0720093
0.0744533
0.0767573
0.0789127
0.0809111
0.0827451
0.0844078
0.0858929
0.0871948
0.0883089
0.0892314
0.0899594
0.0904911
0.0908257
0.0909637
0.0909066
0.0906573
0.0902202
0.0896012
0.0888078
0.0878493
0.0867369
0.0854837
0.084105
0.0826186
0.0810447
0.0794066
0.0777309
0.0760476
0.0743906
0.0727983
0.0713137
0.069985
0.0688642
0.0680046
0.0674569
0.0672632
0.0673718
-9.40386e-05
-4.82394e-07
-0.00021511
-0.000732944
-0.00150385
-0.0024889
-0.00364698
-0.00493547
-0.00631394
-0.00774528
-0.00919591
-0.0106358
-0.0120383
-0.01338
-0.0146405
-0.0158017
-0.0168483
-0.0177669
-0.0185464
-0.0191773
-0.0196517
-0.0199635
-0.0201078
-0.0200811
-0.0198809
-0.0195059
-0.0189559
-0.0182315
-0.0173343
-0.0162665
-0.0150313
-0.0136322
-0.0120737
-0.0103607
-0.0084988
-0.006494
-0.00435289
-0.00208251
0.000309643
0.00281576
0.00542762
0.00813668
0.0109341
0.0138109
0.0167575
0.0197644
0.0228216
0.025919
0.0290463
0.0321931
0.035349
0.0385033
0.0416454
0.0447646
0.0478503
0.0508918
0.0538785
0.0567998
0.0596454
0.0624051
0.0650692
0.0676279
0.0700719
0.0723922
0.0745804
0.0766282
0.0785282
0.0802733
0.0818573
0.0832744
0.0845197
0.0855888
0.0864787
0.0871868
0.0877118
0.0880533
0.088212
0.0881898
0.0879899
0.0876168
0.0870765
0.0863767
0.0855265
0.0845368
0.0834204
0.0821923
0.0808694
0.079471
0.0780191
0.0765383
0.0750563
0.0736037
0.0722143
0.070925
0.0697755
0.0688068
0.0680579
0.067564
0.0673712
0.0674802
0.000125886
0.000214288
8.58149e-08
-0.000485824
-0.00118917
-0.00207759
-0.0031177
-0.00427403
-0.00551214
-0.00679976
-0.00810711
-0.00940705
-0.0106751
-0.0118897
-0.0130314
-0.0140832
-0.0150304
-0.0158601
-0.0165614
-0.0171251
-0.0175433
-0.01781
-0.01792
-0.0178697
-0.0176566
-0.017279
-0.0167365
-0.0160294
-0.0151589
-0.0141272
-0.0129368
-0.011591
-0.0100939
-0.00845014
-0.00666476
-0.0047435
-0.00269255
-0.000518511
0.00177153
0.00417015
0.00666955
0.00926164
0.011938
0.01469
0.0175086
0.0203847
0.0233087
0.026271
0.0292617
0.0322709
0.0352887
0.0383049
0.0413093
0.0442918
0.0472422
0.0501502
0.0530058
0.0557989
0.0585197
0.0611586
0.0637063
0.0661535
0.0684914
0.0707115
0.0728058
0.0747668
0.0765872
0.0782606
0.0797812
0.0811436
0.0823431
0.0833761
0.0842397
0.0849317
0.0854511
0.0857979
0.0859728
0.0859781
0.0858169
0.0854938
0.0850151
0.0843881
0.0836218
0.0827268
0.0817154
0.080602
0.0794028
0.0781359
0.0768219
0.0754837
0.0741465
0.0728381
0.0715884
0.0704294
0.0693951
0.0685196
0.0678345
0.0673697
0.0671776
0.0672875
0.000704001
0.000732531
0.00048669
9.10849e-08
-0.000677176
-0.00151581
-0.00248677
-0.00355939
-0.00470379
-0.00589167
-0.0070965
-0.00829386
-0.00946152
-0.0105794
-0.0116297
-0.0125963
-0.0134654
-0.0142247
-0.0148636
-0.0153733
-0.0157462
-0.0159763
-0.0160586
-0.0159893
-0.0157657
-0.0153863
-0.0148504
-0.0141581
-0.0133105
-0.0123092
-0.0111569
-0.00985637
-0.00841147
-0.00682645
-0.00510614
-0.00325593
-0.00128166
0.000810361
0.00301344
0.00532048
0.00772404
0.0102164
0.0127896
0.0154352
0.0181447
0.0209093
0.0237197
0.0265669
0.0294413
0.0323334
0.0352337
0.0381323
0.0410197
0.043886
0.0467214
0.0495162
0.0522605
0.0549451
0.0575603
0.0600969
0.0625461
0.0648991
0.0671474
0.0692831
0.0712984
0.0731862
0.0749398
0.076553
0.0780203
0.0793367
0.080498
0.0815006
0.082342
0.0830203
0.0835347
0.0838852
0.0840729
0.0841
0.0839698
0.0836868
0.0832571
0.0826879
0.0819879
0.0811672
0.0802377
0.0792129
0.0781082
0.0769406
0.0757292
0.0744952
0.0732615
0.0720532
0.0708968
0.0698207
0.0688544
0.0680276
0.067368
0.0669031
0.0666833
0.0667422
0.00159342
0.00150581
0.00119216
0.000676701
-2.95688e-06
-0.000820731
-0.00175107
-0.00276766
-0.00384462
-0.00495723
-0.00608211
-0.00719745
-0.00828315
-0.00932095
-0.0102944
-0.0111887
-0.0119908
-0.0126892
-0.013274
-0.0137367
-0.01407
-0.014268
-0.014326
-0.0142401
-0.0140078
-0.0136273
-0.013098
-0.0124198
-0.0115935
-0.0106208
-0.00950381
-0.00824542
-0.00684906
-0.00531872
-0.00365897
-0.00187489
2.7997e-05
0.00204369
0.00416579
0.00638756
0.00870187
0.0111014
0.0135784
0.016125
0.0187328
0.0213935
0.0240983
0.0268383
0.0296045
0.0323877
0.0351786
0.0379681
0.0407467
0.043505
0.0462338
0.0489234
0.0515648
0.0541487
0.0566661
0.0591081
0.0614663
0.0637323
0.0658979
0.0679556
0.0698981
0.0717186
0.0734106
0.0749683
0.0763866
0.0776607
0.0787866
0.0797611
0.0805819
0.0812472
0.0817564
0.0821097
0.0823081
0.082354
0.0822506
0.0820024
0.0816152
0.0810959
0.080453
0.0796959
0.078836
0.077886
0.0768602
0.0757745
0.0746465
0.0734955
0.0723423
0.0712093
0.0701203
0.0690999
0.0681739
0.067368
0.0667068
0.0662153
0.0659328
0.0658854
0.00274184
0.00249772
0.00208623
0.00151669
0.00080935
-1.30104e-05
-0.00092792
-0.00191304
-0.00294618
-0.00400586
-0.00507156
-0.00612402
-0.00714523
-0.00811874
-0.00902949
-0.00986401
-0.0106102
-0.0112574
-0.0117964
-0.012219
-0.0125184
-0.012689
-0.0127262
-0.0126265
-0.0123871
-0.0120065
-0.0114838
-0.010819
-0.0100128
-0.00906662
-0.00798247
-0.00676301
-0.00541148
-0.00393165
-0.0023278
-0.000604762
0.0012322
0.00317741
0.00522473
0.00736774
0.00959963
0.0119134
0.0143016
0.0167567
0.0192707
0.0218355
0.0244428
0.0270839
0.0297502
0.0324329
0.0351232
0.0378121
0.0404905
0.0431496
0.0457802
0.0483733
0.05092
0.0534115
0.0558392
0.0581945
0.0604693
0.0626556
0.0647456
0.066732
0.068608
0.0703669
0.0720027
0.0735098
0.0748833
0.0761187
0.0772123
0.078161
0.0789626
0.0796156
0.0801195
0.0804743
0.0806815
0.0807431
0.0806623
0.0804435
0.0800922
0.0796151
0.07902
0.078316
0.0775136
0.0766249
0.075663
0.0746426
0.0735798
0.0724921
0.0713982
0.0703182
0.0692729
0.0682839
0.0673735
0.0665639
0.0658767
0.0653341
0.0649595
0.064765
0.00409718
0.00367038
0.00313833
0.00249344
0.00173652
0.000887169
-3.48001e-05
-0.00101061
-0.00202144
-0.00304881
-0.00407482
-0.00508252
-0.00605596
-0.00698041
-0.00784231
-0.00862939
-0.00933064
-0.00993624
-0.0104376
-0.0108272
-0.0110986
-0.0112466
-0.0112668
-0.0111559
-0.0109114
-0.0105316
-0.0100157
-0.00936365
-0.00857614
-0.00765444
-0.00660046
-0.00541668
-0.00410615
-0.00267245
-0.00111965
0.000547673
0.00232449
0.00420536
0.00618443
0.00825556
0.0104122
0.0126477
0.0149549
0.0173266
0.019755
0.0222324
0.0247507
0.0273018
0.0298772
0.0324684
0.035067
0.0376644
0.0402518
0.0428206
0.0453621
0.0478676
0.0503285
0.0527363
0.0550828
0.0573596
0.059559
0.0616733
0.0636951
0.0656173
0.0674333
0.0691368
0.0707219
0.0721834
0.0735165
0.074717
0.0757813
0.0767065
0.0774904
0.0781319
0.0786301
0.0789856
0.0791993
0.0792734
0.0792109
0.0790161
0.0786942
0.0782513
0.0776949
0.0770336
0.076277
0.0754364
0.0745238
0.0735527
0.0725377
0.0714946
0.0704403
0.0693923
0.0683691
0.0673896
0.0664726
0.0656372
0.0649026
0.0642881
0.0637986
0.0634305
0.0056104
0.00498503
0.00431616
0.00357919
0.00275482
0.00185991
0.000911996
-7.33762e-05
-0.00108046
-0.00209341
-0.0030968
-0.00407581
-0.00501643
-0.00590558
-0.00673118
-0.00748218
-0.00814858
-0.00872145
-0.0091929
-0.00955609
-0.00980514
-0.00993509
-0.00994193
-0.00982252
-0.00957456
-0.00919653
-0.00868765
-0.00804786
-0.0072778
-0.0063787
-0.00535239
-0.00420122
-0.00292808
-0.00153638
-3.00223e-05
0.00158663
0.00330878
0.00513117
0.00704824
0.00905406
0.0111424
0.0133068
0.0155405
0.0178363
0.0201871
0.0225852
0.0250228
0.0274922
0.0299852
0.0324936
0.0350092
0.0375238
0.0400289
0.0425162
0.0449772
0.0474036
0.0497871
0.0521196
0.0543929
0.0565991
0.0587308
0.0607805
0.0627411
0.0646056
0.0663679
0.0680217
0.0695615
0.0709822
0.0722791
0.0734482
0.0744861
0.0753899
0.0761578
0.0767883
0.0772808
0.0776356
0.0778539
0.0779376
0.0778895
0.0777136
0.0774149
0.076999
0.0764729
0.0758446
0.075123
0.0743184
0.0734418
0.0725056
0.0715229
0.0705079
0.0694756
0.0684415
0.0674218
0.0664326
0.0654904
0.0646108
0.0638111
0.0631079
0.0624872
0.0619288
0.00723783
0.00640537
0.00558878
0.00474707
0.00384117
0.00288562
0.00189609
0.000885255
-0.00013385
-0.00114782
-0.00214344
-0.00310789
-0.00402894
-0.0048951
-0.00569568
-0.00642084
-0.00706162
-0.00760995
-0.00805869
-0.00840162
-0.00863343
-0.00874959
-0.00874642
-0.00862105
-0.00837137
-0.00799605
-0.00749438
-0.00686636
-0.00611262
-0.00523437
-0.00423338
-0.00311191
-0.00187273
-0.000519107
0.000945202
0.00251599
0.00418866
0.0059582
0.00781919
0.009766
0.0117926
0.0138928
0.0160601
0.0182875
0.0205681
0.0228947
0.0252596
0.0276553
0.030074
0.0325078
0.0349488
0.0373889
0.03982
0.042234
0.0446229
0.0469784
0.0492926
0.0515576
0.0537655
0.0559088
0.0579801
0.0599722
0.0618782
0.0636915
0.065406
0.0670157
0.0685152
0.0698996
0.0711643
0.0723055
0.0733197
0.0742043
0.0749574
0.0755776
0.0760643
0.0764176
0.0766386
0.0767291
0.0766918
0.0765302
0.076249
0.0758534
0.0753499
0.0747458
0.0740494
0.0732698
0.0724174
0.0715032
0.0705389
0.0695374
0.0685119
0.0674759
0.0664436
0.0654289
0.0644455
0.0635065
0.0626275
0.0618229
0.0610598
0.0603019
0.00894161
0.00789853
0.00692746
0.00597179
0.00497348
0.00394519
0.00290119
0.00185161
0.000807069
-0.000221189
-0.00122195
-0.00218422
-0.00309743
-0.00395157
-0.00473726
-0.00544584
-0.00606934
-0.00660058
-0.00703318
-0.00736155
-0.00758091
-0.00768722
-0.00767719
-0.00754821
-0.00729843
-0.00692666
-0.00643238
-0.00581565
-0.00507714
-0.00421805
-0.00324012
-0.00214554
-0.000937027
0.000382273
0.00180876
0.00333834
0.00496656
0.0066886
0.00849929
0.0103932
0.0123644
0.0144071
0.0165148
0.0186809
0.0208987
0.0231612
0.025461
0.0277909
0.0301432
0.0325104
0.0348848
0.0372584
0.0396236
0.0419724
0.0442971
0.0465897
0.0488424
0.0510475
0.0531976
0.0552851
0.0573031
0.0592444
0.0611024
0.0628706
0.064543
0.0661139
0.067578
0.0689304
0.0701669
0.0712834
0.0722767
0.0731442
0.073884
0.0744947
0.0749755
0.0753265
0.0755486
0.0756435
0.0756135
0.075462
0.0751931
0.0748118
0.0743239
0.073736
0.0730558
0.0722915
0.0714526
0.0705488
0.0695908
0.0685899
0.0675577
0.0665063
0.0654476
0.0643937
0.0633561
0.0623455
0.0613762
0.0604607
0.0595479
0.0585865
0.0106891
0.00943519
0.0083059
0.00722988
0.00613094
0.00502043
0.00391152
0.00281217
0.0017309
0.000677031
-0.000340005
-0.00131088
-0.00222656
-0.00307841
-0.00385826
-0.00455855
-0.00517231
-0.00569321
-0.00611563
-0.00643461
-0.00664593
-0.00674602
-0.00673197
-0.00660154
-0.0063531
-0.00598567
-0.00549888
-0.00489295
-0.00416857
-0.00332696
-0.00236989
-0.00129951
-0.00011846
0.00117019
0.00256294
0.00405578
0.00564443
0.00732422
0.00909017
0.010937
0.012859
0.0148505
0.0169054
0.0190171
0.0211792
0.0233848
0.025627
0.0278986
0.0301922
0.0325005
0.0348159
0.037131
0.0394381
0.0417296
0.0439978
0.046235
0.0484338
0.0505865
0.052686
0.0547249
0.0566963
0.0585934
0.0604096
0.0621386
0.0637746
0.065312
0.0667454
0.0680702
0.0692821
0.0703772
0.0713524
0.0722049
0.0729328
0.0735347
0.0740097
0.0743579
0.0745798
0.0746768
0.0746513
0.074506
0.0742448
0.0738722
0.0733935
0.0728147
0.0721427
0.071385
0.0705499
0.0696463
0.0686838
0.0676722
0.0666219
0.0655431
0.0644464
0.0633421
0.0622396
0.0611475
0.0600792
0.0590462
0.0579796
0.0568139
0.0124522
0.0109894
0.00970028
0.00849966
0.00729405
0.00609392
0.00491176
0.00375365
0.00262624
0.00153719
0.000494349
-0.000494471
-0.0014216
-0.00227968
-0.00306169
-0.00376111
-0.00437186
-0.00488848
-0.00530607
-0.00562033
-0.00582758
-0.00592472
-0.00590925
-0.00577925
-0.00553341
-0.00517098
-0.00469174
-0.00409601
-0.00338463
-0.00255888
-0.0016205
-0.000571632
0.000585099
0.00184665
0.0032096
0.00467009
0.00622392
0.00786655
0.00959314
0.0113986
0.0132774
0.0152241
0.0172325
0.0192965
0.0214097
0.0235656
0.0257573
0.0279779
0.0302202
0.0324771
0.0347412
0.0370053
0.0392619
0.0415035
0.0437227
0.0459121
0.0480643
0.0501719
0.0522278
0.0542249
0.0561565
0.0580157
0.0597962
0.0614919
0.0630969
0.0646057
0.0660131
0.0673145
0.0685056
0.0695827
0.0705424
0.0713821
0.0720997
0.0726937
0.0731633
0.073508
0.0737286
0.073826
0.0738022
0.0736599
0.0734023
0.0730336
0.0725584
0.0719822
0.0713112
0.0705522
0.0697126
0.0688003
0.0678237
0.0667917
0.0657131
0.0645971
0.0634526
0.0622883
0.0611121
0.0599308
0.0587572
0.0576019
0.0563795
0.055011
0.0142066
0.012538
0.011089
0.00976121
0.00844468
0.00714936
0.00588732
0.00466309
0.00348175
0.00234949
0.00127272
0.000257955
-0.000688393
-0.00156012
-0.00235128
-0.00305632
-0.00367006
-0.00418777
-0.0046053
-0.004919
-0.00512572
-0.00522281
-0.00520818
-0.0050803
-0.00483813
-0.00448114
-0.00400935
-0.00342322
-0.00272369
-0.00191209
-0.000990209
3.97673e-05
0.00117523
0.00241317
0.00375025
0.00518264
0.00670625
0.00831666
0.0100092
0.0117788
0.0136203
0.0155281
0.0174964
0.0195192
0.0215903
0.0237033
0.0258515
0.0280282
0.0302264
0.0324391
0.0346593
0.0368798
0.0390932
0.0412924
0.0434701
0.0456188
0.0477315
0.049801
0.0518203
0.0537823
0.0556804
0.0575081
0.0592589
0.0609268
0.0625062
0.0639914
0.0653775
0.0666597
0.0678338
0.0688959
0.0698429
0.070672
0.071381
0.0719683
0.0724327
0.072774
0.0729923
0.0730886
0.0730644
0.072922
0.0726645
0.0722953
0.0718186
0.0712394
0.0705632
0.069796
0.0689445
0.0680156
0.0670167
0.0659557
0.0648403
0.0636784
0.0624778
0.0612458
0.0599888
0.0587123
0.0574286
0.0561481
0.0547695
0.0532008
0.0159312
0.0140607
0.0124528
0.0109964
0.00956603
0.00817133
0.00682425
0.00552801
0.00428634
0.00310415
0.00198665
0.000939114
-3.31241e-05
-0.00092492
-0.00173132
-0.00244764
-0.00306956
-0.00359312
-0.00401481
-0.00433158
-0.00454084
-0.00464042
-0.00462863
-0.00450424
-0.00426656
-0.00391534
-0.0034508
-0.00287351
-0.00218456
-0.0013854
-0.000477879
0.000535815
0.00165308
0.00287089
0.00418589
0.00559435
0.00709227
0.00867535
0.0103389
0.0120782
0.013888
0.0157628
0.0176972
0.0196851
0.0217206
0.0237974
0.0259089
0.0280486
0.0302098
0.0323856
0.034569
0.036753
0.0389306
0.0410945
0.0432377
0.0453529
0.0474332
0.0494714
0.0514607
0.0533941
0.0552652
0.0570674
0.0587944
0.0604402
0.0619991
0.0634658
0.064835
0.0661022
0.067263
0.0683137
0.0692508
0.0700715
0.0707737
0.0713554
0.0718154
0.0721532
0.0723688
0.0724627
0.0724363
0.0722915
0.0720309
0.0716574
0.071175
0.0705878
0.0699009
0.0691195
0.0682495
0.0672972
0.0662689
0.0651716
0.0640121
0.0627973
0.0615336
0.0602275
0.058884
0.0575076
0.0561105
0.054703
0.0531686
0.0514032
0.0176077
0.0155395
0.0137742
0.0121887
0.0106426
0.00914549
0.00770942
0.00633647
0.00502924
0.00379157
0.0026276
0.00154155
0.000537736
-0.000379619
-0.00120647
-0.001939
-0.00257364
-0.00310714
-0.00353663
-0.00385965
-0.00407412
-0.00417833
-0.00417097
-0.00405122
-0.00381869
-0.00347336
-0.00301563
-0.00244633
-0.00176666
-0.000978179
-8.27796e-05
0.000917287
0.00201936
0.00322041
0.0045171
0.00590578
0.00738249
0.00894297
0.0105827
0.0122969
0.0140805
0.0159282
0.0178346
0.0197939
0.0218002
0.0238472
0.0259288
0.0280384
0.0301694
0.0323151
0.0344688
0.0366235
0.0387721
0.0409079
0.0430236
0.0451123
0.0471669
0.0491806
0.0511465
0.0530579
0.0549081
0.0566909
0.0583998
0.060029
0.0615728
0.0630258
0.0643828
0.0656391
0.0667905
0.0678329
0.068763
0.0695779
0.0702751
0.0708527
0.0713092
0.0716439
0.0718564
0.0719472
0.0719172
0.0717679
0.0715015
0.0711208
0.0706288
0.0700294
0.069327
0.0685262
0.0676323
0.0666505
0.0655867
0.064447
0.0632372
0.0619632
0.0606308
0.0592453
0.0578108
0.0563309
0.054818
0.0532824
0.0515933
0.049635
0.0192199
0.0169582
0.0150375
0.013323
0.01166
0.0100584
0.00853027
0.00707693
0.00569996
0.00440226
0.00318707
0.00205771
0.00101755
6.99467e-05
-0.000781845
-0.00153477
-0.00218597
-0.00273293
-0.00317337
-0.00350533
-0.00372722
-0.00383782
-0.00383625
-0.003722
-0.00349496
-0.0031554
-0.00270399
-0.00214171
-0.0014699
-0.000690206
0.000195342
0.00118441
0.0022743
0.00346199
0.00474415
0.00611712
0.00757699
0.00911955
0.0107403
0.0124347
0.0141976
0.016024
0.0179083
0.0198451
0.0218283
0.0238521
0.0259102
0.0279963
0.030104
0.0322265
0.0343573
0.0364895
0.0386163
0.0407307
0.0428258
0.0448947
0.0469305
0.0489264
0.0508754
0.052771
0.0546067
0.0563759
0.0580725
0.0596906
0.0612245
0.0626687
0.064018
0.0652677
0.0664135
0.0674512
0.0683774
0.0691889
0.0698833
0.0704584
0.0709125
0.0712446
0.0714542
0.0715414
0.0715067
0.0713514
0.0710772
0.0706864
0.0701818
0.0695666
0.0688446
0.06802
0.0670972
0.066081
0.0649766
0.0637891
0.0625238
0.0611856
0.0597797
0.0583105
0.0567814
0.0551953
0.0535649
0.0519008
0.0500584
0.0479108
0.0207533
0.0183024
0.0162284
0.0143854
0.0126049
0.0108973
0.00927495
0.00773835
0.0062883
0.00492692
0.00365663
0.00247994
0.00139943
0.000417682
-0.000462775
-0.00123964
-0.00191074
-0.00247411
-0.00292805
-0.00327117
-0.00350236
-0.0036208
-0.00362598
-0.00351777
-0.00329636
-0.00296231
-0.0025165
-0.00196009
-0.00129458
-0.000521754
0.000356235
0.00133698
0.00241775
0.0035955
0.00486686
0.00622817
0.00767553
0.00920481
0.0108116
0.0124913
0.0142389
0.0160495
0.0179176
0.0198378
0.0218042
0.0238111
0.0258522
0.0279214
0.0300123
0.0321183
0.034233
0.0363495
0.0384611
0.0405611
0.0426424
0.0446983
0.0467219
0.0487064
0.0506451
0.0525312
0.0543583
0.05612
0.0578101
0.0594225
0.0609517
0.0623921
0.0637383
0.0649857
0.0661298
0.0671663
0.0680918
0.0689028
0.0695966
0.070171
0.070624
0.0709544
0.0711615
0.0712449
0.0712049
0.0710424
0.0707588
0.0703559
0.0698361
0.0692021
0.0684572
0.0676049
0.0666493
0.0655945
0.064445
0.0632053
0.06188
0.0604734
0.05899
0.0574336
0.0558072
0.0541127
0.0523637
0.0505709
0.0485768
0.0462435
0.0221953
0.019559
0.0173339
0.0153632
0.0134652
0.0116505
0.00993223
0.00831018
0.00678445
0.00535645
0.00402788
0.00280058
0.00167646
0.000657356
-0.000254946
-0.00105872
-0.0017524
-0.00233461
-0.0028042
-0.0031603
-0.00340221
-0.00352953
-0.00354215
-0.00344028
-0.00322442
-0.00289537
-0.00245424
-0.0019024
-0.00124153
-0.000473556
0.000399274
0.00137446
0.00244921
0.00362042
0.00488471
0.00623839
0.00767759
0.00919818
0.0107958
0.0124659
0.0142036
0.016004
0.0178616
0.0197711
0.0217268
0.0237229
0.0257534
0.0278121
0.0298928
0.031989
0.0340942
0.0362018
0.038305
0.0403971
0.0424714
0.0445209
0.0465389
0.0485186
0.0504533
0.0523362
0.0541609
0.0559209
0.0576101
0.0592225
0.0607522
0.0621937
0.0635416
0.0647911
0.0659375
0.0669766
0.0679045
0.0687179
0.0694137
0.0699894
0.070443
0.070773
0.0709782
0.071058
0.0710125
0.0708422
0.0705479
0.0701314
0.0695943
0.068939
0.0681684
0.0672854
0.0662935
0.0651966
0.0639983
0.0627026
0.0613136
0.0598352
0.058271
0.0566248
0.0548986
0.0530942
0.0512256
0.0493043
0.0471599
0.044644
0.0235344
0.0207162
0.0183421
0.0162445
0.014229
0.0123068
0.0104915
0.00878236
0.00717886
0.00568188
0.00429255
0.00301203
0.00184158
0.000782431
-0.000164224
-0.00099728
-0.00171575
-0.00231878
-0.00280574
-0.00317617
-0.00342985
-0.00356679
-0.00358723
-0.00349172
-0.00328104
-0.00295628
-0.00251874
-0.00197004
-0.00131201
-0.000546734
0.000323431
0.00129589
0.00236776
0.00353588
0.00479685
0.00614695
0.00758231
0.0090988
0.0106921
0.0123577
0.0140908
0.0158863
0.0177392
0.0196439
0.0215949
0.0235864
0.0256125
0.0276671
0.0297441
0.0318369
0.0339393
0.0360445
0.038146
0.040237
0.0423108
0.0443605
0.0463795
0.0483608
0.0502978
0.0521837
0.0540121
0.0557765
0.0574706
0.0590884
0.060624
0.0620716
0.063426
0.064682
0.065835
0.0668805
0.0678144
0.0686332
0.0693337
0.0699131
0.0703692
0.0707002
0.0709045
0.0709814
0.0709305
0.070752
0.0704465
0.0700151
0.0694592
0.0687808
0.0679821
0.0670659
0.0660352
0.064893
0.0636429
0.0622882
0.0608325
0.0592792
0.0576317
0.0558932
0.0540654
0.0521498
0.0501611
0.0481114
0.0458181
0.0431225
0.02476
0.0217631
0.0192418
0.0170183
0.0148857
0.0128558
0.0109426
0.00914508
0.00746227
0.00589453
0.00444242
0.00310656
0.00188764
0.000786339
-0.000196694
-0.00106094
-0.00180592
-0.00243129
-0.00293686
-0.00332263
-0.0035888
-0.00373577
-0.00376411
-0.00367469
-0.0034686
-0.00314717
-0.00271197
-0.00216479
-0.00150766
-0.000742807
0.00012728
0.00109992
0.00217213
0.00334068
0.00460211
0.00595269
0.00738853
0.00890551
0.0104993
0.0121654
0.0138991
0.0156954
0.017549
0.0194547
0.021407
0.0234
0.0254279
0.0274848
0.0295644
0.0316604
0.0337664
0.0358759
0.0379823
0.0400787
0.0421586
0.0442152
0.0462416
0.048231
0.0501766
0.0520718
0.05391
0.0556847
0.0573895
0.0590183
0.0605651
0.0620241
0.0633899
0.0646571
0.065821
0.0668768
0.0678203
0.0686479
0.0693561
0.0699418
0.0704026
0.0707362
0.0709411
0.071016
0.0709602
0.0707737
0.0704567
0.0700098
0.0694341
0.0687311
0.0679027
0.0669514
0.0658795
0.0646898
0.0633853
0.061969
0.060444
0.0588135
0.0570804
0.0552478
0.0533169
0.051289
0.0491796
0.0470018
0.0445607
0.0416875
0.0258624
0.0226894
0.0200227
0.0176743
0.015425
0.0132872
0.0112756
0.00938894
0.00762566
0.00598574
0.0044693
0.00307647
0.00180744
0.000662355
-0.000358656
-0.00125554
-0.00202831
-0.0026771
-0.00320216
-0.00360391
-0.00388294
-0.00404001
-0.00407603
-0.0039922
-0.00378986
-0.00347062
-0.00303628
-0.00248883
-0.0018305
-0.00106367
-0.000190953
0.000784857
0.0018607
0.00303324
0.00429897
0.00565413
0.00709481
0.00861687
0.010216
0.0118877
0.0136272
0.0154295
0.0172896
0.0192021
0.0211615
0.0231621
0.025198
0.0272634
0.029352
0.0314576
0.0335738
0.0356941
0.0378118
0.0399204
0.042013
0.0440829
0.0461232
0.0481271
0.0500877
0.0519985
0.0538527
0.0556437
0.057365
0.0590105
0.060574
0.0620497
0.0634318
0.064715
0.0658942
0.0669646
0.0679217
0.0687616
0.0694806
0.0700755
0.0705434
0.0708818
0.0710889
0.0711631
0.0711035
0.0709095
0.0705811
0.0701184
0.0695223
0.0687938
0.0679346
0.0669466
0.0658318
0.0645927
0.0632318
0.0617518
0.0601555
0.0584458
0.0566254
0.0546969
0.0526617
0.0505206
0.0482901
0.0459842
0.0433962
0.0403472
0.0268326
0.0234859
0.0206752
0.0182027
0.0158371
0.0135914
0.0114812
0.00950473
0.00766012
0.00594699
0.00436507
0.00291406
0.00159366
0.000403578
-0.000656545
-0.0015871
-0.00238855
-0.00306147
-0.00360654
-0.00402455
-0.00431648
-0.00448342
-0.00452664
-0.0044476
-0.00424794
-0.00392952
-0.00349437
-0.00294471
-0.00228294
-0.00151158
-0.000633402
0.000348681
0.00143151
0.00261169
0.00388563
0.00524952
0.00669941
0.00823114
0.0098404
0.0115227
0.0132732
0.0150871
0.0169593
0.0188843
0.0208567
0.0228708
0.0249209
0.0270011
0.0291051
0.0312267
0.0333595
0.0354971
0.0376328
0.03976
0.0418718
0.0439616
0.0460223
0.0480471
0.0500292
0.0519619
0.0538382
0.0556516
0.0573954
0.0590634
0.0606493
0.0621469
0.0635506
0.0648547
0.0660539
0.0671432
0.068118
0.0689741
0.0697074
0.0703146
0.0707923
0.071138
0.0713493
0.0714246
0.0713623
0.0711618
0.0708224
0.0703442
0.0697276
0.0689732
0.0680824
0.0670567
0.0658978
0.0646078
0.0631888
0.0616435
0.0599743
0.0581838
0.0562744
0.0542488
0.0521079
0.0498528
0.0475008
0.0450668
0.0423324
0.0391089
0.0276618
0.0241433
0.02119
0.0185941
0.0161126
0.0137592
0.0115502
0.00948346
0.00755693
0.00576988
0.00412165
0.00261156
0.00123892
3.00068e-06
-0.00109698
-0.00206187
-0.00289253
-0.00358994
-0.00415517
-0.0045894
-0.00489394
-0.00507025
-0.00511989
-0.0050446
-0.00484631
-0.00452713
-0.00408933
-0.00353532
-0.00286769
-0.00208913
-0.00120255
-0.000210977
0.000882311
0.00207385
0.00335996
0.00473679
0.0062003
0.00774635
0.00937059
0.0110685
0.0128354
0.0146663
0.016556
0.0184992
0.0204905
0.0225243
0.0245947
0.0266958
0.0288215
0.0309655
0.0331214
0.0352828
0.0374431
0.0395954
0.0417331
0.0438492
0.0459369
0.0479892
0.0499993
0.0519601
0.0538649
0.0557068
0.0574792
0.0591755
0.0607894
0.0623147
0.0637452
0.0650753
0.0662994
0.0674123
0.0684091
0.0692853
0.0700368
0.0706595
0.0711502
0.0715059
0.0717239
0.0718022
0.071739
0.0715332
0.0711839
0.0706908
0.0700539
0.0692737
0.068351
0.0672869
0.066083
0.064741
0.063263
0.061651
0.0599075
0.0580348
0.0560352
0.0539112
0.0516637
0.0492938
0.0468197
0.0442574
0.0413767
0.0379792
0.028342
0.024653
0.0215581
0.0188394
0.0162424
0.0137814
0.0114735
0.00931631
0.00730749
0.00544602
0.00373094
0.00216121
0.000735781
-0.000546486
-0.00168676
-0.00268629
-0.00354634
-0.00426825
-0.00485348
-0.00530358
-0.00562017
-0.00580504
-0.00586004
-0.00578722
-0.00558876
-0.00526703
-0.00482453
-0.00426387
-0.00358782
-0.00279925
-0.00190118
-0.000896799
0.000210528
0.00141723
0.00271955
0.00411356
0.00559519
0.00716025
0.00880438
0.010523
0.0123115
0.0141647
0.0160776
0.0180448
0.0200609
0.0221203
0.0242171
0.0263454
0.0284991
0.0306719
0.0328574
0.0350492
0.0372405
0.0394246
0.0415948
0.0437439
0.0458651
0.0479515
0.0499959
0.0519914
0.0539309
0.0558077
0.0576147
0.0593455
0.0609933
0.0625519
0.0640148
0.0653762
0.0666302
0.0677716
0.068795
0.0696957
0.0704692
0.0711113
0.0716184
0.0719871
0.0722146
0.0722983
0.0722362
0.0720268
0.0716689
0.0711619
0.0705055
0.0696997
0.0687452
0.0676426
0.0663933
0.0649988
0.0634608
0.0617812
0.0599624
0.0580063
0.0559153
0.0536918
0.0513368
0.0488512
0.0462544
0.0435633
0.0405362
0.0369647
0.0288652
0.0250068
0.0217709
0.0189299
0.0162177
0.0136493
0.0112424
0.00899461
0.00690326
0.00496709
0.00318486
0.00155521
7.67085e-05
-0.00125211
-0.00243281
-0.00346698
-0.00435628
-0.00510241
-0.00570718
-0.00617248
-0.00650026
-0.0066926
-0.00675167
-0.00667979
-0.00647941
-0.00615314
-0.00570369
-0.00513388
-0.00444669
-0.00364513
-0.00273238
-0.00171174
-0.000586693
0.00063907
0.00196172
0.00337724
0.00488154
0.00647036
0.00813931
0.00988381
0.0116991
0.0135801
0.0155218
0.0175188
0.0195655
0.0216565
0.0237858
0.0259476
0.0281356
0.0303436
0.0325652
0.0347939
0.0370229
0.0392454
0.0414546
0.0436435
0.0458049
0.0479319
0.0500173
0.0520539
0.0540348
0.0559527
0.0578008
0.0595721
0.0612599
0.0628575
0.0643586
0.0657568
0.0670462
0.068221
0.0692759
0.0702057
0.0710056
0.0716711
0.0721983
0.0725835
0.0728234
0.0729153
0.0728567
0.0726458
0.0722811
0.0717617
0.0710868
0.0702562
0.0692702
0.0681294
0.0668346
0.0653872
0.0637888
0.062041
0.0601459
0.0581056
0.0559222
0.0535983
0.0511347
0.0485325
0.0458123
0.0429917
0.0398175
0.0360716
0.0292236
0.0251964
0.0218199
0.018857
0.0160298
0.0133539
0.0108482
0.00850974
0.00633577
0.00432479
0.00247531
0.000785652
-0.000745933
-0.00212125
-0.0033422
-0.00441073
-0.00532886
-0.00609864
-0.00672219
-0.00720175
-0.00753959
-0.00773806
-0.00779966
-0.00772696
-0.00752268
-0.00718965
-0.00673081
-0.0061492
-0.00544797
-0.00463029
-0.0036995
-0.00265903
-0.00151248
-0.000263652
0.00108353
0.00252499
0.00405657
0.00567396
0.00737269
0.00914818
0.0109956
0.0129099
0.014886
0.0169185
0.0190019
0.0211305
0.0232985
0.0254999
0.0277286
0.0299783
0.0322426
0.0345147
0.036788
0.0390556
0.0413106
0.0435458
0.0457542
0.0479286
0.0500616
0.0521461
0.0541747
0.0561404
0.0580359
0.0598541
0.0615881
0.0632309
0.064776
0.0662168
0.0675471
0.0687608
0.0698523
0.070816
0.0716469
0.0723402
0.0728915
0.0732969
0.0735528
0.0736559
0.0736037
0.0733937
0.0730244
0.0724942
0.0718024
0.0709482
0.0699317
0.0687531
0.0674131
0.0659129
0.0642538
0.0624374
0.0604654
0.0583401
0.0560635
0.0536381
0.0510651
0.0483454
0.0455007
0.0425496
0.0392273
0.0353059
0.0294094
0.0252137
0.0216969
0.0186121
0.0156699
0.0128868
0.0102821
0.00785309
0.00559653
0.00351079
0.00159412
-0.000155418
-0.00173988
-0.00316139
-0.00442217
-0.00552453
-0.00647081
-0.00726338
-0.00790469
-0.0083973
-0.00874379
-0.00894682
-0.00900915
-0.00893365
-0.00872325
-0.00838104
-0.00791019
-0.00731394
-0.00659559
-0.00575851
-0.00480619
-0.00374218
-0.00257022
-0.00129422
8.18174e-05
0.00155373
0.00311728
0.00476809
0.00650166
0.00831333
0.0101983
0.0121514
0.0141676
0.0162414
0.0183672
0.0205395
0.0227524
0.0249999
0.0272757
0.0295735
0.0318869
0.0342092
0.0365335
0.0388529
0.0411604
0.0434489
0.045711
0.0479395
0.0501269
0.052266
0.0543493
0.0563693
0.0583188
0.0601904
0.061977
0.0636714
0.0652666
0.066756
0.068133
0.0693912
0.0705246
0.0715275
0.0723943
0.0731201
0.0737
0.0741298
0.0744053
0.0745233
0.0744805
0.0742744
0.0739029
0.0733643
0.0726572
0.0717809
0.070735
0.0695196
0.0681351
0.0665824
0.0648627
0.0629774
0.0609282
0.0587172
0.0563467
0.0538191
0.0511355
0.0482972
0.0453268
0.0422441
0.0387723
0.0346737
0.0294148
0.0250507
0.0213935
0.0181868
0.0151296
0.0122392
0.00953565
0.00701605
0.00467701
0.00251666
0.000533041
-0.00127607
-0.00291299
-0.00438017
-0.00568016
-0.00681555
-0.00778902
-0.00860328
-0.00926108
-0.00976528
-0.0101188
-0.0103245
-0.0103856
-0.0103051
-0.0100861
-0.00973211
-0.00924641
-0.00863247
-0.00789377
-0.00703385
-0.00605634
-0.00496495
-0.00376355
-0.00245613
-0.00104682
0.000460142
0.00206043
0.0037496
0.0055231
0.00737623
0.0093041
0.0113016
0.0133636
0.0154845
0.0176589
0.019881
0.022145
0.0244448
0.0267741
0.0291267
0.0314958
0.0338748
0.0362569
0.0386349
0.0410018
0.0433503
0.045673
0.0479626
0.0502114
0.052412
0.0545567
0.056638
0.0586483
0.06058
0.0624258
0.0641782
0.0658301
0.0673743
0.0688041
0.0701127
0.0712938
0.0723413
0.0732493
0.0740126
0.0746258
0.0750844