/*--------------------------------*- C++ -*----------------------------------*\
| =========                 |                                                 |
| \\      /  F ield         | OpenFOAM: The Open Source CFD Toolbox           |
|  \\    /   O peration     | Version:  2212                                  |
|   \\  /    A nd           | Website:  www.openfoam.com                      |
|    \\/     M anipulation  |                                                 |
\*---------------------------------------------------------------------------*/
FoamFile
{
    version     2.0;
    format      ascii;
    arch        "LSB;label=32;scalar=64";
    class       surfaceScalarField;
    location    "0.092";
    object      phi;
}
// * * * * * * * * * * * * * * * * * * * * * * * * * * * * * * * * * * * * * //

dimensions      [0 3 -1 0 0 0 0];

oriented        oriented;

internalField   nonuniform List<scalar> 
19800
(
7.07259e-11
-7.06267e-11
2.43033e-10
-1.72317e-10
4.32962e-10
-1.89917e-10
5.82166e-10
-1.49205e-10
6.57231e-10
-7.50614e-11
6.39722e-10
1.75212e-11
5.20382e-10
1.19341e-10
2.95811e-10
2.24581e-10
-3.37225e-11
3.29535e-10
-4.65555e-10
4.31821e-10
-9.95447e-10
5.29881e-10
-1.61811e-09
6.22667e-10
-2.32758e-09
7.0948e-10
-3.11743e-09
7.89864e-10
-3.98095e-09
8.63533e-10
-4.91128e-09
9.30327e-10
-5.90147e-09
9.90181e-10
-6.94456e-09
1.04309e-09
-8.03366e-09
1.08909e-09
-9.16195e-09
1.12827e-09
-1.03227e-08
1.16075e-09
-1.15094e-08
1.18665e-09
-1.27155e-08
1.20615e-09
-1.39349e-08
1.21941e-09
-1.51615e-08
1.22661e-09
-1.63895e-08
1.22793e-09
-1.7613e-08
1.22357e-09
-1.88268e-08
1.21374e-09
-2.00254e-08
1.19864e-09
-2.12039e-08
1.17847e-09
-2.23574e-08
1.15346e-09
-2.34812e-08
1.1238e-09
-2.45709e-08
1.08972e-09
-2.56223e-08
1.05143e-09
-2.66315e-08
1.00914e-09
-2.75945e-08
9.63074e-10
-2.8508e-08
9.13454e-10
-2.93685e-08
8.60493e-10
-3.01729e-08
8.04413e-10
-3.09183e-08
7.45435e-10
-3.16021e-08
6.8378e-10
-3.22218e-08
6.19675e-10
-3.27751e-08
5.53339e-10
-3.32601e-08
4.84993e-10
-3.3675e-08
4.14876e-10
-3.40182e-08
3.43215e-10
-3.42884e-08
2.70242e-10
-3.44846e-08
1.96203e-10
-3.4606e-08
1.21335e-10
-3.46518e-08
4.58814e-11
-3.4622e-08
-2.99012e-11
-3.45162e-08
-1.05761e-10
-3.43348e-08
-1.81447e-10
-3.40781e-08
-2.56694e-10
-3.37468e-08
-3.31239e-10
-3.3342e-08
-4.04821e-10
-3.28648e-08
-4.77168e-10
-3.23168e-08
-5.48004e-10
-3.16998e-08
-6.17053e-10
-3.10157e-08
-6.84033e-10
-3.02671e-08
-7.48663e-10
-2.94564e-08
-8.10662e-10
-2.85867e-08
-8.69747e-10
-2.7661e-08
-9.25634e-10
-2.6683e-08
-9.78046e-10
-2.56563e-08
-1.02671e-09
-2.45849e-08
-1.07136e-09
-2.34732e-08
-1.1117e-09
-2.23257e-08
-1.14748e-09
-2.11473e-08
-1.17843e-09
-1.9943e-08
-1.2043e-09
-1.87182e-08
-1.22484e-09
-1.74784e-08
-1.23981e-09
-1.62293e-08
-1.249e-09
-1.49772e-08
-1.25219e-09
-1.3728e-08
-1.2492e-09
-1.24882e-08
-1.23982e-09
-1.12642e-08
-1.22391e-09
-1.00629e-08
-1.20133e-09
-8.89096e-09
-1.17195e-09
-7.75528e-09
-1.13567e-09
-6.66282e-09
-1.09244e-09
-5.62058e-09
-1.04224e-09
-4.63553e-09
-9.85057e-10
-3.71458e-09
-9.20959e-10
-2.86451e-09
-8.50063e-10
-2.09193e-09
-7.72571e-10
-1.40318e-09
-6.88765e-10
-8.0414e-10
-5.9905e-10
-3.00132e-10
-5.04009e-10
1.04361e-10
-4.04482e-10
4.06018e-10
-3.01652e-10
6.03219e-10
-1.9721e-10
6.96862e-10
-9.36558e-11
6.91643e-10
5.21715e-12
5.98131e-10
9.35202e-11
4.36008e-10
1.62125e-10
2.39614e-10
1.96385e-10
6.72447e-11
1.72362e-10
6.72507e-11
1.72294e-10
-2.42927e-10
4.73799e-10
-4.73821e-10
7.63289e-10
-4.79415e-10
9.38356e-10
-3.2428e-10
9.27846e-10
-6.45788e-11
6.86175e-10
2.59185e-10
1.86717e-10
6.18784e-10
-5.83485e-10
9.94777e-10
-1.62772e-09
1.37378e-09
-2.94244e-09
1.74655e-09
-4.51919e-09
2.10664e-09
-6.34608e-09
2.44956e-09
-8.40876e-09
2.77216e-09
-1.06912e-08
3.07228e-09
-1.31761e-08
3.34845e-09
-1.58455e-08
3.59973e-09
-1.86809e-08
3.82557e-09
-2.16635e-08
4.02573e-09
-2.47746e-08
4.20018e-09
-2.79954e-08
4.3491e-09
-3.13075e-08
4.47277e-09
-3.46924e-08
4.57162e-09
-3.81324e-08
4.64613e-09
-4.16099e-08
4.69689e-09
-4.51078e-08
4.72453e-09
-4.86096e-08
4.72969e-09
-5.20991e-08
4.7131e-09
-5.55609e-08
4.67548e-09
-5.89798e-08
4.61759e-09
-6.23415e-08
4.54021e-09
-6.56322e-08
4.44411e-09
-6.88385e-08
4.33011e-09
-7.19478e-08
4.19902e-09
-7.49481e-08
4.05166e-09
-7.78278e-08
3.88886e-09
-8.05762e-08
3.71144e-09
-8.3183e-08
3.52025e-09
-8.56386e-08
3.31613e-09
-8.79341e-08
3.09994e-09
-9.00612e-08
2.87252e-09
-9.20122e-08
2.63473e-09
-9.37799e-08
2.38744e-09
-9.53581e-08
2.13153e-09
-9.6741e-08
1.86787e-09
-9.79235e-08
1.59736e-09
-9.89011e-08
1.32091e-09
-9.96703e-08
1.03943e-09
-1.00228e-07
7.53845e-10
-1.00572e-07
4.65108e-10
-1.007e-07
1.74162e-10
-1.00612e-07
-1.1803e-10
-1.00307e-07
-4.10475e-10
-9.97864e-08
-7.02182e-10
-9.9051e-08
-9.92151e-10
-9.81029e-08
-1.27935e-09
-9.6945e-08
-1.56274e-09
-9.55808e-08
-1.8413e-09
-9.40149e-08
-2.11395e-09
-9.22523e-08
-2.37964e-09
-9.0299e-08
-2.63729e-09
-8.81619e-08
-2.88582e-09
-8.58484e-08
-3.12415e-09
-8.33669e-08
-3.3512e-09
-8.07267e-08
-3.56589e-09
-7.79376e-08
-3.76716e-09
-7.50103e-08
-3.95394e-09
-7.19565e-08
-4.12519e-09
-6.87883e-08
-4.27987e-09
-6.55188e-08
-4.41699e-09
-6.21617e-08
-4.53554e-09
-5.87314e-08
-4.63456e-09
-5.52431e-08
-4.71315e-09
-5.17125e-08
-4.77043e-09
-4.8156e-08
-4.80555e-09
-4.45904e-08
-4.81776e-09
-4.10332e-08
-4.80635e-09
-3.75024e-08
-4.77069e-09
-3.40161e-08
-4.71019e-09
-3.05931e-08
-4.62437e-09
-2.72522e-08
-4.51285e-09
-2.40125e-08
-4.37536e-09
-2.08931e-08
-4.21177e-09
-1.79133e-08
-4.02208e-09
-1.50918e-08
-3.80647e-09
-1.24474e-08
-3.56535e-09
-9.99814e-09
-3.29937e-09
-7.7612e-09
-3.0095e-09
-5.75282e-09
-2.69714e-09
-3.98767e-09
-2.3642e-09
-2.47837e-09
-2.01331e-09
-1.23479e-09
-1.64807e-09
-2.63023e-10
-1.27343e-09
4.35974e-10
-8.96203e-10
8.6832e-10
-5.25986e-10
1.04992e-09
-1.76361e-10
1.01021e-09
1.33234e-10
7.97294e-10
3.75044e-10
4.8389e-10
5.09785e-10
1.72255e-10
4.84004e-10
2.39508e-10
1.90543e-10
-4.33458e-10
4.81427e-10
-7.64712e-10
6.98963e-10
-6.96945e-10
7.19837e-10
-3.45137e-10
4.54669e-10
2.006e-10
-1.57529e-10
8.71379e-10
-1.15494e-09
1.61619e-09
-2.55813e-09
2.39795e-09
-4.37424e-09
3.18989e-09
-6.60031e-09
3.97263e-09
-9.22584e-09
4.73217e-09
-1.22347e-08
5.4584e-09
-1.56065e-08
6.14401e-09
-1.93181e-08
6.78382e-09
-2.33438e-08
7.37415e-09
-2.76566e-08
7.91255e-09
-3.22285e-08
8.39745e-09
-3.70307e-08
8.82796e-09
-4.20343e-08
9.20377e-09
-4.72102e-08
9.52497e-09
-5.25294e-08
9.79201e-09
-5.79634e-08
1.00056e-08
-6.34839e-08
1.01667e-08
-6.90634e-08
1.02763e-08
-7.46747e-08
1.03358e-08
-8.02915e-08
1.03465e-08
-8.58884e-08
1.03099e-08
-9.14404e-08
1.02275e-08
-9.69237e-08
1.01009e-08
-1.02315e-07
9.93165e-09
-1.07593e-07
9.72157e-09
-1.12735e-07
9.47233e-09
-1.17721e-07
9.18569e-09
-1.22533e-07
8.86342e-09
-1.27152e-07
8.50731e-09
-1.31559e-07
8.11919e-09
-1.3574e-07
7.70086e-09
-1.39678e-07
7.25419e-09
-1.43359e-07
6.78103e-09
-1.4677e-07
6.28325e-09
-1.49898e-07
5.76274e-09
-1.52732e-07
5.22141e-09
-1.55262e-07
4.66118e-09
-1.57478e-07
4.08401e-09
-1.59372e-07
3.49184e-09
-1.60938e-07
2.88667e-09
-1.62169e-07
2.27053e-09
-1.63061e-07
1.64546e-09
-1.63609e-07
1.01351e-09
-1.63812e-07
3.76809e-10
-1.63667e-07
-2.62539e-10
-1.63175e-07
-9.02374e-10
-1.62337e-07
-1.54051e-09
-1.61154e-07
-2.17473e-09
-1.59631e-07
-2.80281e-09
-1.57771e-07
-3.42247e-09
-1.55581e-07
-4.03142e-09
-1.53068e-07
-4.62736e-09
-1.50239e-07
-5.20797e-09
-1.47106e-07
-5.77089e-09
-1.43678e-07
-6.31377e-09
-1.39968e-07
-6.83427e-09
-1.35989e-07
-7.33003e-09
-1.31756e-07
-7.79871e-09
-1.27285e-07
-8.23798e-09
-1.22594e-07
-8.64556e-09
-1.177e-07
-9.01917e-09
-1.12623e-07
-9.35658e-09
-1.07384e-07
-9.6556e-09
-1.02006e-07
-9.91413e-09
-9.65101e-08
-1.01301e-08
-9.09217e-08
-1.03016e-08
-8.52654e-08
-1.04267e-08
-7.95673e-08
-1.05037e-08
-7.38541e-08
-1.05309e-08
-6.81535e-08
-1.05069e-08
-6.24938e-08
-1.04304e-08
-5.69038e-08
-1.03002e-08
-5.14128e-08
-1.01153e-08
-4.60506e-08
-9.87513e-09
-4.08468e-08
-9.57914e-09
-3.58313e-08
-9.22721e-09
-3.10339e-08
-8.81955e-09
-2.64835e-08
-8.3568e-09
-2.22088e-08
-7.84006e-09
-1.82371e-08
-7.27106e-09
-1.45944e-08
-6.65223e-09
-1.13046e-08
-5.98699e-09
-8.38885e-09
-5.27992e-09
-5.86501e-09
-4.53716e-09
-3.7462e-09
-3.7669e-09
-2.03952e-09
-2.9801e-09
-7.44211e-10
-2.19152e-09
1.5087e-10
-1.42107e-09
6.70321e-10
-6.95815e-10
8.56187e-10
-5.26321e-11
7.72762e-10
4.58472e-10
5.11685e-10
7.70868e-10
1.96835e-10
7.98859e-10
4.36342e-10
1.51492e-10
-5.84952e-10
3.31268e-10
-9.44493e-10
3.55944e-10
-7.21632e-10
9.40657e-11
-8.32662e-11
-5.5094e-10
8.45604e-10
-1.64697e-09
1.96741e-09
-3.23818e-09
3.20739e-09
-5.34951e-09
4.50929e-09
-7.99061e-09
5.83099e-09
-1.1159e-08
7.14104e-09
-1.48429e-08
8.41602e-09
-1.9023e-08
9.63851e-09
-2.36746e-08
1.07956e-08
-2.87687e-08
1.18779e-08
-3.42732e-08
1.28787e-08
-4.01536e-08
1.3793e-08
-4.63739e-08
1.46178e-08
-5.2897e-08
1.5351e-08
-5.96851e-08
1.59919e-08
-6.67002e-08
1.654e-08
-7.39042e-08
1.6996e-08
-8.12594e-08
1.73607e-08
-8.87283e-08
1.76356e-08
-9.62744e-08
1.78224e-08
-1.03862e-07
1.7923e-08
-1.11455e-07
1.79396e-08
-1.19019e-07
1.78747e-08
-1.26523e-07
1.77308e-08
-1.33932e-07
1.75106e-08
-1.41218e-07
1.72168e-08
-1.48348e-07
1.68522e-08
-1.55296e-07
1.64199e-08
-1.62033e-07
1.59228e-08
-1.68534e-07
1.5364e-08
-1.74773e-07
1.47465e-08
-1.80727e-07
1.40735e-08
-1.86374e-07
1.33481e-08
-1.91694e-07
1.25735e-08
-1.96666e-07
1.17529e-08
-2.01272e-07
1.08896e-08
-2.05496e-07
9.98688e-09
-2.09323e-07
9.04802e-09
-2.12738e-07
8.07639e-09
-2.15729e-07
7.07537e-09
-2.18286e-07
6.0484e-09
-2.20398e-07
4.99893e-09
-2.22058e-07
3.93048e-09
-2.23259e-07
2.84661e-09
-2.23997e-07
1.75091e-09
-2.24267e-07
6.47028e-10
-2.24068e-07
-4.61319e-10
-2.234e-07
-1.57039e-09
-2.22264e-07
-2.6764e-09
-2.20663e-07
-3.77549e-09
-2.18602e-07
-4.86379e-09
-2.16087e-07
-5.93736e-09
-2.13127e-07
-6.99225e-09
-2.0973e-07
-8.02444e-09
-2.05908e-07
-9.02992e-09
-2.01674e-07
-1.00046e-08
-1.97043e-07
-1.09445e-08
-1.92032e-07
-1.18455e-08
-1.86658e-07
-1.27036e-08
-1.80942e-07
-1.35147e-08
-1.74905e-07
-1.42748e-08
-1.68571e-07
-1.49801e-08
-1.61964e-07
-1.56265e-08
-1.5511e-07
-1.62103e-08
-1.48038e-07
-1.67277e-08
-1.40777e-07
-1.71752e-08
-1.33358e-07
-1.75492e-08
-1.25813e-07
-1.78465e-08
-1.18176e-07
-1.80639e-08
-1.10481e-07
-1.81984e-08
-1.02764e-07
-1.82473e-08
-9.50632e-08
-1.82082e-08
-8.74146e-08
-1.8079e-08
-7.9857e-08
-1.78577e-08
-7.24294e-08
-1.7543e-08
-6.51707e-08
-1.71338e-08
-5.81204e-08
-1.66294e-08
-5.13176e-08
-1.603e-08
-4.48011e-08
-1.53361e-08
-3.86088e-08
-1.45491e-08
-3.27775e-08
-1.36713e-08
-2.73425e-08
-1.27061e-08
-2.23367e-08
-1.1658e-08
-1.77903e-08
-1.05334e-08
-1.37297e-08
-9.34054e-09
-1.01764e-08
-8.09044e-09
-7.14591e-09
-6.79739e-09
-4.64589e-09
-5.48012e-09
-2.67423e-09
-4.16318e-09
-1.21648e-09
-2.87882e-09
-2.42805e-10
-1.66948e-09
2.95606e-10
-5.91037e-10
4.70785e-10
2.83295e-10
3.82531e-10
8.59122e-10
1.64275e-10
1.01712e-09
6.00618e-10
7.98653e-11
-6.64813e-10
7.87775e-11
-9.43407e-10
-1.77286e-10
-4.65563e-10
-8.17088e-10
5.56532e-10
-1.93661e-09
1.96512e-09
-3.60451e-09
3.63531e-09
-5.86637e-09
5.46925e-09
-8.74844e-09
7.39135e-09
-1.2261e-08
9.34354e-09
-1.64012e-08
1.12813e-08
-2.11558e-08
1.31706e-08
-2.6503e-08
1.49857e-08
-3.24144e-08
1.6707e-08
-3.88564e-08
1.83199e-08
-4.57913e-08
1.98136e-08
-5.31786e-08
2.11803e-08
-6.09754e-08
2.24146e-08
-6.91376e-08
2.35132e-08
-7.76196e-08
2.44739e-08
-8.63758e-08
2.52962e-08
-9.536e-08
2.59802e-08
-1.04526e-07
2.65272e-08
-1.1383e-07
2.69388e-08
-1.23225e-07
2.72174e-08
-1.32668e-07
2.73658e-08
-1.42115e-07
2.73872e-08
-1.51525e-07
2.72849e-08
-1.60857e-07
2.70628e-08
-1.70071e-07
2.67247e-08
-1.79129e-07
2.62747e-08
-1.87994e-07
2.57172e-08
-1.96631e-07
2.50566e-08
-2.05005e-07
2.42972e-08
-2.13085e-07
2.34437e-08
-2.20839e-07
2.25008e-08
-2.28239e-07
2.14732e-08
-2.35257e-07
2.03657e-08
-2.41866e-07
1.91831e-08
-2.48044e-07
1.79304e-08
-2.53766e-07
1.66124e-08
-2.59014e-07
1.52343e-08
-2.63767e-07
1.38011e-08
-2.68008e-07
1.23179e-08
-2.71723e-07
1.07899e-08
-2.74897e-07
9.22228e-09
-2.77518e-07
7.62045e-09
-2.79577e-07
5.98973e-09
-2.81066e-07
4.33558e-09
-2.81979e-07
2.66351e-09
-2.82311e-07
9.79086e-10
-2.8206e-07
-7.12025e-10
-2.81227e-07
-2.40409e-09
-2.79812e-07
-4.09131e-09
-2.77819e-07
-5.76782e-09
-2.75256e-07
-7.42769e-09
-2.72128e-07
-9.06493e-09
-2.68447e-07
-1.06735e-08
-2.64224e-07
-1.22473e-08
-2.59474e-07
-1.37802e-08
-2.54212e-07
-1.5266e-08
-2.48458e-07
-1.66986e-08
-2.42232e-07
-1.80719e-08
-2.35556e-07
-1.93796e-08
-2.28455e-07
-2.06157e-08
-2.20956e-07
-2.17741e-08
-2.13087e-07
-2.28488e-08
-2.04879e-07
-2.38339e-08
-1.96366e-07
-2.47238e-08
-1.87581e-07
-2.55128e-08
-1.78561e-07
-2.61954e-08
-1.69343e-07
-2.67665e-08
-1.59969e-07
-2.72212e-08
-1.50478e-07
-2.75546e-08
-1.40914e-07
-2.77625e-08
-1.3132e-07
-2.7841e-08
-1.21742e-07
-2.77863e-08
-1.12226e-07
-2.75954e-08
-1.02818e-07
-2.72657e-08
-9.35655e-08
-2.67952e-08
-8.45168e-08
-2.61825e-08
-7.57191e-08
-2.54271e-08
-6.72198e-08
-2.45293e-08
-5.90656e-08
-2.34903e-08
-5.13021e-08
-2.23127e-08
-4.39732e-08
-2.10003e-08
-3.71207e-08
-1.95586e-08
-3.07835e-08
-1.79951e-08
-2.4997e-08
-1.63199e-08
-1.97918e-08
-1.45458e-08
-1.51925e-08
-1.26897e-08
-1.12167e-08
-1.07732e-08
-7.87298e-09
-8.82386e-09
-5.15886e-09
-6.8773e-09
-3.05859e-09
-4.97909e-09
-1.54032e-09
-3.18774e-09
-5.5306e-10
-1.57828e-09
-2.31033e-11
-2.46662e-10
1.49977e-10
6.86038e-10
9.85962e-11
1.0685e-09
6.99218e-10
-9.77134e-12
-6.55041e-10
-2.36873e-10
-7.16298e-10
-8.34701e-10
1.32262e-10
-1.92105e-09
1.64288e-09
-3.58527e-09
3.62934e-09
-5.89208e-09
5.94211e-09
-8.88473e-09
8.46191e-09
-1.2588e-08
1.10946e-08
-1.70109e-08
1.37664e-08
-2.21492e-08
1.64195e-08
-2.79874e-08
1.90089e-08
-3.45013e-08
2.14995e-08
-4.16589e-08
2.38646e-08
-4.94227e-08
2.60836e-08
-5.77502e-08
2.81411e-08
-6.65957e-08
3.00258e-08
-7.59105e-08
3.17294e-08
-8.5644e-08
3.32467e-08
-9.57443e-08
3.45743e-08
-1.06159e-07
3.57107e-08
-1.16834e-07
3.66558e-08
-1.27718e-07
3.74108e-08
-1.38757e-07
3.79778e-08
-1.49899e-07
3.83596e-08
-1.61093e-07
3.85599e-08
-1.72289e-07
3.85828e-08
-1.83437e-07
3.8433e-08
-1.9449e-07
3.81154e-08
-2.05401e-07
3.76355e-08
-2.16125e-07
3.69988e-08
-2.26619e-07
3.62113e-08
-2.36841e-07
3.52789e-08
-2.46752e-07
3.42079e-08
-2.56313e-07
3.30048e-08
-2.65488e-07
3.16759e-08
-2.74243e-07
3.02279e-08
-2.82545e-07
2.86676e-08
-2.90363e-07
2.70017e-08
-2.9767e-07
2.52371e-08
-3.04438e-07
2.33808e-08
-3.10644e-07
2.14398e-08
-3.16264e-07
1.94213e-08
-3.21279e-07
1.73326e-08
-3.2567e-07
1.51808e-08
-3.29421e-07
1.29735e-08
-3.32519e-07
1.0718e-08
-3.34951e-07
8.42206e-09
-3.36709e-07
6.09324e-09
-3.37784e-07
3.73933e-09
-3.38174e-07
1.36823e-09
-3.37874e-07
-1.0121e-09
-3.36884e-07
-3.39359e-09
-3.35207e-07
-5.76808e-09
-3.32848e-07
-8.12729e-09
-3.29813e-07
-1.04629e-08
-3.26111e-07
-1.27665e-08
-3.21755e-07
-1.50295e-08
-3.16759e-07
-1.72434e-08
-3.11139e-07
-1.93997e-08
-3.04916e-07
-2.14896e-08
-2.9811e-07
-2.35046e-08
-2.90746e-07
-2.5436e-08
-2.8285e-07
-2.72752e-08
-2.74452e-07
-2.90137e-08
-2.65583e-07
-3.0643e-08
-2.56277e-07
-3.21548e-08
-2.4657e-07
-3.35409e-08
-2.365e-07
-3.47933e-08
-2.26109e-07
-3.59042e-08
-2.15438e-07
-3.68661e-08
-2.04533e-07
-3.76718e-08
-1.9344e-07
-3.83145e-08
-1.82207e-07
-3.87877e-08
-1.70884e-07
-3.90855e-08
-1.59522e-07
-3.92025e-08
-1.48175e-07
-3.91338e-08
-1.36895e-07
-3.88753e-08
-1.25737e-07
-3.84237e-08
-1.14756e-07
-3.77762e-08
-1.04007e-07
-3.69315e-08
-9.35449e-08
-3.5889e-08
-8.34247e-08
-3.46495e-08
-7.36998e-08
-3.32152e-08
-6.44224e-08
-3.15901e-08
-5.56427e-08
-2.97799e-08
-4.74083e-08
-2.7793e-08
-3.97632e-08
-2.56402e-08
-3.27472e-08
-2.33359e-08
-2.63946e-08
-2.08984e-08
-2.07333e-08
-1.83511e-08
-1.57829e-08
-1.57236e-08
-1.15535e-08
-1.30532e-08
-8.04369e-09
-1.03871e-08
-5.23837e-09
-7.7844e-09
-3.10652e-09
-5.31958e-09
-1.59864e-09
-3.08616e-09
-6.43961e-10
-1.20134e-09
-1.47417e-10
1.89493e-10
1.42533e-11
9.0683e-10
7.13476e-10
-1.08694e-10
-5.4635e-10
-5.89213e-10
-2.35788e-10
-1.56889e-09
1.11195e-09
-3.1492e-09
3.22317e-09
-5.40838e-09
5.88852e-09
-8.40354e-09
8.93728e-09
-1.21726e-08
1.2231e-08
-1.67365e-08
1.56585e-08
-2.2101e-08
1.9131e-08
-2.82592e-08
2.25777e-08
-3.51929e-08
2.59426e-08
-4.28746e-08
2.91812e-08
-5.12692e-08
3.22592e-08
-6.0335e-08
3.51495e-08
-7.00256e-08
3.78317e-08
-8.02902e-08
4.02903e-08
-9.1075e-08
4.25143e-08
-1.02324e-07
4.44957e-08
-1.1398e-07
4.62298e-08
-1.25983e-07
4.7714e-08
-1.38275e-07
4.89476e-08
-1.50795e-07
4.99316e-08
-1.63486e-07
5.06683e-08
-1.76288e-07
5.11613e-08
-1.89143e-07
5.14149e-08
-2.01994e-07
5.14343e-08
-2.14786e-07
5.12253e-08
-2.27465e-07
5.07945e-08
-2.39979e-07
5.01486e-08
-2.52275e-07
4.9295e-08
-2.64305e-07
4.82414e-08
-2.76022e-07
4.69956e-08
-2.87379e-07
4.55658e-08
-2.98335e-07
4.39604e-08
-3.08847e-07
4.2188e-08
-3.18877e-07
4.02573e-08
-3.28386e-07
3.81772e-08
-3.37341e-07
3.59568e-08
-3.45709e-07
3.36051e-08
-3.5346e-07
3.11315e-08
-3.60565e-07
2.85453e-08
-3.67e-07
2.5856e-08
-3.72741e-07
2.30732e-08
-3.77767e-07
2.02068e-08
-3.8206e-07
1.72665e-08
-3.85604e-07
1.42623e-08
-3.88386e-07
1.12043e-08
-3.90396e-07
8.10279e-09
-3.91624e-07
4.96809e-09
-3.92067e-07
1.81069e-09
-3.9172e-07
-1.35877e-09
-3.90584e-07
-4.52957e-09
-3.88662e-07
-7.69081e-09
-3.85957e-07
-1.08315e-08
-3.8248e-07
-1.39406e-08
-3.78239e-07
-1.70068e-08
-3.7325e-07
-2.00189e-08
-3.67528e-07
-2.29656e-08
-3.61092e-07
-2.58353e-08
-3.53965e-07
-2.86167e-08
-3.46171e-07
-3.12983e-08
-3.37739e-07
-3.38687e-08
-3.28697e-07
-3.63165e-08
-3.19081e-07
-3.86305e-08
-3.08924e-07
-4.07993e-08
-2.98267e-07
-4.28122e-08
-2.8715e-07
-4.46582e-08
-2.75616e-07
-4.63268e-08
-2.63712e-07
-4.78079e-08
-2.51487e-07
-4.90915e-08
-2.3899e-07
-5.01683e-08
-2.26276e-07
-5.10293e-08
-2.13397e-07
-5.16661e-08
-2.00412e-07
-5.20712e-08
-1.87377e-07
-5.22374e-08
-1.74352e-07
-5.21586e-08
-1.61398e-07
-5.18296e-08
-1.48575e-07
-5.12462e-08
-1.35946e-07
-5.04053e-08
-1.23572e-07
-4.93052e-08
-1.11516e-07
-4.79456e-08
-9.98369e-08
-4.63281e-08
-8.85962e-08
-4.4456e-08
-7.78513e-08
-4.23349e-08
-6.76582e-08
-3.99731e-08
-5.80694e-08
-3.73818e-08
-4.91336e-08
-3.4576e-08
-4.08949e-08
-3.15747e-08
-3.33911e-08
-2.84022e-08
-2.66532e-08
-2.5089e-08
-2.07037e-08
-2.16731e-08
-1.55549e-08
-1.8202e-08
-1.12078e-08
-1.47342e-08
-7.64987e-09
-1.13424e-08
-4.8532e-09
-8.11624e-09
-2.77285e-09
-5.16651e-09
-1.34463e-09
-2.62954e-09
-4.83217e-10
-6.71923e-10
-7.99942e-11
5.03607e-10
6.33485e-10
-2.11634e-10
-3.34711e-10
-9.60701e-10
5.13266e-10
-2.3468e-09
2.49804e-09
-4.452e-09
5.32837e-09
-7.3405e-09
8.77701e-09
-1.1059e-08
1.26558e-08
-1.56377e-08
1.68097e-08
-2.10916e-08
2.11124e-08
-2.74218e-08
2.54612e-08
-3.46172e-08
2.97731e-08
-4.2656e-08
3.39814e-08
-5.15072e-08
3.80324e-08
-6.11318e-08
4.18838e-08
-7.14845e-08
4.55022e-08
-8.25145e-08
4.88617e-08
-9.41667e-08
5.19425e-08
-1.06383e-07
5.47302e-08
-1.19101e-07
5.72143e-08
-1.32259e-07
5.93881e-08
-1.45793e-07
6.12477e-08
-1.59637e-07
6.27919e-08
-1.73727e-07
6.40213e-08
-1.87997e-07
6.49383e-08
-2.02383e-07
6.55471e-08
-2.16821e-07
6.58527e-08
-2.31248e-07
6.58614e-08
-2.45603e-07
6.55804e-08
-2.59826e-07
6.50175e-08
-2.73859e-07
6.41814e-08
-2.87645e-07
6.3081e-08
-3.01129e-07
6.17259e-08
-3.1426e-07
6.01262e-08
-3.26986e-07
5.8292e-08
-3.3926e-07
5.6234e-08
-3.51035e-07
5.3963e-08
-3.62268e-07
5.14902e-08
-3.72917e-07
4.88267e-08
-3.82945e-07
4.59841e-08
-3.92314e-07
4.29741e-08
-4.0099e-07
3.98084e-08
-4.08944e-07
3.6499e-08
-4.16146e-07
3.30581e-08
-4.22571e-07
2.94979e-08
-4.28195e-07
2.5831e-08
-4.32999e-07
2.20699e-08
-4.36964e-07
1.82273e-08
-4.40075e-07
1.43162e-08
-4.42322e-07
1.03497e-08
-4.43695e-07
6.34103e-09
-4.44188e-07
2.30358e-09
-4.43798e-07
-1.74905e-09
-4.42524e-07
-5.80313e-09
-4.4037e-07
-9.84478e-09
-4.37342e-07
-1.386e-08
-4.33448e-07
-1.78345e-08
-4.28701e-07
-2.17541e-08
-4.23115e-07
-2.56044e-08
-4.1671e-07
-2.9371e-08
-4.09506e-07
-3.30391e-08
-4.01528e-07
-3.65944e-08
-3.92804e-07
-4.00223e-08
-3.83365e-07
-4.33081e-08
-3.73244e-07
-4.64376e-08
-3.62478e-07
-4.93962e-08
-3.51108e-07
-5.21699e-08
-3.39175e-07
-5.47447e-08
-3.26726e-07
-5.7107e-08
-3.13809e-07
-5.92435e-08
-3.00476e-07
-6.11413e-08
-2.8678e-07
-6.27879e-08
-2.72776e-07
-6.41716e-08
-2.58524e-07
-6.52811e-08
-2.44085e-07
-6.61059e-08
-2.29519e-07
-6.66366e-08
-2.14892e-07
-6.68644e-08
-2.00269e-07
-6.67817e-08
-1.85717e-07
-6.63823e-08
-1.71302e-07
-6.56609e-08
-1.57093e-07
-6.46142e-08
-1.43158e-07
-6.32403e-08
-1.29564e-07
-6.15394e-08
-1.16378e-07
-5.95136e-08
-1.03666e-07
-5.71679e-08
-9.14916e-08
-5.45098e-08
-7.99146e-08
-5.15501e-08
-6.89928e-08
-4.83036e-08
-5.87794e-08
-4.47894e-08
-4.93223e-08
-4.10317e-08
-4.06634e-08
-3.70611e-08
-3.28369e-08
-3.29155e-08
-2.58686e-08
-2.86414e-08
-1.97743e-08
-2.42962e-08
-1.45585e-08
-1.995e-08
-1.02128e-08
-1.56881e-08
-6.71467e-09
-1.16144e-08
-4.02598e-09
-7.8552e-09
-2.09185e-09
-4.56367e-09
-8.39709e-10
-1.92406e-09
-1.78757e-10
-1.57344e-10
4.5473e-10
-3.15453e-10
-1.92514e-11
-1.33997e-09
1.53778e-09
-3.14582e-09
4.30389e-09
-5.7944e-09
7.97696e-09
-9.33401e-09
1.23166e-08
-1.37991e-08
1.71209e-08
-1.92103e-08
2.22209e-08
-2.5575e-08
2.74771e-08
-3.28882e-08
3.27744e-08
-4.11336e-08
3.80185e-08
-5.02847e-08
4.31325e-08
-6.03064e-08
4.80541e-08
-7.11557e-08
5.27331e-08
-8.2783e-08
5.71295e-08
-9.51334e-08
6.12121e-08
-1.08148e-07
6.49567e-08
-1.21763e-07
6.83451e-08
-1.35912e-07
7.13643e-08
-1.5053e-07
7.40053e-08
-1.65545e-07
7.6263e-08
-1.80888e-07
7.81351e-08
-1.96489e-07
7.96221e-08
-2.12277e-07
8.07264e-08
-2.28182e-07
8.14525e-08
-2.44136e-07
8.18064e-08
-2.6007e-07
8.17953e-08
-2.75917e-07
8.14277e-08
-2.91613e-07
8.07132e-08
-3.07093e-07
7.96619e-08
-3.22297e-07
7.82848e-08
-3.37165e-07
7.65935e-08
-3.51639e-07
7.46002e-08
-3.65664e-07
7.23174e-08
-3.79188e-07
6.97582e-08
-3.92161e-07
6.69357e-08
-4.04535e-07
6.38637e-08
-4.16264e-07
6.0556e-08
-4.27307e-07
5.70269e-08
-4.37623e-07
5.32906e-08
-4.47177e-07
4.93619e-08
-4.55933e-07
4.52554e-08
-4.63862e-07
4.09863e-08
-4.70933e-07
3.65698e-08
-4.77123e-07
3.20211e-08
-4.8241e-07
2.73561e-08
-4.86773e-07
2.25904e-08
-4.90197e-07
1.77402e-08
-4.92669e-07
1.28215e-08
-4.94178e-07
7.85084e-09
-4.9472e-07
2.84484e-09
-4.94289e-07
-2.17972e-09
-4.92886e-07
-7.20583e-09
-4.90515e-07
-1.22163e-08
-4.87181e-07
-1.71938e-08
-4.82895e-07
-2.21207e-08
-4.77669e-07
-2.69794e-08
-4.71522e-07
-3.17522e-08
-4.64471e-07
-3.64211e-08
-4.56542e-07
-4.09682e-08
-4.47761e-07
-4.53756e-08
-4.38158e-07
-4.96252e-08
-4.27767e-07
-5.36991e-08
-4.16625e-07
-5.75796e-08
-4.04772e-07
-6.12491e-08
-3.92252e-07
-6.469e-08
-3.79112e-07
-6.78853e-08
-3.65401e-07
-7.08182e-08
-3.51172e-07
-7.34725e-08
-3.36481e-07
-7.58323e-08
-3.21386e-07
-7.78824e-08
-3.05949e-07
-7.96084e-08
-2.90234e-07
-8.09967e-08
-2.74305e-07
-8.20346e-08
-2.58231e-07
-8.27105e-08
-2.42082e-07
-8.30139e-08
-2.25928e-07
-8.29358e-08
-2.09841e-07
-8.24687e-08
-1.93895e-07
-8.16067e-08
-1.78164e-07
-8.03458e-08
-1.6272e-07
-7.86842e-08
-1.47637e-07
-7.66225e-08
-1.32986e-07
-7.41639e-08
-1.1884e-07
-7.13147e-08
-1.05265e-07
-6.80846e-08
-9.23274e-08
-6.44875e-08
-8.00894e-08
-6.05416e-08
-6.86082e-08
-5.62705e-08
-5.7936e-08
-5.17039e-08
-4.81184e-08
-4.68787e-08
-3.91938e-08
-4.18401e-08
-3.11919e-08
-3.66433e-08
-2.41327e-08
-3.13554e-08
-1.80254e-08
-2.60572e-08
-1.28674e-08
-2.08461e-08
-8.64288e-09
-1.58389e-08
-5.32253e-09
-1.11755e-08
-2.86265e-09
-7.02355e-09
-1.20526e-09
-3.58145e-09
-2.78783e-10
-1.08382e-09
1.75948e-10
-4.1831e-10
3.99053e-10
-1.71976e-09
2.83922e-09
-3.95077e-09
6.5349e-09
-7.15193e-09
1.11781e-08
-1.13548e-08
1.65195e-08
-1.65804e-08
2.23464e-08
-2.28385e-08
2.84789e-08
-3.01275e-08
3.47661e-08
-3.84352e-08
4.10821e-08
-4.7739e-08
4.73223e-08
-5.80071e-08
5.34007e-08
-6.91994e-08
5.92464e-08
-8.12683e-08
6.4802e-08
-9.41601e-08
7.00212e-08
-1.07815e-07
7.48674e-08
-1.2217e-07
7.93118e-08
-1.37158e-07
8.33327e-08
-1.52708e-07
8.69141e-08
-1.68748e-07
9.0045e-08
-1.85203e-07
9.27188e-08
-2.02001e-07
9.49322e-08
-2.19064e-07
9.66852e-08
-2.36318e-07
9.79804e-08
-2.53688e-07
9.88226e-08
-2.711e-07
9.92185e-08
-2.88481e-07
9.91765e-08
-3.0576e-07
9.87065e-08
-3.22866e-07
9.78196e-08
-3.39732e-07
9.65277e-08
-3.56291e-07
9.48438e-08
-3.72479e-07
9.27818e-08
-3.88235e-07
9.03561e-08
-4.03499e-07
8.75815e-08
-4.18215e-07
8.44738e-08
-4.32328e-07
8.10487e-08
-4.45787e-07
7.73228e-08
-4.58544e-07
7.33126e-08
-4.70552e-07
6.90352e-08
-4.81769e-07
6.45079e-08
-4.92156e-07
5.97484e-08
-5.01675e-07
5.47745e-08
-5.10293e-07
4.96043e-08
-5.17979e-07
4.42562e-08
-5.24707e-07
3.87489e-08
-5.30452e-07
3.31011e-08
-5.35194e-07
2.7332e-08
-5.38914e-07
2.1461e-08
-5.416e-07
1.55076e-08
-5.43241e-07
9.49161e-09
-5.4383e-07
3.4332e-09
-5.43362e-07
-2.64737e-09
-5.41838e-07
-8.72956e-09
-5.39262e-07
-1.47926e-08
-5.3564e-07
-2.08156e-08
-5.30983e-07
-2.67773e-08
-5.25306e-07
-3.26565e-08
-5.18627e-07
-3.84318e-08
-5.10966e-07
-4.40815e-08
-5.02351e-07
-4.9584e-08
-4.92808e-07
-5.49178e-08
-4.82372e-07
-6.00612e-08
-4.71079e-07
-6.49927e-08
-4.58968e-07
-6.96908e-08
-4.46082e-07
-7.41344e-08
-4.3247e-07
-7.83026e-08
-4.1818e-07
-8.21748e-08
-4.03268e-07
-8.5731e-08
-3.87788e-07
-8.89516e-08
-3.71803e-07
-9.18178e-08
-3.55374e-07
-9.43114e-08
-3.38567e-07
-9.64152e-08
-3.21451e-07
-9.8113e-08
-3.04096e-07
-9.93897e-08
-2.86574e-07
-1.00232e-07
-2.68962e-07
-1.00627e-07
-2.51334e-07
-1.00564e-07
-2.33767e-07
-1.00035e-07
-2.16342e-07
-9.90324e-08
-1.99135e-07
-9.75526e-08
-1.82226e-07
-9.55934e-08
-1.65693e-07
-9.31559e-08
-1.49612e-07
-9.02444e-08
-1.3406e-07
-8.68669e-08
-1.19109e-07
-8.30354e-08
-1.0483e-07
-7.87667e-08
-9.12888e-08
-7.40827e-08
-7.85476e-08
-6.90118e-08
-6.66626e-08
-6.35889e-08
-5.56839e-08
-5.78574e-08
-4.56542e-08
-5.18698e-08
-3.66079e-08
-4.56896e-08
-2.85702e-08
-3.93932e-08
-2.15561e-08
-3.30714e-08
-1.55696e-08
-2.68326e-08
-1.06033e-08
-2.08052e-08
-6.63765e-09
-1.51412e-08
-3.64151e-09
-1.00197e-08
-1.57239e-09
-5.65057e-09
-3.78143e-10
-2.27806e-09
-2.02194e-10
-5.19164e-10
9.18215e-10
-2.09555e-09
4.4156e-09
-4.75169e-09
9.19103e-09
-8.50798e-09
1.49344e-08
-1.3379e-08
2.13906e-08
-1.93718e-08
2.83392e-08
-2.64843e-08
3.55914e-08
-3.47051e-08
4.2987e-08
-4.40139e-08
5.03908e-08
-5.43808e-08
5.76893e-08
-6.5768e-08
6.47879e-08
-7.81298e-08
7.16082e-08
-9.14137e-08
7.80858e-08
-1.05561e-07
8.41685e-08
-1.20508e-07
8.98144e-08
-1.36186e-07
9.49903e-08
-1.52525e-07
9.9671e-08
-1.69448e-07
1.03838e-07
-1.8688e-07
1.07477e-07
-2.04742e-07
1.10581e-07
-2.22956e-07
1.13145e-07
-2.4144e-07
1.1517e-07
-2.60116e-07
1.16656e-07
-2.78904e-07
1.17611e-07
-2.97725e-07
1.1804e-07
-3.16503e-07
1.17954e-07
-3.35161e-07
1.17365e-07
-3.53625e-07
1.16283e-07
-3.71822e-07
1.14725e-07
-3.89682e-07
1.12704e-07
-4.07137e-07
1.10237e-07
-4.24121e-07
1.0734e-07
-4.40572e-07
1.04032e-07
-4.56427e-07
1.00329e-07
-4.7163e-07
9.62521e-08
-4.86127e-07
9.18192e-08
-4.99864e-07
8.70502e-08
-5.12795e-07
8.19653e-08
-5.24871e-07
7.65849e-08
-5.36053e-07
7.09298e-08
-5.46299e-07
6.50211e-08
-5.55575e-07
5.88803e-08
-5.63848e-07
5.25291e-08
-5.71089e-07
4.59896e-08
-5.77272e-07
3.92841e-08
-5.82375e-07
3.24352e-08
-5.8638e-07
2.54658e-08
-5.89272e-07
1.83991e-08
-5.91039e-07
1.12586e-08
-5.91673e-07
4.06814e-09
-5.91173e-07
-3.14835e-09
-5.89536e-07
-1.03665e-08
-5.86766e-07
-1.75618e-08
-5.82872e-07
-2.47095e-08
-5.77865e-07
-3.17844e-08
-5.7176e-07
-3.87616e-08
-5.64577e-07
-4.56155e-08
-5.56337e-07
-5.23208e-08
-5.47069e-07
-5.8852e-08
-5.36804e-07
-6.51834e-08
-5.25575e-07
-7.12896e-08
-5.13423e-07
-7.71452e-08
-5.00389e-07
-8.27249e-08
-4.86519e-07
-8.80039e-08
-4.71864e-07
-9.29574e-08
-4.56478e-07
-9.75614e-08
-4.40417e-07
-1.01792e-07
-4.23741e-07
-1.05627e-07
-4.06516e-07
-1.09043e-07
-3.88807e-07
-1.1202e-07
-3.70685e-07
-1.14537e-07
-3.52222e-07
-1.16576e-07
-3.33494e-07
-1.18118e-07
-3.14577e-07
-1.19149e-07
-2.95551e-07
-1.19653e-07
-2.76497e-07
-1.19618e-07
-2.57497e-07
-1.19035e-07
-2.38634e-07
-1.17895e-07
-2.19992e-07
-1.16195e-07
-2.01653e-07
-1.13932e-07
-1.83701e-07
-1.11107e-07
-1.66219e-07
-1.07727e-07
-1.49285e-07
-1.03801e-07
-1.32977e-07
-9.93428e-08
-1.17371e-07
-9.43728e-08
-1.02537e-07
-8.89166e-08
-8.85419e-08
-8.3007e-08
-7.54463e-08
-7.66845e-08
-6.3305e-08
-6.99987e-08
-5.21656e-08
-6.30091e-08
-4.20679e-08
-5.57873e-08
-3.3043e-08
-4.84181e-08
-2.51125e-08
-4.10019e-08
-1.82881e-08
-3.36569e-08
-1.25716e-08
-2.65217e-08
-7.95435e-09
-1.97584e-08
-4.41818e-09
-1.35559e-08
-1.93638e-09
-8.13237e-09
-4.75729e-10
-3.73871e-09
-6.77924e-10
-6.17462e-10
1.53569e-09
-2.46464e-09
6.26279e-09
-5.54227e-09
1.22687e-08
-9.85154e-09
1.92437e-08
-1.53904e-08
2.69295e-08
-2.21516e-08
3.51003e-08
-3.01207e-08
4.35606e-08
-3.92762e-08
5.21425e-08
-4.95884e-08
6.0703e-08
-6.102e-08
6.91209e-08
-7.35262e-08
7.72941e-08
-8.70552e-08
8.51372e-08
-1.01549e-07
9.25796e-08
-1.16944e-07
9.95634e-08
-1.33171e-07
1.06042e-07
-1.50158e-07
1.11977e-07
-1.67829e-07
1.17342e-07
-1.86105e-07
1.22113e-07
-2.04904e-07
1.26276e-07
-2.24144e-07
1.29821e-07
-2.43741e-07
1.32743e-07
-2.63612e-07
1.3504e-07
-2.83672e-07
1.36717e-07
-3.03839e-07
1.37777e-07
-3.24028e-07
1.3823e-07
-3.44159e-07
1.38085e-07
-3.64152e-07
1.37357e-07
-3.83928e-07
1.36059e-07
-4.0341e-07
1.34207e-07
-4.22524e-07
1.31819e-07
-4.41199e-07
1.28912e-07
-4.59365e-07
1.25506e-07
-4.76956e-07
1.21622e-07
-4.93906e-07
1.1728e-07
-5.10156e-07
1.12502e-07
-5.25648e-07
1.07311e-07
-5.40327e-07
1.01729e-07
-5.54141e-07
9.57791e-08
-5.67041e-07
8.94857e-08
-5.78984e-07
8.28727e-08
-5.89928e-07
7.59648e-08
-5.99835e-07
6.87868e-08
-6.08669e-07
6.1364e-08
-6.16402e-07
5.37222e-08
-6.23005e-07
4.58872e-08
-6.28455e-07
3.78855e-08
-6.32733e-07
2.97437e-08
-6.35823e-07
2.14889e-08
-6.37713e-07
1.31484e-08
-6.38395e-07
4.74983e-09
-6.37864e-07
-3.67878e-09
-6.36122e-07
-1.21092e-08
-6.33171e-07
-2.05127e-08
-6.2902e-07
-2.88606e-08
-6.2368e-07
-3.71238e-08
-6.17169e-07
-4.5273e-08
-6.09506e-07
-5.32786e-08
-6.00715e-07