/*--------------------------------*- C++ -*----------------------------------*\
| =========                 |                                                 |
| \\      /  F ield         | OpenFOAM: The Open Source CFD Toolbox           |
|  \\    /   O peration     | Version:  2212                                  |
|   \\  /    A nd           | Website:  www.openfoam.com                      |
|    \\/     M anipulation  |                                                 |
\*---------------------------------------------------------------------------*/
FoamFile
{
    version     2.0;
    format      ascii;
    arch        "LSB;label=32;scalar=64";
    class       surfaceScalarField;
    location    "0.007";
    object      phi;
}
// * * * * * * * * * * * * * * * * * * * * * * * * * * * * * * * * * * * * * //

dimensions      [0 3 -1 0 0 0 0];

oriented        oriented;

internalField   nonuniform List<scalar> 
19800
(
7.35583e-11
-7.35979e-11
2.21016e-10
-1.47454e-10
2.58979e-10
-3.79641e-11
2.08949e-10
5.00339e-11
5.83081e-11
1.50642e-10
-1.88294e-10
2.46603e-10
-5.22017e-10
3.33724e-10
-9.33151e-10
4.11135e-10
-1.41216e-09
4.79008e-10
-1.94966e-09
5.37508e-10
-2.53655e-09
5.86895e-10
-3.16424e-09
6.27694e-10
-3.82492e-09
6.60688e-10
-4.51157e-09
6.8665e-10
-5.21785e-09
7.06281e-10
-5.93798e-09
7.20128e-10
-6.6667e-09
7.28719e-10
-7.3993e-09
7.32608e-10
-8.13162e-09
7.32314e-10
-8.86003e-09
7.28411e-10
-9.58149e-09
7.21453e-10
-1.02933e-08
7.1186e-10
-1.09933e-08
6.99928e-10
-1.16792e-08
6.85903e-10
-1.23492e-08
6.70042e-10
-1.30018e-08
6.52606e-10
-1.36357e-08
6.33892e-10
-1.42499e-08
6.14141e-10
-1.48433e-08
5.93436e-10
-1.54151e-08
5.71814e-10
-1.59645e-08
5.49363e-10
-1.64906e-08
5.261e-10
-1.69925e-08
5.01984e-10
-1.74696e-08
4.77064e-10
-1.79211e-08
4.51445e-10
-1.83462e-08
4.25147e-10
-1.87444e-08
3.98166e-10
-1.9115e-08
3.7057e-10
-1.94574e-08
3.42475e-10
-1.97714e-08
3.13964e-10
-2.00565e-08
2.8509e-10
-2.03124e-08
2.55939e-10
-2.0539e-08
2.26593e-10
-2.07361e-08
1.97077e-10
-2.09035e-08
1.67394e-10
-2.10411e-08
1.37572e-10
-2.11488e-08
1.07688e-10
-2.12266e-08
7.78101e-11
-2.12745e-08
4.79343e-11
-2.12925e-08
1.80263e-11
-2.12806e-08
-1.1932e-11
-2.12387e-08
-4.19257e-11
-2.11667e-08
-7.19185e-11
-2.10649e-08
-1.01889e-10
-2.0933e-08
-1.3185e-10
-2.07712e-08
-1.6181e-10
-2.05795e-08
-1.91742e-10
-2.03579e-08
-2.21606e-10
-2.01065e-08
-2.51369e-10
-1.98255e-08
-2.8096e-10
-1.95152e-08
-3.10291e-10
-1.9176e-08
-3.39276e-10
-1.88082e-08
-3.67809e-10
-1.84124e-08
-3.95796e-10
-1.79892e-08
-4.23187e-10
-1.75392e-08
-4.49959e-10
-1.70631e-08
-4.76085e-10
-1.65616e-08
-5.0155e-10
-1.60353e-08
-5.26339e-10
-1.54849e-08
-5.50398e-10
-1.49112e-08
-5.73644e-10
-1.43152e-08
-5.95985e-10
-1.36979e-08
-6.17321e-10
-1.30604e-08
-6.37527e-10
-1.2404e-08
-6.5644e-10
-1.17301e-08
-6.73878e-10
-1.10404e-08
-6.89677e-10
-1.03367e-08
-7.03667e-10
-9.62112e-09
-7.15618e-10
-8.89589e-09
-7.2522e-10
-8.16378e-09
-7.32101e-10
-7.42795e-09
-7.35828e-10
-6.69207e-09
-7.35885e-10
-5.96038e-09
-7.3169e-10
-5.23774e-09
-7.22639e-10
-4.52961e-09
-7.08134e-10
-3.84204e-09
-6.87578e-10
-3.18167e-09
-6.6037e-10
-2.55575e-09
-6.25919e-10
-1.97212e-09
-5.83637e-10
-1.43917e-09
-5.32954e-10
-9.65813e-10
-4.73357e-10
-5.6131e-10
-4.045e-10
-2.34917e-10
-3.26398e-10
4.82871e-12
-2.39756e-10
1.51445e-10
-1.46619e-10
2.03057e-10
-5.16071e-11
1.67505e-10
3.55626e-11
7.42705e-11
9.32736e-11
7.43108e-11
3.39452e-11
-1.07539e-10
8.74001e-11
-2.00917e-10
1.98207e-11
2.9618e-11
-2.62659e-10
3.32516e-10
-7.74212e-10
6.62199e-10
-1.51605e-09
9.88446e-10
-2.47638e-09
1.29406e-09
-3.63641e-09
1.57117e-09
-4.9744e-09
1.817e-09
-6.46785e-09
2.03096e-09
-8.09457e-09
2.21362e-09
-9.83325e-09
2.36638e-09
-1.16638e-08
2.4912e-09
-1.35674e-08
2.59031e-09
-1.5527e-08
2.6659e-09
-1.7527e-08
2.72006e-09
-1.9553e-08
2.75482e-09
-2.15926e-08
2.77214e-09
-2.36342e-08
2.77394e-09
-2.56679e-08
2.76206e-09
-2.76847e-08
2.73824e-09
-2.96768e-08
2.70402e-09
-3.16375e-08
2.66065e-09
-3.35608e-08
2.60918e-09
-3.54414e-08
2.55063e-09
-3.72747e-08
2.48594e-09
-3.90568e-08
2.41592e-09
-4.07839e-08
2.34127e-09
-4.2453e-08
2.26254e-09
-4.40613e-08
2.1801e-09
-4.56061e-08
2.09421e-09
-4.70851e-08
2.0051e-09
-4.84961e-08
1.91297e-09
-4.9837e-08
1.81801e-09
-5.1106e-08
1.72039e-09
-5.23011e-08
1.62029e-09
-5.34209e-08
1.51791e-09
-5.44638e-08
1.41345e-09
-5.54284e-08
1.30714e-09
-5.63137e-08
1.19921e-09
-5.71185e-08
1.08989e-09
-5.78419e-08
9.79367e-10
-5.84832e-08
8.67837e-10
-5.90415e-08
7.55432e-10
-5.95164e-08
6.42275e-10
-5.99073e-08
5.28506e-10
-6.02139e-08
4.14289e-10
-6.04359e-08
2.99764e-10
-6.0573e-08
1.85007e-10
-6.0625e-08
7.00697e-11
-6.05919e-08
-4.49983e-11
-6.04737e-08
-1.60136e-10
-6.02704e-08
-2.75248e-10
-5.9982e-08
-3.90247e-10
-5.96088e-08
-5.05068e-10
-5.9151e-08
-6.19639e-10
-5.86089e-08
-7.33854e-10
-5.79829e-08
-8.47587e-10
-5.72736e-08
-9.60687e-10
-5.64816e-08
-1.07296e-09
-5.56077e-08
-1.18417e-09
-5.4653e-08
-1.29403e-09
-5.36185e-08
-1.40231e-09
-5.25055e-08
-1.50875e-09
-5.13156e-08
-1.61316e-09
-5.00502e-08
-1.71538e-09
-4.8711e-08
-1.81527e-09
-4.72999e-08
-1.91265e-09
-4.58189e-08
-2.00735e-09
-4.42702e-08
-2.09912e-09
-4.26562e-08
-2.18765e-09
-4.09795e-08
-2.27259e-09
-3.92434e-08
-2.35352e-09
-3.7451e-08
-2.42993e-09
-3.56061e-08
-2.50125e-09
-3.37132e-08
-2.56684e-09
-3.17769e-08
-2.62598e-09
-2.98027e-08
-2.67789e-09
-2.77966e-08
-2.72162e-09
-2.57658e-08
-2.75604e-09
-2.37181e-08
-2.7798e-09
-2.16626e-08
-2.79132e-09
-1.96096e-08
-2.78888e-09
-1.75708e-08
-2.77058e-09
-1.5559e-08
-2.73441e-09
-1.35888e-08
-2.67831e-09
-1.16762e-08
-2.60022e-09
-9.83846e-09
-2.49807e-09
-8.09452e-09
-2.36986e-09
-6.46442e-09
-2.21374e-09
-4.9693e-09
-2.02808e-09
-3.63089e-09
-1.81178e-09
-2.47079e-09
-1.5646e-09
-1.50927e-09
-1.28792e-09
-7.63236e-10
-9.85778e-10
-2.43012e-10
-6.6684e-10
5.3035e-11
-3.4769e-10
1.46557e-10
-5.8025e-11
9.12588e-11
1.48487e-10
1.656e-10
2.87251e-11
-1.36266e-10
-9.2961e-11
-7.92246e-11
-4.24329e-10
3.60985e-10
-1.04705e-09
9.55241e-10
-1.99098e-09
1.60612e-09
-3.26069e-09
2.25817e-09
-4.84403e-09
2.8774e-09
-6.71849e-09
3.44564e-09
-8.8559e-09
3.95442e-09
-1.12256e-08
4.40071e-09
-1.37965e-08
4.7845e-09
-1.65379e-08
5.1078e-09
-1.94205e-08
5.3738e-09
-2.24166e-08
5.58637e-09
-2.55003e-08
5.74962e-09
-2.8648e-08
5.86772e-09
-3.18379e-08
5.94479e-09
-3.50506e-08
5.98484e-09
-3.82685e-08
5.9918e-09
-4.14758e-08
5.9694e-09
-4.46587e-08
5.92106e-09
-4.78045e-08
5.84989e-09
-5.09025e-08
5.75861e-09
-5.39429e-08
5.64961e-09
-5.69173e-08
5.52502e-09
-5.98181e-08
5.38674e-09
-6.26387e-08
5.2365e-09
-6.53732e-08
5.07573e-09
-6.80162e-08
4.90555e-09
-7.0563e-08
4.72689e-09
-7.30093e-08
4.54055e-09
-7.53514e-08
4.34715e-09
-7.75857e-08
4.14724e-09
-7.97089e-08
3.9413e-09
-8.17184e-08
3.7298e-09
-8.36112e-08
3.51318e-09
-8.53851e-08
3.2918e-09
-8.70377e-08
3.06607e-09
-8.8567e-08
2.83643e-09
-8.99711e-08
2.60329e-09
-9.12483e-08
2.36703e-09
-9.23969e-08
2.12803e-09
-9.34157e-08
1.88661e-09
-9.43033e-08
1.64308e-09
-9.50588e-08
1.39774e-09
-9.56812e-08
1.15088e-09
-9.61697e-08
9.02792e-10
-9.65237e-08
6.53772e-10
-9.67427e-08
4.04048e-10
-9.68265e-08
1.53823e-10
-9.67748e-08
-9.67052e-11
-9.65876e-08
-3.47342e-10
-9.6265e-08
-5.97862e-10
-9.58072e-08
-8.48035e-10
-9.52146e-08
-1.09766e-09
-9.44877e-08
-1.34649e-09
-9.36273e-08
-1.59429e-09
-9.26341e-08
-1.84077e-09
-9.15092e-08
-2.08561e-09
-9.02538e-08
-2.32841e-09
-8.88692e-08
-2.56877e-09
-8.7357e-08
-2.80625e-09
-8.57189e-08
-3.04039e-09
-8.39569e-08
-3.27076e-09
-8.2073e-08
-3.49697e-09
-8.00698e-08
-3.71861e-09
-7.79498e-08
-3.93528e-09
-7.5716e-08
-4.14652e-09
-7.33715e-08
-4.35185e-09
-7.09199e-08
-4.5507e-09
-6.83652e-08
-4.74237e-09
-6.57117e-08
-4.92604e-09
-6.29645e-08
-5.1008e-09
-6.01288e-08
-5.26556e-09
-5.7211e-08
-5.41909e-09
-5.42179e-08
-5.55998e-09
-5.11572e-08
-5.68662e-09
-4.80379e-08
-5.79722e-09
-4.48698e-08
-5.88966e-09
-4.16644e-08
-5.9615e-09
-3.84343e-08
-6.00993e-09
-3.51938e-08
-6.03179e-09
-3.19591e-08
-6.0236e-09
-2.8748e-08
-5.9816e-09
-2.55806e-08
-5.90182e-09
-2.24788e-08
-5.78016e-09
-1.94665e-08
-5.61249e-09
-1.65698e-08
-5.39475e-09
-1.38166e-08
-5.12306e-09
-1.12364e-08
-4.79401e-09
-8.85954e-09
-4.40492e-09
-6.71692e-09
-3.95439e-09
-4.83833e-09
-3.4432e-09
-3.25078e-09
-2.87548e-09
-1.97575e-09
-2.26079e-09
-1.02528e-09
-1.61729e-09
-3.96193e-10
-9.76718e-10
-6.29064e-11
-3.91267e-10
3.24961e-11
5.30349e-11
1.98109e-10
-5.57705e-11
-8.04948e-11
-3.64225e-10
2.29233e-10
-9.92186e-10
9.88944e-10
-1.99556e-09
1.95861e-09
-3.39951e-09
3.01008e-09
-5.20601e-09
4.06466e-09
-7.40037e-09
5.07177e-09
-9.95681e-09
6.00208e-09
-1.28427e-08
6.84036e-09
-1.6022e-08
7.57997e-09
-1.94571e-08
8.21964e-09
-2.31107e-08
8.76138e-09
-2.69462e-08
9.20931e-09
-3.09289e-08
9.56899e-09
-3.50259e-08
9.84667e-09
-3.92071e-08
1.00489e-08
-4.34445e-08
1.01822e-08
-4.77129e-08
1.02532e-08
-5.19892e-08
1.02682e-08
-5.62529e-08
1.0233e-08
-6.04853e-08
1.01535e-08
-6.46701e-08
1.00347e-08
-6.87927e-08
9.88112e-09
-7.28399e-08
9.69687e-09
-7.68005e-08
9.48558e-09
-8.06642e-08
9.25044e-09
-8.44219e-08
8.99423e-09
-8.80655e-08
8.71937e-09
-9.15879e-08
8.42792e-09
-9.49826e-08
8.12157e-09
-9.82437e-08
7.80173e-09
-1.01366e-07
7.4696e-09
-1.04345e-07
7.12623e-09
-1.07176e-07
6.77257e-09
-1.09856e-07
6.40942e-09
-1.1238e-07
6.03757e-09
-1.14746e-07
5.65772e-09
-1.16951e-07
5.27053e-09
-1.18991e-07
4.87666e-09
-1.20865e-07
4.47674e-09
-1.22569e-07
4.07136e-09
-1.24102e-07
3.66112e-09
-1.25462e-07
3.24656e-09
-1.26647e-07
2.8282e-09
-1.27656e-07
2.40654e-09
-1.28487e-07
1.98208e-09
-1.2914e-07
1.55532e-09
-1.29613e-07
1.12672e-09
-1.29905e-07
6.96738e-10
-1.30017e-07
2.6579e-10
-1.29948e-07
-1.65711e-10
-1.29698e-07
-5.97366e-10
-1.29267e-07
-1.02876e-09
-1.28656e-07
-1.45946e-09
-1.27864e-07
-1.88904e-09
-1.26894e-07
-2.31707e-09
-1.25745e-07
-2.74306e-09
-1.24419e-07
-3.1665e-09
-1.22918e-07
-3.58687e-09
-1.21243e-07
-4.00356e-09
-1.19396e-07
-4.41593e-09
-1.17379e-07
-4.82331e-09
-1.15194e-07
-5.22502e-09
-1.12845e-07
-5.62036e-09
-1.10333e-07
-6.00866e-09
-1.07662e-07
-6.3892e-09
-1.04836e-07
-6.76122e-09
-1.01859e-07
-7.12391e-09
-9.87345e-08
-7.47633e-09
-9.54677e-08
-7.81743e-09
-9.20641e-08
-8.14599e-09
-8.85295e-08
-8.46062e-09
-8.48706e-08
-8.7597e-09
-8.10948e-08
-9.04136e-09
-7.72105e-08
-9.30347e-09
-7.32268e-08
-9.54361e-09
-6.91545e-08
-9.75899e-09
-6.50053e-08
-9.94642e-09
-6.07926e-08
-1.01023e-08
-5.65316e-08
-1.02225e-08
-5.22392e-08
-1.03024e-08
-4.79343e-08
-1.03367e-08
-4.3638e-08
-1.03199e-08
-3.93736e-08
-1.0246e-08
-3.5167e-08
-1.01084e-08
-3.10463e-08
-9.90086e-09
-2.70422e-08
-9.61662e-09
-2.31875e-08
-9.24938e-09
-1.95173e-08
-8.79325e-09
-1.60682e-08
-8.24321e-09
-1.28773e-08
-7.59573e-09
-9.98209e-09
-6.84964e-09
-7.41792e-09
-6.00738e-09
-5.2165e-09
-5.07691e-09
-3.40289e-09
-4.07443e-09
-1.99165e-09
-3.02855e-09
-9.82069e-10
-1.98628e-09
-3.5262e-10
-1.0207e-09
-5.44463e-11
-2.45144e-10
1.43663e-10
-1.42752e-10
6.22557e-11
-6.66404e-10
7.52885e-10
-1.61181e-09
1.93435e-09
-3.01364e-09
3.36044e-09
-4.88659e-09
4.88303e-09
-7.22644e-09
6.40452e-09
-1.00144e-08
7.85974e-09
-1.32211e-08
9.20881e-09
-1.68102e-08
1.04294e-08
-2.07411e-08
1.15109e-08
-2.49715e-08
1.245e-08
-2.94588e-08
1.32486e-08
-3.4161e-08
1.39115e-08
-3.90379e-08
1.44458e-08
-4.40511e-08
1.48599e-08
-4.91651e-08
1.51629e-08
-5.43469e-08
1.5364e-08
-5.95661e-08
1.54725e-08
-6.47955e-08
1.54975e-08
-7.001e-08
1.54476e-08
-7.51874e-08
1.53309e-08
-8.03075e-08
1.51548e-08
-8.53525e-08
1.49261e-08
-9.03066e-08
1.46509e-08
-9.51556e-08
1.43345e-08
-9.98868e-08
1.39817e-08
-1.04489e-07
1.35966e-08
-1.08953e-07
1.31829e-08
-1.13268e-07
1.27435e-08
-1.17428e-07
1.22813e-08
-1.21425e-07
1.17983e-08
-1.25252e-07
1.12966e-08
-1.28903e-07
1.07778e-08
-1.32374e-07
1.02433e-08
-1.35659e-07
9.69452e-09
-1.38754e-07
9.13257e-09
-1.41655e-07
8.55855e-09
-1.44358e-07
7.97347e-09
-1.46859e-07
7.37829e-09
-1.49157e-07
6.77393e-09
-1.51246e-07
6.16124e-09
-1.53126e-07
5.54106e-09
-1.54794e-07
4.9142e-09
-1.56247e-07
4.28145e-09
-1.57484e-07
3.64356e-09
-1.58504e-07
3.00128e-09
-1.59304e-07
2.35535e-09
-1.59883e-07
1.7065e-09
-1.60242e-07
1.0554e-09
-1.60379e-07
4.02758e-10
-1.60294e-07
-2.50758e-10
-1.59987e-07
-9.04479e-10
-1.59458e-07
-1.55774e-09
-1.58707e-07
-2.20987e-09
-1.57736e-07
-2.86016e-09
-1.56545e-07
-3.5079e-09
-1.55136e-07
-4.15236e-09
-1.5351e-07
-4.79274e-09
-1.51669e-07
-5.42824e-09
-1.49614e-07
-6.05799e-09
-1.47349e-07
-6.68109e-09
-1.44876e-07
-7.29659e-09
-1.42197e-07
-7.9035e-09
-1.39317e-07
-8.50081e-09
-1.36238e-07
-9.08748e-09
-1.32965e-07
-9.66241e-09
-1.29502e-07
-1.02244e-08
-1.25853e-07
-1.07722e-08
-1.22025e-07
-1.13044e-08
-1.18023e-07
-1.18192e-08
-1.13855e-07
-1.23148e-08
-1.09526e-07
-1.27891e-08
-1.05046e-07
-1.32397e-08
-1.00424e-07
-1.36636e-08
-9.56696e-08
-1.40577e-08
-9.07948e-08
-1.44183e-08
-8.58126e-08
-1.47412e-08
-8.07375e-08
-1.50215e-08
-7.55859e-08
-1.52539e-08
-7.03762e-08
-1.54322e-08
-6.5129e-08
-1.55496e-08
-5.9867e-08
-1.55987e-08
-5.46157e-08
-1.55712e-08
-4.9403e-08
-1.54586e-08
-4.42596e-08
-1.52519e-08
-3.92188e-08
-1.49417e-08
-3.43165e-08
-1.45189e-08
-2.95912e-08
-1.39747e-08
-2.50833e-08
-1.33011e-08
-2.08348e-08
-1.24917e-08
-1.68882e-08
-1.15423e-08
-1.32856e-08
-1.04523e-08
-1.00667e-08
-9.22624e-09
-7.2673e-09
-7.87632e-09
-4.91615e-09
-6.42558e-09
-3.03214e-09
-4.91258e-09
-1.62063e-09
-3.39782e-09
-6.69957e-10
-1.97136e-09
-1.48334e-10
-7.66755e-10
-4.6759e-12
-2.30565e-10
2.92819e-10
-9.71719e-10
1.49404e-09
-2.23718e-09
3.19981e-09
-4.03872e-09
5.16197e-09
-6.37686e-09
7.22118e-09
-9.23846e-09
9.26611e-09
-1.25988e-08
1.12201e-08
-1.64241e-08
1.30341e-08
-2.06742e-08
1.46796e-08
-2.53048e-08
1.61415e-08
-3.02696e-08
1.74148e-08
-3.55217e-08
1.85007e-08
-4.1015e-08
1.94048e-08
-4.67048e-08
2.01356e-08
-5.25486e-08
2.07037e-08
-5.85062e-08
2.11205e-08
-6.45407e-08
2.13984e-08
-7.06176e-08
2.15494e-08
-7.67058e-08
2.15857e-08
-8.27769e-08
2.15186e-08
-8.8805e-08
2.13591e-08
-9.47673e-08
2.11171e-08
-1.00643e-07
2.08018e-08
-1.06413e-07
2.04214e-08
-1.12062e-07
1.99835e-08
-1.17575e-07
1.94944e-08
-1.22938e-07
1.89599e-08
-1.2814e-07
1.8385e-08
-1.33171e-07
1.7774e-08
-1.3802e-07
1.71305e-08
-1.4268e-07
1.64579e-08
-1.47142e-07
1.57589e-08
-1.514e-07
1.50358e-08
-1.55448e-07
1.42908e-08
-1.59279e-07
1.35257e-08
-1.62889e-07
1.27422e-08
-1.66272e-07
1.19418e-08
-1.69424e-07
1.1126e-08
-1.72342e-07
1.0296e-08
-1.75021e-07
9.45318e-09
-1.77459e-07
8.59864e-09
-1.79651e-07
7.73356e-09
-1.81596e-07
6.85905e-09
-1.83291e-07
5.97618e-09
-1.84733e-07
5.08603e-09
-1.85922e-07
4.18964e-09
-1.86854e-07
3.28803e-09
-1.8753e-07
2.38222e-09
-1.87948e-07
1.4732e-09
-1.88107e-07
5.61949e-10
-1.88007e-07
-3.50545e-10
-1.87648e-07
-1.26332e-09
-1.87031e-07
-2.17539e-09
-1.86155e-07
-3.08578e-09
-1.85022e-07
-3.99349e-09
-1.83632e-07
-4.89748e-09
-1.81988e-07
-5.79669e-09
-1.8009e-07
-6.69004e-09
-1.77942e-07
-7.5764e-09
-1.75546e-07
-8.45457e-09
-1.72903e-07
-9.32333e-09
-1.70019e-07
-1.01814e-08
-1.66895e-07
-1.10274e-08
-1.63536e-07
-1.186e-08
-1.59945e-07
-1.26777e-08
-1.56129e-07
-1.3479e-08
-1.52091e-07
-1.42621e-08
-1.47838e-07
-1.50252e-08
-1.43376e-07
-1.57663e-08
-1.38712e-07
-1.64831e-08
-1.33854e-07
-1.71728e-08
-1.28811e-07
-1.78325e-08
-1.23592e-07
-1.84588e-08
-1.18208e-07
-1.90477e-08
-1.12671e-07
-1.95947e-08
-1.06994e-07
-2.00947e-08
-1.01194e-07
-2.05417e-08
-9.5286e-08
-2.09293e-08
-8.929e-08
-2.125e-08
-8.32269e-08
-2.14953e-08
-7.71204e-08
-2.16561e-08
-7.09968e-08
-2.17223e-08
-6.48848e-08
-2.16831e-08
-5.88164e-08
-2.1527e-08
-5.28262e-08
-2.12421e-08
-4.69516e-08
-2.08162e-08
-4.1233e-08
-2.02375e-08
-3.57131e-08
-1.94946e-08
-3.04365e-08
-1.85777e-08
-2.54496e-08
-1.74787e-08
-2.07989e-08
-1.6193e-08
-1.65304e-08
-1.47208e-08
-1.26878e-08
-1.30689e-08
-9.31076e-09
-1.12534e-08
-6.43273e-09
-9.3036e-09
-4.07864e-09
-7.26666e-09
-2.26273e-09
-5.21375e-09
-9.86833e-10
-3.24724e-09
-2.40118e-10
-1.51347e-09
-2.44791e-10
-3.14549e-10
6.07366e-10
-1.26581e-09
2.4453e-09
-2.84205e-09
4.77605e-09
-5.03261e-09
7.35254e-09
-7.82208e-09
1.00106e-08
-1.11866e-08
1.26307e-08
-1.50941e-08
1.51276e-08
-1.95056e-08
1.74456e-08
-2.43765e-08
1.95505e-08
-2.96591e-08
2.14241e-08
-3.53035e-08
2.30592e-08
-4.12592e-08
2.44565e-08
-4.74767e-08
2.56223e-08
-5.39076e-08
2.65666e-08
-6.05061e-08
2.73021e-08
-6.72286e-08
2.7843e-08
-7.40345e-08
2.82043e-08
-8.08863e-08
2.84012e-08
-8.77495e-08
2.84489e-08
-9.45929e-08
2.83619e-08
-1.01388e-07
2.8154e-08
-1.08109e-07
2.78379e-08
-1.14732e-07
2.74254e-08
-1.21238e-07
2.69272e-08
-1.27607e-07
2.63528e-08
-1.33824e-07
2.57107e-08
-1.39872e-07
2.50084e-08
-1.45739e-07
2.42523e-08
-1.51414e-07
2.34482e-08
-1.56884e-07
2.2601e-08
-1.62141e-07
2.17149e-08
-1.67176e-07
2.07936e-08
-1.7198e-07
1.98404e-08
-1.76548e-07
1.8858e-08
-1.80871e-07
1.7849e-08
-1.84944e-07
1.68156e-08
-1.88762e-07
1.57598e-08
-1.9232e-07
1.46836e-08
-1.95612e-07
1.35886e-08
-1.98636e-07
1.24766e-08
-2.01386e-07
1.1349e-08
-2.0386e-07
1.02075e-08
-2.06055e-07
9.05345e-09
-2.07967e-07
7.88827e-09
-2.09594e-07
6.71338e-09
-2.10934e-07
5.53016e-09
-2.11986e-07
4.33997e-09
-2.12748e-07
3.14416e-09
-2.13219e-07
1.94404e-09
-2.13398e-07
7.40943e-10
-2.13285e-07
-4.63807e-10
-2.12879e-07
-1.66891e-09
-2.12182e-07
-2.87304e-09
-2.11193e-07
-4.07486e-09
-2.09913e-07
-5.27302e-09
-2.08344e-07
-6.46614e-09
-2.06488e-07
-7.65282e-09
-2.04347e-07
-8.83159e-09
-2.01922e-07
-1.0001e-08
-1.99217e-07
-1.11594e-08
-1.96235e-07
-1.23053e-08
-1.9298e-07
-1.34369e-08
-1.89455e-07
-1.45526e-08
-1.85664e-07
-1.56505e-08
-1.81613e-07
-1.67286e-08
-1.77307e-07
-1.77849e-08
-1.72752e-07
-1.88171e-08
-1.67955e-07
-1.98228e-08
-1.62922e-07
-2.07992e-08
-1.57662e-07
-2.17432e-08
-1.52183e-07
-2.26512e-08
-1.46497e-07
-2.35194e-08
-1.40612e-07
-2.43432e-08
-1.34543e-07
-2.51173e-08
-1.28301e-07
-2.5836e-08
-1.21904e-07
-2.64923e-08
-1.15367e-07
-2.70787e-08
-1.08709e-07
-2.75866e-08
-1.01953e-07
-2.80063e-08
-9.51213e-08
-2.8327e-08
-8.82404e-08
-2.8537e-08
-8.13394e-08
-2.86234e-08
-7.44502e-08
-2.85724e-08
-6.76076e-08
-2.83696e-08
-6.08496e-08
-2.80001e-08
-5.42172e-08
-2.74487e-08
-4.7754e-08
-2.67007e-08
-4.15062e-08
-2.57424e-08
-3.5522e-08
-2.45618e-08
-2.98512e-08
-2.31495e-08
-2.45437e-08
-2.15005e-08
-1.96492e-08
-1.96154e-08
-1.5215e-08
-1.7503e-08
-1.12854e-08
-1.5183e-08
-7.89925e-09
-1.26897e-08
-5.08907e-09
-1.00768e-08
-2.87971e-09
-7.42311e-09
-1.28832e-09
-4.83863e-09
-3.25723e-10
-2.47607e-09
-5.70505e-10
-3.9195e-10
9.99314e-10
-1.54078e-09
3.59413e-09
-3.41139e-09
6.64666e-09
-5.97242e-09
9.91356e-09
-9.19216e-09
1.32304e-08
-1.30353e-08
1.64738e-08
-1.74615e-08
1.95538e-08
-2.24256e-08
2.24096e-08
-2.78784e-08
2.50034e-08
-3.37684e-08
2.73141e-08
-4.00423e-08
2.93331e-08
-4.66466e-08
3.10608e-08
-5.35286e-08
3.25043e-08
-6.06372e-08
3.36752e-08
-6.79235e-08
3.45884e-08
-7.5341e-08
3.52606e-08
-8.28466e-08
3.57099e-08
-9.03999e-08
3.59546e-08
-9.79639e-08
3.6013e-08
-1.05505e-07
3.59028e-08
-1.12992e-07
3.56408e-08
-1.20397e-07
3.52429e-08
-1.27695e-07
3.47234e-08
-1.34863e-07
3.40956e-08
-1.41881e-07
3.33712e-08
-1.48732e-07
3.2561e-08
-1.55397e-07
3.16741e-08
-1.61864e-07
3.07189e-08
-1.68118e-07
2.97024e-08
-1.74148e-07
2.86309e-08
-1.79943e-07
2.75098e-08
-1.85493e-07
2.63439e-08
-1.9079e-07
2.51372e-08
-1.95825e-07
2.38933e-08
-2.00592e-07
2.26155e-08
-2.05083e-07
2.13066e-08
-2.09292e-07
1.99693e-08
-2.13214e-07
1.86059e-08
-2.16845e-07
1.72187e-08
-2.20178e-07
1.58098e-08
-2.2321e-07
1.43812e-08
-2.25937e-07
1.29348e-08
-2.28356e-07
1.14725e-08
-2.30464e-07
9.99593e-09
-2.32258e-07
8.50706e-09
-2.33735e-07
7.00756e-09
-2.34894e-07
5.49916e-09
-2.35734e-07
3.98358e-09
-2.36252e-07
2.46251e-09
-2.36449e-07
9.37654e-10
-2.36323e-07
-5.89307e-10
-2.35876e-07
-2.11668e-09
-2.35106e-07
-3.64278e-09
-2.34015e-07
-5.16588e-09
-2.32604e-07
-6.68424e-09
-2.30874e-07
-8.1961e-09
-2.28827e-07
-9.69966e-09
-2.26465e-07
-1.11931e-08
-2.23792e-07
-1.26744e-08
-2.20809e-07
-1.41418e-08
-2.17522e-07
-1.55931e-08
-2.13932e-07
-1.70263e-08
-2.10046e-07
-1.84391e-08
-2.05867e-07
-1.98293e-08
-2.01401e-07
-2.11943e-08
-1.96655e-07
-2.25315e-08
-1.91634e-07
-2.3838e-08
-1.86346e-07
-2.51107e-08
-1.80799e-07
-2.6346e-08
-1.75002e-07
-2.754e-08
-1.68965e-07
-2.86883e-08
-1.62699e-07
-2.97857e-08
-1.56215e-07
-3.08266e-08
-1.49528e-07
-3.18043e-08
-1.42653e-07
-3.27115e-08
-1.35606e-07
-3.35397e-08
-1.28405e-07
-3.42792e-08
-1.21072e-07
-3.49194e-08
-1.1363e-07
-3.54482e-08
-1.06105e-07
-3.58524e-08
-9.85247e-08
-3.61173e-08
-9.09208e-08
-3.62273e-08
-8.33276e-08
-3.61656e-08
-7.57827e-08
-3.59145e-08
-6.83266e-08
-3.54561e-08
-6.10031e-08
-3.47722e-08
-5.38586e-08
-3.38452e-08
-4.69423e-08
-3.26588e-08
-4.03053e-08
-3.11988e-08
-3.40002e-08
-2.94546e-08
-2.80803e-08
-2.74204e-08
-2.25985e-08
-2.50971e-08
-1.76065e-08
-2.2495e-08
-1.31532e-08
-1.96363e-08
-9.28386e-09
-1.65591e-08
-6.03945e-09
-1.33212e-08
-3.45632e-09
-1.00062e-08
-1.56721e-09
-6.72775e-09
-4.03549e-10
-3.63972e-09
-9.74055e-10
-4.61677e-10
1.46099e-09
-1.79279e-09
4.92524e-09
-3.93738e-09
8.79125e-09
-6.84542e-09
1.28216e-08
-1.04698e-08
1.68548e-08
-1.47635e-08
2.07675e-08
-1.96775e-08
2.44678e-08
-2.516e-08
2.78921e-08
-3.11569e-08
3.10003e-08
-3.76123e-08
3.37695e-08
-4.44698e-08
3.61906e-08
-5.16729e-08
3.82639e-08
-5.91662e-08
3.99976e-08
-6.6896e-08
4.1405e-08
-7.48108e-08
4.25032e-08
-8.2862e-08
4.33118e-08
-9.10039e-08
4.38517e-08
-9.91941e-08
4.41447e-08
-1.07393e-07
4.42121e-08
-1.15566e-07
4.40751e-08
-1.23678e-07
4.37535e-08
-1.31701e-07
4.32661e-08
-1.39608e-07
4.26303e-08
-1.47375e-07
4.18619e-08
-1.54979e-07
4.09752e-08
-1.62401e-07
3.9983e-08
-1.69623e-07
3.88965e-08
-1.7663e-07
3.77257e-08
-1.83407e-07
3.64794e-08
-1.89941e-07
3.51652e-08
-1.96221e-07
3.37897e-08
-2.02236e-07
3.23588e-08
-2.07976e-07
3.08775e-08
-2.13433e-07
2.93503e-08
-2.18599e-07
2.77813e-08
-2.23466e-07
2.61739e-08
-2.28029e-07
2.45314e-08
-2.32279e-07
2.28568e-08
-2.36214e-07
2.11529e-08
-2.39826e-07
1.94222e-08
-2.43112e-07
1.76672e-08
-2.46067e-07
1.58903e-08
-2.48689e-07
1.40937e-08
-2.50972e-07
1.22797e-08
-2.52916e-07
1.04505e-08
-2.54516e-07
8.60814e-09
-2.55772e-07
6.75485e-09
-2.56681e-07
4.89272e-09
-2.57242e-07
3.02382e-09
-2.57455e-07
1.15026e-09
-2.57318e-07
-7.25865e-10
-2.56833e-07
-2.60248e-09
-2.55998e-07
-4.47746e-09
-2.54815e-07
-6.3487e-09
-2.53285e-07
-8.21404e-09
-2.5141e-07
-1.00713e-08
-2.49192e-07
-1.19182e-08
-2.46632e-07
-1.37526e-08
-2.43734e-07
-1.5572e-08
-2.40502e-07
-1.73742e-08
-2.36939e-07
-1.91564e-08
-2.33049e-07
-2.09163e-08
-2.28837e-07
-2.26511e-08
-2.24308e-07
-2.43579e-08
-2.19469e-07
-2.60336e-08
-2.14325e-07
-2.7675e-08
-2.08885e-07
-2.92786e-08
-2.03155e-07
-3.08404e-08
-1.97145e-07
-3.2356e-08
-1.90865e-07
-3.38206e-08
-1.84324e-07
-3.52287e-08
-1.77536e-07
-3.65742e-08
-1.70512e-07
-3.78499e-08
-1.63269e-07
-3.90479e-08
-1.55821e-07
-4.01591e-08
-1.48188e-07
-4.11732e-08
-1.40388e-07
-4.20786e-08
-1.32445e-07
-4.28622e-08
-1.24384e-07
-4.35097e-08
-1.16231e-07
-4.40051e-08
-1.08017e-07
-4.4331e-08
-9.97758e-08
-4.44687e-08
-9.15432e-08
-4.43982e-08
-8.3359e-08
-4.40987e-08
-7.52661e-08
-4.3549e-08
-6.73104e-08
-4.27279e-08
-5.95409e-08
-4.16148e-08
-5.2009e-08
-4.01906e-08
-4.47686e-08
-3.84392e-08
-3.78751e-08
-3.63482e-08
-3.13847e-08
-3.39108e-08
-2.5354e-08
-3.11278e-08
-1.98388e-08
-2.80103e-08
-1.48932e-08
-2.45819e-08
-1.05696e-08
-2.08827e-08
-6.91774e-09
-1.69731e-08
-3.98555e-09
-1.29384e-08
-1.82069e-09
-8.89261e-09
-4.73253e-10
-4.98715e-09
-1.44731e-09
-5.23906e-10
1.9849e-09
-2.02088e-09
6.4222e-09
-4.41711e-09
1.11875e-08
-7.64622e-09
1.60507e-08
-1.16471e-08
2.08556e-08
-1.63613e-08
2.54817e-08
-2.1731e-08
2.98375e-08
-2.76976e-08
3.38587e-08
-3.42017e-08
3.75044e-08
-4.11833e-08
4.07511e-08
-4.85821e-08
4.35894e-08
-5.6339e-08
4.60208e-08
-6.43959e-08
4.80545e-08
-7.26967e-08
4.97058e-08
-8.11878e-08
5.09943e-08
-8.98184e-08
5.19425e-08
-9.85411e-08
5.25744e-08
-1.07311e-07
5.29149e-08
-1.16088e-07
5.29889e-08
-1.24834e-07
5.28208e-08
-1.33514e-07
5.24338e-08
-1.42098e-07
5.18496e-08
-1.50556e-07
5.10887e-08
-1.58864e-07
5.01695e-08
-1.66997e-07
4.91089e-08
-1.74936e-07
4.79218e-08
-1.82661e-07
4.66218e-08
-1.90156e-07
4.52206e-08
-1.97405e-07
4.37285e-08
-2.04395e-07
4.21548e-08
-2.11113e-07
4.05073e-08
-2.17547e-07
3.8793e-08
-2.23687e-07
3.70181e-08
-2.29525e-07
3.51879e-08
-2.35051e-07
3.33073e-08
-2.40258e-07
3.13805e-08
-2.45138e-07
2.94116e-08
-2.49685e-07
2.7404e-08
-2.53893e-07
2.53612e-08
-2.57757e-07
2.32861e-08
-2.61272e-07
2.11819e-08
-2.64433e-07
1.90514e-08
-2.67237e-07
1.68972e-08
-2.69679e-07
1.47222e-08
-2.71758e-07
1.25288e-08
-2.73469e-07
1.03198e-08
-2.74812e-07
8.09754e-09
-2.75784e-07
5.86469e-09
-2.76384e-07
3.62375e-09
-2.76611e-07
1.37722e-09
-2.76464e-07
-8.72365e-10
-2.75944e-07
-3.1225e-09
-2.75051e-07
-5.37064e-09
-2.73785e-07
-7.61422e-09
-2.72149e-07
-9.85066e-09
-2.70143e-07
-1.20773e-08
-2.67769e-07
-1.42915e-08
-2.65032e-07
-1.64906e-08
-2.61932e-07
-1.86716e-08
-2.58474e-07
-2.08318e-08
-2.54663e-07
-2.29681e-08
-2.50502e-07
-2.50774e-08
-2.45996e-07
-2.71564e-08
-2.41152e-07
-2.92018e-08
-2.35976e-07
-3.12099e-08
-2.30475e-07
-3.31766e-08
-2.24655e-07
-3.50978e-08
-2.18527e-07
-3.69686e-08
-2.12099e-07
-3.87839e-08
-2.05382e-07
-4.05378e-08
-1.98387e-07
-4.22237e-08
-1.91127e-07
-4.38343e-08
-1.83616e-07
-4.53611e-08
-1.75869e-07
-4.67946e-08
-1.67904e-07
-4.81239e-08
-1.59741e-07
-4.9337e-08
-1.51399e-07
-5.042e-08
-1.42904e-07
-5.13577e-08
-1.3428e-07
-5.21331e-08
-1.25558e-07
-5.27274e-08
-1.16769e-07
-5.31204e-08
-1.07947e-07
-5.32902e-08
-9.91316e-08
-5.32137e-08
-9.03636e-08
-5.28668e-08
-8.16877e-08
-5.2225e-08
-7.31519e-08
-5.12637e-08
-6.48072e-08
-4.99594e-08
-5.67074e-08
-4.82904e-08
-4.89086e-08
-4.6238e-08
-4.14689e-08
-4.37879e-08
-3.44477e-08
-4.09319e-08
-2.79052e-08
-3.76704e-08
-2.19016e-08
-3.40139e-08
-1.64968e-08
-2.99867e-08
-1.17499e-08
-2.56295e-08
-7.71978e-09
-2.10033e-08
-4.4655e-09
-1.61927e-08
-2.04848e-09
-1.13096e-08
-5.35081e-10
-6.50055e-09
-1.98239e-09
-5.793e-10
2.5642e-09
-2.2258e-09
8.06871e-09
-4.85105e-09
1.38127e-08
-8.37453e-09
1.95742e-08
-1.27228e-08
2.52039e-08
-1.78269e-08
3.05858e-08
-2.36202e-08
3.56308e-08
-3.00375e-08
4.0276e-08
-3.70137e-08
4.44805e-08
-4.44843e-08
4.82217e-08
-5.23857e-08
5.14909e-08
-6.06556e-08
5.42907e-08
-6.92334e-08
5.66322e-08
-7.80607e-08
5.85331e-08
-8.7082e-08
6.00156e-08
-9.62447e-08
6.11051e-08
-1.05499e-07
6.18291e-08
-1.148e-07
6.22156e-08
-1.24104e-07
6.22932e-08
-1.33373e-07
6.20894e-08
-1.4257e-07
6.1631e-08
-1.51663e-07
6.09428e-08
-1.60623e-07
6.00482e-08
-1.69422e-07
5.89685e-08
-1.78036e-07
5.77231e-08
-1.86444e-07
5.63294e-08
-1.94625e-07
5.4803e-08
-2.02562e-07
5.31576e-08
-2.10239e-07
5.14052e-08
-2.1764e-07
4.95566e-08
-2.24754e-07
4.7621e-08
-2.31568e-07
4.56066e-08
-2.3807e-07
4.35207e-08
-2.44252e-07
4.13696e-08
-2.50104e-07
3.91591e-08
-2.55618e-07
3.68941e-08
-2.60785e-07
3.45793e-08
-2.656e-07
3.2219e-08
-2.70056e-07
2.98172e-08
-2.74148e-07
2.73775e-08
-2.77869e-07
2.49034e-08
-2.81216e-07
2.23983e-08
-2.84184e-07
1.98655e-08
-2.8677e-07
1.73081e-08
-2.88971e-07
1.47291e-08
-2.90782e-07
1.21317e-08
-2.92204e-07
9.51883e-09
-2.93233e-07
6.89348e-09
-2.93867e-07
4.25862e-09
-2.94107e-07
1.61722e-09
-2.93952e-07
-1.02775e-09
-2.93401e-07
-3.67333e-09
-2.92455e-07
-6.31653e-09
-2.91115e-07
-8.95432e-09
-2.89382e-07
-1.15836e-08
-2.87258e-07
-1.42014e-08
-2.84745e-07
-1.68045e-08
-2.81846e-07
-1.93896e-08
-2.78564e-07
-2.19535e-08
-2.74903e-07
-2.44928e-08
-2.70867e-07
-2.70039e-08
-2.66462e-07
-2.94832e-08
-2.61691e-07
-3.19268e-08
-2.56562e-07
-3.43308e-08
-2.51082e-07
-3.66907e-08
-2.45256e-07
-3.90018e-08
-2.39095e-07
-4.12592e-08
-2.32606e-07
-4.34573e-08
-2.258e-07
-4.55899e-08
-2.18688e-07
-4.76501e-08
-2.11281e-07
-4.96302e-08
-2.03594e-07
-5.15215e-08
-1.95641e-07
-5.33143e-08
-1.87438e-07
-5.49973e-08
-1.79004e-07
-5.65579e-08
-1.70359e-07
-5.79822e-08
-1.61525e-07
-5.9254e-08
-1.52527e-07
-6.03558e-08
-1.43392e-07
-6.12679e-08
-1.34151e-07
-6.19688e-08
-1.24836e-07
-6.24352e-08
-1.15484e-07
-6.2642e-08
-1.06135e-07
-6.25629e-08
-9.68315e-08
-6.21705e-08
-8.76198e-08
-6.14367e-08
-7.85497e-08
-6.03338e-08
-6.96742e-08
-5.8835e-08
-6.1049e-08
-5.69156e-08
-5.27327e-08
-5.45543e-08
-4.47859e-08
-5.17346e-08
-3.72713e-08
-4.84466e-08
-3.02527e-08
-4.46889e-08
-2.3795e-08
-4.04716e-08
-1.79637e-08
-3.5818e-08
-1.28251e-08
-3.07682e-08
-8.44644e-09
-2.53819e-08
-4.89744e-09
-1.97417e-08
-2.25173e-09
-1.39553e-08
-5.89559e-10
-8.16272e-09
-2.57194e-09
-6.28462e-10
3.19266e-09
-2.40912e-09
9.84936e-09
-5.24156e-09
1.66452e-08
-9.03351e-09
2.33661e-08
-1.37007e-08
2.98711e-08
-1.91647e-08
3.60497e-08
-2.53506e-08
4.18167e-08
-3.21863e-08
4.71117e-08
-3.96013e-08
5.18956e-08
-4.75268e-08
5.61471e-08
-5.58953e-08
5.98594e-08
-6.46415e-08
6.30368e-08
-7.37021e-08
6.56929e-08
-8.30169e-08
6.78478e-08
-9.2528e-08
6.95268e-08
-1.02181e-07
7.07585e-08
-1.11926e-07
7.15736e-08
-1.21714e-07
7.2004e-08
-1.31503e-07
7.20815e-08
-1.4125e-07
7.18372e-08
-1.50921e-07
7.13012e-08
-1.6048e-07
7.05018e-08
-1.69897e-07
6.94652e-08
-1.79144e-07
6.82158e-08
-1.88196e-07
6.67754e-08
-1.97031e-07
6.5164e-08
-2.05627e-07
6.33993e-08
-2.13966e-07
6.14969e-08
-2.22032e-07
5.94707e-08
-2.29808e-07
5.73331e-08
-2.37282e-07
5.50947e-08
-2.4444e-07
5.27649e-08
-2.51272e-07
5.03521e-08
-2.57766e-07
4.78638e-08
-2.63913e-07
4.53064e-08
-2.69705e-07
4.2686e-08
-2.75134e-07
4.00078e-08
-2.80192e-07
3.72769e-08
-2.84872e-07
3.44979e-08
-2.8917e-07
3.1675e-08
-2.93079e-07
2.88123e-08
-2.96594e-07
2.59137e-08
-2.99712e-07
2.29831e-08
-3.02428e-07
2.0024e-08
-3.04738e-07
1.704e-08
-3.06641e-07
1.40346e-08
-3.08134e-07
1.10114e-08
-3.09214e-07
7.97385e-09
-3.09881e-07
4.92528e-09
-3.10133e-07
1.86917e-09
-3.0997e-07
-1.19104e-09
-3.09391e-07
-4.25191e-09
-3.08398e-07
-7.30999e-09
-3.0699e-07
-1.03618e-08
-3.0517e-07
-1.34037e-08
-3.02939e-07
-1.64323e-08
-3.003e-07