/*--------------------------------*- C++ -*----------------------------------*\
| =========                 |                                                 |
| \\      /  F ield         | OpenFOAM: The Open Source CFD Toolbox           |
|  \\    /   O peration     | Version:  2212                                  |
|   \\  /    A nd           | Website:  www.openfoam.com                      |
|    \\/     M anipulation  |                                                 |
\*---------------------------------------------------------------------------*/
FoamFile
{
    version     2.0;
    format      ascii;
    arch        "LSB;label=32;scalar=64";
    class       volVectorField;
    location    "0.007";
    object      U;
}
// * * * * * * * * * * * * * * * * * * * * * * * * * * * * * * * * * * * * * //

dimensions      [0 1 -1 0 0 0 0];

internalField   nonuniform List<vector> 
10000
(
(-2.91209e-06 -1.08927e-05 0)
(1.46839e-05 -1.44805e-05 0)
(2.21844e-05 -6.12446e-06 0)
(2.66238e-05 -1.52813e-06 0)
(1.5927e-05 2.67002e-06 0)
(-4.23344e-06 6.24193e-06 0)
(-3.34841e-05 9.24957e-06 0)
(-7.09655e-05 1.184e-05 0)
(-0.000115726 1.40962e-05 0)
(-0.000166794 1.60136e-05 0)
(-0.00022322 1.75774e-05 0)
(-0.000284125 1.8822e-05 0)
(-0.000348717 1.98112e-05 0)
(-0.000416252 2.05961e-05 0)
(-0.000486054 2.11956e-05 0)
(-0.000557512 2.16077e-05 0)
(-0.000630073 2.18392e-05 0)
(-0.000703241 2.19085e-05 0)
(-0.000776576 2.18483e-05 0)
(-0.000849696 2.16948e-05 0)
(-0.000922263 2.14673e-05 0)
(-0.000993995 2.11733e-05 0)
(-0.00106464 2.08048e-05 0)
(-0.00113397 2.03569e-05 0)
(-0.00120181 1.98487e-05 0)
(-0.00126797 1.93031e-05 0)
(-0.00133233 1.8735e-05 0)
(-0.00139476 1.81531e-05 0)
(-0.00145517 1.75524e-05 0)
(-0.00151345 1.69205e-05 0)
(-0.00156952 1.62556e-05 0)
(-0.00162332 1.55634e-05 0)
(-0.00167474 1.48489e-05 0)
(-0.00172371 1.41175e-05 0)
(-0.00177016 1.33707e-05 0)
(-0.001814 1.26016e-05 0)
(-0.00185519 1.18019e-05 0)
(-0.00189363 1.09719e-05 0)
(-0.0019293 1.01207e-05 0)
(-0.00196213 9.25687e-06 0)
(-0.00199209 8.3866e-06 0)
(-0.00201915 7.51639e-06 0)
(-0.00204328 6.64733e-06 0)
(-0.00206447 5.77484e-06 0)
(-0.00208269 4.89529e-06 0)
(-0.00209794 4.00976e-06 0)
(-0.00211021 3.12598e-06 0)
(-0.00211949 2.25118e-06 0)
(-0.00212578 1.38283e-06 0)
(-0.00212907 5.1356e-07 0)
(-0.00212938 -3.60699e-07 0)
(-0.00212669 -1.23964e-06 0)
(-0.002121 -2.11955e-06 0)
(-0.0021123 -2.99669e-06 0)
(-0.00210062 -3.87246e-06 0)
(-0.00208593 -4.75144e-06 0)
(-0.00206825 -5.63526e-06 0)
(-0.00204758 -6.52282e-06 0)
(-0.00202393 -7.41207e-06 0)
(-0.00199731 -8.29821e-06 0)
(-0.00196774 -9.17548e-06 0)
(-0.00193525 -1.00408e-05 0)
(-0.00189989 -1.08925e-05 0)
(-0.00186169 -1.17273e-05 0)
(-0.00182073 -1.25415e-05 0)
(-0.00177706 -1.33316e-05 0)
(-0.00173074 -1.40969e-05 0)
(-0.00168184 -1.48402e-05 0)
(-0.00163043 -1.55643e-05 0)
(-0.00157657 -1.62696e-05 0)
(-0.00152035 -1.69545e-05 0)
(-0.00146184 -1.76172e-05 0)
(-0.00140115 -1.82551e-05 0)
(-0.00133838 -1.88626e-05 0)
(-0.00127365 -1.94323e-05 0)
(-0.00120709 -1.9958e-05 0)
(-0.00113887 -2.04371e-05 0)
(-0.00106916 -2.08676e-05 0)
(-0.000998143 -2.12439e-05 0)
(-0.00092604 -2.15559e-05 0)
(-0.000853103 -2.17918e-05 0)
(-0.000779623 -2.19375e-05 0)
(-0.000705941 -2.19743e-05 0)
(-0.000632454 -2.18795e-05 0)
(-0.000559616 -2.1631e-05 0)
(-0.000487944 -2.1209e-05 0)
(-0.000418012 -2.05948e-05 0)
(-0.000350454 -1.97675e-05 0)
(-0.000285966 -1.87047e-05 0)
(-0.000225303 -1.73831e-05 0)
(-0.00016928 -1.57774e-05 0)
(-0.000118766 -1.38616e-05 0)
(-7.46763e-05 -1.16122e-05 0)
(-3.79494e-05 -9.0143e-06 0)
(-9.49786e-06 -6.0724e-06 0)
(9.8852e-06 -2.83305e-06 0)
(1.9675e-05 5.56328e-07 0)
(2.00234e-05 3.70765e-06 0)
(1.29319e-05 5.6634e-06 0)
(4.05339e-06 4.07588e-06 0)
(-3.49907e-06 -1.07881e-05 0)
(3.92947e-06 -2.49129e-05 0)
(8.67179e-06 -7.20352e-06 0)
(-6.61895e-06 1.10714e-05 0)
(-4.60688e-05 3.0364e-05 0)
(-0.000108947 4.8872e-05 0)
(-0.000194454 6.58164e-05 0)
(-0.000300961 8.09458e-05 0)
(-0.00042642 9.4251e-05 0)
(-0.000568561 0.000105756 0)
(-0.000725111 0.000115506 0)
(-0.000893882 0.000123582 0)
(-0.00107281 0.000130127 0)
(-0.00125995 0.000135292 0)
(-0.00145352 0.000139212 0)
(-0.00165188 0.000141998 0)
(-0.00185351 0.00014375 0)
(-0.00205709 0.000144572 0)
(-0.0022614 0.000144565 0)
(-0.0024654 0.000143847 0)
(-0.00266813 0.000142522 0)
(-0.00286876 0.00014067 0)
(-0.00306656 0.000138353 0)
(-0.0032609 0.000135619 0)
(-0.00345121 0.000132512 0)
(-0.00363701 0.00012909 0)
(-0.00381787 0.000125412 0)
(-0.00399341 0.000121516 0)
(-0.0041633 0.000117426 0)
(-0.00432724 0.000113152 0)
(-0.00448496 0.000108702 0)
(-0.00463621 0.000104084 0)
(-0.00478075 9.93026e-05 0)
(-0.00491839 9.437e-05 0)
(-0.00504894 8.93e-05 0)
(-0.00517219 8.41001e-05 0)
(-0.00528797 7.87753e-05 0)
(-0.00539614 7.33341e-05 0)
(-0.00549655 6.77896e-05 0)
(-0.00558907 6.21585e-05 0)
(-0.00567359 5.64566e-05 0)
(-0.00575003 5.07002e-05 0)
(-0.00581828 4.49021e-05 0)
(-0.00587828 3.90657e-05 0)
(-0.00592995 3.31928e-05 0)
(-0.00597325 2.72911e-05 0)
(-0.00600814 2.13726e-05 0)
(-0.00603458 1.54478e-05 0)
(-0.00605253 9.51997e-06 0)
(-0.00606199 3.58604e-06 0)
(-0.00606294 -2.35667e-06 0)
(-0.00605538 -8.30558e-06 0)
(-0.0060393 -1.42546e-05 0)
(-0.00601471 -2.01999e-05 0)
(-0.00598163 -2.61401e-05 0)
(-0.00594006 -3.20738e-05 0)
(-0.00589006 -3.79974e-05 0)
(-0.00583165 -4.39052e-05 0)
(-0.00576487 -4.97884e-05 0)
(-0.00568978 -5.56342e-05 0)
(-0.00560647 -6.14269e-05 0)
(-0.00551501 -6.715e-05 0)
(-0.00541552 -7.27862e-05 0)
(-0.00530811 -7.83205e-05 0)
(-0.00519293 -8.37437e-05 0)
(-0.00507012 -8.90484e-05 0)
(-0.00493984 -9.42268e-05 0)
(-0.00480228 -9.92725e-05 0)
(-0.00465762 -0.000104181 0)
(-0.00450608 -0.000108941 0)
(-0.00434789 -0.000113538 0)
(-0.00418329 -0.000117953 0)
(-0.00401256 -0.000122166 0)
(-0.00383604 -0.000126152 0)
(-0.00365408 -0.00012988 0)
(-0.00346708 -0.000133314 0)
(-0.0032755 -0.000136422 0)
(-0.00307983 -0.000139165 0)
(-0.00288066 -0.000141497 0)
(-0.00267863 -0.000143357 0)
(-0.0024745 -0.000144673 0)
(-0.0022691 -0.000145357 0)
(-0.00206341 -0.000145314 0)
(-0.00185851 -0.000144434 0)
(-0.00165564 -0.000142602 0)
(-0.00145618 -0.000139705 0)
(-0.00126164 -0.000135626 0)
(-0.00107368 -0.000130251 0)
(-0.000894129 -0.000123466 0)
(-0.00072493 -0.000115159 0)
(-0.000568155 -0.000105224 0)
(-0.000425961 -9.3575e-05 0)
(-0.000300539 -8.01648e-05 0)
(-0.00019402 -6.50263e-05 0)
(-0.000108322 -4.83352e-05 0)
(-4.49008e-05 -3.05335e-05 0)
(-4.37674e-06 -1.25546e-05 0)
(1.41724e-05 3.77577e-06 0)
(1.45859e-05 1.48078e-05 0)
(5.54117e-06 1.28526e-05 0)
(1.01041e-06 -1.69534e-05 0)
(-2.90286e-07 -1.89899e-05 0)
(-2.03894e-05 1.18373e-05 0)
(-6.61963e-05 5.46202e-05 0)
(-0.000143917 0.000101577 0)
(-0.000254685 0.000148338 0)
(-0.000397774 0.000192403 0)
(-0.00057127 0.000232544 0)
(-0.000772575 0.000268276 0)
(-0.000998705 0.000299474 0)
(-0.00124652 0.000326189 0)
(-0.00151288 0.000348601 0)
(-0.00179478 0.000366958 0)
(-0.00208936 0.000381562 0)
(-0.00239396 0.00039273 0)
(-0.0027061 0.00040077 0)
(-0.00302349 0.000405972 0)
(-0.00334409 0.000408623 0)
(-0.00366603 0.000408994 0)
(-0.00398765 0.000407337 0)
(-0.00430748 0.000403912 0)
(-0.00462421 0.000398945 0)
(-0.00493665 0.000392618 0)
(-0.0052438 0.000385094 0)
(-0.00554474 0.000376522 0)
(-0.00583867 0.000367025 0)
(-0.00612489 0.000356723 0)
(-0.00640278 0.000345724 0)
(-0.00667179 0.000334106 0)
(-0.00693139 0.000321929 0)
(-0.00718115 0.000309242 0)
(-0.00742066 0.000296078 0)
(-0.00764956 0.000282465 0)
(-0.00786751 0.000268433 0)
(-0.00807421 0.000254016 0)
(-0.00826939 0.000239245 0)
(-0.00845278 0.000224145 0)
(-0.00862417 0.000208748 0)
(-0.00878332 0.000193083 0)
(-0.00893003 0.000177178 0)
(-0.00906413 0.000161062 0)
(-0.00918545 0.000144762 0)
(-0.00929386 0.000128306 0)
(-0.00938921 0.000111716 0)
(-0.00947139 9.50108e-05 0)
(-0.0095403 7.82075e-05 0)
(-0.00959587 6.13301e-05 0)
(-0.00963801 4.43974e-05 0)
(-0.00966667 2.74226e-05 0)
(-0.00968181 1.04188e-05 0)
(-0.00968342 -6.60399e-06 0)
(-0.00967147 -2.3636e-05 0)
(-0.00964598 -4.06622e-05 0)
(-0.00960695 -5.76686e-05 0)
(-0.00955442 -7.46454e-05 0)
(-0.00948843 -9.15785e-05 0)
(-0.00940904 -0.00010845 0)
(-0.00931634 -0.000125241 0)
(-0.00921041 -0.00014193 0)
(-0.00909136 -0.000158491 0)
(-0.00895932 -0.00017489 0)
(-0.00881444 -0.000191093 0)
(-0.00865688 -0.000207065 0)
(-0.00848683 -0.000222772 0)
(-0.00830448 -0.000238188 0)
(-0.00811007 -0.000253288 0)
(-0.00790383 -0.000268048 0)
(-0.00768606 -0.000282441 0)
(-0.00745706 -0.000296434 0)
(-0.00721717 -0.000309992 0)
(-0.00696675 -0.000323066 0)
(-0.00670623 -0.000335601 0)
(-0.00643606 -0.000347537 0)
(-0.00615677 -0.0003588 0)
(-0.00586894 -0.000369305 0)
(-0.00557321 -0.000378957 0)
(-0.00527031 -0.00038765 0)
(-0.00496108 -0.000395263 0)
(-0.00464645 -0.000401654 0)
(-0.00432748 -0.000406655 0)
(-0.00400537 -0.000410069 0)
(-0.00368146 -0.000411674 0)
(-0.00335728 -0.000411219 0)
(-0.00303453 -0.000408435 0)
(-0.00271509 -0.000403036 0)
(-0.00240107 -0.000394727 0)
(-0.00209475 -0.00038321 0)
(-0.00179864 -0.000368191 0)
(-0.00151544 -0.000349388 0)
(-0.00124803 -0.000326541 0)
(-0.00099943 -0.000299435 0)
(-0.000772715 -0.000267936 0)
(-0.000570958 -0.00023205 0)
(-0.000397054 -0.000192019 0)
(-0.000253507 -0.000148482 0)
(-0.000142107 -0.000102731 0)
(-6.34681e-05 -5.71371e-05 0)
(-1.63155e-05 -1.57728e-05 0)
(3.3665e-06 1.43193e-05 0)
(3.54361e-06 1.97155e-05 0)
(-5.97955e-07 -1.14663e-05 0)
(-1.43342e-05 2.86106e-06 0)
(-5.96421e-05 5.97643e-05 0)
(-0.00014006 0.000135719 0)
(-0.000259905 0.000218963 0)
(-0.000420517 0.000302602 0)
(-0.00062106 0.000382318 0)
(-0.000859312 0.000455705 0)
(-0.00113226 0.00052158 0)
(-0.00143642 0.000579508 0)
(-0.00176807 0.000629462 0)
(-0.00212344 0.000671655 0)
(-0.00249878 0.000706447 0)
(-0.00289052 0.000734299 0)
(-0.00329528 0.000755728 0)
(-0.00370991 0.000771274 0)
(-0.0041315 0.000781475 0)
(-0.00455739 0.000786846 0)
(-0.00498517 0.000787889 0)
(-0.00541266 0.000785074 0)
(-0.0058379 0.000778834 0)
(-0.00625914 0.000769576 0)
(-0.00667485 0.000757668 0)
(-0.00708364 0.000743422 0)
(-0.0074843 0.000727119 0)
(-0.00787575 0.000709006 0)
(-0.00825703 0.000689293 0)
(-0.00862729 0.000668162 0)
(-0.00898575 0.000645777 0)
(-0.00933176 0.000622269 0)
(-0.00966469 0.000597741 0)
(-0.009984 0.000572284 0)
(-0.0102892 0.000545971 0)
(-0.0105798 0.000518867 0)
(-0.0108554 0.00049103 0)
(-0.0111157 0.00046252 0)
(-0.0113603 0.000433393 0)
(-0.0115889 0.000403704 0)
(-0.0118012 0.000373506 0)
(-0.011997 0.000342847 0)
(-0.0121759 0.000311773 0)
(-0.0123378 0.000280331 0)
(-0.0124825 0.00024856 0)
(-0.0126098 0.000216504 0)
(-0.0127195 0.000184206 0)
(-0.0128116 0.000151701 0)
(-0.0128858 0.000119027 0)
(-0.0129421 8.62192e-05 0)
(-0.0129804 5.33089e-05 0)
(-0.0130006 2.03272e-05 0)
(-0.0130028 -1.26935e-05 0)
(-0.0129868 -4.57248e-05 0)
(-0.0129528 -7.87389e-05 0)
(-0.0129006 -0.000111705 0)
(-0.0128305 -0.000144593 0)
(-0.0127423 -0.000177371 0)
(-0.0126364 -0.000210001 0)
(-0.0125126 -0.000242447 0)
(-0.0123712 -0.000274664 0)
(-0.0122123 -0.000306608 0)
(-0.0120362 -0.000338228 0)
(-0.0118429 -0.000369469 0)
(-0.0116328 -0.000400274 0)
(-0.011406 -0.000430586 0)
(-0.0111629 -0.000460355 0)
(-0.0109037 -0.000489528 0)
(-0.0106287 -0.000518049 0)
(-0.0103385 -0.000545859 0)
(-0.0100333 -0.000572888 0)
(-0.00971357 -0.000599058 0)
(-0.00937992 -0.000624276 0)
(-0.00903285 -0.000648436 0)
(-0.008673 -0.000671411 0)
(-0.00830107 -0.000693062 0)
(-0.00791784 -0.000713224 0)
(-0.0075242 -0.000731713 0)
(-0.00712112 -0.000748316 0)
(-0.00670973 -0.00076279 0)
(-0.00629129 -0.000774858 0)
(-0.00586721 -0.000784201 0)
(-0.0054391 -0.000790454 0)
(-0.00500873 -0.00079321 0)
(-0.00457812 -0.00079202 0)
(-0.00414948 -0.000786406 0)
(-0.00372526 -0.00077586 0)
(-0.00330817 -0.000759858 0)
(-0.00290115 -0.000737871 0)
(-0.00250737 -0.000709382 0)
(-0.00213025 -0.000673906 0)
(-0.00177336 -0.000631022 0)
(-0.00144044 -0.000580415 0)
(-0.00113524 -0.000521947 0)
(-0.000861432 -0.000455765 0)
(-0.000622442 -0.000382457 0)
(-0.000421189 -0.000303294 0)
(-0.000259764 -0.000220613 0)
(-0.000138971 -0.000138381 0)
(-5.7701e-05 -6.29392e-05 0)
(-1.29511e-05 -4.43747e-06 0)
(4.03513e-07 1.90604e-05 0)
(-3.07207e-06 -2.43921e-06 0)
(-3.05664e-05 4.41471e-05 0)
(-0.000103014 0.00013835 0)
(-0.000219996 0.000255974 0)
(-0.000383514 0.000382912 0)
(-0.000594339 0.000510194 0)
(-0.000851309 0.000631962 0)
(-0.00115186 0.0007447 0)
(-0.0014926 0.000846498 0)
(-0.00186961 0.000936481 0)
(-0.00227873 0.00101445 0)
(-0.00271566 0.00108062 0)
(-0.00317616 0.00113543 0)
(-0.00365609 0.00117954 0)
(-0.00415152 0.00121364 0)
(-0.00465873 0.00123853 0)
(-0.0051743 0.00125499 0)
(-0.00569507 0.00126381 0)
(-0.00621815 0.00126576 0)
(-0.00674093 0.00126157 0)
(-0.00726106 0.00125191 0)
(-0.0077764 0.00123739 0)
(-0.00828507 0.00121858 0)
(-0.0087854 0.00119597 0)
(-0.00927588 0.00117002 0)
(-0.00975518 0.00114111 0)
(-0.0102221 0.00110959 0)
(-0.0106757 0.00107575 0)
(-0.0111148 0.00103983 0)
(-0.0115388 0.00100206 0)
(-0.0119468 0.000962612 0)
(-0.0123381 0.000921645 0)
(-0.0127122 0.000879292 0)
(-0.0130684 0.00083567 0)
(-0.0134063 0.000790882 0)
(-0.0137254 0.00074502 0)
(-0.0140253 0.000698169 0)
(-0.0143056 0.000650413 0)
(-0.0145659 0.000601835 0)
(-0.0148059 0.000552514 0)
(-0.0150253 0.000502518 0)
(-0.0152239 0.000451916 0)
(-0.0154013 0.000400773 0)
(-0.0155574 0.000349151 0)
(-0.015692 0.000297117 0)
(-0.0158048 0.000244733 0)
(-0.0158958 0.000192056 0)
(-0.0159648 0.000139145 0)
(-0.0160118 8.60579e-05 0)
(-0.0160366 3.28469e-05 0)
(-0.0160392 -2.04352e-05 0)
(-0.0160196 -7.37351e-05 0)
(-0.0159777 -0.000127 0)
(-0.0159138 -0.000180175 0)
(-0.0158277 -0.000233206 0)
(-0.0157195 -0.000286037 0)
(-0.0155895 -0.000338608 0)
(-0.0154377 -0.000390856 0)
(-0.0152642 -0.000442715 0)
(-0.0150694 -0.000494111 0)
(-0.0148534 -0.000544968 0)
(-0.0146164 -0.000595209 0)
(-0.0143587 -0.000644752 0)
(-0.0140807 -0.000693512 0)
(-0.0137826 -0.000741406 0)
(-0.0134649 -0.000788344 0)
(-0.013128 -0.000834231 0)
(-0.0127723 -0.000878963 0)
(-0.0123983 -0.000922423 0)
(-0.0120067 -0.000964481 0)
(-0.011598 -0.00100498 0)
(-0.0111729 -0.00104376 0)
(-0.0107323 -0.0010806 0)
(-0.0102769 -0.00111529 0)
(-0.00980781 -0.00114755 0)
(-0.00932606 -0.00117709 0)
(-0.00883287 -0.00120356 0)
(-0.00832962 -0.00122658 0)
(-0.00781785 -0.00124568 0)
(-0.00729931 -0.00126037 0)
(-0.00677592 -0.00127009 0)
(-0.00624986 -0.0012742 0)
(-0.00572354 -0.00127203 0)
(-0.00519961 -0.00126284 0)
(-0.00468101 -0.00124587 0)
(-0.00417094 -0.00122035 0)
(-0.00367287 -0.00118548 0)
(-0.00319051 -0.00114051 0)
(-0.00272783 -0.00108476 0)
(-0.00228896 -0.00101763 0)
(-0.00187815 -0.00093874 0)
(-0.00149967 -0.000847998 0)
(-0.00115765 -0.00074575 0)
(-0.000855927 -0.000633001 0)
(-0.000597794 -0.000511722 0)
(-0.000385737 -0.000385299 0)
(-0.000221 -0.000259169 0)
(-0.00010309 -0.000141603 0)
(-3.07785e-05 -4.51509e-05 0)
(-2.93398e-06 9.03194e-06 0)
(-5.87086e-06 1.60599e-05 0)
(-4.72257e-05 0.000107381 0)
(-0.000146933 0.000249016 0)
(-0.000300605 0.000416337 0)
(-0.000507759 0.000593771 0)
(-0.000768119 0.0007707 0)
(-0.0010799 0.00093995 0)
(-0.0014401 0.00109705 0)
(-0.00184493 0.00123941 0)
(-0.00229009 0.00136573 0)
(-0.00277101 0.00147559 0)
(-0.00328301 0.00156913 0)
(-0.00382141 0.00164689 0)
(-0.00438164 0.00170967 0)
(-0.00495935 0.0017584 0)
(-0.00555039 0.00179411 0)
(-0.00615088 0.00181786 0)
(-0.00675726 0.00183073 0)
(-0.00736627 0.00183377 0)
(-0.00797489 0.00182798 0)
(-0.00858046 0.00181431 0)
(-0.00918053 0.00179362 0)
(-0.00977291 0.0017667 0)
(-0.0103556 0.00173426 0)
(-0.010927 0.00169693 0)
(-0.0114854 0.00165527 0)
(-0.0120295 0.00160977 0)
(-0.0125581 0.00156087 0)
(-0.01307 0.00150892 0)
(-0.0135642 0.00145424 0)
(-0.0140398 0.00139709 0)
(-0.0144961 0.0013377 0)
(-0.0149323 0.00127629 0)
(-0.0153477 0.00121302 0)
(-0.0157418 0.00114805 0)
(-0.0161139 0.00108153 0)
(-0.0164637 0.00101358 0)
(-0.0167906 0.000944311 0)
(-0.0170942 0.000873848 0)
(-0.0173741 0.000802293 0)
(-0.0176301 0.000729751 0)
(-0.0178616 0.000656319 0)
(-0.0180686 0.000582091 0)
(-0.0182506 0.00050716 0)
(-0.0184075 0.000431613 0)
(-0.0185391 0.000355538 0)
(-0.0186452 0.000279027 0)
(-0.0187256 0.000202163 0)
(-0.0187803 0.00012503 0)
(-0.0188092 4.77111e-05 0)
(-0.0188122 -2.97127e-05 0)
(-0.0187892 -0.000107162 0)
(-0.0187404 -0.000184556 0)
(-0.0186657 -0.000261809 0)
(-0.0185652 -0.000338839 0)
(-0.018439 -0.000415559 0)
(-0.0182873 -0.000491881 0)
(-0.0181102 -0.000567714 0)
(-0.0179078 -0.000642961 0)
(-0.0176805 -0.00071752 0)
(-0.0174285 -0.000791283 0)
(-0.0171521 -0.000864142 0)
(-0.0168516 -0.000935983 0)
(-0.0165273 -0.00100669 0)
(-0.0161797 -0.00107613 0)
(-0.0158093 -0.00114419 0)
(-0.0154164 -0.00121071 0)
(-0.0150017 -0.00127554 0)
(-0.0145658 -0.00133851 0)
(-0.0141093 -0.00139943 0)
(-0.013633 -0.00145806 0)
(-0.0131378 -0.00151415 0)
(-0.0126244 -0.00156742 0)
(-0.0120939 -0.00161753 0)
(-0.0115476 -0.00166409 0)
(-0.0109865 -0.00170667 0)
(-0.0104123 -0.00174477 0)
(-0.00982644 -0.00177783 0)
(-0.00923075 -0.0018052 0)
(-0.00862723 -0.00182616 0)
(-0.00801814 -0.00183993 0)
(-0.00740594 -0.00184562 0)
(-0.00679341 -0.0018423 0)
(-0.00618357 -0.00182896 0)
(-0.00557974 -0.00180457 0)
(-0.00498553 -0.00176804 0)
(-0.00440484 -0.00171834 0)
(-0.00384183 -0.00165447 0)
(-0.00330087 -0.00157551 0)
(-0.00278654 -0.00148076 0)
(-0.00230351 -0.00136977 0)
(-0.00185643 -0.00124252 0)
(-0.00144983 -0.00109957 0)
(-0.00108792 -0.000942364 0)
(-0.00077443 -0.000773537 0)
(-0.000512356 -0.000597418 0)
(-0.000303605 -0.000420668 0)
(-0.000148631 -0.000253029 0)
(-4.8388e-05 -0.000108674 0)
(-6.10477e-06 -1.04627e-05 0)
(-8.62397e-06 4.33509e-05 0)
(-6.33007e-05 0.000192195 0)
(-0.000189398 0.00039142 0)
(-0.0003787 0.000616325 0)
(-0.000628259 0.000850619 0)
(-0.00093659 0.00108259 0)
(-0.00130104 0.00130406 0)
(-0.00171801 0.00150973 0)
(-0.00218328 0.00169645 0)
(-0.00269218 0.00186254 0)
(-0.00323977 0.00200734 0)
(-0.00382101 0.00213097 0)
(-0.0044309 0.00223401 0)
(-0.00506449 0.00231739 0)
(-0.00571707 0.00238227 0)
(-0.00638417 0.00242995 0)
(-0.00706157 0.00246177 0)
(-0.00774535 0.00247911 0)
(-0.00843192 0.00248331 0)
(-0.00911799 0.00247568 0)
(-0.00980057 0.00245744 0)
(-0.010477 0.00242974 0)
(-0.0111447 0.0023936 0)
(-0.0118017 0.00234999 0)
(-0.0124459 0.00229973 0)
(-0.0130756 0.00224356 0)
(-0.0136891 0.00218216 0)
(-0.0142852 0.00211608 0)
(-0.0148626 0.00204583 0)
(-0.0154201 0.00197184 0)
(-0.0159567 0.00189447 0)
(-0.0164715 0.00181405 0)
(-0.0169636 0.00173085 0)
(-0.0174324 0.00164512 0)
(-0.0178771 0.00155706 0)
(-0.018297 0.00146689 0)
(-0.0186917 0.00137477 0)
(-0.0190606 0.00128088 0)
(-0.0194033 0.00118535 0)
(-0.0197192 0.00108833 0)
(-0.0200079 0.000989964 0)
(-0.0202692 0.000890382 0)
(-0.0205027 0.00078971 0)
(-0.0207081 0.000688072 0)
(-0.0208851 0.000585591 0)
(-0.0210336 0.000482385 0)
(-0.0211532 0.000378573 0)
(-0.021244 0.000274275 0)
(-0.0213056 0.000169603 0)
(-0.0213381 6.46724e-05 0)
(-0.0213414 -4.04019e-05 0)
(-0.0213155 -0.000145507 0)
(-0.0212603 -0.000250531 0)
(-0.021176 -0.000355356 0)
(-0.0210625 -0.000459867 0)
(-0.02092 -0.000563943 0)
(-0.0207488 -0.000667462 0)
(-0.0205488 -0.000770298 0)
(-0.0203205 -0.000872321 0)
(-0.0200639 -0.000973396 0)
(-0.0197795 -0.00107338 0)
(-0.0194675 -0.00117213 0)
(-0.0191284 -0.00126949 0)
(-0.0187625 -0.0013653 0)
(-0.0183703 -0.00145939 0)
(-0.0179523 -0.00155159 0)
(-0.0175091 -0.0016417 0)
(-0.0170413 -0.0017295 0)
(-0.0165496 -0.00181475 0)
(-0.0160347 -0.00189718 0)
(-0.0154976 -0.0019765 0)
(-0.0149391 -0.00205235 0)
(-0.0143602 -0.00212434 0)
(-0.0137622 -0.00219201 0)
(-0.0131463 -0.00225484 0)
(-0.0125139 -0.00231226 0)
(-0.0118668 -0.00236357 0)
(-0.0112065 -0.00240803 0)
(-0.0105353 -0.00244479 0)
(-0.00985529 -0.00247288 0)
(-0.00916897 -0.00249128 0)
(-0.00847912 -0.00249882 0)
(-0.00778877 -0.0024943 0)
(-0.00710127 -0.00247641 0)
(-0.00642027 -0.00244382 0)
(-0.00574969 -0.00239517 0)
(-0.00509379 -0.00232912 0)
(-0.00445706 -0.00224443 0)
(-0.00384425 -0.00213999 0)
(-0.00326025 -0.00201495 0)
(-0.0027101 -0.00186883 0)
(-0.00219878 -0.00170166 0)
(-0.00173119 -0.00151425 0)
(-0.00131195 -0.00130839 0)
(-0.000945269 -0.00108732 0)
(-0.000634774 -0.000856106 0)
(-0.000383214 -0.000622343 0)
(-0.000192182 -0.000396756 0)
(-6.49434e-05 -0.00019444 0)
(-8.97639e-06 -3.89003e-05 0)
(-1.11121e-05 7.87635e-05 0)
(-7.8246e-05 0.0002975 0)
(-0.000229271 0.000564224 0)
(-0.000452409 0.000854446 0)
(-0.000742365 0.00115167 0)
(-0.0010964 0.00144365 0)
(-0.00151092 0.00172151 0)
(-0.00198159 0.00197938 0)
(-0.00250368 0.00221362 0)
(-0.00307213 0.00242225 0)
(-0.00368166 0.00260445 0)
(-0.00432689 0.00276028 0)
(-0.0050025 0.0028904 0)
(-0.00570328 0.00299588 0)
(-0.00642421 0.0030781 0)
(-0.00716052 0.00313859 0)
(-0.00790771 0.00317903 0)
(-0.00866162 0.00320109 0)
(-0.00941837 0.00320643 0)
(-0.0101744 0.00319666 0)
(-0.0109265 0.0031733 0)
(-0.0116718 0.00313779 0)
(-0.0124075 0.00309143 0)
(-0.0131314 0.00303542 0)
(-0.0138412 0.00297081 0)
(-0.014535 0.00289855 0)
(-0.0152112 0.00281949 0)
(-0.0158682 0.00273436 0)
(-0.0165045 0.00264378 0)
(-0.017119 0.00254833 0)
(-0.0177105 0.00244848 0)
(-0.018278 0.00234466 0)
(-0.0188206 0.00223721 0)
(-0.0193374 0.00212648 0)
(-0.0198276 0.00201272 0)
(-0.0202907 0.00189622 0)
(-0.0207258 0.00177718 0)
(-0.0211325 0.00165584 0)
(-0.0215103 0.00153238 0)
(-0.0218586 0.00140699 0)
(-0.0221769 0.00127984 0)
(-0.022465 0.00115112 0)
(-0.0227224 0.00102098 0)
(-0.0229488 0.00088958 0)
(-0.0231439 0.000757083 0)
(-0.0233075 0.000623645 0)
(-0.0234394 0.000489417 0)
(-0.0235394 0.000354551 0)
(-0.0236073 0.000219198 0)
(-0.0236431 8.35067e-05 0)
(-0.0236466 -5.23714e-05 0)
(-0.023618 -0.000188287 0)
(-0.0235571 -0.000324091 0)
(-0.023464 -0.00045963 0)
(-0.0233389 -0.000594752 0)
(-0.0231818 -0.000729301 0)
(-0.0229929 -0.000863116 0)
(-0.0227724 -0.000996032 0)
(-0.0225206 -0.00112788 0)
(-0.0222377 -0.00125849 0)
(-0.0219241 -0.00138768 0)
(-0.0215801 -0.00151526 0)
(-0.0212062 -0.00164103 0)
(-0.0208028 -0.00176479 0)
(-0.0203705 -0.00188632 0)
(-0.0199097 -0.00200538 0)
(-0.0194212 -0.00212172 0)
(-0.0189055 -0.00223506 0)
(-0.0183636 -0.00234508 0)
(-0.0177962 -0.00245144 0)
(-0.0172042 -0.00255374 0)
(-0.0165888 -0.00265152 0)
(-0.015951 -0.00274429 0)
(-0.0152921 -0.00283145 0)
(-0.0146136 -0.00291234 0)
(-0.013917 -0.00298619 0)
(-0.0132041 -0.00305216 0)
(-0.0124769 -0.00310927 0)
(-0.0117375 -0.00315645 0)
(-0.0109885 -0.0031925 0)
(-0.0102325 -0.00321609 0)
(-0.00947246 -0.00322582 0)
(-0.00871171 -0.00322014 0)
(-0.00795383 -0.00319747 0)
(-0.00720273 -0.00315616 0)
(-0.00646263 -0.00309454 0)
(-0.00573803 -0.003011 0)
(-0.00503374 -0.00290405 0)
(-0.00435478 -0.00277236 0)
(-0.00370635 -0.00261496 0)
(-0.00309377 -0.00243129 0)
(-0.00252238 -0.00222146 0)
(-0.00199744 -0.00198643 0)
(-0.00152398 -0.00172833 0)
(-0.00110676 -0.00145079 0)
(-0.000750163 -0.00115947 0)
(-0.000457858 -0.000862546 0)
(-0.000232658 -0.000571293 0)
(-8.00857e-05 -0.00030115 0)
(-1.15155e-05 -7.5538e-05 0)
(-1.32797e-05 0.000121544 0)
(-9.18087e-05 0.000421825 0)
(-0.000265966 0.000765505 0)
(-0.000520715 0.00112853 0)
(-0.000848582 0.00149457 0)
(-0.00124563 0.00185122 0)
(-0.00170726 0.00218931 0)
(-0.0022284 0.00250258 0)
(-0.00280374 0.00278706 0)
(-0.00342775 0.00304055 0)
(-0.00409481 0.00326213 0)
(-0.00479923 0.00345184 0)
(-0.00553542 0.00361042 0)
(-0.00629788 0.00373913 0)
(-0.00708136 0.00383954 0)
(-0.00788084 0.00391348 0)
(-0.00869159 0.0039629 0)
(-0.00950921 0.00398978 0)
(-0.0103296 0.00399613 0)
(-0.011149 0.00398387 0)
(-0.0119641 0.00395484 0)
(-0.0127716 0.00391076 0)
(-0.0135687 0.00385322 0)
(-0.0143529 0.00378368 0)
(-0.015122 0.00370343 0)
(-0.0158737 0.00361363 0)
(-0.0166064 0.00351533 0)
(-0.0173182 0.00340942 0)
(-0.0180077 0.0032967 0)
(-0.0186736 0.00317785 0)
(-0.0193146 0.00305349 0)
(-0.0199296 0.00292412 0)
(-0.0205176 0.00279022 0)
(-0.0210776 0.00265219 0)
(-0.021609 0.00251038 0)
(-0.0221108 0.00236512 0)
(-0.0225824 0.00221669 0)
(-0.0230232 0.00206536 0)
(-0.0234326 0.00191139 0)
(-0.02381 0.001755 0)
(-0.0241551 0.00159642 0)
(-0.0244672 0.00143586 0)
(-0.0247462 0.00127352 0)
(-0.0249915 0.00110962 0)
(-0.0252029 0.000944333 0)
(-0.0253802 0.000777869 0)
(-0.025523 0.000610417 0)
(-0.0256313 0.000442164 0)
(-0.0257049 0.000273302 0)
(-0.0257436 0.000104017 0)
(-0.0257474 -6.55006e-05 0)
(-0.0257163 -0.000235063 0)
(-0.0256502 -0.00040448 0)
(-0.0255493 -0.000573561 0)
(-0.0254137 -0.000742112 0)
(-0.0252434 -0.000909937 0)
(-0.0250386 -0.00107683 0)
(-0.0247996 -0.0012426 0)
(-0.0245267 -0.00140702 0)
(-0.0242201 -0.00156988 0)
(-0.0238802 -0.00173096 0)
(-0.0235075 -0.00189001 0)
(-0.0231022 -0.0020468 0)
(-0.0226651 -0.00220107 0)
(-0.0221965 -0.00235254 0)
(-0.0216972 -0.00250092 0)
(-0.0211678 -0.00264588 0)
(-0.0206091 -0.00278708 0)
(-0.0200219 -0.00292412 0)
(-0.0194071 -0.00305656 0)
(-0.0187658 -0.00318391 0)
(-0.018099 -0.0033056 0)
(-0.0174081 -0.00342101 0)
(-0.0166943 -0.0035294 0)
(-0.0159594 -0.00362995 0)
(-0.0152048 -0.00372172 0)
(-0.0144326 -0.00380366 0)
(-0.013645 -0.00387458 0)
(-0.0128441 -0.00393316 0)
(-0.0120326 -0.00397794 0)
(-0.0112135 -0.00400733 0)
(-0.0103899 -0.00401961 0)
(-0.00956526 -0.00401294 0)
(-0.00874339 -0.00398541 0)
(-0.00792843 -0.00393504 0)
(-0.00712482 -0.00385989 0)
(-0.0063373 -0.00375803 0)
(-0.00557092 -0.00362772 0)
(-0.00483094 -0.00346742 0)
(-0.00412285 -0.00327601 0)
(-0.00345224 -0.00305284 0)
(-0.00282478 -0.00279805 0)
(-0.0022461 -0.00251269 0)
(-0.00172172 -0.0021991 0)
(-0.00125699 -0.00186121 0)
(-0.000857062 -0.00150501 0)
(-0.00052659 -0.00113897 0)
(-0.000269599 -0.000774568 0)
(-9.37079e-05 -0.000427133 0)
(-1.37322e-05 -0.000119557 0)
(-1.51865e-05 0.000170938 0)
(-0.000103974 0.000563573 0)
(-0.000299284 0.000993068 0)
(-0.000583182 0.00143604 0)
(-0.000946241 0.00187656 0)
(-0.00138337 0.00230238 0)
(-0.00188902 0.0027043 0)
(-0.00245731 0.00307588 0)
(-0.00308233 0.00341301 0)
(-0.00375811 0.00371336 0)
(-0.00447862 0.00397597 0)
(-0.00523788 0.00420092 0)
(-0.00602999 0.00438906 0)
(-0.00684924 0.00454184 0)
(-0.00769013 0.00466107 0)
(-0.00854745 0.00474885 0)
(-0.00941626 0.00480743 0)
(-0.010292 0.00483913 0)
(-0.0111703 0.00484628 0)
(-0.0120473 0.00483113 0)
(-0.0129194 0.00479584 0)
(-0.0137834 0.00474246 0)
(-0.0146361 0.00467284 0)
(-0.015475 0.00458871 0)
(-0.0162976 0.00449163 0)
(-0.0171018 0.00438297 0)
(-0.0178854 0.00426398 0)
(-0.0186468 0.00413573 0)
(-0.0193844 0.0039992 0)
(-0.0200966 0.0038552 0)
(-0.0207823 0.00370447 0)
(-0.0214402 0.00354765 0)
(-0.0220691 0.0033853 0)
(-0.0226683 0.0032179 0)
(-0.0232367 0.0030459 0)
(-0.0237735 0.00286969 0)
(-0.024278 0.00268962 0)
(-0.0247495 0.00250603 0)
(-0.0251874 0.00231922 0)
(-0.0255912 0.00212946 0)
(-0.0259602 0.00193704 0)
(-0.0262941 0.00174222 0)
(-0.0265924 0.00154523 0)
(-0.0268548 0.00134634 0)
(-0.0270809 0.00114577 0)
(-0.0272705 0.000943769 0)
(-0.0274233 0.000740562 0)
(-0.027539 0.000536384 0)
(-0.0276177 0.000331465 0)
(-0.027659 0.000126035 0)
(-0.0276631 -7.96763e-05 0)
(-0.0276297 -0.000285439 0)
(-0.0275591 -0.000491021 0)
(-0.0274511 -0.000696189 0)
(-0.0273059 -0.000900706 0)
(-0.0271238 -0.00110433 0)
(-0.0269047 -0.00130682 0)
(-0.0266491 -0.00150793 0)
(-0.0263571 -0.0017074 0)
(-0.0260292 -0.00190496 0)
(-0.0256656 -0.00210034 0)
(-0.0252669 -0.00229326 0)
(-0.0248334 -0.00248342 0)
(-0.0243658 -0.0026705 0)
(-0.0238646 -0.00285418 0)
(-0.0233305 -0.00303409 0)
(-0.0227643 -0.00320983 0)
(-0.0221667 -0.00338098 0)
(-0.0215387 -0.00354707 0)
(-0.0208811 -0.00370755 0)
(-0.0201952 -0.00386182 0)
(-0.0194821 -0.00400921 0)
(-0.0187432 -0.00414895 0)
(-0.0179799 -0.00428016 0)
(-0.0171939 -0.00440185 0)
(-0.016387 -0.00451289 0)
(-0.0155611 -0.00461202 0)
(-0.0147187 -0.00469783 0)
(-0.013862 -0.00476875 0)
(-0.012994 -0.00482305 0)
(-0.0121176 -0.00485884 0)
(-0.0112361 -0.00487409 0)
(-0.0103533 -0.00486667 0)
(-0.00947304 -0.00483432 0)
(-0.00859969 -0.00477475 0)
(-0.00773787 -0.00468569 0)
(-0.00689254 -0.00456493 0)
(-0.00606894 -0.00441043 0)
(-0.00527258 -0.00422046 0)
(-0.00450919 -0.0039937 0)
(-0.00378465 -0.0037294 0)
(-0.00310496 -0.00342764 0)
(-0.00247615 -0.00308951 0)
(-0.00190423 -0.00271745 0)
(-0.00139517 -0.00231553 0)
(-0.000954924 -0.00188986 0)
(-0.000589116 -0.00144898 0)
(-0.000302917 -0.00100424 0)
(-0.000105834 -0.000570597 0)
(-1.56524e-05 -0.000170142 0)
(-1.68938e-05 0.000226237 0)
(-0.000114836 0.000721108 0)
(-0.000329297 0.00124466 0)
(-0.000639801 0.00177431 0)
(-0.00103526 0.00229473 0)
(-0.00150947 0.00279407 0)
(-0.00205599 0.00326325 0)
(-0.00266816 0.00369591 0)
(-0.00333944 0.00408788 0)
(-0.00406337 0.00443686 0)
(-0.00483355 0.00474192 0)
(-0.00564365 0.00500323 0)
(-0.00648752 0.00522181 0)
(-0.00735919 0.0053993 0)
(-0.00825298 0.00553777 0)
(-0.00916345 0.00563963 0)
(-0.0100855 0.00570743 0)
(-0.0110144 0.00574384 0)
(-0.0119457 0.0057515 0)
(-0.0128752 0.00573303 0)
(-0.0137994 0.0056909 0)
(-0.0147147 0.00562747 0)
(-0.015618 0.0055449 0)
(-0.0165066 0.0054452 0)
(-0.0173778 0.00533017 0)
(-0.0182294 0.00520142 0)
(-0.0190593 0.00506041 0)
(-0.0198656 0.0049084 0)
(-0.0206467 0.00474653 0)
(-0.021401 0.00457578 0)
(-0.0221271 0.00439701 0)
(-0.0228237 0.00421098 0)
(-0.0234898 0.00401835 0)
(-0.0241242 0.00381972 0)
(-0.0247261 0.00361559 0)
(-0.0252946 0.00340646 0)
(-0.0258288 0.00319273 0)
(-0.0263281 0.00297481 0)
(-0.0267918 0.00275305 0)
(-0.0272194 0.0025278 0)
(-0.0276101 0.00229937 0)
(-0.0279636 0.00206809 0)
(-0.0282795 0.00183424 0)
(-0.0285573 0.00159812 0)
(-0.0287967 0.00136001 0)
(-0.0289974 0.0011202 0)
(-0.0291591 0.000878959 0)
(-0.0292816 0.000636565 0)
(-0.0293648 0.000393293 0)
(-0.0294086 0.000149416 0)
(-0.0294128 -9.47915e-05 0)
(-0.0293775 -0.000339057 0)
(-0.0293027 -0.000583104 0)
(-0.0291883 -0.000826654 0)
(-0.0290346 -0.00106943 0)