/*--------------------------------*- C++ -*----------------------------------*\
| =========                 |                                                 |
| \\      /  F ield         | OpenFOAM: The Open Source CFD Toolbox           |
|  \\    /   O peration     | Version:  2212                                  |
|   \\  /    A nd           | Website:  www.openfoam.com                      |
|    \\/     M anipulation  |                                                 |
\*---------------------------------------------------------------------------*/
FoamFile
{
    version     2.0;
    format      ascii;
    arch        "LSB;label=32;scalar=64";
    class       volScalarField;
    location    "0.0255";
    object      p;
}
// * * * * * * * * * * * * * * * * * * * * * * * * * * * * * * * * * * * * * //

dimensions      [0 2 -2 0 0 0 0];

internalField   nonuniform List<scalar> 
10000
(
2.38363e-08
-0.000275833
-0.00094564
-0.00184914
-0.00287963
-0.004024
-0.00525145
-0.00652848
-0.00782362
-0.00910855
-0.0103585
-0.0115523
-0.0126715
-0.0136995
-0.0146221
-0.0154277
-0.0161076
-0.0166545
-0.0170619
-0.0173242
-0.0174372
-0.0173977
-0.0172043
-0.0168562
-0.0163533
-0.0156964
-0.0148869
-0.013927
-0.0128197
-0.0115682
-0.0101765
-0.00864848
-0.00698879
-0.00520238
-0.00329482
-0.00127189
0.000860497
0.00309617
0.00542876
0.00785188
0.0103588
0.0129424
0.0155953
0.0183101
0.0210797
0.0238967
0.0267532
0.0296412
0.0325528
0.0354804
0.0384159
0.041351
0.0442777
0.0471879
0.0500737
0.0529268
0.055739
0.0585021
0.0612082
0.0638497
0.066419
0.0689082
0.0713098
0.0736161
0.0758201
0.0779153
0.0798953
0.0817538
0.0834848
0.0850823
0.0865413
0.0878569
0.0890255
0.0900436
0.0909084
0.0916176
0.0921694
0.0925632
0.0927994
0.0928794
0.0928061
0.0925833
0.092216
0.0917105
0.0910743
0.0903169
0.0894495
0.0884855
0.0874408
0.0863337
0.0851856
0.0840211
0.082869
0.0817626
0.0807404
0.0798459
0.0791266
0.0786324
0.0784127
0.0784506
-0.000337802
-0.000589722
-0.00114537
-0.00190176
-0.00278738
-0.0037753
-0.0048384
-0.00594883
-0.00707982
-0.00820607
-0.00930486
-0.0103564
-0.0113437
-0.0122513
-0.0130658
-0.0137753
-0.0143705
-0.0148436
-0.0151885
-0.0153996
-0.0154724
-0.0154035
-0.0151906
-0.0148326
-0.0143293
-0.0136811
-0.012889
-0.0119549
-0.010881
-0.00967007
-0.00832598
-0.00685252
-0.00525364
-0.00353398
-0.00169878
0.000246674
0.00229691
0.004446
0.00668778
0.00901618
0.0114249
0.0139072
0.0164559
0.019064
0.0217247
0.0244308
0.0271746
0.0299486
0.0327452
0.0355571
0.0383764
0.0411953
0.0440058
0.0468003
0.0495713
0.0523108
0.055011
0.0576639
0.060262
0.0627982
0.0652651
0.0676554
0.0699617
0.0721768
0.0742943
0.0763078
0.0782116
0.0799996
0.0816663
0.0832062
0.0846144
0.085887
0.0870203
0.0880116
0.0888584
0.0895588
0.0901116
0.0905162
0.0907735
0.0908854
0.0908549
0.0906861
0.0903843
0.0899557
0.0894082
0.0887509
0.0879949
0.0871534
0.0862414
0.0852765
0.0842786
0.0832703
0.0822774
0.0813288
0.0804568
0.0796965
0.0790833
0.078653
0.0784508
0.0784888
-0.000549424
-0.000725596
-0.00116634
-0.00181095
-0.00258983
-0.00346755
-0.00441595
-0.00540893
-0.00642231
-0.00743344
-0.00842126
-0.00936697
-0.0102546
-0.0110701
-0.0118008
-0.0124355
-0.0129646
-0.01338
-0.0136755
-0.0138457
-0.0138861
-0.0137933
-0.0135646
-0.0131982
-0.0126939
-0.0120522
-0.0112736
-0.0103596
-0.00931218
-0.00813381
-0.00682779
-0.0053978
-0.00384769
-0.00218177
-0.00040486
0.00147805
0.00346175
0.00554062
0.00770879
0.00996042
0.0122895
0.0146893
0.0171533
0.0196746
0.0222466
0.0248624
0.0275146
0.0301958
0.0328988
0.0356164
0.0383413
0.0410656
0.0437819
0.0464826
0.0491603
0.0518077
0.054417
0.0569808
0.0594918
0.061943
0.0643273
0.0666377
0.0688672
0.0710091
0.073057
0.0750052
0.0768479
0.0785795
0.0801947
0.0816884
0.0830563
0.0842945
0.0854001
0.0863703
0.087203
0.0878966
0.0884502
0.0888635
0.0891376
0.0892747
0.0892778
0.0891513
0.0889004
0.0885314
0.0880519
0.0874711
0.0867997
0.0860501
0.0852367
0.0843759
0.0834862
0.0825881
0.0817046
0.0808609
0.0800847
0.0794051
0.0788511
0.0784514
0.0782496
0.0782714
-0.000447533
-0.000608767
-0.0010006
-0.00157996
-0.00228997
-0.00309471
-0.00396567
-0.00487738
-0.00580716
-0.00673457
-0.00764048
-0.00850722
-0.00931937
-0.0100637
-0.0107286
-0.0113037
-0.0117798
-0.0121489
-0.0124046
-0.0125415
-0.0125553
-0.0124424
-0.0122002
-0.0118268
-0.0113216
-0.0106847
-0.00991687
-0.00901929
-0.00799361
-0.00684211
-0.00556782
-0.00417412
-0.00266456
-0.00104335
0.000684783
0.00251513
0.00444288
0.00646269
0.00856888
0.0107558
0.0130175
0.0153478
0.01774
0.0201878
0.0226848
0.0252243
0.027799
0.0304017
0.0330254
0.0356632
0.0383082
0.0409527
0.0435894
0.0462109
0.0488101
0.0513798
0.0539128
0.0564017
0.0588396
0.0612195
0.0635346
0.0657782
0.0679436
0.0700243
0.0720144
0.0739082
0.0757001
0.0773849
0.0789573
0.0804129
0.0817474
0.0829573
0.0840399
0.0849928
0.0858139
0.086502
0.0870562
0.0874766
0.0877643
0.0879216
0.0879517
0.0878588
0.0876482
0.087326
0.0868997
0.0863781
0.0857713
0.0850912
0.0843512
0.0835664
0.0827538
0.0819319
0.0811212
0.0803437
0.0796233
0.0789849
0.0784531
0.0780535
0.0778219
0.0777818
-2.78651e-05
-0.000259671
-0.000664763
-0.00122187
-0.00189495
-0.002653
-0.00346976
-0.00432167
-0.00518758
-0.00604874
-0.00688816
-0.00768999
-0.00843967
-0.00912452
-0.00973364
-0.0102573
-0.0106872
-0.0110157
-0.0112365
-0.0113441
-0.0113341
-0.0112032
-0.0109487
-0.0105689
-0.010063
-0.00943065
-0.00867235
-0.00778936
-0.00678328
-0.00565614
-0.00441071
-0.00305008
-0.00157758
2.69614e-06
0.00168617
0.00346836
0.00534476
0.00731027
0.00935941
0.0114867
0.0136864
0.0159525
0.0182786
0.0206585
0.0230862
0.0255552
0.0280582
0.0305884
0.0331389
0.0357032
0.0382745
0.0408454
0.0434087
0.0459572
0.0484841
0.0509824
0.0534453
0.0558657
0.0582365
0.060551
0.0628028
0.0649853
0.0670921
0.0691172
0.0710545
0.0728987
0.0746444
0.0762865
0.0778203
0.0792412
0.0805454
0.0817298
0.0827916
0.0837286
0.0845392
0.0852221
0.0857766
0.0862031
0.0865026
0.0866775
0.0867309
0.0866671
0.0864911
0.086209
0.0858279
0.0853561
0.0848032
0.0841803
0.0834997
0.0827754
0.0820225
0.0812578
0.0804991
0.0797658
0.0790781
0.0784571
0.0779242
0.0775011
0.0772112
0.0770679
0.000621805
0.000277193
-0.000181222
-0.000750628
-0.00141628
-0.00215265
-0.00293699
-0.003749
-0.00456967
-0.0053817
-0.00616968
-0.00691967
-0.00761872
-0.00825499
-0.0088181
-0.009299
-0.00968973
-0.00998341
-0.010174
-0.0102563
-0.0102258
-0.0100791
-0.00981379
-0.00942826
-0.00892156
-0.00829326
-0.00754364
-0.00667382
-0.00568527
-0.0045799
-0.00336033
-0.00202947
-0.000590504
0.000952667
0.00259564
0.00433417
0.00616397
0.00808017
0.0100774
0.0121503
0.0142934
0.0165009
0.0187666
0.0210847
0.0234492
0.0258536
0.0282912
0.030755
0.0332387
0.035736
0.0382401
0.0407439
0.0432402
0.0457221
0.0481832
0.0506168
0.0530162
0.0553742
0.0576842
0.0599395
0.0621339
0.0642613
0.0663154
0.0682902
0.07018
0.0719794
0.0736834
0.0752872
0.0767862
0.0781761
0.0794533
0.0806147
0.0816578
0.0825807
0.0833816
0.0840596
0.0846142
0.0850456
0.085355
0.0855448
0.0856179
0.0855786
0.0854316
0.0851829
0.0848391
0.084408
0.0838986
0.083321
0.0826866
0.082008
0.0812989
0.080574
0.0798489
0.0791403
0.0784652
0.0778414
0.0772872
0.0768209
0.0764507
0.0761767
0.00143928
0.00095872
0.000421418
-0.000186058
-0.000868852
-0.0016061
-0.00237821
-0.00316859
-0.00396094
-0.00473988
-0.00549138
-0.00620276
-0.00686272
-0.00746073
-0.00798714
-0.0084335
-0.00879244
-0.00905739
-0.00922271
-0.00928349
-0.00923553
-0.00907558
-0.00880121
-0.00841076
-0.00790333
-0.00727851
-0.00653653
-0.00567838
-0.00470536
-0.00361925
-0.00242252
-0.00111801
0.000291167
0.00180123
0.00340804
0.0051076
0.00689582
0.00876792
0.0107186
0.0127426
0.0148349
0.0169897
0.0192013
0.0214638
0.0237714
0.0261177
0.0284963
0.0309005
0.0333242
0.0357613
0.0382051
0.0406485
0.0430847
0.045507
0.0479092
0.050285
0.0526275
0.0549299
0.0571855
0.059388
0.0615314
0.0636097
0.065617
0.0675472
0.0693948
0.0711546
0.0728217
0.0743916
0.0758599
0.0772225
0.0784759
0.0796171
0.0806437
0.081554
0.0823463
0.0830197
0.0835738
0.0840091
0.0843265
0.0845284
0.0846176
0.0845982
0.0844747
0.0842527
0.0839383
0.0835389
0.0830628
0.0825191
0.0819183
0.0812717
0.0805914
0.0798903
0.079182
0.0784806
0.0778005
0.0771563
0.0765639
0.0760386
0.0755724
0.0751519
0.00237388
0.00174501
0.00111269
0.000449051
-0.000269522
-0.00102617
-0.00180366
-0.00258841
-0.00336717
-0.00412668
-0.00485464
-0.00553969
-0.00617147
-0.00674069
-0.00723887
-0.00765826
-0.00799198
-0.00823389
-0.00837864
-0.00842168
-0.00835923
-0.00818827
-0.00790638
-0.0075119
-0.00700396
-0.00638219
-0.00564686
-0.00479889
-0.00383947
-0.00277021
-0.0015935
-0.000312185
0.00107069
0.00255153
0.00412641
0.00579155
0.00754295
0.00937586
0.0112851
0.0132657
0.0153127
0.0174208
0.0195841
0.021797
0.0240538
0.0263484
0.0286744
0.0310256
0.0333959
0.0357793
0.0381693
0.0405591
0.0429419
0.0453113
0.0476613
0.0499857
0.0522778
0.054531
0.0567385
0.0588944
0.0609929
0.063028
0.064994
0.0668849
0.0686954
0.0704204
0.0720552
0.0735955
0.075037
0.0763758
0.0776085
0.078732
0.0797443
0.0806434
0.081428
0.0820971
0.0826505
0.0830885
0.0834122
0.0836236
0.0837255
0.0837217
0.0836165
0.0834149
0.0831228
0.0827469
0.0822947
0.0817747
0.0811962
0.0805693
0.0799046
0.0792135
0.0785075
0.0777986
0.0770989
0.0764201
0.0757761
0.07518
0.0746077
0.0740327
0.00338432
0.00260165
0.00186441
0.00113197
0.000363975
-0.000426286
-0.00122361
-0.00201666
-0.00279475
-0.00354688
-0.00426246
-0.0049316
-0.00554505
-0.0060944
-0.00657214
-0.00697138
-0.00728584
-0.00750984
-0.00763843
-0.0076674
-0.0075933
-0.00741336
-0.00712531
-0.0067276
-0.00621941
-0.00560041
-0.00487086
-0.00403165
-0.00308389
-0.00202917
-0.000869883
0.000391185
0.00175111
0.00320648
0.00475354
0.0063886
0.00810767
0.00990612
0.0117789
0.0137214
0.0157287
0.0177955
0.0199164
0.0220855
0.0242974
0.0265464
0.0288262
0.0311307
0.033454
0.0357901
0.0381328
0.0404754
0.0428112
0.0451343
0.0474385
0.0497179
0.0519659
0.0541758
0.0563414
0.0584566
0.0605159
0.0625134
0.0644434
0.0663002
0.0680785
0.0697733
0.0713802
0.072895
0.0743134
0.0756318
0.0768466
0.077955
0.0789548
0.0798443
0.080622
0.0812873
0.0818397
0.0822795
0.0826077
0.0828263
0.0829378
0.0829455
0.0828537
0.0826669
0.0823905
0.0820306
0.0815941
0.0810886
0.0805223
0.0799042
0.0792438
0.0785506
0.0778347
0.0771062
0.0763749
0.0756503
0.0749447
0.0742692
0.0735847
0.0728522
0.00443671
0.00349959
0.00265192
0.00184177
0.00101414
0.000179633
-0.000648751
-0.00146176
-0.00225043
-0.00300579
-0.00371889
-0.00438126
-0.00498489
-0.00552236
-0.00598689
-0.00637229
-0.00667291
-0.00688366
-0.00700011
-0.00701843
-0.00693539
-0.00674842
-0.00645549
-0.00605526
-0.00554704
-0.00493052
-0.00420593
-0.00337411
-0.00243622
-0.00139388
-0.000249515
0.000994176
0.00233442
0.00376797
0.00529114
0.00690023
0.00859135
0.01036
0.0122013
0.0141107
0.0160836
0.0181147
0.0201986
0.0223297
0.0245028
0.0267122
0.0289519
0.0312159
0.0334984
0.0357936
0.0380953
0.040397
0.0426923
0.0449753
0.04724
0.0494805
0.0516904
0.0538632
0.0559926
0.0580729
0.0600985
0.0620639
0.0639632
0.0657908
0.0675416
0.0692108
0.070794
0.0722871
0.0736861
0.0749872
0.076187
0.0772827
0.0782721
0.0791533
0.0799252
0.080587
0.0811382
0.081579
0.0819103
0.0821338
0.0822518
0.0822675
0.0821847
0.0820075
0.0817409
0.0813903
0.080962
0.0804627
0.0798997
0.0792811
0.0786148
0.0779095
0.0771734
0.0764151
0.0756426
0.0748634
0.0740888
0.0733282
0.0725286
0.0716396
0.00550356
0.004414
0.00345369
0.00256012
0.00166514
0.000777918
-9.02147e-05
-0.000932311
-0.00174105
-0.00250884
-0.0032282
-0.00389196
-0.00449331
-0.00502588
-0.00548361
-0.00586088
-0.00615267
-0.00635452
-0.00646254
-0.00647324
-0.00638367
-0.00619151
-0.005895
-0.00549299
-0.0049849
-0.00437048
-0.00364998
-0.00282429
-0.00189461
-0.000862628
0.000269241
0.00149839
0.00282216
0.00423738
0.00574038
0.0073275
0.00899493
0.0107383
0.0125529
0.0144343
0.0163779
0.0183787
0.0204311
0.02253
0.02467
0.0268458
0.0290514
0.031281
0.0335289
0.0357893
0.0380563
0.0403234
0.0425844
0.0448334
0.0470648
0.0492725
0.0514503
0.0535917
0.0556908
0.0577417
0.0597391
0.0616774
0.0635511
0.0653545
0.0670825
0.0687305
0.0702941
0.0717694
0.0731524
0.0744394
0.0756269
0.0767123
0.0776931
0.0785677
0.0793348
0.0799935
0.0805434
0.0809846
0.0813176
0.081544
0.0816659
0.0816862
0.0816083
0.0814361
0.0811739
0.0808267
0.0803999
0.0798995
0.0793321
0.0787046
0.0780242
0.0772979
0.0765332
0.0757368
0.0749155
0.0740751
0.073226
0.0723768
0.0714613
0.0704186
0.00656235
0.00532378
0.00425074
0.00327051
0.00230284
0.0013563
0.000441192
-0.000437334
-0.00127373
-0.00206166
-0.00279484
-0.00346723
-0.00407307
-0.00460689
-0.00506337
-0.00543759
-0.00572516
-0.00592216
-0.00602512
-0.00603093
-0.005937
-0.00574135
-0.00544248
-0.00503936
-0.00453152
-0.00391879
-0.00320154
-0.00238074
-0.0014577
-0.000434133
0.000687604
0.00190497
0.00321536
0.00461559
0.00610203
0.00767108
0.009319
0.0110415
0.0128342
0.0146924
0.0166119
0.0185875
0.020614
0.0226861
0.0247988
0.0269468
0.0291243
0.0313255
0.0335448
0.0357766
0.038015
0.0402536
0.0424865
0.0447077
0.0469116
0.0490924
0.051244
0.0533599
0.0554341
0.0574612
0.0594357
0.0613522
0.0632052
0.0649891
0.0666989
0.0683301
0.0698782
0.0713395
0.0727099
0.0739859
0.075164
0.0762413
0.0772156
0.0780851
0.0788485
0.0795048
0.0800534
0.0804943
0.0808278
0.0810553
0.0811788
0.0812008
0.0811243
0.0809529
0.0806904
0.0803411
0.0799099
0.0794022
0.0788236
0.0781802
0.0774783
0.076724
0.0759234
0.0750825
0.0742063
0.0732997
0.0723725
0.0714327
0.0704019
0.0692094
0.00759527
0.00621132
0.00502632
0.00395793
0.00291422
0.00190353
0.000935655
1.44658e-05
-0.000855842
-0.00167028
-0.0024237
-0.003111
-0.00372725
-0.00426772
-0.0047279
-0.00510362
-0.0053911
-0.00558686
-0.00568777
-0.00569119
-0.00559494
-0.00539737
-0.00509717
-0.00469349
-0.00418595
-0.00357451
-0.00285969
-0.00204262
-0.00112466
-0.000107562
0.00100638
0.00221464
0.0035146
0.0049031
0.00637652
0.00793131
0.00956383
0.0112699
0.0130451
0.0148851
0.0167854
0.018741
0.0207468
0.0227977
0.0248888
0.0270148
0.0291701
0.0313488
0.0335454
0.0357546
0.0379704
0.0401866
0.0423973
0.0445967
0.0467792
0.048939
0.05107
0.0531659
0.055221
0.0572296
0.0591865
0.0610863
0.0629235
0.0646928
0.066389
0.0680075
0.0695443
0.0709953
0.0723566
0.0736247
0.0747961
0.0758678
0.0768376
0.0777036
0.0784645
0.079119
0.0796666
0.0801067
0.0804399
0.080667
0.08079
0.0808111
0.080733
0.0805588
0.0802918
0.0799358
0.079495
0.0789743
0.0783787
0.0777136
0.0769841
0.0761958
0.0753536
0.0744627
0.0735272
0.0725507
0.0715428
0.0705114
0.0693666
0.0680287
0.00858783
0.00706208
0.0057662
0.00460896
0.0034871
0.00240881
0.00138388
0.000414973
-0.000494619
-0.00134099
-0.00212004
-0.00282755
-0.00345927
-0.00401117
-0.00447954
-0.00486085
-0.00515184
-0.00534944
-0.00545103
-0.00545437
-0.00535767
-0.00515955
-0.0048589
-0.00445502
-0.00394773
-0.00333716
-0.002624
-0.00180948
-0.000895038
0.000117557
0.001226
0.00242776
0.00372022
0.00510016
0.00656403
0.00810835
0.00972953
0.0114235
0.0131858
0.0150121
0.0168981
0.0188389
0.0208294
0.0228645
0.0249395
0.0270491
0.0291878
0.0313499
0.0335298
0.0357222
0.0379214
0.0401212
0.0423157
0.0444992
0.046666
0.0488105
0.0509267
0.0530083
0.0550497
0.0570452
0.0589897
0.0608779
0.0627044
0.0644637
0.0661508
0.0677611
0.0692905
0.070735
0.0720908
0.0733542
0.0745217
0.0755903
0.0765577
0.0774219
0.0781815
0.078835
0.0793817
0.079821
0.080153
0.0803787
0.0804995
0.0805175
0.0804351
0.0802549
0.0799797
0.0796129
0.0791583
0.07862
0.0780025
0.0773104
0.0765484
0.075721
0.0748326
0.0738876
0.072889
0.0718399
0.0707498
0.0696264
0.0683694
0.0668904
0.00952739
0.00786364
0.00645829
0.00521179
0.00401033
0.00286202
0.00177671
0.000756183
-0.000197161
-0.00108012
-0.00188938
-0.00262151
-0.00327303
-0.00384059
-0.0043211
-0.00471158
-0.00500919
-0.0052114
-0.00531606
-0.00532138
-0.00522587
-0.00502834
-0.0047279
-0.00432407
-0.0038169
-0.00320671
-0.00249435
-0.00168115
-0.000768628
0.000241439
0.0013467
0.00254457
0.00383238
0.00520695
0.00666475
0.00820234
0.00981619
0.0115023
0.0132561
0.0150735
0.0169501
0.018881
0.0208613
0.0228861
0.0249505
0.0270494
0.0291772
0.0313282
0.0334972
0.0356787
0.0378671
0.0400564
0.0422405
0.0444138
0.0465708
0.0487058
0.0508127
0.0528857
0.0549187
0.0569065
0.0588439
0.0607256
0.0625462
0.0643003
0.0659829
0.0675893
0.0691154
0.0705573
0.0719111
0.0731731
0.0743396
0.0754076
0.0763747
0.0772388
0.0779983
0.0786518
0.079198
0.0796364
0.0799669
0.0801902
0.0803075
0.0803207
0.0802316
0.0800426
0.0797561
0.0793752
0.0789029
0.0783431
0.0776995
0.0769762
0.0761774
0.0753068
0.0743685
0.0733658
0.0723015
0.0711777
0.0700042
0.0687889
0.0674215
0.0658055
0.0104026
0.00860486
0.00709178
0.00575602
0.0044739
0.00325371
0.00210537
0.00103009
2.94392e-05
-0.000893934
-0.00173728
-0.00249785
-0.00317291
-0.00375978
-0.00425582
-0.00465849
-0.00496547
-0.00517476
-0.00528464
-0.00529366
-0.00520061
-0.00500455
-0.00470481
-0.00430116
-0.00379385
-0.00318345
-0.00247094
-0.00165774
-0.000745404
0.000264164
0.00136856
0.00256516
0.00385125
0.00522366
0.00667887
0.0082135
0.00982402
0.0115064
0.0132563
0.0150693
0.0169413
0.0188674
0.0208427
0.0228624
0.0249216
0.0270152
0.0291377
0.0312834
0.0334471
0.0356235
0.0378069
0.0399914
0.0421709
0.0443398
0.0464926
0.0486236
0.0507271
0.0527968
0.054827
0.0568124
0.0587479
0.0606282
0.0624478
0.0642015
0.0658841
0.067491
0.069018
0.0704611
0.0718165
0.0730802
0.0742486
0.0753186
0.0762876
0.0771534
0.0779143
0.0785685
0.079115
0.0795527
0.0798814
0.0801017
0.0802144
0.0802212
0.0801236
0.0799235
0.0796231
0.079225
0.0787321
0.0781473
0.0774741
0.0767161
0.0758768
0.0749597
0.0739682
0.0729052
0.0717728
0.0705728
0.0693151
0.068008
0.066532
0.0647829
0.0112038
0.00927564
0.00765669
0.00623205
0.0048686
0.00357499
0.00236155
0.00122894
0.000178126
-0.000788738
-0.00166942
-0.00246176
-0.00316364
-0.00377287
-0.00428725
-0.00470472
-0.00502347
-0.00524197
-0.00535887
-0.00537299
-0.00528339
-0.00508941
-0.00479064
-0.00438711
-0.00387931
-0.00326797
-0.00255417
-0.00173948
-0.000825556
0.000185616
0.00129155
0.00248956
0.00377691
0.00515043
0.00660662
0.00814207
0.00975327
0.0114362
0.0131864
0.0149998
0.0168719
0.0187982
0.0207737
0.0227935
0.0248528
0.0269466
0.0290693
0.0312153
0.0333793
0.0355562
0.0377404
0.0399257
0.0421063
0.0442764
0.0464307
0.0485635
0.0506689
0.052741
0.0547738
0.0567622
0.058701
0.0605849
0.0624086
0.0641666
0.0658537
0.0674654
0.0689974
0.0704457
0.0718062
0.0730749
0.0742482
0.0753227
0.0762957
0.0771651
0.0779287
0.078585
0.0791324
0.0795698
0.0798968
0.0801135
0.0802209
0.08022
0.0801123
0.0798993
0.0795829
0.0791653
0.0786488
0.0780363
0.0773305
0.0765346
0.0756519
0.0746854
0.073638
0.0725123
0.07131
0.0700323
0.0686899
0.0672914
0.0657084
0.0638296
0.0119227
0.0098672
0.00814393
0.0066308
0.00518574
0.00381759
0.00253731
0.00134526
0.000241978
-0.000770909
-0.00169168
-0.00251864
-0.00325006
-0.0038842
-0.0044193
-0.00485382
-0.00518639
-0.00541586
-0.00554119
-0.00556147
-0.00547601
-0.00528449
-0.00498678
-0.00458314
-0.00407427
-0.00346105
-0.00274472
-0.00192692
-0.0010095
5.47018e-06
0.00111542
0.00231763
0.00360931
0.00498728
0.00644804
0.00798814
0.00960404
0.0112917
0.0130468
0.014865
0.0167422
0.0186736
0.0206543
0.0226794
0.0247442
0.0268435
0.0289718
0.0311236
0.0332936
0.0354767
0.0376671
0.039859
0.0420463
0.0442233
0.0463846
0.0485248
0.0506379
0.0527178
0.0547588
0.0567555
0.0587028
0.0605955
0.0624281
0.0641951
0.0658914
0.0675122
0.0690534
0.0705106
0.0718798
0.0731569
0.0743379
0.0754196
0.076399
0.0772738
0.0780419
0.0787014
0.0792506
0.0796883
0.0800137
0.0802268
0.0803282
0.0803188
0.0801997
0.0799723
0.0796381
0.0791989
0.0786567
0.0780138
0.0772728
0.0764365
0.0755078
0.0744894
0.0733837
0.0721932
0.0709192
0.0695628
0.0681351
0.0666456
0.0649571
0.0629516
0.0125519
0.0103717
0.00854541
0.00694399
0.00541703
0.00397362
0.00262517
0.00137196
0.000214217
-0.000846888
-0.00181006
-0.00267396
-0.00343717
-0.00409835
-0.00465624
-0.00510971
-0.0054578
-0.00569959
-0.00583437
-0.00586152
-0.00578069
-0.00559179
-0.00529501
-0.00489084
-0.00438012
-0.00376391
-0.00304359
-0.00222099
-0.00129805
-0.000276994
0.000839573
0.00204887
0.00334804
0.00473387
0.00620284
0.00775144
0.0093761
0.0110728
0.0128371
0.0146649
0.0165518
0.0184933
0.0204843
0.0225199
0.0245954
0.0267056
0.0288449
0.031008
0.0331896
0.0353844
0.0375867
0.0397907
0.0419903
0.0441798
0.046354
0.0485071
0.0506334
0.0527268
0.0547814
0.0567918
0.058753
0.0606595
0.062506
0.0642868
0.0659968
0.0676312
0.0691856
0.0706558
0.0720374
0.0733261
0.074518
0.0756095
0.0765977
0.07748
0.0782543
0.0789185
0.0794706
0.0799093
0.0802335
0.080443
0.0805382
0.0805196
0.0803883
0.0801453
0.0797918
0.0793293
0.0787594
0.0780841
0.0773056
0.0764266
0.0754495
0.0743768
0.0732107
0.0719535
0.0706063
0.0691702
0.067657
0.0660767
0.0642841
0.0621543
0.013085
0.010782
0.0088537
0.00716418
0.00555486
0.00403555
0.00261791
0.0013021
8.81422e-05
-0.00102308
-0.00203058
-0.00293331
-0.00373017
-0.00442023
-0.00500265
-0.00547663
-0.00584148
-0.00609661
-0.00624156
-0.00627605
-0.00620004
-0.00601375
-0.00571757
-0.0053122
-0.00479865
-0.00417815
-0.0034523
-0.00262305
-0.00169249
-0.000662924
0.000462963
0.00168232
0.00299223
0.00438939
0.00587024
0.00743123
0.00906872
0.0107787
0.0125567
0.0143987
0.0163002
0.0182565
0.0202629
0.0223142
0.0244055
0.0265319
0.0286877
0.0308676
0.0330662
0.0352783
0.0374982
0.0397199
0.0419374
0.0441452
0.0463378
0.0485097
0.0506548
0.0527672
0.054841
0.0568706
0.0588509
0.0607765
0.0626418
0.0644413
0.0661697
0.0678221
0.0693941
0.0708811
0.0722788
0.0735826
0.0747884
0.0758927
0.0768923
0.0777845
0.078567
0.0792374
0.0797937
0.0802343
0.080558
0.0807642
0.0808531
0.0808252
0.080681
0.0804215
0.0800475
0.0795602
0.078961
0.0782514
0.0774336
0.0765097
0.0754822
0.0743532
0.0731248
0.0717992
0.0703776
0.0688609
0.0672618
0.0655909
0.0636952
0.0614429
0.0135158
0.0110915
0.00906189
0.00728433
0.00559228
0.00399627
0.00250849
0.00112883
-0.000142889
-0.00130585
-0.00235926
-0.00330239
-0.00413452
-0.00485502
-0.00546335
-0.00595902
-0.00634157
-0.0066107
-0.00676629
-0.00680837
-0.0067372
-0.00655324
-0.00625709
-0.00584964
-0.0053321
-0.00470591
-0.00397284
-0.00313498
-0.00219455
-0.00115395
-1.59478e-05
0.00121653
0.00254047
0.00395248
0.00544894
0.00702623
0.00868066
0.0104082
0.0122044
0.0140652
0.015986
0.0179622
0.0199888
0.0220608
0.0241733
0.0263211
0.0284988
0.0307009
0.0329221
0.0351571
0.0374001
0.0396452
0.0418865
0.0441182
0.046335
0.0485313
0.050701
0.0528381
0.0549367
0.0569911
0.0589959
0.0609458
0.062835
0.0646581
0.0664097
0.0680847
0.0696785
0.0711864
0.0726039
0.0739264
0.0751496
0.0762698
0.0772835
0.0781881
0.0789809
0.0796595
0.0802216
0.0806653
0.0809894
0.0811929
0.0812759
0.0812386
0.0810813
0.0808046
0.0804092
0.079896
0.0792659
0.0785206
0.0776616
0.0766912
0.0756113
0.0744242
0.0731319
0.0717365
0.0702392
0.0686411
0.0669556
0.0651943
0.0631959
0.0608221
0.0138392
0.0112941
0.00916352
0.00729781
0.00552261
0.00384906
0.00229007
0.000845343
-0.000485395
-0.00170145
-0.0028022
-0.00378714
-0.00465588
-0.00540807
-0.0060434
-0.00656158
-0.00696246
-0.00724604
-0.00741252
-0.00746224
-0.0073957
-0.00721356
-0.00691666
-0.00650607
-0.00598323
-0.00534978
-0.00460766
-0.00375909
-0.00280641
-0.00175214
-0.000599127
0.000649608
0.00199092
0.00342134
0.00493717
0.00653472
0.00821025
0.00995967
0.0117786
0.0136627
0.0156076
0.0176085
0.0196603
0.0217582
0.0238969
0.0260715
0.0282765
0.0305063
0.0327557
0.0350191
0.0372909
0.0395652
0.0418359
0.0440974
0.0463442
0.0485707
0.0507708
0.0529383
0.0550673
0.0571519
0.0591868
0.0611663
0.0630848
0.0649365
0.0667161
0.0684183
0.0700383
0.0715714
0.0730128
0.0743578
0.075602
0.0767413
0.0777723
0.078692
0.0794975
0.0801864
0.0807562
0.0812046
0.0815303
0.0817321
0.0818098
0.0817632
0.0815927
0.0812985
0.080881
0.0803409
0.0796791
0.0788966
0.0779951
0.0769765
0.0758427
0.0745959
0.0732382
0.0717717
0.0701976
0.0685173
0.0667448
0.0648925
0.0627913
0.0602963
0.0140502
0.0113843
0.00915248
0.00719832
0.0053393
0.0035873
0.00195598
0.000445043
-0.000945886
-0.00221624
-0.00336557
-0.00439356
-0.00530005
-0.00608489
-0.00674798
-0.00728926
-0.0077089
-0.00800719
-0.00818462
-0.0082418
-0.00817942
-0.00799838
-0.00769972
-0.00728477
-0.00675515
-0.00611272
-0.00535955
-0.00449802
-0.00353057
-0.00245985
-0.00128882
-2.06145e-05
0.0013415
0.00279396
0.00433299
0.00595485
0.00765569
0.00943137
0.0112775
0.0131897
0.0151634
0.0171938
0.0192759
0.0214046
0.0235749
0.0257816
0.0280193
0.0302823
0.0325654
0.0348629
0.0371693
0.0394785
0.0417845
0.0440816
0.0463642
0.0486267
0.0508629
0.0530666
0.0552317
0.0573523
0.0594227
0.0614373
0.0633903
0.0652759
0.0670884
0.0688226
0.0704735
0.0720362
0.0735057
0.0748772
0.076146
0.0773081
0.0783596
0.0792974
0.0801185
0.0808201
0.0813997
0.0818548
0.0821835
0.0823848
0.082458
0.0824028
0.0822192
0.0819074
0.0814675
0.0808999
0.0802053
0.0793847
0.0784394
0.0773713
0.0761823
0.0748745
0.07345
0.071911
0.070259
0.0684953
0.0666348
0.0646907
0.062486
0.0598689
0.0141442
0.0113569
0.00902305
0.00697967
0.00503594
0.00320449
0.00149972
-7.85589e-05
-0.00153081
-0.00285662
-0.00405564
-0.00512775
-0.00607288
-0.00689109
-0.00758248
-0.00814727
-0.00858591
-0.00889899
-0.00908722
-0.00915143
-0.00909252
-0.00891164
-0.00861005
-0.00818931
-0.00765126
-0.00699792
-0.00623152
-0.00535458
-0.00436967
-0.00327961
-0.00208745
-0.00079645
0.000589998
0.00206823
0.00363442
0.0052847
0.00701513
0.00882152
0.0106994
0.0126444
0.0146517
0.0167166
0.018834
0.0209988
0.0232059
0.0254501
0.0277259
0.0300278
0.0323501
0.0346876
0.0370343
0.0393842
0.0417314
0.0440699
0.0463942
0.0486986
0.0509768
0.0532225
0.0554294
0.0575915
0.0597031
0.0617583
0.0637512
0.0656759
0.0675265
0.0692977
0.0709842
0.072581
0.074083
0.0754852
0.0767828
0.0779713
0.0790468
0.080006
0.0808457
0.0815629
0.0821547
0.0826185
0.0829523
0.0831544
0.0832242
0.0831611
0.082965
0.0826356
0.0821732
0.0815777
0.0808497
0.07999
0.0789999
0.0778812
0.0766357
0.0752656
0.0737729
0.0721602
0.0704288
0.0685804
0.0666306
0.0645932
0.0622834
0.0595428
0.0141166
0.0112068
0.00876978
0.00663588
0.0046063
0.0026943
0.000914949
-0.000731848
-0.0022466
-0.00362896
-0.00487869
-0.00599577
-0.00698026
-0.00783238
-0.00855247
-0.00914103
-0.00959876
-0.00992649
-0.0101251
-0.0101957
-0.0101394
-0.00995751
-0.00965163
-0.0092235
-0.00867514
-0.00800874
-0.00722673
-0.00633175
-0.00532656
-0.0042141
-0.00299756
-0.00168031
-0.000265854
0.00124203
0.00283941
0.00452234
0.00628675
0.00812838
0.0100427
0.0120252
0.0140711
0.0161755
0.0183333
0.0205395
0.0227888
0.0250759
0.0273954
0.0297417
0.0321092
0.0344923
0.0368852
0.0392818
0.041676
0.044062
0.046434
0.0487861
0.0511121
0.0534056
0.0556601
0.0578696
0.0600279
0.0621293
0.0641677
0.0661368
0.0680307
0.0698439
0.0715709
0.0732067
0.0747459
0.0761832
0.0775137
0.0787326
0.0798359
0.0808201
0.0816816
0.0824173
0.083024
0.0834989
0.0838396
0.0840443
0.084112
0.0840421
0.083834
0.0834876
0.0830026
0.082379
0.0816172
0.0807177
0.079682
0.0785116
0.0772085
0.0757747
0.0742125
0.0725245
0.0707121
0.0687771
0.0667361
0.0646036
0.0621867
0.0593203
0.0139628
0.0109288
0.0083871
0.0061612
0.00404434
0.00205046
0.000195312
-0.00152124
-0.00309968
-0.00453964
-0.00584097
-0.00700375
-0.00802817
-0.00891463
-0.00966371
-0.0102762
-0.0107529
-0.0110949
-0.0113033
-0.0113794
-0.0113245
-0.0111404
-0.0108286
-0.0103912
-0.00983047
-0.00914868
-0.00834847
-0.00743265
-0.00640417
-0.00526613
-0.0040218
-0.00267467
-0.00122841
0.000313106
0.00194586
0.00366576
0.00546864
0.00735013
0.00930566
0.0113305
0.01342
0.015569
0.0177726
0.0200255
0.0223224
0.0246581
0.027027
0.0294234
0.0318418
0.0342765
0.0367215
0.0391708
0.0416181
0.0440576
0.0464833
0.0488892
0.051269
0.0536161
0.055924
0.0581865
0.0603974
0.0625506
0.0646399
0.0666589
0.0686016
0.070462
0.0722347
0.0739144
0.0754955
0.0769725
0.0783403
0.0795939
0.080729
0.0817418
0.0826287
0.0833861
0.0840106
0.084499
0.0848488
0.085058
0.0851253
0.0850498
0.0848308
0.0844678
0.0839605
0.0833088
0.0825128
0.0815732
0.080491
0.079268
0.077906
0.0764071
0.0747738
0.0730086
0.0711132
0.0690896
0.066955
0.064725
0.0621985
0.0592037
0.013678
0.0105176
0.00786942
0.00554995
0.00334416
0.00126682
-0.000665554
-0.00245315
-0.00409645
-0.00559503
-0.0069488
-0.00815792
-0.00922275
-0.0101439
-0.0109221
-0.0115584
-0.0120538
-0.0124095
-0.0126268
-0.0127074
-0.0126527
-0.0124647
-0.0121453
-0.0116967
-0.0111212
-0.0104214
-0.00960028
-0.00866067
-0.00760575
-0.00643875
-0.00516308
-0.00378233
-0.00230031
-0.000721049
0.000951343
0.00271265
0.00455856
0.0064846
0.00848614
0.0105584
0.0126965
0.0148955
0.0171502
0.0194552
0.0218054
0.0241953
0.0266193
0.0290718
0.031547
0.0340392
0.0365424
0.0390504
0.041557
0.0440561
0.0465416
0.0490073
0.0514469
0.0538536
0.0562209
0.0585422
0.0608115
0.0630223
0.0651682
0.0672428
0.0692396
0.0711528
0.0729765
0.0747052
0.0763332
0.0778548
0.0792644
0.0805571
0.0817283
0.0827738
0.0836897
0.0844721
0.0851174
0.0856222
0.0859836
0.0861994
0.0862681
0.0861885
0.0859597
0.0855811
0.0850521
0.0843725
0.0835422
0.082562
0.0814327
0.080156
0.0787339
0.0771684
0.075462
0.0736176
0.0716369
0.0695221
0.0672915
0.0649615
0.0623226
0.0591961
0.0132581
0.00996843
0.00721135
0.0047964
0.00249982
0.000337249
-0.00167399
-0.00353401
-0.00524334
-0.00680155
-0.00820855
-0.00946463
-0.0105703
-0.0115264
-0.0123338
-0.0129936
-0.0135072
-0.0138758
-0.0141011
-0.0141849
-0.014129
-0.0139355
-0.0136064
-0.0131442
-0.0125515
-0.0118311
-0.0109861
-0.0100196
-0.00893494
-0.00773548
-0.00642475
-0.0050065
-0.00348469
-0.00186347
-0.000147069
0.00166014
0.00355371
0.00552909
0.00758157
0.0097063
0.0118983
0.0141525
0.0164637
0.0188266
0.0212357
0.0236855
0.0261705
0.0286849
0.031223
0.0337788
0.0363463
0.0389192
0.0414913
0.0440561
0.0466076
0.0491393
0.0516448
0.0541172
0.0565498
0.0589361
0.0612697
0.063544
0.0657524
0.0678884