/*--------------------------------*- C++ -*----------------------------------*\
| =========                 |                                                 |
| \\      /  F ield         | OpenFOAM: The Open Source CFD Toolbox           |
|  \\    /   O peration     | Version:  2212                                  |
|   \\  /    A nd           | Website:  www.openfoam.com                      |
|    \\/     M anipulation  |                                                 |
\*---------------------------------------------------------------------------*/
FoamFile
{
    version     2.0;
    format      ascii;
    arch        "LSB;label=32;scalar=64";
    class       surfaceScalarField;
    location    "0.0255";
    object      phi_0;
}
// * * * * * * * * * * * * * * * * * * * * * * * * * * * * * * * * * * * * * //

dimensions      [0 3 -1 0 0 0 0];

oriented        oriented;

internalField   nonuniform List<scalar> 
19800
(
6.03835e-11
-6.03421e-11
1.79181e-10
-1.18815e-10
2.87756e-10
-1.08563e-10
3.5145e-10
-6.37087e-11
3.50317e-10
1.1317e-12
2.73178e-10
7.71394e-11
1.15007e-10
1.5817e-10
-1.24915e-10
2.39914e-10
-4.44722e-10
3.19809e-10
-8.40897e-10
3.9617e-10
-1.30892e-09
4.68015e-10
-1.84364e-09
5.34726e-10
-2.43958e-09
5.95931e-10
-3.0911e-09
6.51523e-10
-3.79252e-09
7.01419e-10
-4.53815e-09
7.45635e-10
-5.32241e-09
7.84265e-10
-6.13976e-09
8.17364e-10
-6.98487e-09
8.45114e-10
-7.85256e-09
8.67692e-10
-8.73784e-09
8.85283e-10
-9.63589e-09
8.98051e-10
-1.05421e-08
9.06202e-10
-1.1452e-08
9.09883e-10
-1.23613e-08
9.09319e-10
-1.3266e-08
9.04743e-10
-1.41624e-08
8.9634e-10
-1.50467e-08
8.84268e-10
-1.59154e-08
8.68718e-10
-1.67653e-08
8.49881e-10
-1.75932e-08
8.27935e-10
-1.83963e-08
8.0307e-10
-1.91717e-08
7.75478e-10
-1.99171e-08
7.45333e-10
-2.06298e-08
7.12769e-10
-2.13078e-08
6.77932e-10
-2.19488e-08
6.40999e-10
-2.25509e-08
6.02125e-10
-2.31124e-08
5.61449e-10
-2.36315e-08
5.19113e-10
-2.41067e-08
4.75272e-10
-2.45368e-08
4.30081e-10
-2.49205e-08
3.83652e-10
-2.52566e-08
3.36092e-10
-2.55441e-08
2.87546e-10
-2.57823e-08
2.38164e-10
-2.59703e-08
1.88074e-10
-2.61077e-08
1.37392e-10
-2.6194e-08
8.62429e-11
-2.62288e-08
3.47615e-11
-2.62119e-08
-1.69131e-11
-2.61432e-08
-6.86475e-11
-2.60229e-08
-1.2032e-10
-2.58511e-08
-1.71793e-10
-2.56282e-08
-2.22909e-10
-2.53547e-08
-2.73538e-10
-2.50311e-08
-3.23554e-10
-2.46583e-08
-3.72785e-10
-2.42372e-08
-4.21056e-10
-2.3769e-08
-4.68233e-10
-2.32549e-08
-5.14148e-10
-2.26963e-08
-5.58612e-10
-2.20948e-08
-6.01472e-10
-2.14522e-08
-6.42574e-10
-2.07705e-08
-6.81697e-10
-2.00519e-08
-7.18626e-10
-1.92987e-08
-7.53205e-10
-1.85134e-08
-7.85256e-10
-1.76989e-08
-8.14557e-10
-1.6858e-08
-8.4091e-10
-1.59938e-08
-8.64141e-10
-1.51098e-08
-8.84034e-10
-1.42094e-08
-9.00352e-10
-1.32965e-08
-9.12911e-10
-1.2375e-08
-9.21555e-10
-1.14489e-08
-9.26089e-10
-1.05226e-08
-9.26294e-10
-9.60061e-09
-9.21975e-10
-8.68765e-09
-9.12963e-10
-7.78858e-09
-8.99072e-10
-6.90847e-09
-8.80107e-10
-6.05256e-09
-8.55906e-10
-5.22622e-09
-8.26346e-10
-4.4349e-09
-7.91315e-10
-3.68418e-09
-7.50706e-10
-2.97973e-09
-7.04439e-10
-2.32725e-09
-6.52478e-10
-1.73241e-09
-5.94844e-10
-1.20078e-09
-5.31628e-10
-7.37751e-10
-4.63031e-10
-3.48317e-10
-3.89436e-10
-3.68462e-11
-3.1147e-10
1.93277e-10
-2.30115e-10
3.40171e-10
-1.46886e-10
4.04399e-10
-6.42275e-11
3.9058e-10
1.38192e-11
3.10035e-10
8.05529e-11
1.85424e-10
1.24617e-10
5.9374e-11
1.26048e-10
5.93754e-11
1.31097e-10
-1.91458e-10
3.22944e-10
-3.10634e-10
4.60052e-10
-2.45667e-10
4.74784e-10
-7.84282e-11
3.22989e-10
1.52908e-10
-2.22665e-11
4.22399e-10
-5.74692e-10
7.10583e-10
-1.33864e-09
1.00387e-09
-2.31171e-09
1.29288e-09
-3.4869e-09
1.57137e-09
-4.8541e-09
1.83523e-09
-6.40112e-09
2.08174e-09
-8.11444e-09
2.30926e-09
-9.97969e-09
2.51677e-09
-1.19821e-08
2.70378e-09
-1.41065e-08
2.87012e-09
-1.63382e-08
3.01586e-09
-1.86621e-08
3.14126e-09
-2.10637e-08
3.24673e-09
-2.35288e-08
3.33277e-09
-2.60435e-08
3.39998e-09
-2.85944e-08
3.44897e-09
-3.11686e-08
3.4804e-09
-3.37536e-08
3.49492e-09
-3.63375e-08
3.49326e-09
-3.89089e-08
3.47615e-09
-4.14569e-08
3.44429e-09
-4.3971e-08
3.39839e-09
-4.64414e-08
3.33915e-09
-4.88588e-08
3.26725e-09
-5.12143e-08
3.18338e-09
-5.34995e-08
3.08824e-09
-5.57065e-08
2.9825e-09
-5.7828e-08
2.86681e-09
-5.9857e-08
2.74177e-09
-6.1787e-08
2.60799e-09
-6.36121e-08
2.4661e-09
-6.53267e-08
2.31666e-09
-6.69254e-08
2.16024e-09
-6.84037e-08
1.99742e-09
-6.97572e-08
1.82876e-09
-7.09819e-08
1.65479e-09
-7.20743e-08
1.47601e-09
-7.30312e-08
1.29294e-09
-7.38497e-08
1.10609e-09
-7.45276e-08
9.15998e-10
-7.50627e-08
7.23148e-10
-7.54533e-08
5.28032e-10
-7.56982e-08
3.31151e-10
-7.57964e-08
1.33008e-10
-7.57475e-08
-6.5888e-11
-7.55511e-08
-2.65015e-10
-7.52076e-08
-4.63843e-10
-7.47175e-08
-6.61848e-10
-7.40819e-08
-8.58489e-10
-7.33023e-08
-1.05321e-09
-7.23804e-08
-1.24544e-09
-7.13186e-08
-1.43462e-09
-7.01195e-08
-1.62011e-09
-6.87865e-08
-1.80128e-09
-6.73231e-08
-1.97753e-09
-6.57335e-08
-2.1482e-09
-6.40223e-08
-2.31263e-09
-6.21948e-08
-2.47012e-09
-6.02565e-08
-2.61998e-09
-5.82137e-08
-2.76146e-09
-5.60731e-08
-2.89383e-09
-5.38419e-08
-3.01639e-09
-5.1528e-08
-3.12841e-09
-4.91399e-08
-3.22911e-09
-4.66863e-08
-3.31773e-09
-4.41768e-08
-3.3935e-09
-4.16215e-08
-3.45567e-09
-3.90309e-08
-3.50348e-09
-3.64163e-08
-3.53621e-09
-3.37892e-08
-3.55314e-09
-3.1162e-08
-3.55356e-09
-2.85472e-08
-3.53677e-09
-2.5958e-08
-3.50208e-09
-2.34082e-08
-3.44888e-09
-2.09118e-08
-3.37656e-09
-1.8483e-08
-3.28461e-09
-1.61368e-08
-3.17258e-09
-1.3888e-08
-3.0401e-09
-1.17518e-08
-2.88695e-09
-9.74322e-09
-2.71299e-09
-7.87736e-09
-2.51833e-09
-6.16891e-09
-2.30329e-09
-4.63197e-09
-2.06857e-09
-3.27968e-09
-1.81532e-09
-2.12371e-09
-1.5454e-09
-1.17357e-09
-1.26159e-09
-4.35617e-10
-9.68064e-10
8.84614e-11
-6.70969e-10
4.03763e-10
-3.7953e-10
5.25271e-10
-1.07675e-10
4.82261e-10
1.23567e-10
3.24054e-10
2.82815e-10
1.26116e-10
3.23988e-10
1.85487e-10
1.33476e-10
-3.24922e-10
2.90813e-10
-4.67973e-10
3.33956e-10
-2.88814e-10
1.78548e-10
7.69839e-11
-2.31933e-10
5.63391e-10
-9.33164e-10
1.12362e-09
-1.94455e-09
1.72197e-09
-3.27315e-09
2.33246e-09
-4.9168e-09
2.93654e-09
-6.86666e-09
3.52122e-09
-9.10898e-09
4.07755e-09
-1.16266e-08
4.59938e-09
-1.44e-08
5.08269e-09
-1.74082e-08
5.52492e-09
-2.0629e-08
5.92457e-09
-2.40398e-08
6.28093e-09
-2.76178e-08
6.59387e-09
-3.13402e-08
6.86373e-09
-3.51846e-08
7.09111e-09
-3.91288e-08
7.27698e-09
-4.31512e-08
7.42238e-09
-4.72308e-08
7.52855e-09
-5.13472e-08
7.59679e-09
-5.54808e-08
7.62849e-09
-5.96126e-08
7.6251e-09
-6.37246e-08
7.58813e-09
-6.77994e-08
7.51904e-09
-7.18203e-08
7.41937e-09
-7.57718e-08
7.29059e-09
-7.96387e-08
7.13419e-09
-8.3407e-08
6.95164e-09
-8.70631e-08
6.74441e-09
-9.05946e-08
6.51394e-09
-9.39894e-08
6.26163e-09
-9.72365e-08
5.98884e-09
-1.00325e-07
5.69692e-09
-1.03246e-07
5.38716e-09
-1.05991e-07
5.06087e-09
-1.0855e-07
4.71928e-09
-1.10916e-07
4.36364e-09
-1.13082e-07
3.99516e-09
-1.15043e-07
3.615e-09
-1.16791e-07
3.22431e-09
-1.18322e-07
2.82422e-09
-1.19632e-07
2.41587e-09
-1.20716e-07
2.00038e-09
-1.21572e-07
1.57886e-09
-1.22196e-07
1.1524e-09
-1.22587e-07
7.22106e-10
-1.22743e-07
2.89088e-10
-1.22664e-07
-1.45531e-10
-1.22348e-07
-5.80616e-10
-1.21797e-07
-1.01503e-09
-1.21011e-07
-1.44757e-09
-1.19993e-07
-1.87706e-09
-1.18744e-07
-2.30228e-09
-1.17267e-07
-2.72201e-09
-1.15567e-07
-3.13493e-09
-1.13647e-07
-3.53972e-09
-1.11513e-07
-3.93504e-09
-1.09171e-07
-4.31949e-09
-1.06628e-07
-4.69165e-09
-1.03891e-07
-5.0501e-09
-1.00967e-07
-5.39333e-09
-9.78675e-08
-5.71978e-09
-9.46011e-08
-6.02791e-09
-9.11787e-08
-6.31616e-09
-8.76122e-08
-6.58293e-09
-8.3914e-08
-6.82661e-09
-8.00975e-08
-7.04558e-09
-7.6177e-08
-7.23822e-09
-7.21677e-08
-7.40285e-09
-6.80855e-08
-7.53786e-09
-6.39473e-08
-7.64164e-09
-5.97709e-08
-7.71264e-09
-5.55747e-08
-7.74931e-09
-5.13781e-08
-7.75014e-09
-4.72012e-08
-7.71368e-09
-4.30647e-08
-7.63856e-09
-3.89901e-08
-7.52351e-09
-3.49993e-08
-7.36736e-09
-3.11148e-08
-7.16909e-09
-2.73595e-08
-6.92789e-09
-2.37564e-08
-6.64316e-09
-2.03288e-08
-6.31458e-09
-1.70996e-08
-5.94218e-09
-1.40915e-08
-5.52645e-09
-1.13263e-08
-5.06851e-09
-8.82463e-09
-4.57025e-09
-6.60531e-09
-4.03463e-09
-4.6846e-09
-3.4661e-09
-3.0751e-09
-2.8711e-09
-1.78431e-09
-2.25885e-09
-8.12742e-10
-1.64254e-09
-1.51296e-10
-1.04097e-09
2.22103e-10
-4.81074e-10
3.46889e-10
-1.23209e-12
2.84768e-10
3.44936e-10
1.25278e-10
4.83483e-10
3.10756e-10
8.67186e-11
-4.11652e-10
1.29064e-10
-5.10307e-10
-1.23595e-11
-1.47391e-10
-4.277e-10
4.92309e-10
-1.17827e-09
1.31395e-09
-2.30354e-09
2.2489e-09
-3.82568e-09
3.2441e-09
-5.75315e-09
4.25993e-09
-8.08386e-09
5.26725e-09
-1.08076e-08
6.24498e-09
-1.39081e-08
7.17802e-09
-1.73645e-08
8.05578e-09
-2.11527e-08
8.87093e-09
-2.52465e-08
9.61862e-09
-2.96177e-08
1.02958e-08
-3.42377e-08
1.09009e-08
-3.9077e-08
1.14332e-08
-4.41062e-08
1.18929e-08
-4.9296e-08
1.22809e-08
-5.46174e-08
1.25983e-08
-6.00419e-08
1.28469e-08
-6.55418e-08
1.30285e-08
-7.10902e-08
1.31452e-08
-7.6661e-08
1.31993e-08
-8.22291e-08
1.31931e-08
-8.77701e-08
1.31291e-08
-9.32608e-08
1.30098e-08
-9.86792e-08
1.28377e-08
-1.04004e-07
1.26154e-08
-1.09215e-07
1.23453e-08
-1.14294e-07
1.203e-08
-1.19221e-07
1.1672e-08
-1.23981e-07
1.12736e-08
-1.28557e-07
1.08374e-08
-1.32933e-07
1.03657e-08
-1.37097e-07
9.86073e-09
-1.41035e-07
9.32484e-09
-1.44734e-07
8.76021e-09
-1.48184e-07
8.16903e-09
-1.51374e-07
7.55343e-09
-1.54294e-07
6.91551e-09
-1.56936e-07
6.2573e-09
-1.59293e-07
5.5808e-09
-1.61357e-07
4.888e-09
-1.63122e-07
4.18086e-09
-1.64583e-07
3.46132e-09
-1.65735e-07
2.73133e-09
-1.66576e-07
1.99279e-09
-1.67101e-07
1.24765e-09
-1.6731e-07
4.97831e-10
-1.67201e-07
-2.54717e-10
-1.66773e-07
-1.00802e-09
-1.66028e-07
-1.76005e-09
-1.64967e-07
-2.50879e-09
-1.63592e-07
-3.25215e-09
-1.61906e-07
-3.988e-09
-1.59914e-07
-4.7142e-09
-1.5762e-07
-5.42852e-09
-1.55032e-07
-6.12865e-09
-1.52154e-07
-6.81225e-09
-1.48997e-07
-7.47693e-09
-1.45568e-07
-8.12024e-09
-1.41879e-07
-8.73966e-09
-1.37939e-07
-9.33263e-09
-1.33763e-07
-9.89652e-09
-1.29362e-07
-1.04287e-08
-1.24752e-07
-1.09263e-08
-1.19948e-07
-1.13868e-08
-1.14967e-07
-1.18073e-08
-1.09828e-07
-1.21851e-08
-1.04549e-07
-1.25174e-08
-9.915e-08
-1.28013e-08
-9.36537e-08
-1.30342e-08
-8.80821e-08
-1.32133e-08
-8.24588e-08
-1.33359e-08
-7.68087e-08
-1.33994e-08
-7.11574e-08
-1.34014e-08
-6.55316e-08
-1.33395e-08
-5.99589e-08
-1.32113e-08
-5.44675e-08
-1.30149e-08
-4.90865e-08
-1.27484e-08
-4.38453e-08
-1.24103e-08
-3.87739e-08
-1.19993e-08
-3.39023e-08
-1.15148e-08
-2.92605e-08
-1.09564e-08
-2.48781e-08
-1.03246e-08
-2.07838e-08
-9.62069e-09
-1.70054e-08
-8.84696e-09
-1.35685e-08
-8.00717e-09
-1.04962e-08
-7.10689e-09
-7.80815e-09
-6.15415e-09
-5.51902e-09
-5.16023e-09
-3.63708e-09
-4.14079e-09
-2.16209e-09
-3.11752e-09
-1.08276e-09
-2.12029e-09
-3.73627e-10
-1.19022e-09
8.72039e-12
-3.83581e-10
1.29895e-10
2.23776e-10
8.25909e-11
5.30788e-10
3.93345e-10
1.65932e-11
-4.28245e-10
-1.07178e-10
-3.86552e-10
-4.95827e-10
2.41258e-10
-1.23573e-09
1.2322e-09
-2.38684e-09
2.46505e-09
-3.98828e-09
3.85033e-09
-6.06221e-09
5.31803e-09
-8.61694e-09
6.81466e-09
-1.16497e-08
8.29999e-09
-1.51488e-08
9.74411e-09
-1.90958e-08
1.1125e-08
-2.34669e-08
1.24269e-08
-2.82344e-08
1.36384e-08
-3.33676e-08
1.47518e-08
-3.88339e-08
1.57621e-08
-4.45991e-08
1.66661e-08
-5.06284e-08
1.74626e-08
-5.68868e-08
1.81513e-08
-6.3339e-08
1.87331e-08
-6.995e-08
1.92094e-08
-7.66856e-08
1.95825e-08
-8.35121e-08
1.9855e-08
-9.03966e-08
2.00297e-08
-9.73073e-08
2.011e-08
-1.04213e-07
2.00992e-08
-1.11085e-07
2.00009e-08
-1.17894e-07
1.98188e-08
-1.24613e-07
1.95566e-08
-1.31216e-07
1.92181e-08
-1.37677e-07
1.88069e-08
-1.43974e-07
1.8327e-08
-1.50084e-07
1.7782e-08
-1.55986e-07
1.71756e-08
-1.6166e-07
1.65114e-08
-1.67088e-07
1.57931e-08
-1.72251e-07
1.50241e-08
-1.77134e-07
1.42078e-08
-1.81721e-07
1.33476e-08
-1.85999e-07
1.24469e-08
-1.89955e-07
1.15089e-08
-1.93576e-07
1.05367e-08
-1.96852e-07
9.53357e-09
-1.99774e-07
8.50248e-09
-2.02332e-07
7.4465e-09
-2.0452e-07
6.36864e-09
-2.06331e-07
5.27185e-09
-2.07758e-07
4.15911e-09
-2.08799e-07
3.03338e-09
-2.09449e-07
1.89759e-09
-2.09706e-07
7.54727e-10
-2.09568e-07
-3.9221e-10
-2.09036e-07
-1.54021e-09
-2.0811e-07
-2.6862e-09
-2.06792e-07
-3.82704e-09
-2.05084e-07
-4.95956e-09
-2.02992e-07
-6.08053e-09
-2.00519e-07
-7.18661e-09
-1.97674e-07
-8.27442e-09
-1.94462e-07
-9.34048e-09
-1.90893e-07
-1.03812e-08
-1.86977e-07
-1.1393e-08
-1.82725e-07
-1.2372e-08
-1.7815e-07
-1.33145e-08
-1.73266e-07
-1.42166e-08
-1.68088e-07
-1.50744e-08
-1.62633e-07
-1.58836e-08
-1.56919e-07
-1.66404e-08
-1.50965e-07
-1.73406e-08
-1.44793e-07
-1.79799e-08
-1.38424e-07
-1.85542e-08
-1.31882e-07
-1.90593e-08
-1.25192e-07
-1.9491e-08
-1.18381e-07
-1.98453e-08
-1.11476e-07
-2.01179e-08
-1.04507e-07
-2.03051e-08
-9.75038e-08
-2.04029e-08
-9.04976e-08
-2.04076e-08
-8.35213e-08
-2.03158e-08
-7.66083e-08
-2.01243e-08
-6.97931e-08
-1.98301e-08
-6.31108e-08
-1.94306e-08
-5.65971e-08
-1.89239e-08
-5.0288e-08
-1.83084e-08
-4.42195e-08
-1.75833e-08
-3.84274e-08
-1.67485e-08
-3.29467e-08
-1.58053e-08
-2.78115e-08
-1.47559e-08
-2.30541e-08
-1.36044e-08
-1.87043e-08
-1.2357e-08
-1.47886e-08
-1.10225e-08
-1.13295e-08
-9.61332e-09
-8.34331e-09
-8.14638e-09
-5.83945e-09
-6.64465e-09
-3.81792e-09
-5.13905e-09
-2.26722e-09
-3.67098e-09
-1.16171e-09
-2.29573e-09
-4.58542e-10
-1.08674e-09
-9.44976e-11
-1.40263e-10
1.80492e-11
4.18238e-10
4.11401e-10
-6.32702e-11
-3.64975e-10
-3.8157e-10
-6.8246e-11
-1.05691e-09
9.16582e-10
-2.16476e-09
2.34006e-09
-3.75878e-09
4.05906e-09
-5.87421e-09
5.96576e-09
-8.53067e-09
7.9745e-09
-1.17346e-08
1.00186e-08
-1.54815e-08
1.20469e-08
-1.97578e-08
1.40204e-08
-2.45429e-08
1.59101e-08
-2.98101e-08
1.76941e-08
-3.55286e-08
1.93569e-08
-4.16641e-08
2.08873e-08
-4.81799e-08
2.22779e-08
-5.50376e-08
2.35237e-08
-6.21975e-08
2.46225e-08
-6.96197e-08
2.55735e-08
-7.72639e-08
2.63773e-08
-8.50901e-08
2.70356e-08
-9.30587e-08
2.75511e-08
-1.01131e-07
2.7927e-08
-1.09268e-07
2.81672e-08
-1.17434e-07
2.82759e-08
-1.25593e-07
2.82577e-08
-1.33709e-07
2.81174e-08
-1.4175e-07
2.786e-08
-1.49684e-07
2.74906e-08
-1.5748e-07
2.70142e-08
-1.6511e-07
2.64361e-08
-1.72544e-07
2.57615e-08
-1.79758e-07
2.49956e-08
-1.86725e-07
2.41434e-08
-1.93424e-07
2.321e-08
-1.99831e-07
2.22004e-08
-2.05927e-07
2.11195e-08
-2.11691e-07
1.99722e-08
-2.17107e-07
1.8763e-08
-2.22156e-07
1.74968e-08
-2.26826e-07
1.6178e-08
-2.311e-07
1.48112e-08
-2.34967e-07
1.34007e-08
-2.38416e-07
1.19508e-08
-2.41435e-07
1.04659e-08
-2.44016e-07
8.9502e-09
-2.46153e-07
7.40788e-09
-2.47837e-07
5.84312e-09
-2.49063e-07
4.26009e-09
-2.49829e-07
2.66299e-09
-2.5013e-07
1.05601e-09
-2.49966e-07
-5.56626e-10
-2.49335e-07
-2.17065e-09
-2.4824e-07
-3.78171e-09
-2.46681e-07
-5.38541e-09
-2.44664e-07
-6.97726e-09
-2.42191e-07
-8.55271e-09
-2.39271e-07
-1.01071e-08
-2.3591e-07
-1.16356e-08
-2.32117e-07
-1.31333e-08
-2.27903e-07
-1.45952e-08
-2.23279e-07
-1.60163e-08
-2.1826e-07
-1.73913e-08
-2.1286e-07
-1.87148e-08
-2.07095e-07
-1.99814e-08
-2.00984e-07
-2.11855e-08
-1.94546e-07
-2.23216e-08
-1.87803e-07
-2.33838e-08
-1.80777e-07
-2.43665e-08
-1.73493e-07
-2.52639e-08
-1.65977e-07
-2.60701e-08
-1.58257e-07
-2.67793e-08
-1.50362e-07
-2.73857e-08
-1.42324e-07
-2.78837e-08
-1.34174e-07
-2.82677e-08
-1.25947e-07
-2.85323e-08
-1.17678e-07
-2.86721e-08
-1.09403e-07
-2.86822e-08
-1.01161e-07
-2.8558e-08
-9.299e-08
-2.82951e-08
-8.49304e-08
-2.78896e-08
-7.70226e-08
-2.73385e-08
-6.93076e-08
-2.66389e-08
-6.18267e-08
-2.57893e-08
-5.46211e-08
-2.47889e-08
-4.77314e-08
-2.36381e-08
-4.11977e-08
-2.23391e-08
-3.50581e-08
-2.08955e-08
-2.93489e-08
-1.93135e-08
-2.41037e-08
-1.76022e-08
-1.93519e-08
-1.57743e-08
-1.51184e-08
-1.38468e-08
-1.14218e-08
-1.18431e-08
-8.27282e-09
-9.79359e-09
-5.67313e-09
-7.73873e-09
-3.61293e-09
-5.73118e-09
-2.06906e-09
-3.8396e-09
-1.00278e-09
-2.15301e-09
-3.57665e-10
-7.85382e-10
-5.71466e-11
1.17723e-10
3.5426e-10
-1.46112e-10
-2.18866e-10
-6.72878e-10
4.58511e-10
-1.6572e-09
1.9009e-09
-3.15962e-09
3.84248e-09
-5.22398e-09
6.12341e-09
-7.87881e-09
8.6206e-09
-1.1139e-08
1.12347e-08
-1.50076e-08
1.38872e-08
-1.94772e-08
1.65164e-08
-2.45316e-08
1.90749e-08
-3.01475e-08
2.1526e-08
-3.62958e-08
2.38424e-08
-4.29424e-08
2.60036e-08
-5.00499e-08
2.79948e-08
-5.75779e-08
2.98058e-08
-6.54841e-08
3.143e-08
-7.3725e-08
3.28634e-08
-8.22562e-08
3.41047e-08
-9.1033e-08
3.51541e-08
-1.00011e-07
3.60134e-08
-1.09146e-07
3.66858e-08
-1.18394e-07
3.7175e-08
-1.27712e-07
3.74859e-08
-1.3706e-07
3.76237e-08
-1.46397e-07
3.75943e-08
-1.55683e-07
3.74037e-08
-1.64881e-07
3.70583e-08
-1.73956e-07
3.65648e-08
-1.82871e-07
3.59296e-08
-1.91595e-07
3.51598e-08
-2.00095e-07
3.42619e-08
-2.08342e-07
3.32428e-08
-2.16308e-07
3.21091e-08
-2.23966e-07
3.08676e-08
-2.3129e-07
2.95249e-08
-2.38258e-07
2.80873e-08
-2.44847e-07
2.65612e-08
-2.51037e-07
2.4953e-08
-2.56809e-07
2.32688e-08
-2.62146e-07
2.15146e-08
-2.67031e-07
1.96965e-08
-2.7145e-07
1.78201e-08
-2.75391e-07
1.58914e-08
-2.78841e-07
1.39161e-08
-2.81791e-07
1.18998e-08
-2.84231e-07
9.84798e-09
-2.86154e-07
7.76641e-09
-2.87555e-07
5.66059e-09
-2.88428e-07
3.5361e-09
-2.8877e-07
1.39853e-09
-2.8858e-07
-7.46462e-10
-2.87858e-07
-2.89316e-09
-2.86604e-07
-5.03578e-09
-2.84821e-07
-7.16846e-09
-2.82513e-07
-9.28524e-09
-2.79686e-07
-1.138e-08
-2.76346e-07
-1.34465e-08
-2.72503e-07
-1.54785e-08
-2.68167e-07
-1.74694e-08
-2.6335e-07
-1.94125e-08
-2.58065e-07
-2.13011e-08
-2.52328e-07
-2.31283e-08
-2.46156e-07
-2.4887e-08
-2.39567e-07
-2.65699e-08
-2.32583e-07
-2.81697e-08
-2.25226e-07
-2.9679e-08
-2.17519e-07
-3.10903e-08
-2.0949e-07
-3.2396e-08
-2.01165e-07
-3.35884e-08
-1.92575e-07
-3.46599e-08
-1.83752e-07
-3.5603e-08
-1.74727e-07
-3.64099e-08
-1.65538e-07
-3.70734e-08
-1.56219e-07
-3.75861e-08
-1.4681e-07
-3.7941e-08
-1.37351e-07
-3.81313e-08
-1.27883e-07
-3.81507e-08
-1.18448e-07
-3.79931e-08
-1.0909e-07
-3.76531e-08
-9.98533e-08
-3.71259e-08
-9.07841e-08
-3.64077e-08
-8.19277e-08
-3.54953e-08
-7.33301e-08
-3.43869e-08
-6.50371e-08
-3.30819e-08
-5.70936e-08
-3.15816e-08
-4.95437e-08
-2.98889e-08
-4.24296e-08
-2.80096e-08
-3.57911e-08
-2.59521e-08
-2.96648e-08
-2.37286e-08
-2.40831e-08
-2.13559e-08
-1.90736e-08
-1.88563e-08
-1.46572e-08
-1.62595e-08
-1.08471e-08
-1.36036e-08
-7.64778e-09
-1.09381e-08
-5.05269e-09
-8.32628e-09
-3.04338e-09
-5.84891e-09
-1.58789e-09
-3.6085e-09
-6.39641e-10
-1.73363e-09
-1.36577e-10
-3.8533e-10
2.1768e-10
-2.28638e-10
9.76074e-12
-9.68619e-10
1.1985e-09
-2.27231e-09
3.20458e-09
-4.18341e-09
5.75357e-09
-6.73376e-09
8.67376e-09
-9.9432e-09
1.183e-08
-1.38202e-08
1.51117e-08
-1.83627e-08
1.84297e-08
-2.35596e-08
2.17133e-08
-2.93913e-08
2.49065e-08
-3.58314e-08
2.79661e-08
-4.28478e-08
3.08588e-08
-5.04034e-08
3.35592e-08
-5.84576e-08
3.6049e-08
-6.69668e-08
3.8315e-08
-7.58852e-08
4.03484e-08
-8.51655e-08
4.21437e-08
-9.47596e-08
4.36988e-08
-1.04619e-07
4.50133e-08
-1.14695e-07
4.60892e-08
-1.24939e-07
4.69298e-08
-1.35303e-07
4.75397e-08
-1.45742e-07
4.79244e-08
-1.56208e-07
4.80904e-08
-1.66659e-07
4.80446e-08
-1.7705e-07
4.77947e-08
-1.8734e-07
4.73484e-08
-1.97489e-07
4.6714e-08
-2.07459e-07
4.58996e-08
-2.17213e-07
4.49139e-08
-2.26716e-07
4.37653e-08
-2.35936e-07
4.24622e-08
-2.4484e-07
4.10132e-08
-2.53399e-07
3.94267e-08
-2.61585e-07
3.7711e-08
-2.69372e-07
3.58743e-08
-2.76736e-07
3.39247e-08
-2.83653e-07
3.18702e-08
-2.90103e-07
2.97186e-08
-2.96066e-07
2.74776e-08
-3.01524e-07
2.51549e-08
-3.06462e-07
2.27578e-08
-3.10864e-07
2.02939e-08
-3.14718e-07
1.77703e-08
-3.18013e-07
1.51944e-08
-3.20738e-07
1.25733e-08
-3.22886e-07
9.91414e-09
-3.2445e-07
7.22405e-09
-3.25424e-07
4.51019e-09
-3.25805e-07
1.77975e-09
-3.25591e-07
-9.60062e-10
-3.24783e-07
-3.70194e-09
-3.2338e-07
-6.43847e-09
-3.21386e-07
-9.16213e-09
-3.18806e-07
-1.18653e-08
-3.15646e-07
-1.45402e-08
-3.11914e-07
-1.71789e-08
-3.07619e-07
-1.97732e-08
-3.02773e-07
-2.23149e-08
-2.9739e-07
-2.47955e-08
-2.91485e-07
-2.72064e-08
-2.85075e-07
-2.95387e-08
-2.78178e-07
-3.17835e-08
-2.70816e-07
-3.39315e-08
-2.63013e-07
-3.59735e-08
-2.54792e-07
-3.79e-08
-2.4618e-07
-3.97016e-08
-2.37208e-07
-4.13685e-08
-2.27905e-07
-4.28912e-08
-2.18305e-07
-4.42601e-08
-2.08442e-07
-4.54655e-08
-1.98354e-07
-4.64979e-08
-1.8808e-07
-4.73481e-08
-1.77659e-07
-4.80069e-08
-1.67134e-07
-4.84655e-08
-1.5655e-07
-4.87155e-08
-1.45952e-07
-4.87491e-08
-1.35386e-07
-4.8559e-08
-1.24901e-07
-4.81384e-08
-1.14545e-07
-4.74818e-08
-1.04368e-07
-4.65844e-08
-9.44207e-08
-4.54428e-08
-8.47525e-08
-4.40551e-08
-7.54134e-08
-4.24211e-08
-6.64523e-08
-4.05427e-08
-5.79169e-08
-3.84243e-08
-4.9853e-08
-3.60735e-08
-4.23036e-08
-3.35015e-08
-3.53085e-08
-3.07237e-08
-2.89031e-08
-2.77612e-08
-2.31178e-08
-2.46416e-08
-1.79765e-08
-2.14008e-08
-1.34958e-08
-1.80843e-08
-9.68369e-09
-1.47502e-08
-6.53861e-09
-1.14714e-08
-4.04845e-09
-8.33908e-09
-2.1898e-09
-5.46715e-09
-9.27833e-10
-2.99559e-09
-2.16574e-10
-1.09658e-09
1.10391e-12
-3.09066e-10
3.18827e-10
-1.26156e-09
2.151e-09
-2.88699e-09
4.83001e-09
-5.21185e-09
8.07844e-09
-8.25491e-09
1.17168e-08
-1.2026e-08
1.56011e-08
-1.65259e-08
1.96116e-08
-2.17465e-08
2.36504e-08
-2.76717e-08
2.76385e-08
-3.4278e-08
3.15128e-08
-4.15353e-08
3.52235e-08
-4.94082e-08
3.87316e-08
-5.78565e-08
4.20075e-08
-6.68363e-08
4.50288e-08
-7.63007e-08
4.77795e-08
-8.62008e-08
5.02484e-08
-9.64858e-08
5.24288e-08
-1.07104e-07
5.43171e-08
-1.18004e-07
5.59128e-08
-1.29132e-07
5.72175e-08
-1.40437e-07
5.8235e-08
-1.51868e-07
5.89703e-08
-1.63373e-07
5.94301e-08
-1.74905e-07
5.96217e-08
-1.86413e-07
5.95534e-08
-1.97853e-07
5.92343e-08
-2.09178e-07
5.86737e-08
-2.20346e-07
5.78815e-08
-2.31314e-07
5.68678e-08
-2.42043e-07
5.56427e-08
-2.52494e-07
5.42167e-08
-2.62632e-07
5.26001e-08
-2.72422e-07
5.08033e-08
-2.81832e-07
4.88366e-08
-2.90831e-07
4.67101e-08
-2.99391e-07
4.44341e-08
-3.07485e-07
4.20183e-08
-3.15087e-07
3.94728e-08
-3.22176e-07
3.68071e-08
-3.28729e-07
3.40308e-08
-3.34727e-07
3.11532e-08
-3.40153e-07
2.81837e-08
-3.44991e-07
2.51313e-08
-3.49226e-07
2.20052e-08
-3.52845e-07
1.88142e-08
-3.55839e-07
1.55673e-08
-3.58199e-07
1.22733e-08
-3.59916e-07
8.94117e-09
-3.60985e-07
5.57966e-09
-3.61403e-07
2.1977e-09
-3.61167e-07
-1.19574e-09
-3.60278e-07
-4.59157e-09
-3.58736e-07
-7.98063e-09
-3.56544e-07
-1.13536e-08
-3.53708e-07
-1.47011e-08
-3.50235e-07
-1.80134e-08
-3.46133e-07
-2.12806e-08
-3.41414e-07
-2.44929e-08
-3.36089e-07
-2.76398e-08
-3.30173e-07
-3.0711e-08
-3.23684e-07
-3.36958e-08
-3.1664e-07
-3.65832e-08
-3.09061e-07
-3.93623e-08
-3.00971e-07
-4.20216e-08
-2.92394e-07
-4.45499e-08
-2.83359e-07
-4.69354e-08
-2.73894e-07
-4.91664e-08
-2.64031e-07
-5.12313e-08
-2.53805e-07
-5.31181e-08
-2.4325e-07
-5.4815e-08
-2.32405e-07
-5.63104e-08
-2.2131e-07
-5.75928e-08
-2.10007e-07
-5.86506e-08
-1.98541e-07
-5.94729e-08
-1.86957e-07
-6.00491e-08
-1.75304e-07
-6.03691e-08
-1.6363e-07
-6.04232e-08
-1.51986e-07
-6.0203e-08
-1.40424e-07
-5.97004e-08
-1.28997e-07
-5.89089e-08
-1.17758e-07
-5.78232e-08
-1.06761e-07
-5.64394e-08
-9.60608e-08
-5.47555e-08
-8.57099e-08
-5.2772e-08
-7.57612e-08
-5.04914e-08
-6.62657e-08
-4.79198e-08
-5.72725e-08
-4.50667e-08
-4.88281e-08
-4.19459e-08
-4.09752e-08
-3.85765e-08
-3.37527e-08
-3.49838e-08
-2.71938e-08
-3.12005e-08
-2.13263e-08
-2.72684e-08
-1.61706e-08
-2.32401e-08
-1.17395e-08
-1.91813e-08
-8.03746e-09
-1.51734e-08
-5.0598e-09
-1.13167e-08
-2.79289e-09
-7.73406e-09
-1.21452e-09
-4.57394e-09
-2.95112e-10
-2.016e-09
-2.94004e-10
-3.86629e-10
7.0545e-10
-1.5476e-09
3.31197e-09
-3.49189e-09
6.7743e-09
-6.22932e-09
1.08159e-08
-9.76529e-09
1.52528e-08
-1.40989e-08
1.99348e-08
-1.92224e-08
2.47351e-08
-2.51209e-08
2.95488e-08
-3.17725e-08
3.42901e-08
-3.91489e-08
3.88892e-08
-4.7216e-08
4.32906e-08
-5.59346e-08
4.74502e-08
-6.52612e-08
5.1334e-08
-7.51484e-08
5.49161e-08
-8.55463e-08
5.81774e-08
-9.64026e-08
6.11047e-08
-1.07663e-07
6.36895e-08
-1.19274e-07
6.59273e-08
-1.31178e-07
6.7817e-08
-1.43321e-07
6.93602e-08
-1.55646e-07
7.05607e-08
-1.681e-07
7.14243e-08
-1.80629e-07
7.19584e-08
-1.93178e-07
7.21716e-08
-2.05699e-07
7.20735e-08
-2.18139e-07
7.16745e-08
-2.30451e-07
7.09858e-08
-2.42588e-07
7.00188e-08
-2.54506e-07
6.87855e-08
-2.66161e-07
6.72981e-08
-2.77513e-07
6.55687e-08
-2.88523e-07
6.36099e-08
-2.99153e-07
6.14339e-08
-3.0937e-07
5.90531e-08
-3.19139e-07
5.64797e-08
-3.28431e-07
5.37258e-08
-3.37216e-07
5.08034e-08
-3.45468e-07
4.77243e-08
-3.53161e-07
4.45001e-08
-3.60273e-07
4.11424e-08
-3.66782e-07
3.76624e-08
-3.72669e-07
3.40714e-08
-3.77918e-07
3.03803e-08
-3.82513e-07
2.66001e-08
-3.86441e-07
2.27416e-08
-3.89689e-07
1.88156e-08
-3.92249e-07
1.48329e-08
-3.94111e-07
1.0804e-08
-3.95272e-07
6.73976e-09
-3.95725e-07
2.65095e-09
-3.95469e-07
-1.4516e-09
-3.94504e-07
-5.55692e-09
-3.9283e-07
-9.65393e-09
-3.90453e-07
-1.37314e-08
-3.87376e-07
-1.77778e-08
-3.83608e-07
-2.17816e-08
-3.79157e-07
-2.57309e-08
-3.74037e-07
-2.96135e-08
-3.68259e-07
-3.34172e-08
-3.61841e-07
-3.71293e-08
-3.548e-07
-4.0737e-08
-3.47156e-07
-4.42271e-08
-3.38932e-07
-4.75863e-08
-3.30153e-07
-5.0801e-08
-3.20845e-07
-5.38576e-08
-3.11038e-07
-5.6742e-08
-3.00764e-07
-5.94402e-08
-2.90057e-07
-6.19382e-08
-2.78954e-07
-6.42218e-08
-2.67492e-07
-6.62768e-08
-2.55713e-07
-6.80893e-08
-2.4366e-07
-6.96456e-08
-2.31379e-07
-7.09321e-08
-2.18916e-07
-7.19358e-08
-2.06321e-07
-7.26439e-08
-1.93645e-07
-7.30448e-08
-1.80941e-07
-7.31271e-08
-1.68264e-07
-7.28808e-08
-1.55667e-07
-7.22967e-08
-1.43209e-07
-7.13673e-08
-1.30946e-07
-7.00866e-08
-1.18935e-07
-6.84503e-08
-1.07234e-07
-6.64567e-08
-9.58992e-08
-6.41063e-08
-8.49875e-08
-6.14031e-08
-7.4553e-08
-5.83544e-08
-6.4648e-08
-5.49717e-08
-5.53221e-08
-5.12718e-08
-4.66217e-08
-4.7277e-08
-3.85887e-08
-4.30168e-08
-3.12604e-08
-3.85288e-08
-2.46683e-08
-3.38605e-08
-1.88376e-08
-2.90707e-08
-1.37868e-08
-2.42321e-08
-9.52682e-09
-1.94334e-08
-6.06145e-09
-1.47821e-08
-3.38734e-09
-1.04081e-08
-1.49515e-09
-6.46614e-09
-3.71114e-10
-3.14003e-09
-6.65114e-10
-4.60937e-10
1.16639e-09
-1.82454e-09
4.67558e-09
-4.08159e-09
9.03133e-09
-7.22625e-09
1.39605e-08
-1.12508e-08
1.92773e-08
-1.61434e-08
2.48274e-08
-2.18872e-08
3.0479e-08
-2.846e-08
3.61216e-08
-3.58334e-08
4.16636e-08
-4.3974e-08
4.70299e-08
-5.28431e-08
5.21597e-08
-6.23973e-08
5.70044e-08
-7.25893e-08
6.1526e-08
-8.33685e-08
6.56952e-08
-9.46814e-08
6.94903e-08
-1.06473e-07
7.28958e-08
-1.18685e-07
7.59018e-08
-1.3126e-07
7.85027e-08
-1.4414e-07
8.06967e-08
-1.57265e-07
8.24855e-08
-1.70577e-07
8.3873e-08
-1.84019e-07
8.48658e-08
-1.97532e-07
8.54719e-08
-2.11062e-07
8.57013e-08
-2.24553e-07
8.55649e-08
-2.37954e-07
8.50746e-08
-2.51211e-07
8.42432e-08
-2.64276e-07
8.30841e-08
-2.77102e-07
8.16112e-08
-2.89642e-07
7.98384e-08
-3.01854e-07
7.77803e-08
-3.13695e-07
7.54513e-08
-3.25127e-07
7.28657e-08
-3.36112e-07
7.00381e-08
-3.46615e-07
6.69829e-08
-3.56604e-07
6.37143e-08
-3.66047e-07
6.02464e-08
-3.74916e-07
5.6593e-08
-3.83184e-07
5.27681e-08
-3.90826e-07
4.8785e-08
-3.97821e-07
4.46573e-08
-4.04148e-07
4.03981e-08
-4.09788e-07
3.60205e-08
-4.14725e-07
3.15374e-08
-4.18945e-07
2.69616e-08
-4.22436e-07
2.2306e-08
-4.25186e-07
1.75832e-08
-4.27188e-07
1.28058e-08
-4.28435e-07
7.98671e-09
-4.28922e-07
3.13857e-09
-4.28648e-07
-1.72571e-09
-4.27612e-07
-6.59317e-09
-4.25815e-07
-1.14506e-08
-4.23262e-07
-1.62848e-08
-4.19958e-07
-2.10822e-08
-4.1591e-07
-2.58289e-08
-4.1113e-07
-3.05109e-08
-4.0563e-07
-3.5114e-08
-3.99424e-07
-3.96234e-08
-3.92529e-07
-4.40244e-08
-3.84964e-07
-4.83017e-08
-3.76751e-07
-5.24398e-08
-3.67914e-07
-5.64231e-08
-3.5848e-07
-6.02354e-08
-3.48477e-07
-6.38607e-08
-3.37936e-07
-6.72826e-08
-3.26892e-07
-7.04844e-08
-3.1538e-07
-7.34497e-08
-3.0344e-07
-7.61618e-08
-2.91113e-07
-7.86043e-08
-2.78442e-07
-8.07607e-08
-2.65472e-07
-8.26149e-08
-2.52253e-07
-8.41511e-08
-2.38835e-07
-8.53542e-08
-2.25269e-07
-8.62095e-08
-2.11611e-07
-8.67032e-08
-1.97916e-07
-8.68224e-08
-1.84241e-07
-8.65555e-08
-1.70645e-07
-8.58922e-08
-1.57189e-07
-8.48238e-08
-1.43932e-07
-8.33436e-08
-1.30935e-07
-8.14471e-08
-1.18259e-07
-7.91325e-08
-1.05964e-07
-7.6401e-08
-9.41101e-08
-7.32574e-08
-8.2754e-08
-6.97105e-08
-7.19518e-08
-6.5774e-08
-6.17564e-08
-6.14671e-08
-5.22178e-08
-5.68156e-08
-4.33816e-08
-5.18529e-08
-3.52891e-08
-4.66212e-08
-2.79766e-08
-4.1173e-08
-2.14743e-08
-3.5573e-08
-1.58068e-08
-2.98996e-08
-1.09923e-08
-2.42478e-08
-7.04348e-09
-1.8731e-08
-3.96736e-09
-1.34843e-08
-1.76717e-09
-8.66633e-09
-4.44024e-10
-4.46317e-09
-1.10914e-09
-5.31926e-10
1.69831e-09
-2.09146e-09
6.23512e-09
-4.65331e-09
1.15932e-08
-8.19727e-09
1.75045e-08
-1.2703e-08
2.3783e-08
-1.81479e-08
3.02723e-08
-2.4506e-08
3.6837e-08
-3.1747e-08
4.33625e-08
-3.98361e-08
4.97527e-08
-4.87339e-08
5.59277e-08
-5.83968e-08
6.18225e-08
-6.8777e-08
6.73846e-08
-7.98231e-08
7.25721e-08
-9.14808e-08
7.7353e-08
-1.03693e-07
8.17027e-08
-1.16402e-07
8.56042e-08
-1.29546e-07
8.90457e-08
-1.43064e-07
9.20209e-08
-1.56895e-07
9.45276e-08
-1.70976e-07
9.65671e-08
-1.85247e-07
9.81438e-08
-1.99646e-07
9.92649e-08
-2.14114e-07
9.99395e-08
-2.28591e-07
1.00178e-07
-2.4302e-07
9.99941e-08
-2.57346e-07
9.94002e-08
-2.71514e-07
9.84112e-08
-2.85472e-07
9.70424e-08
-2.9917e-07
9.53095e-08
-3.12561e-07
9.32288e-08
-3.25597e-07
9.08167e-08
-3.38236e-07
8.80899e-08
-3.50435e-07
8.50652e-08
-3.62156e-07
8.17591e-08
-3.73361e-07
7.81883e-08
-3.84016e-07
7.43693e-08
-3.94088e-07
7.03184e-08
-4.03547e-07
6.60518e-08
-4.12364e-07
6.15854e-08
-4.20514e-07
5.6935e-08
-4.27973e-07
5.21162e-08
-4.34719e-07
4.71443e-08
-4.40733e-07
4.20345e-08
-4.45998e-07
3.68019e-08
-4.50498e-07
3.14614e-08
-4.5422e-07
2.6028e-08
-4.57153e-07
2.05163e-08
-4.59288e-07
1.49412e-08
-4.60619e-07
9.31753e-09
-4.61141e-07
3.66014e-09
-4.6085e-07
-2.01598e-09
-4.59748e-07
-7.69569e-09
-4.57835e-07
-1.33637e-08
-4.55115e-07
-1.90044e-08
-4.51595e-07
-2.46022e-08
-4.47283e-07
-3.01408e-08
-4.4219e-07
-3.56041e-08
-4.36329e-07