/*--------------------------------*- C++ -*----------------------------------*\
| =========                 |                                                 |
| \\      /  F ield         | OpenFOAM: The Open Source CFD Toolbox           |
|  \\    /   O peration     | Version:  2212                                  |
|   \\  /    A nd           | Website:  www.openfoam.com                      |
|    \\/     M anipulation  |                                                 |
\*---------------------------------------------------------------------------*/
FoamFile
{
    version     2.0;
    format      ascii;
    arch        "LSB;label=32;scalar=64";
    class       volVectorField;
    location    "0.0255";
    object      U_0;
}
// * * * * * * * * * * * * * * * * * * * * * * * * * * * * * * * * * * * * * //

dimensions      [0 1 -1 0 0 0 0];

internalField   nonuniform List<vector> 
10000
(
(2.85367e-06 -2.71501e-06 0)
(1.19112e-05 -5.38001e-06 0)
(2.39192e-05 -5.28245e-06 0)
(3.32044e-05 -3.93549e-06 0)
(3.66665e-05 -1.84512e-06 0)
(3.29422e-05 6.35843e-07 0)
(2.12556e-05 3.28094e-06 0)
(1.36054e-06 5.92435e-06 0)
(-2.6676e-05 8.47871e-06 0)
(-6.25524e-05 1.08985e-05 0)
(-0.000105868 1.31517e-05 0)
(-0.000156124 1.52196e-05 0)
(-0.000212778 1.71013e-05 0)
(-0.000275282 1.87974e-05 0)
(-0.000343063 2.03096e-05 0)
(-0.000415546 2.16464e-05 0)
(-0.000492171 2.28053e-05 0)
(-0.000572381 2.37913e-05 0)
(-0.000655625 2.46175e-05 0)
(-0.000741386 2.52926e-05 0)
(-0.000829155 2.58169e-05 0)
(-0.000918434 2.61952e-05 0)
(-0.00100875 2.64311e-05 0)
(-0.00109966 2.6527e-05 0)
(-0.00119072 2.64968e-05 0)
(-0.00128152 2.63541e-05 0)
(-0.00137167 2.6104e-05 0)
(-0.00146078 2.57472e-05 0)
(-0.00154852 2.52881e-05 0)
(-0.00163452 2.47333e-05 0)
(-0.00171848 2.40891e-05 0)
(-0.00180011 2.33605e-05 0)
(-0.0018791 2.25539e-05 0)
(-0.0019552 2.16747e-05 0)
(-0.00202816 2.07243e-05 0)
(-0.00209775 1.97073e-05 0)
(-0.00216374 1.86303e-05 0)
(-0.00222595 1.74995e-05 0)
(-0.00228417 1.63182e-05 0)
(-0.00233823 1.50885e-05 0)
(-0.00238799 1.38142e-05 0)
(-0.00243329 1.25004e-05 0)
(-0.002474 1.11518e-05 0)
(-0.00251002 9.77118e-06 0)
(-0.00254122 8.36064e-06 0)
(-0.00256753 6.92623e-06 0)
(-0.00258885 5.47229e-06 0)
(-0.00260514 4.00006e-06 0)
(-0.00261633 2.51368e-06 0)
(-0.00262239 1.01731e-06 0)
(-0.00262329 -4.85796e-07 0)
(-0.00261901 -1.98944e-06 0)
(-0.00260956 -3.48981e-06 0)
(-0.00259494 -4.98655e-06 0)
(-0.0025752 -6.47534e-06 0)
(-0.00255036 -7.95018e-06 0)
(-0.00252049 -9.40766e-06 0)
(-0.00248565 -1.08424e-05 0)
(-0.00244593 -1.2248e-05 0)
(-0.00240144 -1.36221e-05 0)
(-0.00235229 -1.49616e-05 0)
(-0.00229861 -1.62599e-05 0)
(-0.00224057 -1.75118e-05 0)
(-0.00217832 -1.87141e-05 0)
(-0.00211205 -1.98601e-05 0)
(-0.00204198 -2.09416e-05 0)
(-0.00196833 -2.19539e-05 0)
(-0.00189134 -2.28929e-05 0)
(-0.00181128 -2.37527e-05 0)
(-0.00172844 -2.45276e-05 0)
(-0.00164311 -2.52128e-05 0)
(-0.00155562 -2.58007e-05 0)
(-0.00146631 -2.62827e-05 0)
(-0.00137555 -2.66535e-05 0)
(-0.00128373 -2.69101e-05 0)
(-0.00119125 -2.70472e-05 0)
(-0.00109852 -2.70569e-05 0)
(-0.001006 -2.69327e-05 0)
(-0.000914135 -2.66697e-05 0)
(-0.000823415 -2.62617e-05 0)
(-0.000734334 -2.57009e-05 0)
(-0.000647408 -2.49814e-05 0)
(-0.000563167 -2.40993e-05 0)
(-0.000482153 -2.30505e-05 0)
(-0.000404919 -2.18293e-05 0)
(-0.000332027 -2.04299e-05 0)
(-0.000264049 -1.88484e-05 0)
(-0.000201555 -1.70828e-05 0)
(-0.00014511 -1.51321e-05 0)
(-9.52641e-05 -1.29963e-05 0)
(-5.25398e-05 -1.06799e-05 0)
(-1.74136e-05 -8.19522e-06 0)
(9.71344e-06 -5.56609e-06 0)
(2.85606e-05 -2.83268e-06 0)
(3.9039e-05 -6.7425e-08 0)
(4.13687e-05 2.59161e-06 0)
(3.62526e-05 4.88413e-06 0)
(2.5261e-05 6.31509e-06 0)
(1.19863e-05 5.97419e-06 0)
(2.7097e-06 2.70973e-06 0)
(6.57464e-06 -1.22482e-05 0)
(2.30723e-05 -2.14365e-05 0)
(4.11868e-05 -1.88589e-05 0)
(5.02936e-05 -1.01049e-05 0)
(4.42679e-05 2.396e-06 0)
(1.98838e-05 1.70491e-05 0)
(-2.47759e-05 3.2711e-05 0)
(-9.05692e-05 4.85736e-05 0)
(-0.000177521 6.4135e-05 0)
(-0.000285135 7.90534e-05 0)
(-0.000412521 9.31213e-05 0)
(-0.000558538 0.000106217 0)
(-0.000721892 0.000118251 0)
(-0.000901175 0.000129192 0)
(-0.00109491 0.000139028 0)
(-0.00130162 0.000147752 0)
(-0.0015198 0.000155379 0)
(-0.00174793 0.000161924 0)
(-0.00198455 0.000167419 0)
(-0.00222823 0.000171891 0)
(-0.00247756 0.000175383 0)
(-0.00273116 0.000177924 0)
(-0.00298773 0.000179549 0)
(-0.00324599 0.00018029 0)
(-0.00350473 0.00018019 0)
(-0.00376277 0.000179292 0)
(-0.004019 0.000177634 0)
(-0.00427235 0.000175251 0)
(-0.00452182 0.000172181 0)
(-0.00476643 0.000168458 0)
(-0.00500528 0.000164118 0)
(-0.00523752 0.000159198 0)
(-0.00546232 0.000153736 0)
(-0.00567892 0.000147764 0)
(-0.00588661 0.000141312 0)
(-0.00608472 0.000134409 0)
(-0.00627262 0.00012709 0)
(-0.00644973 0.000119385 0)
(-0.00661552 0.000111322 0)
(-0.00676949 0.00010293 0)
(-0.00691118 9.4239e-05 0)
(-0.00704018 8.52773e-05 0)
(-0.00715612 7.60684e-05 0)
(-0.00725865 6.66376e-05 0)
(-0.00734749 5.70127e-05 0)
(-0.00742237 4.72201e-05 0)
(-0.00748306 3.72873e-05 0)
(-0.00752938 2.72382e-05 0)
(-0.00756118 1.70954e-05 0)
(-0.00757836 6.88667e-06 0)
(-0.00758083 -3.36008e-06 0)
(-0.00756857 -1.36199e-05 0)
(-0.00754156 -2.38657e-05 0)
(-0.00749986 -3.40693e-05 0)
(-0.00744355 -4.42044e-05 0)
(-0.00737275 -5.42435e-05 0)
(-0.00728761 -6.41571e-05 0)
(-0.00718837 -7.39143e-05 0)
(-0.00707525 -8.34834e-05 0)
(-0.00694856 -9.28319e-05 0)
(-0.00680864 -0.000101928 0)
(-0.00665589 -0.000110738 0)
(-0.00649072 -0.00011923 0)
(-0.00631365 -0.000127367 0)
(-0.00612522 -0.000135113 0)
(-0.00592601 -0.000142426 0)
(-0.00571666 -0.000149272 0)
(-0.00549788 -0.000155612 0)
(-0.00527043 -0.000161409 0)
(-0.00503512 -0.000166624 0)
(-0.0047928 -0.000171217 0)
(-0.00454441 -0.000175147 0)
(-0.00429092 -0.000178372 0)
(-0.00403336 -0.000180853 0)
(-0.00377281 -0.000182555 0)
(-0.00351043 -0.00018344 0)
(-0.00324741 -0.00018347 0)
(-0.00298499 -0.000182606 0)
(-0.00272446 -0.000180811 0)
(-0.00246717 -0.000178052 0)
(-0.00221452 -0.000174293 0)
(-0.0019679 -0.000169503 0)
(-0.00172879 -0.000163656 0)
(-0.00149867 -0.000156732 0)
(-0.00127905 -0.000148711 0)
(-0.00107144 -0.000139582 0)
(-0.000877361 -0.000129341 0)
(-0.000698297 -0.000117995 0)
(-0.000535702 -0.00010557 0)
(-0.000390946 -9.2113e-05 0)
(-0.00026528 -7.77057e-05 0)
(-0.000159786 -6.24813e-05 0)
(-7.52893e-05 -4.66449e-05 0)
(-1.22357e-05 -3.05114e-05 0)
(2.9492e-05 -1.45752e-05 0)
(5.08203e-05 3.75029e-07 0)
(5.37935e-05 1.30773e-05 0)
(4.20979e-05 2.15181e-05 0)
(2.2554e-05 2.25371e-05 0)
(5.97638e-06 1.19835e-05 0)
(7.14283e-06 -2.63074e-05 0)
(2.27292e-05 -4.06642e-05 0)
(3.49865e-05 -3.00668e-05 0)
(3.12775e-05 -5.37916e-06 0)
(4.08678e-06 2.82776e-05 0)
(-5.08448e-05 6.73718e-05 0)
(-0.000136162 0.000109179 0)
(-0.000253099 0.000151805 0)
(-0.000401844 0.000193887 0)
(-0.000581798 0.000234518 0)
(-0.000791782 0.000273092 0)
(-0.00103023 0.000309184 0)
(-0.00129529 0.000342543 0)
(-0.00158489 0.00037301 0)
(-0.00189689 0.000400492 0)
(-0.00222903 0.000424961 0)
(-0.00257903 0.000446422 0)
(-0.00294462 0.000464901 0)
(-0.00332351 0.000480451 0)
(-0.00371347 0.00049315 0)
(-0.00411233 0.000503073 0)
(-0.00451794 0.000510316 0)
(-0.00492824 0.00051497 0)
(-0.00534122 0.000517131 0)
(-0.00575495 0.000516902 0)
(-0.00616757 0.000514387 0)
(-0.00657733 0.00050969 0)
(-0.00698252 0.000502915 0)
(-0.00738152 0.000494167 0)
(-0.0077728 0.000483545 0)
(-0.0081549 0.000471151 0)
(-0.00852645 0.000457084 0)
(-0.00888613 0.000441447 0)
(-0.00923273 0.000424333 0)
(-0.00956509 0.000405835 0)
(-0.00988214 0.000386042 0)
(-0.0101829 0.000365044 0)
(-0.0104664 0.000342929 0)
(-0.0107317 0.000319778 0)
(-0.0109782 0.000295678 0)
(-0.011205 0.00027071 0)
(-0.0114114 0.000244955 0)
(-0.011597 0.00021849 0)
(-0.0117611 0.000191387 0)
(-0.0119032 0.000163723 0)
(-0.012023 0.00013558 0)
(-0.0121201 0.000107026 0)
(-0.0121942 7.8139e-05 0)
(-0.012245 4.89923e-05 0)
(-0.0122724 1.9658e-05 0)
(-0.0122762 -9.78727e-06 0)
(-0.0122565 -3.92642e-05 0)
(-0.0122131 -6.86978e-05 0)
(-0.0121462 -9.80083e-05 0)
(-0.012056 -0.000127112 0)
(-0.0119425 -0.000155931 0)
(-0.0118061 -0.000184382 0)
(-0.0116472 -0.000212376 0)
(-0.0114661 -0.000239821 0)
(-0.0112633 -0.00026663 0)
(-0.0110393 -0.000292705 0)
(-0.0107949 -0.00031795 0)
(-0.0105306 -0.000342268 0)
(-0.0102474 -0.00036556 0)
(-0.009946 -0.000387719 0)
(-0.00962743 -0.000408637 0)
(-0.00929271 -0.000428208 0)
(-0.00894297 -0.000446325 0)
(-0.00857941 -0.000462878 0)
(-0.00820333 -0.000477755 0)
(-0.00781612 -0.000490846 0)
(-0.00741924 -0.000502037 0)
(-0.00701426 -0.000511215 0)
(-0.00660281 -0.00051827 0)
(-0.00618663 -0.000523096 0)
(-0.00576753 -0.000525587 0)
(-0.00534741 -0.000525639 0)
(-0.00492823 -0.000523149 0)
(-0.00451204 -0.00051802 0)
(-0.00410094 -0.000510161 0)
(-0.00369712 -0.000499487 0)
(-0.0033028 -0.000485923 0)
(-0.00292024 -0.000469407 0)
(-0.00255175 -0.000449893 0)
(-0.00219965 -0.000427347 0)
(-0.00186625 -0.000401763 0)
(-0.00155383 -0.00037316 0)
(-0.00126465 -0.000341601 0)
(-0.00100082 -0.000307195 0)
(-0.000764341 -0.000270127 0)
(-0.000556985 -0.000230685 0)
(-0.000380225 -0.000189297 0)
(-0.000235111 -0.00014659 0)
(-0.000122096 -0.00010348 0)
(-4.08164e-05 -6.13103e-05 0)
(1.02011e-05 -2.20621e-05 0)
(3.38636e-05 1.13527e-05 0)
(3.49792e-05 3.47292e-05 0)
(2.16503e-05 4.21085e-05 0)
(6.33952e-06 2.52802e-05 0)
(5.48444e-06 -3.80741e-05 0)
(1.39711e-05 -5.23161e-05 0)
(1.1471e-05 -2.71599e-05 0)
(-1.43917e-05 2.11789e-05 0)
(-7.14586e-05 8.46261e-05 0)
(-0.000164514 0.000157378 0)
(-0.000296514 0.000235034 0)
(-0.000468919 0.000314307 0)
(-0.000681988 0.000392842 0)
(-0.000935036 0.000468965 0)
(-0.00122671 0.000541491 0)
(-0.00155511 0.000609612 0)
(-0.00191797 0.000672784 0)
(-0.00231274 0.000730644 0)
(-0.00273669 0.000782982 0)
(-0.00318697 0.000829693 0)
(-0.00366067 0.000870743 0)
(-0.00415482 0.000906169 0)
(-0.00466649 0.00093604 0)
(-0.00519276 0.000960467 0)
(-0.00573075 0.000979582 0)
(-0.00627765 0.000993546 0)
(-0.00683073 0.00100253 0)
(-0.00738733 0.0010067 0)
(-0.00794488 0.00100626 0)
(-0.00850092 0.00100139 0)
(-0.00905308 0.000992294 0)
(-0.00959907 0.000979159 0)
(-0.0101367 0.000962186 0)
(-0.010664 0.000941567 0)
(-0.011179 0.000917498 0)
(-0.0116797 0.000890168 0)
(-0.0121645 0.000859769 0)
(-0.0126316 0.000826482 0)
(-0.0130796 0.00079049 0)
(-0.013507 0.00075197 0)
(-0.0139124 0.000711095 0)
(-0.0142945 0.000668032 0)
(-0.0146523 0.000622945 0)
(-0.0149845 0.000576001 0)
(-0.0152902 0.00052736 0)
(-0.0155685 0.000477175 0)
(-0.0158187 0.000425597 0)
(-0.0160398 0.000372779 0)
(-0.0162314 0.000318868 0)
(-0.0163928 0.000264013 0)
(-0.0165236 0.000208363 0)
(-0.0166233 0.00015206 0)
(-0.0166917 9.52517e-05 0)
(-0.0167284 3.80871e-05 0)
(-0.0167334 -1.92883e-05 0)
(-0.0167066 -7.67247e-05 0)
(-0.016648 -0.000134068 0)
(-0.0165576 -0.000191165 0)
(-0.0164357 -0.000247856 0)
(-0.0162826 -0.000303977 0)
(-0.0160986 -0.000359367 0)
(-0.0158841 -0.000413858 0)
(-0.0156399 -0.000467275 0)
(-0.0153664 -0.000519434 0)
(-0.0150644 -0.000570155 0)
(-0.0147349 -0.000619252 0)
(-0.0143787 -0.000666534 0)
(-0.013997 -0.000711801 0)
(-0.0135908 -0.000754854 0)
(-0.0131616 -0.000795488 0)
(-0.0127107 -0.000833494 0)
(-0.0122396 -0.000868665 0)
(-0.0117499 -0.000900788 0)
(-0.0112435 -0.000929649 0)
(-0.010722 -0.000955034 0)
(-0.0101876 -0.000976726 0)
(-0.00964235 -0.000994514 0)
(-0.00908837 -0.00100819 0)
(-0.00852803 -0.00101754 0)
(-0.00796373 -0.00102237 0)
(-0.00739801 -0.00102249 0)
(-0.00683349 -0.00101769 0)
(-0.00627286 -0.00100782 0)
(-0.00571895 -0.000992692 0)
(-0.0051746 -0.000972172 0)
(-0.00464276 -0.000946131 0)
(-0.00412639 -0.000914465 0)
(-0.00362849 -0.000877105 0)
(-0.00315208 -0.000834017 0)
(-0.00270015 -0.00078522 0)
(-0.00227562 -0.000730792 0)
(-0.00188132 -0.000670893 0)
(-0.00151995 -0.000605787 0)
(-0.00119396 -0.000535884 0)
(-0.000905517 -0.000461788 0)
(-0.000656371 -0.00038436 0)
(-0.000447713 -0.000304818 0)
(-0.000280002 -0.000224875 0)
(-0.000152726 -0.000146943 0)
(-6.41308e-05 -7.44128e-05 0)
(-1.09025e-05 -1.20194e-05 0)
(1.22151e-05 3.37364e-05 0)
(1.3471e-05 5.40408e-05 0)
(4.96073e-06 3.63882e-05 0)
(2.93957e-06 -4.36715e-05 0)
(7.79421e-07 -4.9246e-05 0)
(-2.24262e-05 -1.94517e-06 0)
(-7.70289e-05 7.75893e-05 0)
(-0.000170382 0.000178419 0)
(-0.000307262 0.000292607 0)
(-0.000490661 0.000413957 0)
(-0.000722036 0.000537816 0)
(-0.00100159 0.000660721 0)
(-0.00132856 0.000780123 0)
(-0.0017014 0.000894183 0)
(-0.00211795 0.0010016 0)
(-0.0025756 0.00110145 0)
(-0.00307143 0.00119312 0)
(-0.00360223 0.00127622 0)
(-0.00416466 0.00135052 0)
(-0.00475525 0.00141593 0)
(-0.00537051 0.00147245 0)
(-0.00600691 0.00152018 0)
(-0.00666093 0.00155924 0)
(-0.00732911 0.00158984 0)
(-0.00800804 0.00161219 0)
(-0.0086944 0.00162655 0)
(-0.00938493 0.00163319 0)
(-0.0100765 0.0016324 0)
(-0.0107661 0.00162448 0)
(-0.0114509 0.00160972 0)
(-0.0121279 0.00158844 0)
(-0.0127946 0.00156094 0)
(-0.0134485 0.00152754 0)
(-0.014087 0.00148855 0)
(-0.0147079 0.00144427 0)
(-0.015309 0.001395 0)
(-0.0158882 0.00134105 0)
(-0.0164438 0.00128269 0)
(-0.0169737 0.00122022 0)
(-0.0174764 0.00115391 0)
(-0.0179503 0.00108405 0)
(-0.0183939 0.0010109 0)
(-0.0188059 0.000934717 0)
(-0.019185 0.000855771 0)
(-0.0195301 0.000774312 0)
(-0.0198402 0.000690586 0)
(-0.0201144 0.00060484 0)
(-0.0203519 0.00051732 0)
(-0.020552 0.000428265 0)
(-0.020714 0.000337914 0)
(-0.0208376 0.000246505 0)
(-0.0209222 0.000154279 0)
(-0.0209675 6.14779e-05 0)
(-0.0209735 -3.16565e-05 0)
(-0.0209401 -0.000124883 0)
(-0.0208671 -0.000217951 0)
(-0.0207548 -0.000310605 0)
(-0.0206035 -0.00040259 0)
(-0.0204133 -0.000493643 0)
(-0.0201849 -0.000583494 0)
(-0.0199189 -0.000671867 0)
(-0.0196158 -0.00075848 0)
(-0.0192765 -0.000843043 0)
(-0.018902 -0.000925259 0)
(-0.0184933 -0.00100482 0)
(-0.0180516 -0.00108143 0)
(-0.0175783 -0.00115476 0)
(-0.0170748 -0.00122448 0)
(-0.0165428 -0.00129028 0)
(-0.0159838 -0.00135181 0)
(-0.0153999 -0.00140873 0)
(-0.0147931 -0.00146071 0)
(-0.0141654 -0.00150741 0)
(-0.0135193 -0.00154848 0)
(-0.0128571 -0.00158357 0)
(-0.0121814 -0.00161236 0)
(-0.0114949 -0.0016345 0)
(-0.0108004 -0.00164967 0)
(-0.010101 -0.00165755 0)
(-0.00939975 -0.00165783 0)
(-0.0086998 -0.00165023 0)
(-0.00800448 -0.00163448 0)
(-0.0073172 -0.00161031 0)
(-0.00664145 -0.00157753 0)
(-0.00598076 -0.00153595 0)
(-0.00533873 -0.00148542 0)
(-0.00471896 -0.00142588 0)
(-0.00412505 -0.00135729 0)
(-0.00356055 -0.00127974 0)
(-0.00302894 -0.00119339 0)
(-0.00253353 -0.00109855 0)
(-0.00207746 -0.000995702 0)
(-0.00166358 -0.00088556 0)
(-0.00129436 -0.000769124 0)
(-0.000971765 -0.000647791 0)
(-0.000697142 -0.000523476 0)
(-0.000471004 -0.000398799 0)
(-0.000292841 -0.000277323 0)
(-0.000160866 -0.000163881 0)
(-7.17411e-05 -6.49914e-05 0)
(-2.02484e-05 1.06807e-05 0)
(1.18073e-06 5.16955e-05 0)
(2.75313e-06 4.18032e-05 0)
(1.27453e-07 -4.15056e-05 0)
(-1.44408e-05 -2.76451e-05 0)
(-6.18888e-05 5.05256e-05 0)
(-0.000149581 0.00016913 0)
(-0.000283595 0.000314824 0)
(-0.000468391 0.000477664 0)
(-0.000706675 0.000649816 0)
(-0.000999673 0.000825259 0)
(-0.00134745 0.000999404 0)
(-0.00174904 0.00116881 0)
(-0.0022027 0.00133092 0)
(-0.00270603 0.00148387 0)
(-0.00325614 0.00162631 0)
(-0.00384972 0.00175731 0)
(-0.00448323 0.00187626 0)
(-0.00515287 0.00198277 0)
(-0.00585474 0.00207665 0)
(-0.00658484 0.00215787 0)
(-0.00733916 0.0022265 0)
(-0.00811367 0.0022827 0)
(-0.00890439 0.00232673 0)
(-0.00970737 0.00235887 0)
(-0.0105188 0.00237946 0)
(-0.0113349 0.00238887 0)
(-0.012152 0.00238751 0)
(-0.0129666 0.00237578 0)
(-0.0137753 0.00235412 0)
(-0.0145748 0.00232296 0)
(-0.015362 0.00228274 0)
(-0.016134 0.00223392 0)
(-0.0168879 0.00217692 0)
(-0.0176209 0.0021122 0)
(-0.0183306 0.00204019 0)
(-0.0190145 0.00196131 0)
(-0.0196703 0.00187599 0)
(-0.0202959 0.00178465 0)
(-0.0208894 0.0016877 0)
(-0.0214488 0.00158553 0)
(-0.0219725 0.00147853 0)
(-0.0224588 0.0013671 0)
(-0.0229063 0.00125162 0)
(-0.0233137 0.00113244 0)
(-0.0236797 0.00100995 0)
(-0.0240033 0.000884491 0)
(-0.0242836 0.000756434 0)
(-0.0245196 0.000626129 0)
(-0.0247108 0.000493927 0)
(-0.0248564 0.000360183 0)
(-0.0249561 0.000225247 0)
(-0.0250095 8.9471e-05 0)
(-0.0250164 -4.67867e-05 0)
(-0.0249766 -0.000183164 0)
(-0.0248903 -0.000319298 0)
(-0.0247575 -0.000454816 0)
(-0.0245786 -0.00058934 0)
(-0.024354 -0.000722485 0)
(-0.0240842 -0.000853855 0)
(-0.0237699 -0.000983048 0)
(-0.023412 -0.00110965 0)
(-0.0230113 -0.00123323 0)
(-0.0225692 -0.00135337 0)
(-0.0220867 -0.00146962 0)
(-0.0215653 -0.00158152 0)
(-0.0210066 -0.00168862 0)
(-0.0204124 -0.00179044 0)
(-0.0197844 -0.00188651 0)
(-0.0191248 -0.00197634 0)
(-0.0184357 -0.00205944 0)
(-0.0177196 -0.00213532 0)
(-0.0169789 -0.00220348 0)
(-0.0162164 -0.00226344 0)
(-0.0154349 -0.00231469 0)
(-0.0146375 -0.00235675 0)
(-0.0138272 -0.00238915 0)
(-0.0130075 -0.00241141 0)
(-0.0121818 -0.00242309 0)
(-0.0113537 -0.00242375 0)
(-0.0105269 -0.002413 0)
(-0.00970528 -0.00239045 0)
(-0.00889276 -0.00235576 0)
(-0.00809337 -0.00230866 0)
(-0.00731121 -0.0022489 0)
(-0.00655039 -0.00217632 0)
(-0.00581504 -0.00209084 0)
(-0.00510927 -0.00199248 0)
(-0.00443713 -0.00188138 0)
(-0.00380253 -0.00175786 0)
(-0.00320922 -0.00162241 0)
(-0.00266072 -0.00147578 0)
(-0.00216019 -0.00131903 0)
(-0.00171039 -0.00115364 0)
(-0.0013135 -0.000981609 0)
(-0.00097106 -0.000805601 0)
(-0.00068372 -0.000629184 0)
(-0.000451125 -0.000457078 0)
(-0.000271688 -0.000295506 0)
(-0.000142347 -0.000152639 0)
(-5.82975e-05 -3.9066e-05 0)
(-1.3238e-05 3.15386e-05 0)
(2.07481e-07 4.00314e-05 0)
(-2.68277e-06 -3.10914e-05 0)
(-3.03983e-05 1.43902e-05 0)
(-0.000104004 0.000133116 0)
(-0.000227314 0.000299155 0)
(-0.000404791 0.000497221 0)
(-0.000640202 0.000715679 0)
(-0.000935739 0.000945237 0)
(-0.00129225 0.00117858 0)
(-0.00170945 0.00141006 0)
(-0.00218615 0.00163534 0)
(-0.00272032 0.00185114 0)
(-0.00330933 0.00205498 0)
(-0.00394997 0.00224508 0)
(-0.00463864 0.00242014 0)
(-0.00537145 0.00257929 0)
(-0.00614423 0.00272195 0)
(-0.00695268 0.00284782 0)
(-0.00779239 0.00295679 0)
(-0.0086589 0.00304891 0)
(-0.00954774 0.00312436 0)
(-0.0104545 0.00318343 0)
(-0.0113747 0.00322647 0)
(-0.0123041 0.00325392 0)
(-0.0132384 0.00326625 0)
(-0.0141736 0.00326398 0)
(-0.0151057 0.00324766 0)
(-0.0160309 0.00321784 0)
(-0.0169454 0.0031751 0)
(-0.0178457 0.00312005 0)
(-0.0187285 0.00305326 0)
(-0.0195904 0.00297534 0)
(-0.0204285 0.00288687 0)
(-0.0212399 0.00278844 0)
(-0.0220217 0.00268065 0)
(-0.0227714 0.00256405 0)
(-0.0234866 0.00243922 0)
(-0.024165 0.0023067 0)
(-0.0248044 0.00216705 0)
(-0.0254029 0.0020208 0)
(-0.0259588 0.00186848 0)
(-0.0264703 0.0017106 0)
(-0.0269358 0.00154767 0)
(-0.0273542 0.0013802 0)
(-0.027724 0.00120868 0)
(-0.0280442 0.00103359 0)
(-0.0283139 0.000855437 0)
(-0.0285322 0.000674688 0)
(-0.0286985 0.000491831 0)
(-0.0288123 0.000307351 0)
(-0.0288732 0.000121733 0)
(-0.0288808 -6.45354e-05 0)
(-0.0288352 -0.000250959 0)
(-0.0287363 -0.000437036 0)
(-0.0285844 -0.000622254 0)
(-0.0283797 -0.000806097 0)
(-0.0281228 -0.000988038 0)
(-0.0278142 -0.00116754 0)
(-0.0274549 -0.00134404 0)
(-0.0270457 -0.00151698 0)
(-0.0265877 -0.00168578 0)
(-0.0260822 -0.00184986 0)
(-0.0255307 -0.0020086 0)
(-0.0249348 -0.0021614 0)
(-0.0242963 -0.00230762 0)
(-0.0236171 -0.00244662 0)
(-0.0228994 -0.00257776 0)
(-0.0221456 -0.00270038 0)
(-0.0213582 -0.00281381 0)
(-0.0205397 -0.0029174 0)
(-0.0196932 -0.00301047 0)
(-0.0188218 -0.00309235 0)
(-0.0179285 -0.00316239 0)
(-0.0170169 -0.00321993 0)
(-0.0160906 -0.00326433 0)
(-0.0151533 -0.00329497 0)
(-0.0142088 -0.00331126 0)
(-0.0132614 -0.00331262 0)
(-0.0123152 -0.00329853 0)
(-0.0113744 -0.0032685 0)
(-0.0104436 -0.0032221 0)
(-0.00952715 -0.00315897 0)
(-0.00862972 -0.00307883 0)
(-0.00775588 -0.0029815 0)
(-0.00691022 -0.0028669 0)
(-0.00609729 -0.00273512 0)
(-0.00532155 -0.0025864 0)
(-0.00458732 -0.00242121 0)
(-0.00389873 -0.00224029 0)
(-0.00325962 -0.00204468 0)
(-0.00267348 -0.00183585 0)
(-0.00214332 -0.00161578 0)
(-0.00167158 -0.00138709 0)
(-0.00126003 -0.00115323 0)
(-0.000909578 -0.000918711 0)
(-0.000620157 -0.000689347 0)
(-0.000390575 -0.000472647 0)
(-0.000218288 -0.000278242 0)
(-9.91772e-05 -0.000118341 0)
(-2.85795e-05 -8.39208e-06 0)
(-2.42309e-06 3.04225e-05 0)
(-5.39594e-06 -1.23434e-05 0)
(-4.64211e-05 7.76698e-05 0)
(-0.000146951 0.000247368 0)
(-0.00030718 0.000469605 0)
(-0.000529655 0.000727684 0)
(-0.000817265 0.00100863 0)
(-0.00117151 0.00130187 0)
(-0.00159267 0.00159898 0)
(-0.00208003 0.00189332 0)
(-0.00263203 0.0021797 0)
(-0.00324636 0.00245412 0)
(-0.00392005 0.00271353 0)
(-0.00464962 0.00295565 0)
(-0.00543117 0.00317882 0)
(-0.00626046 0.00338186 0)
(-0.007133 0.00356402 0)
(-0.00804412 0.00372484 0)
(-0.00898905 0.00386412 0)
(-0.00996292 0.00398187 0)
(-0.0109609 0.00407829 0)
(-0.0119781 0.00415368 0)
(-0.0130097 0.00420849 0)
(-0.014051 0.00424321 0)
(-0.0150974 0.00425845 0)
(-0.0161443 0.00425483 0)
(-0.0171874 0.00423304 0)
(-0.0182225 0.00419379 0)
(-0.0192454 0.0041378 0)
(-0.0202523 0.00406584 0)
(-0.0212394 0.00397865 0)
(-0.0222032 0.003877 0)
(-0.0231401 0.00376165 0)
(-0.024047 0.00363335 0)
(-0.0249209 0.00349285 0)
(-0.0257588 0.00334089 0)
(-0.0265581 0.00317821 0)
(-0.0273163 0.00300552 0)
(-0.0280308 0.00282353 0)
(-0.0286997 0.00263294 0)
(-0.0293208 0.00243443 0)
(-0.0298923 0.00222867 0)
(-0.0304125 0.00201634 0)
(-0.0308798 0.00179807 0)
(-0.031293 0.00157453 0)
(-0.0316507 0.00134635 0)
(-0.0319519 0.00111415 0)
(-0.0321957 0.000878589 0)
(-0.0323814 0.000640283 0)
(-0.0325084 0.000399867 0)
(-0.0325763 0.000157977 0)
(-0.0325847 -8.47491e-05 0)
(-0.0325335 -0.000327664 0)
(-0.0324229 -0.000570111 0)
(-0.032253 -0.000811425 0)
(-0.0320242 -0.00105093 0)
(-0.031737 -0.00128794 0)
(-0.0313921 -0.00152175 0)
(-0.0309905 -0.00175164 0)
(-0.0305332 -0.00197686 0)
(-0.0300214 -0.00219669 0)
(-0.0294566 -0.00241034 0)
(-0.0288403 -0.00261703 0)
(-0.0281745 -0.00281596 0)
(-0.027461 -0.00300632 0)
(-0.0267022 -0.00318728 0)
(-0.0259003 -0.003358 0)
(-0.025058 -0.00351764 0)
(-0.024178 -0.00366534 0)
(-0.0232635 -0.00380023 0)
(-0.0223175 -0.00392147 0)
(-0.0213434 -0.00402818 0)
(-0.020345 -0.00411954 0)
(-0.0193259 -0.0041947 0)
(-0.0182901 -0.00425284 0)
(-0.0172417 -0.00429317 0)
(-0.0161852 -0.00431495 0)
(-0.0151249 -0.00431745 0)
(-0.0140655 -0.00430002 0)
(-0.0130117 -0.00426206 0)
(-0.0119684 -0.00420303 0)
(-0.0109406 -0.00412252 0)
(-0.00993311 -0.00402019 0)
(-0.00895108 -0.00389585 0)
(-0.00799949 -0.00374946 0)
(-0.00708327 -0.00358117 0)
(-0.00620728 -0.00339137 0)
(-0.00537621 -0.00318069 0)
(-0.0045945 -0.00295013 0)
(-0.00386634 -0.00270105 0)
(-0.00319549 -0.00243536 0)
(-0.00258528 -0.00215556 0)
(-0.00203844 -0.0018649 0)
(-0.00155702 -0.00156761 0)
(-0.00114229 -0.00126906 0)
(-0.000794595 -0.000976092 0)
(-0.000513298 -0.000697355 0)
(-0.000296549 -0.000443719 0)
(-0.000141102 -0.000228689 0)
(-4.41261e-05 -6.90295e-05 0)
(-5.01262e-06 1.27766e-05 0)
(-7.97476e-06 1.45781e-05 0)
(-6.21245e-05 0.000162347 0)
(-0.000189671 0.000393831 0)
(-0.000387204 0.000681357 0)
(-0.000655296 0.00100728 0)
(-0.000995833 0.00135756 0)
(-0.00140948 0.00172063 0)
(-0.00189581 0.0020871 0)
(-0.00245361 0.00244944 0)
(-0.00308086 0.00280169 0)
(-0.00377486 0.00313917 0)
(-0.00453232 0.00345827 0)
(-0.00534943 0.00375623 0)
(-0.00622197 0.00403101 0)
(-0.00714538 0.00428115 0)
(-0.00811485 0.00450565 0)
(-0.00912538 0.0047039 0)
(-0.0101718 0.00487562 0)
(-0.011249 0.00502077 0)
(-0.0123517 0.00513953 0)
(-0.0134747 0.00523225 0)
(-0.0146127 0.00529942 0)
(-0.0157608 0.00534163 0)
(-0.0169139 0.0053596 0)
(-0.0180671 0.00535407 0)
(-0.0192156 0.00532587 0)
(-0.020355 0.00527587 0)
(-0.0214807 0.00520496 0)
(-0.0225885 0.00511406 0)
(-0.0236743 0.0050041 0)
(-0.0247343 0.00487602 0)
(-0.0257646 0.00473077 0)
(-0.0267618 0.00456928 0)
(-0.0277226 0.00439248 0)
(-0.0286438 0.00420129 0)
(-0.0295224 0.00399664 0)
(-0.0303558 0.00377941 0)
(-0.0311412 0.00355049 0)
(-0.0318763 0.00331077 0)
(-0.0325589 0.00306108 0)
(-0.0331869 0.00280229 0)
(-0.0337585 0.00253522 0)
(-0.0342721 0.0022607 0)
(-0.034726 0.00197953 0)
(-0.035119 0.00169254 0)
(-0.03545 0.00140051 0)
(-0.0357178 0.00110424 0)
(-0.0359218 0.00080453 0)
(-0.0360612 0.000502176 0)
(-0.0361357 0.000197978 0)
(-0.0361448 -0.000107258 0)
(-0.0360886 -0.000412715 0)
(-0.0359669 -0.00071757 0)
(-0.0357801 -0.00102099 0)
(-0.0355286 -0.00132211 0)
(-0.035213 -0.00162008 0)
(-0.034834 -0.00191401 0)
(-0.0343926 -0.00220299 0)
(-0.03389 -0.0024861 0)
(-0.0333276 -0.0027624 0)
(-0.032707 -0.00303092 0)
(-0.0320298 -0.0032907 0)
(-0.0312981 -0.00354071 0)
(-0.030514 -0.00377995 0)
(-0.02968 -0.00400739 0)
(-0.0287988 -0.00422197 0)
(-0.027873 -0.00442264 0)
(-0.0269058 -0.00460833 0)
(-0.0259004 -0.00477798 0)
(-0.0248604 -0.00493051 0)
(-0.0237895 -0.00506487 0)
(-0.0226914 -0.00518 0)
(-0.0215705 -0.00527488 0)
(-0.0204309 -0.0053485 0)
(-0.0192773 -0.00539988 0)
(-0.0181142 -0.00542812 0)
(-0.0169466 -0.00543234 0)
(-0.0157794 -0.00541173 0)
(-0.0146178 -0.00536559 0)
(-0.013467 -0.00529329 0)
(-0.0123324 -0.00519433 0)
(-0.0112193 -0.00506835 0)
(-0.0101331 -0.00491515 0)
(-0.00907917 -0.00473474 0)
(-0.00806289 -0.00452735 0)
(-0.00708943 -0.0042935 0)
(-0.00616381 -0.00403403 0)
(-0.00529081 -0.00375019 0)
(-0.00447492 -0.00344372 0)
(-0.00372025 -0.00311693 0)
(-0.00303041 -0.00277285 0)
(-0.00240849 -0.00241536 0)
(-0.0018569 -0.00204939 0)
(-0.00137734 -0.00168114 0)
(-0.000970682 -0.00131836 0)
(-0.00063696 -0.00097067 0)
(-0.000375134 -0.000649952 0)
(-0.000182947 -0.000370703 0)
(-5.94638e-05 -0.000150599 0)
(-7.50371e-06 -1.28383e-05 0)
(-1.0405e-05 4.94254e-05 0)
(-7.7333e-05 0.00026813 0)
(-0.000231525 0.000572422 0)
(-0.000466145 0.000934558 0)
(-0.000779826 0.00133629 0)
(-0.00117337 0.00176284 0)
(-0.00164651 0.00220183 0)
(-0.00219807 0.0026431 0)
(-0.00282621 0.00307836 0)
(-0.00352839 0.00350096 0)
(-0.00430149 0.00390559 0)
(-0.00514181 0.00428811 0)
(-0.00604521 0.00464531 0)
(-0.00700711 0.00497478 0)
(-0.00802265 0.00527477 0)
(-0.00908668 0.00554405 0)
(-0.0101939 0.00578185 0)
(-0.0113388 0.00598779 0)
(-0.0125159 0.00616177 0)
(-0.0137197 0.00630396 0)
(-0.0149445 0.00641473 0)
(-0.0161848 0.00649463 0)
(-0.0174353 0.00654436 0)
(-0.0186905 0.00656472 0)
(-0.0199452 0.0065566 0)
(-0.0211945 0.00652097 0)
(-0.0224333 0.00645886 0)
(-0.0236569 0.00637133 0)
(-0.0248607 0.00625948 0)
(-0.0260404 0.00612443 0)
(-0.0271918 0.0059673 0)
(-0.0283108 0.00578924 0)
(-0.0293937 0.00559137 0)
(-0.0304369 0.00537482 0)
(-0.031437 0.00514072 0)
(-0.0323908 0.00489016 0)
(-0.0332954 0.00462424 0)
(-0.0341478 0.00434405 0)
(-0.0349457 0.00405064 0)
(-0.0356865 0.00374506 0)
(-0.036368 0.00342834 0)
(-0.0369883 0.00310151 0)
(-0.0375455 0.00276556 0)
(-0.0380381 0.0024215 0)
(-0.0384645 0.0020703 0)
(-0.0388236 0.00171296 0)
(-0.0391142 0.00135043 0)
(-0.0393355 0.000983709 0)
(-0.0394867 0.000613761 0)
(-0.0395675 0.000241569 0)
(-0.0395774 -0.00013188 0)
(-0.0395163 -0.000505588 0)
(-0.0393843 -0.000878544 0)
(-0.0391817 -0.00124972 0)
(-0.0389088 -0.00161809 0)
(-0.0385663 -0.00198258 0)
(-0.0381551 -0.0023421 0)
(-0.0376763 -0.00269557 0)
(-0.037131 -0.00304184 0)
(-0.0365208 -0.00337978 0)
(-0.0358473 -0.00370821 0)
(-0.0351125 -0.00402593 0)
(-0.0343186 -0.00433172 0)
(-0.0334677 -0.00462435 0)
(-0.0325627 -0.00490256 0)
(-0.0316062 -0.00516507 0)
(-0.0306014 -0.00541061 0)
(-0.0295515 -0.00563789 0)
(-0.02846 -0.0058456 0)
(-0.0273307 -0.00603246 0)
(-0.0261676 -0.00619719 0)
(-0.0249749 -0.00633852 0)
(-0.0237571 -0.00645521 0)
(-0.0225186 -0.00654606 0)
(-0.0212645 -0.00660991 0)
(-0.0199997 -0.00664566 0)
(-0.0187294 -0.00665228 0)
(-0.0174589 -0.00662883 0)
(-0.0161938 -0.00657447 0)
(-0.0149397 -0.00648848 0)
(-0.0137022 -0.0063703 0)
(-0.012487 -0.00621952 0)
(-0.0113 -0.00603595 0)
(-0.0101468 -0.00581965 0)
(-0.00903311 -0.00557094 0)
(-0.00796447 -0.00529048 0)
(-0.00694622 -0.00497934 0)
(-0.00598347 -0.00463903 0)
(-0.00508105 -0.00427164 0)
(-0.00424339 -0.00387989 0)
(-0.00347446 -0.00346733 0)
(-0.00277773 -0.00303842 0)
(-0.00215604 -0.00259875 0)
(-0.00161159 -0.00215527 0)
(-0.00114586 -0.0017165 0)
(-0.000759639 -0.00129288 0)
(-0.000452768 -0.000897082 0)
(-0.000224029 -0.000544334 0)
(-7.43637e-05 -0.000252875 0)
(-9.87133e-06 -4.62032e-05 0)
(-1.26919e-05 9.18686e-05 0)
(-9.19546e-05 0.000394503 0)
(-0.000272157 0.000782661 0)
(-0.000543282 0.00122882 0)
(-0.000902063 0.00171446 0)
(-0.00134821 0.00222428 0)
(-0.00188053 0.00274533 0)
(-0.00249699 0.00326679 0)
(-0.00319508 0.00377975 0)
(-0.00397169 0.00427697 0)
(-0.0048232 0.0047526 0)
(-0.0057455 0.00520199 0)
(-0.00673404 0.00562154 0)
(-0.0077839 0.00600846 0)
(-0.00888986 0.00636073 0)
(-0.0100465 0.00667691 0)
(-0.0112481 0.00695606 0)
(-0.0124889 0.00719768 0)
(-0.0137631 0.00740164 0)
(-0.0150649 0.00756808 0)
(-0.0163882 0.0076974 0)
(-0.0177273 0.00779022 0)
(-0.0190765 0.00784731 0)
(-0.02043 0.00786959 0)
(-0.0217824 0.00785808 0)
(-0.0231283 0.00781392 0)
(-0.0244624 0.00773828 0)
(-0.0257798 0.00763241 0)
(-0.0270755 0.00749761 0)
(-0.0283449 0.00733517 0)
(-0.0295835 0.00714643 0)
(-0.0307872 0.00693272 0)
(-0.0319518 0.0066954 0)
(-0.0330736 0.00643578 0)
(-0.0341488 0.00615521 0)
(-0.0351742 0.00585499 0)
(-0.0361465 0.00553642 0)
(-0.0370628 0.0052008 0)
(-0.0379203 0.00484938 0)
(-0.0387164 0.00448341 0)
(-0.0394488 0.00410413 0)
(-0.0401154 0.00371276 0)
(-0.0407141 0.00331049 0)
(-0.0412434 0.00289852 0)
(-0.0417016 0.00247802 0)
(-0.0420874 0.00205017 0)
(-0.0423997 0.00161614 0)
(-0.0426375 0.00117709 0)
(-0.0428 0.000734199 0)
(-0.0428868 0.000288629 0)
(-0.0428976 -0.00015843 0)
(-0.042832 -0.000605785 0)
(-0.0426903 -0.00105223 0)
(-0.0424727 -0.00149653 0)
(-0.0421796 -0.00193746 0)
(-0.0418118 -0.00237373 0)
(-0.0413702 -0.00280406 0)
(-0.0408558 -0.00322712 0)
(-0.0402701 -0.00364158 0)