/*--------------------------------*- C++ -*----------------------------------*\
| =========                 |                                                 |
| \\      /  F ield         | OpenFOAM: The Open Source CFD Toolbox           |
|  \\    /   O peration     | Version:  2212                                  |
|   \\  /    A nd           | Website:  www.openfoam.com                      |
|    \\/     M anipulation  |                                                 |
\*---------------------------------------------------------------------------*/
FoamFile
{
    version     2.0;
    format      ascii;
    arch        "LSB;label=32;scalar=64";
    class       volScalarField;
    location    "0.0915";
    object      p;
}
// * * * * * * * * * * * * * * * * * * * * * * * * * * * * * * * * * * * * * //

dimensions      [0 2 -2 0 0 0 0];

internalField   nonuniform List<scalar> 
10000
(
6.05828e-08
9.42181e-05
-0.000125569
-0.000703923
-0.00159225
-0.00273511
-0.00407629
-0.00556188
-0.00714306
-0.00877663
-0.0104247
-0.0120542
-0.0136363
-0.0151461
-0.016562
-0.0178653
-0.0190402
-0.020073
-0.0209524
-0.021669
-0.022215
-0.0225844
-0.0227725
-0.022776
-0.0225928
-0.022222
-0.0216637
-0.0209189
-0.0199895
-0.0188784
-0.017589
-0.0161256
-0.0144929
-0.0126964
-0.0107421
-0.00863641
-0.00638639
-0.00399954
-0.00148379
0.00115256
0.00390076
0.00675177
0.00969622
0.0127244
0.0158263
0.0189918
0.0222104
0.0254715
0.0287643
0.0320779
0.0354012
0.0387231
0.0420323
0.0453176
0.0485677
0.0517713
0.0549172
0.0579944
0.0609919
0.063899
0.0667054
0.0694007
0.0719749
0.0744185
0.0767222
0.0788773
0.0808757
0.0827097
0.0843724
0.0858574
0.0871594
0.0882736
0.0891964
0.0899248
0.0904568
0.0907918
0.09093
0.090873
0.0906239
0.090187
0.0895685
0.0887756
0.0878178
0.0867061
0.0854536
0.0840758
0.0825903
0.0810174
0.0793806
0.0777061
0.076024
0.0743681
0.0727767
0.071293
0.069965
0.0688447
0.0679854
0.0674378
0.0672441
0.0673526
-9.24525e-05
2.06676e-06
-0.000211405
-0.000727964
-0.00149762
-0.00248147
-0.00363839
-0.00492574
-0.00630303
-0.00773314
-0.00918252
-0.0106212
-0.0120227
-0.0133635
-0.0146232
-0.0157839
-0.0168301
-0.0177486
-0.0185282
-0.0191592
-0.019634
-0.0199463
-0.0200912
-0.0200652
-0.0198658
-0.0194916
-0.0189424
-0.018219
-0.0173227
-0.0162559
-0.0150217
-0.0136239
-0.0120667
-0.0103551
-0.00849469
-0.00649141
-0.00435181
-0.0020829
0.000307854
0.0028127
0.0054234
0.0081314
0.0109278
0.0138034
0.0167489
0.0197544
0.0228102
0.025906
0.0290318
0.0321771
0.0353315
0.0384843
0.0416249
0.0447426
0.0478267
0.0508665
0.0538516
0.0567713
0.0596155
0.062374
0.0650371
0.067595
0.0700384
0.0723584
0.0745462
0.0765939
0.0784938
0.0802389
0.0818229
0.08324
0.0844853
0.0855546
0.0864448
0.0871533
0.0876786
0.0880203
0.0881792
0.0881572
0.0879574
0.0875846
0.0870447
0.0863454
0.0854957
0.0845066
0.083391
0.0821636
0.0808415
0.0794442
0.0779934
0.0765139
0.0750329
0.0735813
0.0721928
0.0709043
0.0697555
0.0687873
0.0680386
0.0675448
0.067352
0.067461
0.000128794
0.000217894
4.50251e-06
-0.000480435
-0.00118275
-0.00207009
-0.00310912
-0.00426438
-0.0055014
-0.00678787
-0.00809404
-0.00939287
-0.01066
-0.0118737
-0.0130146
-0.0140659
-0.0150128
-0.0158425
-0.016544
-0.0171079
-0.0175266
-0.0177937
-0.0179043
-0.0178548
-0.0176424
-0.0172656
-0.0167238
-0.0160176
-0.0151481
-0.0141173
-0.0129279
-0.0115834
-0.0100876
-0.00844519
-0.00666127
-0.00474148
-0.00269199
-0.000519369
0.00176932
0.00416669
0.00666498
0.00925604
0.0119314
0.0146823
0.0174997
0.0203745
0.0232971
0.0262579
0.0292472
0.0322549
0.0352713
0.038286
0.041289
0.0442701
0.0472189
0.0501253
0.0529793
0.0557709
0.0584904
0.0611282
0.0636748
0.0661213
0.0684587
0.0706785
0.0727726
0.0747334
0.0765537
0.0782271
0.0797476
0.0811099
0.0823096
0.0833429
0.0842068
0.0848992
0.0854189
0.0857659
0.085941
0.0859463
0.0857853
0.0854625
0.0849842
0.0843576
0.0835918
0.0826972
0.0816865
0.0805738
0.0793753
0.0781095
0.0767966
0.0754595
0.0741234
0.0728159
0.0715671
0.0704089
0.0693752
0.0685001
0.0678152
0.0673504
0.0671583
0.067268
0.000708013
0.000737004
0.00049177
5.91996e-06
-0.000670514
-0.00150824
-0.00247821
-0.00354981
-0.00469318
-0.00587997
-0.00708367
-0.00827998
-0.00944671
-0.0105638
-0.0116134
-0.0125796
-0.0134484
-0.0142077
-0.0148468
-0.0153569
-0.0157302
-0.0159608
-0.0160437
-0.0159751
-0.0157523
-0.0153737
-0.0148386
-0.0141471
-0.0133003
-0.0123
-0.0111487
-0.00984929
-0.00840562
-0.00682195
-0.00510308
-0.00325433
-0.00128151
0.000809122
0.00301088
0.00531671
0.00771919
0.0102106
0.0127827
0.0154273
0.0181356
0.0208988
0.0237079
0.0265537
0.0294267
0.0323174
0.0352163
0.0381136
0.0409996
0.0438644
0.0466984
0.0494916
0.0522345
0.0549175
0.0575314
0.060067
0.0625153
0.0648676
0.0671155
0.0692509
0.071266
0.0731537
0.0749072
0.0765204
0.0779876
0.0793039
0.0804653
0.0814683
0.08231
0.0829887
0.0835034
0.0838541
0.084042
0.0840692
0.0839391
0.0836564
0.083227
0.0826581
0.0819585
0.0811382
0.0802092
0.0791851
0.0780812
0.0769147
0.0757044
0.0744714
0.0732386
0.0720311
0.0708756
0.0698003
0.0688346
0.0680081
0.0673486
0.0668836
0.0666637
0.0667226
0.00159815
0.00151087
0.00119772
0.00068289
3.93118e-06
-0.000813048
-0.00174251
-0.00275814
-0.0038341
-0.00494569
-0.00606949
-0.00718383
-0.00826865
-0.00930574
-0.0102786
-0.0111725
-0.0119744
-0.0126729
-0.0132579
-0.013721
-0.0140547
-0.0142533
-0.0143118
-0.0142267
-0.0139951
-0.0136155
-0.0130869
-0.0124094
-0.011584
-0.0106122
-0.00949619
-0.00823887
-0.00684369
-0.00531465
-0.00365628
-0.00187363
2.78163e-05
0.00204212
0.00416291
0.0063835
0.00869675
0.0110953
0.0135713
0.0161168
0.0187235
0.0213829
0.0240864
0.026825
0.0295899
0.0323717
0.0351614
0.0379496
0.0407268
0.0434838
0.046211
0.0488993
0.0515391
0.0541217
0.0566378
0.0590789
0.0614362
0.0637016
0.0658669
0.0679243
0.0698667
0.0716869
0.0733788
0.0749365
0.0763547
0.0776288
0.0787548
0.0797296
0.0805508
0.0812165
0.0817261
0.0820795
0.0822781
0.0823241
0.0822209
0.081973
0.081586
0.081067
0.0804242
0.0796674
0.078808
0.0778587
0.0768337
0.075749
0.074622
0.0734719
0.0723196
0.0711875
0.0700993
0.0690796
0.0681541
0.0673485
0.0666873
0.0661957
0.0659132
0.0658657
0.00274707
0.0025032
0.00209213
0.00152315
0.000816459
-5.19185e-06
-0.000919317
-0.00190355
-0.00293572
-0.0039944
-0.0050591
-0.00611062
-0.00713103
-0.00810388
-0.00901417
-0.00984838
-0.0105945
-0.0112417
-0.0117809
-0.0122039
-0.0125038
-0.012675
-0.0127128
-0.0126138
-0.0123752
-0.0119953
-0.0114733
-0.0108093
-0.0100039
-0.00905853
-0.00797534
-0.00675692
-0.00540654
-0.00392796
-0.00232547
-0.000603856
0.0012317
0.00317554
0.00522155
0.00736339
0.00959426
0.011907
0.0142943
0.0167483
0.0192612
0.0218248
0.0244307
0.0270706
0.0297356
0.0324171
0.0351062
0.0377938
0.040471
0.0431286
0.0457578
0.0483495
0.0508948
0.053385
0.0558115
0.0581659
0.06044
0.0626257
0.0647154
0.0667017
0.0685774
0.0703361
0.0719718
0.0734788
0.0748523
0.0760876
0.0771813
0.0781303
0.0789324
0.0795858
0.08009
0.0804451
0.0806524
0.0807141
0.0806336
0.080415
0.0800639
0.0795869
0.0789918
0.078288
0.0774862
0.0765981
0.0756371
0.0746176
0.0735556
0.0724688
0.0713758
0.0702966
0.0692521
0.0682638
0.0673538
0.0665443
0.0658571
0.0653144
0.0649398
0.0647454
0.00410271
0.00367613
0.00314445
0.00250008
0.00174378
0.000895127
-2.61082e-05
-0.00100111
-0.00201104
-0.00303745
-0.0040625
-0.00506933
-0.00604203
-0.00696589
-0.00782738
-0.00861423
-0.00931541
-0.00992112
-0.0104227
-0.0108127
-0.0110847
-0.0112333
-0.0112541
-0.0111439
-0.0109001
-0.010521
-0.0100058
-0.00935452
-0.00856778
-0.00764689
-0.0065938
-0.00541099
-0.00410158
-0.00266912
-0.00111763
0.000548294
0.00232369
0.0042032
0.00618101
0.008251
0.0104067
0.0126412
0.0149474
0.017318
0.0197453
0.0222215
0.0247386
0.0272885
0.0298626
0.0324527
0.0350502
0.0376464
0.0402325
0.0428
0.0453402
0.0478443
0.0503038
0.0527104
0.0550558
0.0573318
0.0595306
0.0616444
0.0636659
0.0655878
0.0674036
0.0691068
0.0706918
0.0721532
0.0734862
0.0746867
0.0757511
0.0766767
0.0774611
0.0781029
0.0786015
0.0789571
0.0791711
0.0792454
0.0791833
0.0789887
0.0786668
0.0782239
0.0776675
0.0770064
0.0762503
0.0754102
0.0744984
0.0735281
0.0725139
0.0714717
0.0704182
0.069371
0.0683486
0.0673696
0.066453
0.0656176
0.064883
0.0642685
0.0637791
0.063411
0.00561598
0.00499092
0.00432244
0.00358595
0.00276218
0.00186795
0.000920755
-6.38649e-05
-0.00107011
-0.00208217
-0.00308466
-0.00406286
-0.00500281
-0.00589144
-0.00671667
-0.00746745
-0.00813382
-0.00870686
-0.00917865
-0.00954229
-0.00979184
-0.00992234
-0.00992983
-0.00981114
-0.00956388
-0.00918653
-0.00867833
-0.00803926
-0.00726994
-0.00637161
-0.00534616
-0.00419593
-0.00292384
-0.00153333
-2.82777e-05
0.001587
0.00330775
0.00512882
0.00704466
0.00904937
0.0111367
0.0133001
0.0155328
0.0178276
0.0201773
0.0225742
0.0250107
0.0274789
0.0299707
0.032478
0.0349926
0.037506
0.0400099
0.0424959
0.0449557
0.0473808
0.049763
0.0520943
0.0543666
0.0565722
0.0587033
0.0607525
0.0627127
0.064577
0.066339
0.0679926
0.0695322
0.0709526
0.0722495
0.0734186
0.0744567
0.075361
0.0761293
0.0767601
0.0772529
0.077608
0.0778267
0.0779107
0.0778629
0.0776872
0.0773883
0.0769724
0.0764463
0.0758181
0.075097
0.0742929
0.073417
0.0724815
0.0714995
0.0704853
0.0694538
0.0684205
0.0674014
0.0664128
0.0654707
0.0645911
0.0637914
0.0630883
0.0624678
0.0619095
0.00724327
0.00641122
0.00559508
0.00475387
0.00384856
0.00289367
0.00190486
0.00089475
-0.000123581
-0.00113674
-0.00213154
-0.00309524
-0.0040157
-0.00488139
-0.00568164
-0.00640661
-0.00704736
-0.00759586
-0.00804498
-0.0083884
-0.00862071
-0.00873743
-0.00873488
-0.0086102
-0.00836125
-0.00798661
-0.0074856
-0.00685823
-0.00610521
-0.00522771
-0.00422751
-0.00310691
-0.00186876
-0.000516312
0.000946728
0.00251619
0.00418752
0.00595576
0.00781555
0.00976127
0.0117869
0.0138861
0.0160523
0.0182787
0.0205582
0.0228836
0.0252474
0.027642
0.0300597
0.0324924
0.0349323
0.0373714
0.0398014
0.0422142
0.0446019
0.0469562
0.0492692
0.0515331
0.0537402
0.0558828
0.0579535
0.0599451
0.0618508
0.0636638
0.0653779
0.0669873
0.0684865
0.0698707
0.0711353
0.0722766
0.0732911
0.0741762
0.0749297
0.0755502
0.0760372
0.0763909
0.0766124
0.0767033
0.0766662
0.0765046
0.0762233
0.0758276
0.0753242
0.0747202
0.0740241
0.073245
0.0723931
0.0714795
0.0705161
0.0695153
0.0684905
0.0674552
0.0664234
0.0654091
0.0644259
0.0634869
0.0626079
0.0618034
0.0610405
0.0602829
0.00894678
0.00790418
0.00693362
0.00597852
0.00498079
0.00395315
0.00290985
0.00186099
0.000817194
-0.000210304
-0.00121032
-0.00217191
-0.00308458
-0.00393831
-0.00472372
-0.00543213
-0.00605562
-0.00658704
-0.00702
-0.00734887
-0.00756876
-0.0076756
-0.00766616
-0.00753786
-0.00728878
-0.00691769
-0.00642406
-0.00580798
-0.00507012
-0.00421172
-0.00323454
-0.00214081
-0.000933276
0.000384896
0.00181015
0.00333844
0.00496539
0.00668619
0.0084957
0.0103885
0.0123588
0.0144004
0.016507
0.0186721
0.0208888
0.0231501
0.0254489
0.0277777
0.030129
0.0324951
0.0348685
0.0372412
0.0396054
0.0419531
0.0442766
0.0465681
0.0488197
0.0510239
0.0531732
0.0552602
0.0572775
0.0592183
0.0610758
0.0628437
0.0645157
0.0660862
0.0675499
0.0689022
0.0701386
0.0712553
0.0722489
0.0731169
0.073857
0.074468
0.0749492
0.0753007
0.0755233
0.0756185
0.0755887
0.0754372
0.0751683
0.0747869
0.0742989
0.0737111
0.0730311
0.0722673
0.0714288
0.0705256
0.0695684
0.0685682
0.0675367
0.0664858
0.0654275
0.064374
0.0633365
0.062326
0.0613566
0.0604413
0.0595287
0.0585676
0.0106939
0.00944049
0.00831177
0.00723638
0.00613808
0.00502819
0.00391993
0.00282127
0.00174072
0.000687593
-0.000328738
-0.00129899
-0.00221416
-0.00306562
-0.00384521
-0.00454535
-0.00515912
-0.00568024
-0.00610299
-0.00642242
-0.00663426
-0.0067349
-0.00672142
-0.00659162
-0.00634386
-0.00597711
-0.00549096
-0.00488562
-0.00416185
-0.0033209
-0.00236455
-0.00129498
-0.000114863
0.0011727
0.00256424
0.00405585
0.00564328
0.00732189
0.0090867
0.0109324
0.0128535
0.0148439
0.0168977
0.0190083
0.0211693
0.0233738
0.0256149
0.0278854
0.0301781
0.0324854
0.0348
0.0371142
0.0394203
0.0417107
0.0439779
0.0462141
0.0484119
0.0505639
0.0526626
0.0547009
0.0566717
0.0585682
0.060384
0.0621126
0.0637481
0.0652849
0.066718
0.0680427
0.0692546
0.0703499
0.0713254
0.0721783
0.0729066
0.0735089
0.0739843
0.0743329
0.0745552
0.0746526
0.0746272
0.0744819
0.0742207
0.0738481
0.0733693
0.0727906
0.0721187
0.0713613
0.0705267
0.0696237
0.0686619
0.067651
0.0666012
0.0655229
0.0644266
0.0633225
0.0622201
0.0611281
0.0600598
0.0590269
0.0579605
0.0567951
0.0124565
0.0109942
0.00970571
0.00850576
0.00730086
0.0061014
0.00491987
0.00376238
0.00263564
0.00154731
0.000505158
-0.000483076
-0.00140972
-0.00226739
-0.00304914
-0.00374843
-0.00435919
-0.004876
-0.00529395
-0.00560865
-0.00581637
-0.005914
-0.00589909
-0.00576972
-0.00552453
-0.00516273
-0.0046841
-0.00408894
-0.00337814
-0.002553
-0.00161531
-0.000567248
0.000588567
0.00184907
0.00321088
0.00467016
0.00622281
0.00786433
0.00958983
0.0113942
0.013272
0.0152176
0.0172249
0.0192878
0.0213999
0.0235547
0.0257453
0.0279649
0.0302063
0.0324623
0.0347256
0.0369889
0.0392445
0.0414852
0.0437035
0.0458921
0.0480433
0.0501502
0.0522054
0.0542019
0.0561328
0.0579915
0.0597716
0.0614667
0.0630711
0.0645794
0.0659866
0.0672879
0.0684791
0.0695562
0.0705162
0.0713563
0.0720743
0.0726687
0.0731386
0.0734838
0.0737047
0.0738024
0.0737788
0.0736365
0.0733789
0.0730102
0.0725349
0.0719587
0.0712878
0.0705291
0.0696899
0.0687782
0.0678023
0.0667708
0.0656927
0.0645771
0.063433
0.062269
0.0610928
0.0599116
0.058738
0.0575829
0.0563607
0.0549924
0.0142103
0.0125423
0.0110939
0.0097668
0.00845102
0.00715643
0.00589503
0.00467142
0.00349072
0.00235912
0.00128304
0.000268891
-0.00067699
-0.00154835
-0.00233923
-0.00304411
-0.00365785
-0.00417576
-0.00459365
-0.00490775
-0.00511489
-0.00521244
-0.00519834
-0.00507105
-0.0048295
-0.00447313
-0.0040019
-0.0034163
-0.00271732
-0.00190632
-0.000985124
4.4063e-05
0.00117861
0.00241552
0.00375147
0.00518271
0.00670519
0.00831454
0.010006
0.0117746
0.013615
0.0155217
0.0174889
0.0195106
0.0215806
0.0236925
0.0258396
0.0280154
0.0302128
0.0324247
0.0346441
0.0368638
0.0390764
0.0412747
0.0434516
0.0455995
0.0477114
0.0497802
0.0517987
0.0537602
0.0556577
0.0574848
0.0592351
0.0609025
0.0624812
0.063966
0.0653518
0.066634
0.0678081
0.0688704
0.0698176
0.070647
0.0713564
0.0719441
0.0724088
0.0727504
0.0729691
0.0730656
0.0730416
0.0728993
0.0726418
0.0722725
0.0717958
0.0712166
0.0705404
0.0697734
0.0689223
0.0679939
0.0669957
0.0659352
0.0648203
0.0636588
0.0624586
0.0612269
0.05997
0.0586935
0.0574099
0.0561294
0.054751
0.0531826
0.0159342
0.0140644
0.0124572
0.0110015
0.0095718
0.00817789
0.00683151
0.0055359
0.00429487
0.00311336
0.00199652
0.000949587
-2.21545e-05
-0.000913579
-0.00171971
-0.00243588
-0.00305779
-0.00358151
-0.00400354
-0.00432071
-0.00453034
-0.00463033
-0.00461902
-0.00449522
-0.00425813
-0.00390747
-0.00344344
-0.00286668
-0.00217825
-0.00137966
-0.000472812
0.000540086
0.00165641
0.00287317
0.00418707
0.00559442
0.00709126
0.00867328
0.0103359
0.0120741
0.0138828
0.0157566
0.0176899
0.0196768
0.0217111
0.0237868
0.0258973
0.0280362
0.0301966
0.0323716
0.0345543
0.0367375
0.0389143
0.0410775
0.0432199
0.0453344
0.0474139
0.0494514
0.0514401
0.053373
0.0552435
0.057045
0.0587714
0.0604167
0.0619751
0.0634413
0.0648103
0.0660774
0.0672382
0.0682889
0.0692263
0.0700474
0.0707499
0.071332
0.0717923
0.0721303
0.0723462
0.0724404
0.0724142
0.0722695
0.0720088
0.0716354
0.0711529
0.0705657
0.0698787
0.0690975
0.0682279
0.067276
0.0662483
0.0651515
0.0639924
0.062778
0.0615148
0.060209
0.0588657
0.0574893
0.0560921
0.0546846
0.0531503
0.0513853
0.0176099
0.0155425
0.013778
0.0121932
0.0106478
0.00915148
0.00771615
0.00634392
0.00503736
0.00380037
0.00263709
0.00155165
0.000548328
-0.00036867
-0.00119527
-0.00192764
-0.00256227
-0.00309593
-0.00352571
-0.00384908
-0.0040639
-0.00416848
-0.00416157
-0.00404234
-0.00381036
-0.00346555
-0.00300831
-0.00243949
-0.00176033
-0.000972406
-7.76815e-05
0.000921568
0.00202268
0.00322268
0.00451829
0.00590588
0.00738152
0.00894096
0.0105797
0.0122929
0.0140755
0.0159223
0.0178276
0.0197858
0.021791
0.0238371
0.0259177
0.0280265
0.0301567
0.0323017
0.0344546
0.0366086
0.0387566
0.0408915
0.0430065
0.0450944
0.0471484
0.0491614
0.0511268
0.0530376
0.0548873
0.0566693
0.0583777
0.0600064
0.0615497
0.0630022
0.0643589
0.0656151
0.0667665
0.067809
0.0687394
0.0695547
0.0702522
0.0708301
0.0712868
0.0716216
0.0718344
0.0719255
0.0718957
0.0717466
0.0714802
0.0710994
0.0706073
0.0700079
0.0693055
0.0685048
0.0676111
0.0666297
0.0655665
0.0644272
0.0632178
0.0619443
0.0606124
0.0592273
0.057793
0.0563131
0.0548001
0.0532644
0.0515755
0.0496176
0.0192213
0.0169606
0.0150407
0.0133269
0.0116647
0.0100639
0.00853653
0.00708393
0.0057077
0.00441072
0.00319622
0.00206744
0.00102777
8.05439e-05
-0.000771005
-0.0015238
-0.00217499
-0.00272207
-0.00316276
-0.00349503
-0.00371724
-0.00382817
-0.003827
-0.00371322
-0.00348668
-0.0031476
-0.00269663
-0.00213478
-0.00146345
-0.000684319
0.00020053
0.00118876
0.00227768
0.00346432
0.00474541
0.0061173
0.0075761
0.00911765
0.0107375
0.0124309
0.0141929
0.0160183
0.0179016
0.0198373
0.0218196
0.0238425
0.0258997
0.027985
0.0300919
0.0322137
0.0343438
0.0364753
0.0386014
0.040715
0.0428095
0.0448777
0.0469128
0.048908
0.0508565
0.0527515
0.0545866
0.0563552
0.0580513
0.0596689
0.0612023
0.062646
0.063995
0.0652446
0.0663903
0.0674282
0.0683546
0.0691665
0.0698612
0.0704365
0.0708907
0.071223
0.0714328
0.0715203
0.0714858
0.0713307
0.0710565
0.0706656
0.0701609
0.0695457
0.0688237
0.0679992
0.0670766
0.0660608
0.0649567
0.0637697
0.0625047
0.0611671
0.0597617
0.058293
0.0567641
0.055178
0.0535475
0.0518833
0.0500412
0.0478941
0.0207541
0.0183041
0.016231
0.0143888
0.0126092
0.0109024
0.00928083
0.00774498
0.0062957
0.00493506
0.00366546
0.00248936
0.0014093
0.000427902
-0.000452316
-0.00122904
-0.00190011
-0.00246359
-0.00291774
-0.00326112
-0.00349258
-0.00361129
-0.00361683
-0.00350904
-0.00328809
-0.00295448
-0.00250904
-0.00195301
-0.00128795
-0.000515697
0.000361587
0.00134151
0.00242132
0.003598
0.00486826
0.00622848
0.00767481
0.00920313
0.010809
0.0124878
0.0142345
0.0160442
0.0179114
0.0198306
0.0217961
0.0238021
0.0258423
0.0279107
0.0300009
0.0321062
0.0342202
0.0363361
0.038447
0.0405462
0.0426268
0.044682
0.046705
0.0486888
0.0506269
0.0525125
0.054339
0.0561001
0.0577897
0.0594017
0.0609303
0.0623702
0.0637162
0.0649635
0.0661075
0.0671442
0.0680698
0.0688812
0.0695753
0.0701498
0.0706029
0.0709335
0.0711408
0.0712245
0.0711847
0.0710224
0.0707388
0.0703358
0.0698159
0.0691818
0.0684369
0.0675847
0.0666293
0.0655747
0.0644255
0.0631862
0.0618613
0.0604553
0.0589724
0.0574165
0.0557903
0.0540958
0.0523467
0.050554
0.0485603
0.0462275
0.0221956
0.0195602
0.017336
0.0153661
0.013469
0.0116553
0.00993784
0.00831652
0.00679153
0.00536428
0.00403639
0.00280966
0.00168597
0.000667171
-0.000244893
-0.0010485
-0.00174212
-0.0023244
-0.00279418
-0.00315048
-0.0033926
-0.00352014
-0.00353305
-0.00343156
-0.00321609
-0.00288742
-0.00244662
-0.00189513
-0.0012347
-0.000467279
0.000404864
0.00137925
0.00245305
0.00362318
0.00488634
0.00623894
0.00767714
0.00919682
0.0107936
0.0124628
0.0141996
0.0159991
0.0178559
0.0197645
0.0217194
0.0237146
0.0257443
0.0278022
0.0298822
0.0319777
0.0340823
0.0361892
0.0382917
0.040383
0.0424566
0.0445055
0.0465228
0.0485018
0.0504358
0.0523182
0.0541423
0.0559019
0.0575906
0.0592025
0.0607317
0.0621727
0.0635203
0.0647697
0.0659161
0.0669553
0.0678835
0.0686971
0.0693931
0.069969
0.0704227
0.0707528
0.0709582
0.0710383
0.070993
0.0708227
0.0705285
0.0701119
0.0695747
0.0689194
0.0681487
0.0672658
0.0662741
0.0651773
0.0639793
0.062684
0.0612954
0.0598174
0.0582538
0.056608
0.054882
0.0530777
0.0512092
0.0492881
0.0471442
0.044629
0.0235342
0.020717
0.0183437
0.0162471
0.0142326
0.0123113
0.0104968
0.00878842
0.00718562
0.00568936
0.00430069
0.00302071
0.00185066
0.000791808
-0.000154611
-0.000987482
-0.00170584
-0.0023089
-0.00279598
-0.00316656
-0.00342038
-0.00355749
-0.00357817
-0.00348297
-0.00327261
-0.00294816
-0.00251092
-0.00196254
-0.00130493
-0.000540173
0.000329327
0.00130098
0.00237189
0.00353894
0.0047988
0.00614785
0.00758224
0.00909784
0.0106903
0.012355
0.0140873
0.0158821
0.0177341
0.019638
0.0215881
0.0235788
0.0256042
0.0276581
0.0297344
0.0318265
0.0339282
0.0360328
0.0381335
0.0402238
0.0422969
0.0443459
0.0463642
0.0483448
0.0502812
0.0521666
0.0539944
0.0557583
0.057452
0.0590693
0.0606043
0.0620515
0.0634056
0.0646615
0.0658145
0.0668601
0.0677942
0.0686132
0.0693139
0.0698934
0.0703496
0.0706807
0.0708852
0.0709624
0.0709116
0.0707332
0.0704277
0.0699962
0.0694403
0.0687618
0.0679632
0.067047
0.0660163
0.0648744
0.0636244
0.06227
0.0608147
0.0592618
0.0576148
0.0558767
0.0540492
0.0521337
0.0501452
0.0480959
0.0458032
0.0431083
0.0247594
0.0217635
0.0192432
0.0170206
0.0148889
0.0128599
0.0109476
0.00915082
0.0074687
0.00590161
0.00445012
0.00311478
0.00189625
0.000795254
-0.000187549
-0.00105159
-0.00179643
-0.00242175
-0.00292736
-0.00331321
-0.00357945
-0.00372652
-0.00375502
-0.00366584
-0.00346001
-0.00313886
-0.00270393
-0.00215704
-0.00150028
-0.000735913
0.000133522
0.00110534
0.00217659
0.00334409
0.00460446
0.00595401
0.00738889
0.008905
0.010498
0.0121633
0.0138962
0.0156917
0.0175446
0.0194496
0.021401
0.0233933
0.0254205
0.0274767
0.0295556
0.031651
0.0337563
0.0358651
0.0379708
0.0400665
0.0421457
0.0442015
0.0462271
0.0482158
0.0501609
0.0520556
0.0538933
0.0556675
0.0573718
0.0590001
0.0605464
0.0620049
0.0633704
0.0646375
0.0658013
0.0668572
0.0678009
0.0686287
0.069337
0.0699228
0.0703836
0.0707174
0.0709225
0.0709976
0.070942
0.0707555
0.0704384
0.0699914
0.0694157
0.0687127
0.0678844
0.066933
0.0658612
0.0646717
0.0633674
0.0619513
0.0604267
0.0587965
0.0570639
0.0552316
0.053301
0.0512734
0.0491644
0.0469871
0.0445467
0.0416743
0.0258615
0.0226896
0.0200239
0.0176763
0.015428
0.013291
0.0112803
0.00939431
0.0076317
0.00599241
0.00447655
0.00308421
0.00181555
0.000670776
-0.000349982
-0.00124663
-0.00201921
-0.00266789
-0.00319291
-0.00359466
-0.00387368
-0.00403075
-0.00406685
-0.00398318
-0.00378106
-0.00346206
-0.00302796
-0.00248078
-0.0018228
-0.00105644
-0.000184364
0.000790646
0.00186554
0.00303707
0.00430177
0.00565593
0.00709566
0.00861687
0.0102152
0.0118862
0.013625
0.0154266
0.017286
0.0191977
0.0211564
0.0231563
0.0251915
0.0272563
0.0293442
0.0314492
0.0335647
0.0356843
0.0378014
0.0399092
0.042001
0.0440701
0.0461096
0.0481129
0.0500731
0.0519833
0.0538369
0.0556274
0.0573482
0.0589932
0.0605562
0.0620314
0.0634132
0.0646963
0.0658754
0.0669458
0.067903
0.0687431
0.0694622
0.0700572
0.0705251
0.0708636
0.0710709
0.0711453
0.0710858
0.0708918
0.0705633
0.0701006
0.0695044
0.068776
0.0679168
0.0669288
0.0658141
0.0645752
0.0632145
0.0617347
0.0601387
0.0584293
0.0566093
0.0546812
0.0526463
0.0505056
0.0482756
0.0459704
0.0433831
0.040335
0.0268314
0.0234858
0.0206761
0.0182045
0.0158398
0.013595
0.0114856
0.00950974
0.00766577
0.00595326
0.0043719
0.00292133
0.00160129
0.000411507
-0.000648334
-0.00157861
-0.00237981
-0.00305255
-0.0035975
-0.00401542
-0.00430723
-0.00447409
-0.0045173
-0.00443837
-0.00423888
-0.00392065
-0.00348572
-0.00293633
-0.0022749
-0.00150402
-0.000626457
0.000354869
0.0014368
0.00261599
0.00388892
0.00525183
0.00670082
0.00823176
0.00984029
0.0115219
0.0132717
0.015085
0.0169564
0.0188807
0.0208524
0.0228659
0.0249154
0.0269949
0.0290983
0.0312192
0.0333515
0.0354884
0.0376233
0.0397497
0.0418608
0.0439498
0.0460098
0.048034
0.0500156
0.0519477
0.0538235
0.0556363
0.0573797
0.0590471
0.0606324
0.0621296
0.063533
0.0648369
0.066036
0.0671252
0.0681001
0.0689562
0.0696897
0.0702969
0.0707746
0.0711204
0.0713319
0.0714072
0.0713451
0.0711445
0.0708051
0.0703269
0.0697102
0.0689559
0.0680651
0.0670394
0.0658806
0.0645908
0.0631721
0.061627
0.0599581
0.0581678
0.0562588
0.0542336
0.0520932
0.0498386
0.0474872
0.0450539
0.0423202
0.0390976
0.0276605
0.0241431
0.0211907
0.0185957
0.0161151
0.0137626
0.0115542
0.00948816
0.00756224
0.00577578
0.0041281
0.00261844
0.00124613
1.05055e-05
-0.00108918
-0.00205375
-0.00288411
-0.00358125
-0.00414627
-0.0045803
-0.00488464
-0.00506077
-0.00511033
-0.00503509
-0.00483692
-0.00451791
-0.00408031
-0.00352658
-0.0028593
-0.0020812
-0.0011952
-0.000204354
0.000888073
0.00207865
0.00336378
0.00473967
0.00620235
0.00774766
0.00937122
0.0110685
0.0128347
0.0146648
0.0165539
0.0184965
0.0204872
0.0225203
0.0245901
0.0266906
0.0288157
0.0309591
0.0331145
0.0352752
0.0374347
0.0395862
0.0417231
0.0438385
0.0459255
0.0479772
0.0499867
0.051947
0.0538513
0.0556926
0.0574645
0.0591603
0.0607737
0.0622984
0.0637286
0.0650584
0.0662823
0.0673951
0.068392
0.0692683
0.0700197
0.0706425
0.0711332
0.0714889
0.071707
0.0717854
0.0717222
0.0715164
0.0711671
0.0706739
0.070037
0.0692568
0.0683341
0.0672701
0.0660664
0.0647247
0.0632469
0.0616352
0.0598919
0.0580194
0.0560202
0.0538966
0.0516497
0.0492803
0.0468069
0.0442453
0.0413654
0.0379688
0.0283406
0.0246528
0.0215588
0.018841
0.0162448
0.0137846
0.0114774
0.00932081
0.00731256
0.00545164
0.00373708
0.00216778
0.000742663
-0.000539319
-0.00167928
-0.00267846
-0.00353815
-0.00425972
-0.00484465
-0.00529444
-0.00561074
-0.00579534
-0.00585019
-0.00577737
-0.00557901
-0.00525745
-0.00481515
-0.00425476
-0.00357905
-0.00279089
-0.00189338
-0.000889687
0.000216811
0.00142259
0.00272399
0.00411713
0.00559798
0.00716234
0.0088058
0.0105238
0.0123115
0.0141641
0.0160764
0.018043
0.0200585
0.0221173
0.0242135
0.0263413
0.0284944
0.0306667
0.0328516
0.0350427
0.0372332
0.0394165
0.0415858
0.0437342
0.0458548
0.0479406
0.0499845
0.0519794
0.0539184
0.0557946
0.0576012
0.0593314
0.0609787
0.0625366
0.0639992
0.0653602
0.0666141
0.0677553
0.0687787
0.0696794
0.0704529
0.071095
0.071602
0.0719707
0.0721982
0.0722819
0.0722199
0.0720105
0.0716526
0.0711456
0.0704891
0.0696833
0.0687287
0.0676263
0.0663772
0.0649829
0.0634452
0.0617659
0.0599473
0.0579915
0.055901
0.053678
0.0513235
0.0488386
0.0462425
0.0435521
0.0405258
0.0369552
0.0288638
0.0250066
0.0217716
0.0189315
0.01622
0.0136524
0.0112462
0.00899899
0.0069082
0.00497255
0.0031908
0.00156153
8.33377e-05
-0.0012452
-0.00242557
-0.00345935
-0.00434822
-0.00509395
-0.00569834
-0.00616324
-0.00649064
-0.00668265
-0.00674151
-0.00666958
-0.00646928
-0.00614318
-0.00569393
-0.00512438
-0.0044375
-0.00363632
-0.00272408
-0.00170409
-0.000579817
0.000645085
0.00196687
0.00338159
0.00488515
0.00647329
0.00814158
0.00988544
0.0117001
0.0135805
0.0155215
0.0175179
0.0195641
0.0216545
0.0237833
0.0259446
0.0281321
0.0303396
0.0325606
0.0347885
0.0370167
0.0392384
0.0414468
0.0436349
0.0457957
0.0479221
0.050007
0.0520431
0.0540234
0.0559408
0.0577884
0.0595591
0.0612464
0.0628435
0.064344
0.0657419
0.067031
0.0682057
0.0692605
0.0701902
0.07099
0.0716555
0.0721825
0.0725676
0.0728075
0.0728995
0.072841
0.0726301
0.0722653
0.0717458
0.0710708
0.0702402
0.0692543
0.0681136
0.066819
0.0653719
0.0637737
0.0620263
0.0601315
0.0580915
0.0559086
0.0535853
0.0511223
0.0485208
0.0458013
0.0429814
0.039808
0.036063
0.0292222
0.0251963
0.0218207
0.0188586
0.0160321
0.0133571
0.0108519
0.00851408
0.00634066
0.00433017
0.00248113
0.00079182
-0.000739473
-0.00211451
-0.00333512
-0.00440322
-0.00532088
-0.00609018
-0.00671328
-0.00719236
-0.00752974
-0.00772784
-0.00778917
-0.00771638
-0.00751215
-0.00717929
-0.00672065
-0.00613927
-0.00543832
-0.004621
-0.00369066
-0.00265078
-0.00150495
-0.000256901
0.0010895
0.00253021
0.00406108
0.00567782
0.00737593
0.00915079
0.0109976
0.0129113
0.0148868
0.0169186
0.0190014
0.0211295
0.0232971
0.0254981
0.0277263
0.0299755
0.0322391
0.0345105
0.0367829
0.0390497
0.0413039
0.0435384
0.0457461
0.0479198
0.0500523
0.0521363
0.0541645
0.0561297
0.0580247
0.0598423
0.0615757
0.063218
0.0647626
0.066203
0.067533
0.0687464
0.0698377
0.0708013
0.0716321
0.0723252
0.0728764
0.0732816
0.0735375
0.0736407
0.0735885
0.0733785
0.0730091
0.0724789
0.0717869
0.0709327
0.0699162
0.0687378
0.067398
0.0658981
0.0642392
0.0624231
0.0604516
0.0583266
0.0560506
0.0536259
0.0510535
0.0483346
0.0454906
0.0425402
0.0392187
0.0352982
0.0294082
0.0252137
0.0216979
0.0186139
0.0156725
0.01289
0.010286
0.00785748
0.00560143
0.00351615
0.00159988
-0.000149341
-0.00173352
-0.00315475
-0.00441519
-0.00551709
-0.00646285
-0.00725488
-0.00789567
-0.00838774
-0.0087337
-0.0089363
-0.00899833
-0.0089227
-0.00871233
-0.00837026
-0.00789959
-0.00730354
-0.00658543
-0.00574867
-0.00479675
-0.00373326
-0.00256195
-0.00128666
8.86573e-05
0.00155987
0.00312275
0.00477295
0.00650593
0.00831701
0.0102013
0.0121539
0.0141694
0.0162426
0.0183679
0.0205397
0.0227522
0.0249992
0.0272746
0.0295719
0.0318846
0.034206
0.0365295
0.0388481
0.0411548
0.0434425
0.0457039
0.0479318
0.0501188
0.0522574
0.0543402
0.0563598
0.0583088
0.0601799
0.0619658
0.0636596
0.0652543
0.0667433
0.0681199
0.0693778
0.070511
0.0715137
0.0723803
0.0731058
0.0736855
0.0741151
0.0743906
0.0745086
0.0744658
0.0742597
0.0738881
0.0733494
0.0726423
0.071766
0.0707202
0.0695049
0.0681206
0.0665681
0.0648486
0.0629636
0.0609149
0.0587045
0.0563346
0.0538077
0.0511248
0.0482872
0.0453175
0.0422355
0.0387645
0.0346668
0.029414
0.025051
0.0213947
0.0181888
0.0151324
0.0122427
0.0095397
0.00702059
0.00468199
0.00252207
0.000538802
-0.00127002
-0.00290669
-0.00437359
-0.00567321
-0.00680812
-0.00778104
-0.0085947
-0.00925192
-0.00975553
-0.0101084
-0.0103137
-0.0103744
-0.0102937
-0.0100748
-0.00972086
-0.00923532
-0.00862155
-0.00788305
-0.00702338
-0.00604622
-0.0049553
-0.00375447
-0.00244771
-0.00103907
0.000467242
0.00206692
0.00375554
0.00552849
0.00738105
0.0093083
0.0113052
0.0133665
0.0154869
0.0176607
0.0198824
0.0221459
0.0244453
0.0267742
0.0291261
0.0314946
0.0338728
0.036254
0.0386312
0.0409972
0.043345
0.045667
0.047956
0.0502043
0.0524045
0.0545488
0.0566296
0.0586394
0.0605706
0.0624158
0.0641676
0.0658188
0.0673626
0.068792
0.0701003
0.0712811
0.0723283
0.0732362
0.0739991
0.0746121
0.0750704
0.0753699