/*--------------------------------*- C++ -*----------------------------------*\
| =========                 |                                                 |
| \\      /  F ield         | OpenFOAM: The Open Source CFD Toolbox           |
|  \\    /   O peration     | Version:  2212                                  |
|   \\  /    A nd           | Website:  www.openfoam.com                      |
|    \\/     M anipulation  |                                                 |
\*---------------------------------------------------------------------------*/
FoamFile
{
    version     2.0;
    format      ascii;
    arch        "LSB;label=32;scalar=64";
    class       surfaceScalarField;
    location    "0.0915";
    object      phi;
}
// * * * * * * * * * * * * * * * * * * * * * * * * * * * * * * * * * * * * * //

dimensions      [0 3 -1 0 0 0 0];

oriented        oriented;

internalField   nonuniform List<scalar> 
19800
(
7.06348e-11
-7.0659e-11
2.42827e-10
-1.72192e-10
4.32595e-10
-1.89769e-10
5.81672e-10
-1.49069e-10
6.56658e-10
-7.49845e-11
6.39123e-10
1.75399e-11
5.19816e-10
1.19306e-10
2.95325e-10
2.24493e-10
-3.40865e-11
3.294e-10
-4.65742e-10
4.31649e-10
-9.95411e-10
5.29673e-10
-1.61782e-09
6.22414e-10
-2.327e-09
7.09183e-10
-3.11652e-09
7.89529e-10
-3.97969e-09
8.63171e-10
-4.90963e-09
9.29946e-10
-5.89941e-09
9.89776e-10
-6.94206e-09
1.04266e-09
-8.03071e-09
1.08864e-09
-9.15852e-09
1.12781e-09
-1.03188e-08
1.16028e-09
-1.1505e-08
1.18618e-09
-1.27106e-08
1.20567e-09
-1.39296e-08
1.21892e-09
-1.51557e-08
1.22612e-09
-1.63832e-08
1.22745e-09
-1.76063e-08
1.22311e-09
-1.88195e-08
1.21328e-09
-2.00177e-08
1.19818e-09
-2.11958e-08
1.17803e-09
-2.23488e-08
1.15302e-09
-2.34722e-08
1.12338e-09
-2.45615e-08
1.08932e-09
-2.56125e-08
1.05105e-09
-2.66213e-08
1.00878e-09
-2.75841e-08
9.62745e-10
-2.84972e-08
9.1315e-10
-2.93574e-08
8.60215e-10
-3.01616e-08
8.04164e-10
-3.09068e-08
7.45212e-10
-3.15904e-08
6.83574e-10
-3.22099e-08
6.19483e-10
-3.2763e-08
5.53163e-10
-3.32479e-08
4.84837e-10
-3.36626e-08
4.14742e-10
-3.40057e-08
3.43105e-10
-3.42759e-08
2.70161e-10
-3.4472e-08
1.96154e-10
-3.45933e-08
1.21323e-10
-3.46392e-08
4.59077e-11
-3.46094e-08
-2.98423e-11
-3.45037e-08
-1.05677e-10
-3.43224e-08
-1.81336e-10
-3.40658e-08
-2.56552e-10
-3.37348e-08
-3.31067e-10
-3.33301e-08
-4.04619e-10
-3.28532e-08
-4.76928e-10
-3.23055e-08
-5.47723e-10
-3.16887e-08
-6.1674e-10
-3.10051e-08
-6.83695e-10
-3.02568e-08
-7.48298e-10
-2.94465e-08
-8.10274e-10
-2.85771e-08
-8.6935e-10
-2.76519e-08
-9.25232e-10
-2.66743e-08
-9.77635e-10
-2.5648e-08
-1.02629e-09
-2.4577e-08
-1.07093e-09
-2.34658e-08
-1.11127e-09
-2.23187e-08
-1.14704e-09
-2.11407e-08
-1.17798e-09
-1.99369e-08
-1.20385e-09
-1.87125e-08
-1.22438e-09
-1.74732e-08
-1.23935e-09
-1.62246e-08
-1.24855e-09
-1.49728e-08
-1.25176e-09
-1.37241e-08
-1.24878e-09
-1.24846e-08
-1.23941e-09
-1.12611e-08
-1.22351e-09
-1.00602e-08
-1.20094e-09
-8.88864e-09
-1.17157e-09
-7.75333e-09
-1.13531e-09
-6.66123e-09
-1.0921e-09
-5.61933e-09
-1.04191e-09
-4.63459e-09
-9.84747e-10
-3.71391e-09
-9.20672e-10
-2.86409e-09
-8.49805e-10
-2.09174e-09
-7.72343e-10
-1.40317e-09
-6.8857e-10
-8.04286e-10
-5.98895e-10
-3.00386e-10
-5.039e-10
1.04039e-10
-4.04415e-10
4.05665e-10
-3.01622e-10
6.02869e-10
-1.97212e-10
6.96554e-10
-9.36883e-11
6.91407e-10
5.15231e-12
5.97985e-10
9.34301e-11
4.35956e-10
1.62028e-10
2.39637e-10
1.96309e-10
6.72819e-11
1.72346e-10
6.7286e-11
1.72265e-10
-2.42922e-10
4.73639e-10
-4.73552e-10
7.62899e-10
-4.79039e-10
9.3778e-10
-3.23954e-10
9.2717e-10
-6.43827e-11
6.85501e-10
2.59213e-10
1.8616e-10
6.18645e-10
-5.83799e-10
9.94466e-10
-1.62769e-09
1.3733e-09
-2.94194e-09
1.74591e-09
-4.51813e-09
2.10585e-09
-6.34434e-09
2.44864e-09
-8.40627e-09
2.77111e-09
-1.06878e-08
3.0711e-09
-1.31718e-08
3.34715e-09
-1.58402e-08
3.59833e-09
-1.86745e-08
3.82408e-09
-2.1656e-08
4.02415e-09
-2.47659e-08
4.19854e-09
-2.79855e-08
4.3474e-09
-3.12963e-08
4.47103e-09
-3.46799e-08
4.56985e-09
-3.81186e-08
4.64435e-09
-4.15948e-08
4.6951e-09
-4.50914e-08
4.72273e-09
-4.85918e-08
4.72789e-09
-5.208e-08
4.71131e-09
-5.55405e-08
4.67371e-09
-5.89581e-08
4.61584e-09
-6.23186e-08
4.53849e-09
-6.5608e-08
4.44244e-09
-6.88131e-08
4.32849e-09
-7.19213e-08
4.19747e-09
-7.49204e-08
4.05018e-09
-7.77991e-08
3.88745e-09
-8.05464e-08
3.71012e-09
-8.31523e-08
3.51901e-09
-8.56071e-08
3.31498e-09
-8.79018e-08
3.09887e-09
-9.00281e-08
2.87153e-09
-9.19784e-08
2.63383e-09
-9.37455e-08
2.38663e-09
-9.53231e-08
2.13081e-09
-9.67055e-08
1.86724e-09
-9.78876e-08
1.59684e-09
-9.8865e-08
1.3205e-09
-9.9634e-08
1.03913e-09
-1.00191e-07
7.53661e-10
-1.00535e-07
4.65043e-10
-1.00664e-07
1.74217e-10
-1.00576e-07
-1.17854e-10
-1.00271e-07
-4.10181e-10
-9.97505e-08
-7.01773e-10
-9.90155e-08
-9.91626e-10
-9.80678e-08
-1.27871e-09
-9.69105e-08
-1.56198e-09
-9.5547e-08
-1.84042e-09
-9.39817e-08
-2.11296e-09
-9.22199e-08
-2.37853e-09
-9.02675e-08
-2.63609e-09
-8.81313e-08
-2.88454e-09
-8.58188e-08
-3.1228e-09
-8.33384e-08
-3.34977e-09
-8.06992e-08
-3.5644e-09
-7.79112e-08
-3.76562e-09
-7.49851e-08
-3.95235e-09
-7.19325e-08
-4.12356e-09
-6.87656e-08
-4.27821e-09
-6.54973e-08
-4.41529e-09
-6.21415e-08
-4.53381e-09
-5.87125e-08
-4.63281e-09
-5.52255e-08
-4.71139e-09
-5.16962e-08
-4.76867e-09
-4.8141e-08
-4.80382e-09
-4.45767e-08
-4.81605e-09
-4.10208e-08
-4.80468e-09
-3.74911e-08
-4.76905e-09
-3.4006e-08
-4.70858e-09
-3.05842e-08
-4.6228e-09
-2.72444e-08
-4.51133e-09
-2.40058e-08
-4.3739e-09
-2.08875e-08
-4.21039e-09
-1.79086e-08
-4.02078e-09
-1.50881e-08
-3.80527e-09
-1.24445e-08
-3.56424e-09
-9.99597e-09
-3.29837e-09
-7.7597e-09
-3.00862e-09
-5.7519e-09
-2.69637e-09
-3.98723e-09
-2.36356e-09
-2.47832e-09
-2.01281e-09
-1.23503e-09
-1.64771e-09
-2.6346e-10
-1.27321e-09
4.35436e-10
-8.96114e-10
8.67768e-10
-5.26018e-10
1.04943e-09
-1.76503e-10
1.00985e-09
1.33006e-10
7.97089e-10
3.74779e-10
4.8383e-10
5.09559e-10
1.72264e-10
4.83914e-10
2.39549e-10
1.9051e-10
-4.33434e-10
4.8134e-10
-7.64364e-10
6.98735e-10
-6.96437e-10
7.19498e-10
-3.44713e-10
4.54314e-10
2.00802e-10
-1.5777e-10
8.71289e-10
-1.15492e-09
1.61578e-09
-2.55768e-09
2.39722e-09
-4.37321e-09
3.18883e-09
-6.59854e-09
3.97125e-09
-9.22316e-09
4.73048e-09
-1.22309e-08
5.45642e-09
-1.56016e-08
6.14176e-09
-1.93118e-08
6.7813e-09
-2.3336e-08
7.3714e-09
-2.76473e-08
7.90958e-09
-3.22175e-08
8.39428e-09
-3.7018e-08
8.82462e-09
-4.20197e-08
9.20027e-09
-4.71936e-08
9.52135e-09
-5.25109e-08
9.78829e-09
-5.79428e-08
1.00018e-08
-6.34613e-08
1.01628e-08
-6.90387e-08
1.02724e-08
-7.46479e-08
1.03319e-08
-8.02626e-08
1.03426e-08
-8.58573e-08
1.0306e-08
-9.14073e-08
1.02236e-08
-9.68885e-08
1.0097e-08
-1.02278e-07
9.9279e-09
-1.07553e-07
9.7179e-09
-1.12694e-07
9.46877e-09
-1.17678e-07
9.18225e-09
-1.22488e-07
8.86012e-09
-1.27105e-07
8.50417e-09
-1.31511e-07
8.11621e-09
-1.3569e-07
7.69806e-09
-1.39627e-07
7.25158e-09
-1.43307e-07
6.7786e-09
-1.46716e-07
6.28101e-09
-1.49843e-07
5.76071e-09
-1.52676e-07
5.21958e-09
-1.55205e-07
4.65956e-09
-1.5742e-07
4.08261e-09
-1.59314e-07
3.49067e-09
-1.60879e-07
2.88574e-09
-1.6211e-07
2.26986e-09
-1.63001e-07
1.64504e-09
-1.63549e-07
1.01335e-09
-1.63752e-07
3.76902e-10
-1.63608e-07
-2.6219e-10
-1.63116e-07
-9.01773e-10
-1.62278e-07
-1.53965e-09
-1.61096e-07
-2.17362e-09
-1.59574e-07
-2.80145e-09
-1.57715e-07
-3.42086e-09
-1.55526e-07
-4.02957e-09
-1.53013e-07
-4.62527e-09
-1.50186e-07
-5.20565e-09
-1.47054e-07
-5.76837e-09
-1.43627e-07
-6.31106e-09
-1.39919e-07
-6.83138e-09
-1.35942e-07
-7.32698e-09
-1.3171e-07
-7.79552e-09
-1.27241e-07
-8.23466e-09
-1.22552e-07
-8.64212e-09
-1.1766e-07
-9.01563e-09
-1.12585e-07
-9.35294e-09
-1.07348e-07
-9.65188e-09
-1.01972e-07
-9.91034e-09
-9.64782e-08
-1.01263e-08
-9.08918e-08
-1.02977e-08
-8.52376e-08
-1.04228e-08
-7.95416e-08
-1.04998e-08
-7.38305e-08
-1.05271e-08
-6.8132e-08
-1.05032e-08
-6.24743e-08
-1.04267e-08
-5.68863e-08
-1.02966e-08
-5.13972e-08
-1.01118e-08
-4.60368e-08
-9.87176e-09
-4.08348e-08
-9.5759e-09
-3.58211e-08
-9.22413e-09
-3.10252e-08
-8.81665e-09
-2.64763e-08
-8.3541e-09
-2.2203e-08
-7.83758e-09
-1.82326e-08
-7.26879e-09
-1.4591e-08
-6.65021e-09
-1.13021e-08
-5.98523e-09
-8.38725e-09
-5.27843e-09
-5.86411e-09
-4.53595e-09
-3.74586e-09
-3.76597e-09
-2.0396e-09
-2.97946e-09
-7.44563e-10
-2.19115e-09
1.50375e-10
-1.42096e-09
6.69805e-10
-6.95938e-10
8.5575e-10
-5.29409e-11
7.72468e-10
4.58059e-10
5.11548e-10
7.70477e-10
1.96804e-10
7.98658e-10
4.3635e-10
1.51473e-10
-5.84914e-10
3.31222e-10
-9.44099e-10
3.55856e-10
-7.21072e-10
9.39927e-11
-8.28502e-11
-5.50879e-10
8.4568e-10
-1.64662e-09
1.96704e-09
-3.23736e-09
3.20652e-09
-5.34804e-09
4.5079e-09
-7.98828e-09
5.82907e-09
-1.11556e-08
7.1386e-09
-1.48382e-08
8.41306e-09
-1.90168e-08
9.63506e-09
-2.36668e-08
1.07917e-08
-2.87591e-08
1.18736e-08
-3.42616e-08
1.28739e-08
-4.01399e-08
1.37879e-08
-4.6358e-08
1.46123e-08
-5.28787e-08
1.53453e-08
-5.96643e-08
1.59859e-08
-6.66767e-08
1.65338e-08
-7.3878e-08
1.69896e-08
-8.12304e-08
1.73542e-08
-8.86966e-08
1.7629e-08
-9.62398e-08
1.78157e-08
-1.03824e-07
1.79162e-08
-1.11414e-07
1.79329e-08
-1.18976e-07
1.7868e-08
-1.26477e-07
1.77241e-08
-1.33884e-07
1.75039e-08
-1.41166e-07
1.72102e-08
-1.48294e-07
1.68459e-08
-1.55239e-07
1.64137e-08
-1.61974e-07
1.59169e-08
-1.68472e-07
1.53583e-08
-1.74709e-07
1.4741e-08
-1.80661e-07
1.40683e-08
-1.86306e-07
1.33432e-08
-1.91623e-07
1.25689e-08
-1.96593e-07
1.17486e-08
-2.01198e-07
1.08857e-08
-2.0542e-07
9.98328e-09
-2.09245e-07
9.0448e-09
-2.12659e-07
8.07355e-09
-2.1565e-07
7.07292e-09
-2.18205e-07
6.04636e-09
-2.20317e-07
4.9973e-09
-2.21976e-07
3.92928e-09
-2.23177e-07
2.84585e-09
-2.23914e-07
1.75059e-09
-2.24185e-07
6.47159e-10
-2.23986e-07
-4.60745e-10
-2.23319e-07
-1.56938e-09
-2.22183e-07
-2.67495e-09
-2.20583e-07
-3.77361e-09
-2.18523e-07
-4.86147e-09
-2.16009e-07
-5.93462e-09
-2.1305e-07
-6.9891e-09
-2.09654e-07
-8.0209e-09
-2.05834e-07
-9.02599e-09
-2.01602e-07
-1.00003e-08
-1.96973e-07
-1.09399e-08
-1.91964e-07
-1.18406e-08
-1.86593e-07
-1.26984e-08
-1.80879e-07
-1.35092e-08
-1.74844e-07
-1.42691e-08
-1.68512e-07
-1.49741e-08
-1.61908e-07
-1.56203e-08
-1.55057e-07
-1.6204e-08
-1.47987e-07
-1.67213e-08
-1.40729e-07
-1.71686e-08
-1.33313e-07
-1.75426e-08
-1.25771e-07
-1.78398e-08
-1.18136e-07
-1.80571e-08
-1.10445e-07
-1.81917e-08
-1.02731e-07
-1.82407e-08
-9.50325e-08
-1.82017e-08
-8.73867e-08
-1.80726e-08
-7.98318e-08
-1.78515e-08
-7.24068e-08
-1.75369e-08
-6.51507e-08
-1.71279e-08
-5.81028e-08
-1.66238e-08
-5.13023e-08
-1.60246e-08
-4.4788e-08
-1.5331e-08
-3.85977e-08
-1.45444e-08
-3.27683e-08
-1.36669e-08
-2.73351e-08
-1.27021e-08
-2.23309e-08
-1.16544e-08
-1.77859e-08
-1.05302e-08
-1.37265e-08
-9.33784e-09
-1.01743e-08
-8.0882e-09
-7.14461e-09
-6.79562e-09
-4.64525e-09
-5.47882e-09
-2.67408e-09
-4.16233e-09
-1.21664e-09
-2.87841e-09
-2.43115e-10
-1.66946e-09
2.95276e-10
-5.91329e-10
4.70529e-10
2.828e-10
3.82394e-10
8.58606e-10
1.64237e-10
1.01681e-09
6.00586e-10
7.98506e-11
-6.64771e-10
7.87816e-11
-9.43027e-10
-1.77215e-10
-4.65066e-10
-8.16853e-10
5.5678e-10
-1.93606e-09
1.96488e-09
-3.60346e-09
3.63444e-09
-5.8646e-09
5.46766e-09
-8.74573e-09
7.38902e-09
-1.22571e-08
9.34044e-09
-1.63959e-08
1.12774e-08
-2.11489e-08
1.3166e-08
-2.64942e-08
1.49804e-08
-3.24035e-08
1.6701e-08
-3.88431e-08
1.83132e-08
-4.57755e-08
1.98063e-08
-5.31601e-08
2.11725e-08
-6.09541e-08
2.24063e-08
-6.91132e-08
2.35044e-08
-7.75922e-08
2.44648e-08
-8.63451e-08
2.52867e-08
-9.53259e-08
2.59705e-08
-1.04489e-07
2.65172e-08
-1.13789e-07
2.69287e-08
-1.2318e-07
2.72072e-08
-1.32619e-07
2.73555e-08
-1.42063e-07
2.73768e-08
-1.5147e-07
2.72746e-08
-1.60798e-07
2.70525e-08
-1.70009e-07
2.67145e-08
-1.79063e-07
2.62648e-08
-1.87925e-07
2.57075e-08
-1.96558e-07
2.50471e-08
-2.0493e-07
2.4288e-08
-2.13006e-07
2.34349e-08
-2.20758e-07
2.24924e-08
-2.28154e-07
2.14652e-08
-2.35169e-07
2.03581e-08
-2.41776e-07
1.9176e-08
-2.47952e-07
1.79237e-08
-2.53672e-07
1.66063e-08
-2.58918e-07
1.52288e-08
-2.63669e-07
1.37961e-08
-2.67909e-07
1.23135e-08
-2.71622e-07
1.07861e-08
-2.74795e-07
9.21914e-09
-2.77416e-07
7.61795e-09
-2.79474e-07
5.98789e-09
-2.80963e-07
4.3344e-09
-2.81875e-07
2.663e-09
-2.82207e-07
9.7926e-10
-2.81957e-07
-7.11176e-10
-2.81124e-07
-2.40257e-09
-2.79709e-07
-4.08912e-09
-2.77718e-07
-5.76497e-09
-2.75155e-07
-7.42419e-09
-2.72029e-07
-9.06078e-09
-2.6835e-07
-1.06687e-08
-2.64129e-07
-1.22419e-08
-2.5938e-07
-1.37742e-08
-2.54121e-07
-1.52595e-08
-2.48369e-07
-1.66916e-08
-2.42146e-07
-1.80644e-08
-2.35472e-07
-1.93717e-08
-2.28374e-07
-2.06073e-08
-2.20878e-07
-2.17653e-08
-2.13012e-07
-2.28397e-08
-2.04808e-07
-2.38246e-08
-1.96298e-07
-2.47142e-08
-1.87516e-07
-2.55029e-08
-1.785e-07
-2.61854e-08
-1.69286e-07
-2.67564e-08
-1.59915e-07
-2.72109e-08
-1.50427e-07
-2.75444e-08
-1.40867e-07
-2.77523e-08
-1.31277e-07
-2.78308e-08
-1.21702e-07
-2.77762e-08
-1.12189e-07
-2.75855e-08
-1.02785e-07
-2.7256e-08
-9.35358e-08
-2.67858e-08
-8.44902e-08
-2.61734e-08
-7.56956e-08
-2.54184e-08
-6.71993e-08
-2.45209e-08
-5.90478e-08
-2.34824e-08
-5.12869e-08
-2.23053e-08
-4.39604e-08
-2.09934e-08
-3.71101e-08
-1.95523e-08
-3.0775e-08
-1.79895e-08
-2.49903e-08
-1.63149e-08
-1.97867e-08
-1.45415e-08
-1.51888e-08
-1.26861e-08
-1.12142e-08
-1.07702e-08
-7.87136e-09
-8.82162e-09
-5.15796e-09
-6.87574e-09
-3.0582e-09
-4.97817e-09
-1.54025e-09
-3.1874e-09
-5.53154e-10
-1.57842e-09
-2.32308e-11
-2.47131e-10
1.49893e-10
6.85473e-10
9.85696e-11
1.06813e-09
6.99157e-10
-9.7709e-12
-6.54997e-10
-2.36802e-10
-7.15994e-10
-8.34437e-10
1.32579e-10
-1.92045e-09
1.64279e-09
-3.58415e-09
3.62857e-09
-5.89021e-09
5.94049e-09
-8.88187e-09
8.45933e-09
-1.25839e-08
1.10911e-08
-1.70053e-08
1.37618e-08
-2.21418e-08
1.64139e-08
-2.7978e-08
1.90022e-08
-3.44895e-08
2.14919e-08
-4.16445e-08
2.3856e-08
-4.94055e-08
2.60742e-08
-5.773e-08
2.81308e-08
-6.65722e-08
3.00147e-08
-7.58836e-08
3.17177e-08
-8.56135e-08
3.32343e-08
-9.57101e-08
3.45614e-08
-1.06121e-07
3.56973e-08
-1.16792e-07
3.66421e-08
-1.27672e-07
3.73968e-08
-1.38707e-07
3.79635e-08
-1.49845e-07
3.83452e-08
-1.61035e-07
3.85454e-08
-1.72226e-07
3.85682e-08
-1.8337e-07
3.84184e-08
-1.94418e-07
3.8101e-08
-2.05325e-07
3.76212e-08
-2.16045e-07
3.69848e-08
-2.26535e-07
3.61975e-08
-2.36753e-07
3.52655e-08
-2.4666e-07
3.4195e-08
-2.56218e-07
3.29923e-08
-2.65389e-07
3.16639e-08
-2.74141e-07
3.02166e-08
-2.8244e-07
2.86569e-08
-2.90255e-07
2.69916e-08
-2.97559e-07
2.52277e-08
-3.04325e-07
2.33722e-08
-3.10528e-07
2.1432e-08
-3.16146e-07
1.94143e-08
-3.21159e-07
1.73264e-08
-3.25549e-07
1.51755e-08
-3.29299e-07
1.2969e-08
-3.32395e-07
1.07145e-08
-3.34827e-07
8.41945e-09
-3.36584e-07
6.09157e-09
-3.37659e-07
3.73861e-09
-3.38049e-07
1.36845e-09
-3.37749e-07
-1.01092e-09
-3.3676e-07
-3.39147e-09
-3.35084e-07
-5.76501e-09
-3.32726e-07
-8.1233e-09
-3.29692e-07
-1.0458e-08
-3.25992e-07
-1.27607e-08
-3.21638e-07
-1.50228e-08
-3.16644e-07
-1.72359e-08
-3.11027e-07
-1.93914e-08
-3.04806e-07
-2.14805e-08
-2.98003e-07
-2.34948e-08
-2.90642e-07
-2.54255e-08
-2.82749e-07
-2.72641e-08
-2.74354e-07
-2.9002e-08
-2.65489e-07
-3.06307e-08
-2.56187e-07
-3.2142e-08
-2.46484e-07
-3.35277e-08
-2.36418e-07
-3.47797e-08
-2.26031e-07
-3.58903e-08
-2.15364e-07
-3.68519e-08
-2.04463e-07
-3.76575e-08
-1.93374e-07
-3.83e-08
-1.82145e-07
-3.87732e-08
-1.70826e-07
-3.9071e-08
-1.59469e-07
-3.91881e-08
-1.48126e-07
-3.91196e-08
-1.3685e-07
-3.88613e-08
-1.25696e-07
-3.841e-08
-1.14719e-07
-3.77629e-08
-1.03974e-07
-3.69186e-08
-9.35154e-08
-3.58766e-08
-8.33987e-08
-3.46376e-08
-7.36771e-08
-3.3204e-08
-6.44028e-08
-3.15796e-08
-5.56261e-08
-2.97702e-08
-4.73944e-08
-2.77841e-08
-3.97517e-08
-2.56321e-08
-3.2738e-08
-2.33287e-08
-2.63874e-08
-2.08921e-08
-2.07278e-08
-1.83457e-08
-1.57788e-08
-1.57192e-08
-1.15507e-08
-1.30498e-08
-8.04187e-09
-1.03846e-08
-5.2373e-09
-7.78274e-09
-3.10597e-09
-5.31872e-09
-1.59841e-09
-3.08598e-09
-6.43902e-10
-1.20164e-09
-1.47416e-10
1.88982e-10
1.42491e-11
9.0647e-10
7.13407e-10
-1.08675e-10
-5.46317e-10
-5.89047e-10
-2.35633e-10
-1.5684e-09
1.11194e-09
-3.14817e-09
3.22256e-09
-5.40661e-09
5.887e-09
-8.40077e-09
8.93465e-09
-1.21686e-08
1.22271e-08
-1.67308e-08
1.56533e-08
-2.20935e-08
1.91245e-08
-2.82495e-08
2.25699e-08
-3.51807e-08
2.59334e-08
-4.28597e-08
2.91708e-08
-5.12512e-08
3.22476e-08
-6.03137e-08
3.51367e-08
-7.00008e-08
3.78178e-08
-8.02616e-08
4.02755e-08
-9.10424e-08
4.24985e-08
-1.02287e-07
4.44792e-08
-1.13939e-07
4.62126e-08
-1.25937e-07
4.76961e-08
-1.38224e-07
4.89292e-08
-1.5074e-07
4.99128e-08
-1.63426e-07
5.06492e-08
-1.76223e-07
5.1142e-08
-1.89073e-07
5.13954e-08
-2.0192e-07
5.14148e-08
-2.14707e-07
5.12059e-08
-2.27381e-07
5.07752e-08
-2.3989e-07
5.01295e-08
-2.52181e-07
4.92763e-08
-2.64207e-07
4.8223e-08
-2.75919e-07
4.69777e-08
-2.87272e-07
4.55485e-08
-2.98224e-07
4.39437e-08
-3.08732e-07
4.21721e-08
-3.18758e-07
4.02421e-08
-3.28264e-07
3.81629e-08
-3.37215e-07
3.59433e-08
-3.4558e-07
3.35926e-08
-3.53328e-07
3.112e-08
-3.60431e-07
2.85348e-08
-3.66863e-07
2.58466e-08
-3.72602e-07
2.3065e-08
-3.77626e-07
2.01997e-08
-3.81917e-07
1.72606e-08
-3.8546e-07
1.42576e-08
-3.88242e-07
1.12008e-08
-3.90251e-07
8.10056e-09
-3.91479e-07
4.96712e-09
-3.91922e-07
1.81099e-09
-3.91576e-07
-1.35722e-09
-3.9044e-07
-4.52675e-09
-3.88519e-07
-7.68674e-09
-3.85816e-07
-1.08262e-08
-3.8234e-07
-1.39341e-08
-3.78101e-07
-1.69991e-08
-3.73114e-07
-2.00101e-08
-3.67394e-07
-2.29556e-08
-3.60961e-07
-2.58242e-08
-3.53837e-07
-2.86046e-08
-3.46047e-07
-3.12853e-08
-3.37618e-07
-3.38547e-08
-3.2858e-07
-3.63017e-08
-3.18967e-07
-3.86148e-08
-3.08815e-07
-4.0783e-08
-2.98162e-07
-4.27952e-08
-2.87049e-07
-4.46406e-08
-2.7552e-07
-4.63087e-08
-2.63621e-07
-4.77893e-08
-2.514e-07
-4.90726e-08
-2.38908e-07
-5.01492e-08
-2.26198e-07
-5.101e-08
-2.13325e-07
-5.16468e-08
-2.00344e-07
-5.20519e-08
-1.87314e-07
-5.22182e-08
-1.74294e-07
-5.21396e-08
-1.61344e-07
-5.18109e-08
-1.48526e-07
-5.12279e-08
-1.35902e-07
-5.03875e-08
-1.23532e-07
-4.92879e-08
-1.1148e-07
-4.7929e-08
-9.98054e-08
-4.63122e-08
-8.85684e-08
-4.44409e-08
-7.78273e-08
-4.23207e-08
-6.76375e-08
-3.99599e-08
-5.80519e-08
-3.73697e-08
-4.91191e-08
-3.4565e-08
-4.0883e-08
-3.15648e-08
-3.33816e-08
-2.83935e-08
-2.66458e-08
-2.50815e-08
-2.0698e-08
-2.16669e-08
-1.55508e-08
-1.8197e-08
-1.1205e-08
-1.47304e-08
-7.64801e-09
-1.13397e-08
-4.85208e-09
-8.11465e-09
-2.77224e-09
-5.16581e-09
-1.34436e-09
-2.62953e-09
-4.83117e-10
-6.72263e-10
-7.99712e-11
5.03325e-10
6.33436e-10
-2.11587e-10
-3.34719e-10
-9.6042e-10
5.13189e-10
-2.34605e-09
2.49757e-09
-4.45053e-09
5.32705e-09
-7.33803e-09
8.77449e-09
-1.10553e-08
1.26519e-08
-1.56324e-08
1.68042e-08
-2.10843e-08
2.11053e-08
-2.74123e-08
2.54525e-08
-3.46051e-08
2.97628e-08
-4.26411e-08
3.39693e-08
-5.1489e-08
3.80188e-08
-6.11102e-08
4.18687e-08
-7.14591e-08
4.54856e-08
-8.2485e-08
4.88438e-08
-9.41329e-08
5.19234e-08
-1.06344e-07
5.47099e-08
-1.19058e-07
5.7193e-08
-1.32211e-07
5.93659e-08
-1.4574e-07
6.12248e-08
-1.59579e-07
6.27683e-08
-1.73664e-07
6.39972e-08
-1.87928e-07
6.49138e-08
-2.02308e-07
6.55223e-08
-2.16741e-07
6.58278e-08
-2.31162e-07
6.58365e-08
-2.45512e-07
6.55555e-08
-2.5973e-07
6.49928e-08
-2.73757e-07
6.4157e-08
-2.87538e-07
6.3057e-08
-3.01017e-07
6.17025e-08
-3.14143e-07
6.01033e-08
-3.26864e-07
5.82699e-08
-3.39133e-07
5.62127e-08
-3.50904e-07
5.39426e-08
-3.62132e-07
5.14707e-08
-3.72778e-07
4.88083e-08
-3.82801e-07
4.59669e-08
-3.92167e-07
4.29581e-08
-4.00841e-07
3.97936e-08
-4.08791e-07
3.64856e-08
-4.15991e-07
3.30461e-08
-4.22413e-07
2.94874e-08
-4.28035e-07
2.58219e-08
-4.32837e-07
2.20623e-08
-4.36801e-07
1.82213e-08
-4.39912e-07
1.43118e-08
-4.42158e-07
1.03469e-08
-4.43531e-07
6.33979e-09
-4.44024e-07
2.30396e-09
-4.43634e-07
-1.74706e-09
-4.42361e-07
-5.79953e-09
-4.40208e-07
-9.83958e-09
-4.37181e-07
-1.38532e-08
-4.33289e-07
-1.78262e-08
-4.28544e-07
-2.17443e-08
-4.22961e-07
-2.55931e-08
-4.16558e-07
-2.93582e-08
-4.09358e-07
-3.3025e-08
-4.01383e-07
-3.6579e-08
-3.92663e-07
-4.00056e-08
-3.83227e-07
-4.32903e-08
-3.7311e-07
-4.64186e-08
-3.62349e-07
-4.93762e-08
-3.50983e-07
-5.2149e-08
-3.39055e-07
-5.4723e-08
-3.26611e-07
-5.70846e-08
-3.137e-07
-5.92204e-08
-3.00371e-07
-6.11176e-08
-2.8668e-07
-6.27638e-08
-2.72682e-07
-6.41471e-08
-2.58436e-07
-6.52564e-08
-2.44001e-07
-6.60812e-08
-2.29441e-07
-6.66119e-08
-2.1482e-07
-6.68398e-08
-2.00202e-07
-6.67574e-08
-1.85655e-07
-6.63583e-08
-1.71245e-07
-6.56374e-08
-1.57041e-07
-6.45913e-08
-1.43111e-07
-6.32181e-08
-1.29522e-07
-6.1518e-08
-1.16341e-07
-5.94932e-08
-1.03634e-07
-5.71485e-08
-9.1463e-08
-5.44915e-08
-7.98898e-08
-5.15331e-08
-6.89717e-08
-4.82879e-08
-5.87616e-08
-4.4775e-08
-4.93076e-08
-4.10188e-08
-4.06514e-08
-3.70497e-08
-3.28274e-08
-3.29055e-08
-2.58613e-08
-2.8633e-08
-1.97688e-08
-2.42894e-08
-1.45546e-08
-1.99447e-08
-1.02101e-08
-1.56842e-08
-6.71295e-09
-1.16118e-08
-4.02497e-09
-7.85378e-09
-2.09134e-09
-4.56316e-09
-8.39504e-10
-1.9241e-09
-1.78707e-10
-1.5747e-10
4.54729e-10
-3.15376e-10
-1.93349e-11
-1.33956e-09
1.53738e-09
-3.14479e-09
4.30279e-09
-5.79244e-09
7.9747e-09
-9.33081e-09
1.23129e-08
-1.37943e-08
1.71154e-08
-1.92036e-08
2.22135e-08
-2.55661e-08
2.74677e-08
-3.28766e-08
3.2763e-08
-4.1119e-08
3.80052e-08
-5.02669e-08
4.31172e-08
-6.0285e-08
4.80369e-08
-7.11303e-08
5.2714e-08
-8.27533e-08
5.71087e-08
-9.50992e-08
6.11897e-08
-1.08109e-07
6.49328e-08
-1.21718e-07
6.83198e-08
-1.35863e-07
7.13377e-08
-1.50475e-07
7.39777e-08
-1.65485e-07
7.62344e-08
-1.80822e-07
7.81058e-08
-1.96417e-07
7.95921e-08
-2.12199e-07
8.06959e-08
-2.28098e-07
8.14217e-08
-2.44046e-07
8.17754e-08
-2.59974e-07
8.17643e-08
-2.75815e-07
8.13968e-08
-2.91505e-07
8.06825e-08
-3.0698e-07
7.96316e-08
-3.22178e-07
7.8255e-08
-3.37039e-07
7.65644e-08
-3.51508e-07
7.45719e-08
-3.65528e-07
7.229e-08
-3.79047e-07
6.97317e-08
-3.92015e-07
6.69104e-08
-4.04384e-07
6.38396e-08
-4.16109e-07
6.05333e-08
-4.27147e-07
5.70055e-08
-4.3746e-07
5.32708e-08
-4.4701e-07
4.93436e-08
-4.55763e-07
4.52388e-08
-4.63689e-07
4.09714e-08
-4.70758e-07
3.65566e-08
-4.76946e-07
3.20099e-08
-4.8223e-07
2.73467e-08
-4.86592e-07
2.2583e-08
-4.90015e-07
1.77347e-08
-4.92486e-07
1.2818e-08
-4.93995e-07
7.84932e-09
-4.94537e-07
2.84531e-09
-4.94107e-07
-2.17725e-09
-4.92705e-07
-7.20136e-09
-4.90334e-07
-1.22099e-08
-4.87002e-07
-1.71854e-08
-4.82718e-07
-2.21104e-08
-4.77495e-07
-2.69672e-08
-4.7135e-07
-3.17382e-08
-4.64303e-07
-3.64053e-08
-4.56377e-07
-4.09507e-08
-4.476e-07
-4.53565e-08
-4.38001e-07
-4.96045e-08
-4.27614e-07
-5.3677e-08
-4.16477e-07
-5.75561e-08
-4.04628e-07
-6.12243e-08
-3.92113e-07
-6.46641e-08
-3.78978e-07
-6.78584e-08
-3.65272e-07
-7.07904e-08
-3.51049e-07
-7.34438e-08
-3.36363e-07
-7.58029e-08
-3.21275e-07
-7.78525e-08
-3.05844e-07
-7.95781e-08
-2.90134e-07
-8.09661e-08
-2.74212e-07
-8.20038e-08
-2.58144e-07
-8.26797e-08
-2.42e-07
-8.29833e-08
-2.25852e-07
-8.29056e-08
-2.09771e-07
-8.24389e-08
-1.93831e-07
-8.15775e-08
-1.78105e-07
-8.03173e-08
-1.62667e-07
-7.86566e-08
-1.47589e-07
-7.65958e-08
-1.32944e-07
-7.41383e-08
-1.18802e-07
-7.12904e-08
-1.05232e-07
-6.80617e-08
-9.22985e-08
-6.44661e-08
-8.00645e-08
-6.05218e-08
-6.85872e-08
-5.62524e-08
-5.79184e-08
-5.16875e-08
-4.8104e-08
-4.68641e-08
-3.91822e-08
-4.18273e-08
-3.11828e-08
-3.66325e-08
-2.41257e-08
-3.13464e-08
-1.80203e-08
-2.60501e-08
-1.28638e-08
-2.08407e-08
-8.64053e-09
-1.58351e-08
-5.32111e-09
-1.11732e-08
-2.8619e-09
-7.02238e-09
-1.20495e-09
-3.58106e-09
-2.78709e-10
-1.08371e-09
1.7602e-10
-4.182e-10
3.98863e-10
-1.71921e-09
2.8384e-09
-3.94945e-09
6.53302e-09
-7.14948e-09
1.11747e-08
-1.13509e-08
1.65143e-08
-1.65746e-08
2.23391e-08
-2.28304e-08
2.84693e-08
-3.01169e-08
3.47542e-08
-3.84216e-08
4.10677e-08
-4.7722e-08
4.73056e-08
-5.79864e-08
5.33816e-08
-6.91747e-08
5.92251e-08
-8.12392e-08
6.47785e-08
-9.41262e-08
6.99957e-08
-1.07776e-07
7.48399e-08
-1.22126e-07
7.92826e-08
-1.37108e-07
8.33018e-08
-1.52652e-07
8.68818e-08
-1.68686e-07
9.00115e-08
-1.85136e-07
9.26841e-08
-2.01927e-07
9.48966e-08
-2.18983e-07
9.66489e-08
-2.36231e-07
9.79435e-08
-2.53594e-07
9.87852e-08
-2.71e-07
9.91809e-08
-2.88375e-07
9.91389e-08
-3.05647e-07
9.86691e-08
-3.22747e-07
9.77824e-08
-3.39606e-07
9.6491e-08
-3.56159e-07
9.48078e-08
-3.72341e-07
9.27466e-08
-3.88091e-07
9.03217e-08
-4.03349e-07
8.75483e-08
-4.18059e-07
8.44418e-08
-4.32167e-07
8.10181e-08
-4.45621e-07
7.72936e-08
-4.58373e-07
7.3285e-08
-4.70377e-07
6.90093e-08
-4.8159e-07
6.44839e-08
-4.91973e-07
5.97263e-08
-5.01488e-07
5.47544e-08
-5.10103e-07
4.95863e-08
-5.17787e-07
4.42404e-08
-5.24512e-07
3.87353e-08
-5.30255e-07
3.30898e-08
-5.34995e-07
2.7323e-08
-5.38715e-07
2.14543e-08
-5.414e-07
1.55033e-08
-5.43041e-07
9.48977e-09
-5.43629e-07
3.43378e-09
-5.43162e-07
-2.64436e-09
-5.41639e-07
-8.72415e-09
-5.39064e-07
-1.47848e-08
-5.35444e-07
-2.08054e-08
-5.3079e-07
-2.67649e-08
-5.25115e-07
-3.26418e-08
-5.18439e-07
-3.84148e-08
-5.10782e-07
-4.40624e-08
-5.02169e-07
-4.95629e-08
-4.92631e-07
-5.48947e-08
-4.82199e-07
-6.00362e-08
-4.70911e-07
-6.49659e-08
-4.58804e-07
-6.96624e-08
-4.45924e-07
-7.41045e-08
-4.32317e-07
-7.82713e-08
-4.18033e-07
-8.21422e-08
-4.03126e-07
-8.56973e-08
-3.87653e-07
-8.89169e-08
-3.71674e-07
-9.17822e-08
-3.55251e-07
-9.42752e-08
-3.38451e-07
-9.63785e-08
-3.21341e-07
-9.8076e-08
-3.03992e-07
-9.93525e-08
-2.86477e-07
-1.00195e-07
-2.68871e-07
-1.0059e-07
-2.51249e-07
-1.00527e-07
-2.3369e-07
-9.99986e-08
-2.1627e-07
-9.89969e-08
-1.9907e-07
-9.75179e-08
-1.82166e-07
-9.55598e-08
-1.65639e-07
-9.31234e-08
-1.49564e-07
-9.02133e-08
-1.34017e-07
-8.68373e-08
-1.19071e-07
-8.30074e-08
-1.04797e-07
-7.87404e-08
-9.12603e-08
-7.40584e-08
-7.85233e-08
-6.89894e-08
-6.66422e-08
-6.35686e-08
-5.5667e-08
-5.78392e-08
-4.56405e-08
-5.18538e-08
-3.65971e-08
-4.56759e-08
-2.85618e-08
-3.93817e-08
-2.15498e-08
-3.30621e-08
-1.55652e-08
-2.68254e-08
-1.06003e-08
-2.07999e-08
-6.63581e-09
-1.51377e-08
-3.64052e-09
-1.00177e-08
-1.57197e-09
-5.64961e-09
-3.7805e-10
-2.27763e-09
-2.02029e-10
-5.19023e-10
9.17884e-10
-2.09488e-09
4.41425e-09
-4.75007e-09
9.18822e-09
-8.50502e-09
1.49297e-08
-1.33743e-08
2.13836e-08
-1.9365e-08
2.83297e-08
-2.64749e-08
3.55793e-08
-3.46928e-08
4.29721e-08
-4.39982e-08
5.03731e-08
-5.43614e-08
5.76689e-08
-6.57445e-08
6.47647e-08
-7.81018e-08
7.15824e-08
-9.13808e-08
7.80575e-08
-1.05523e-07
8.41378e-08
-1.20464e-07
8.97814e-08
-1.36137e-07
9.49553e-08
-1.52469e-07
9.96341e-08
-1.69387e-07
1.03799e-07
-1.86812e-07
1.07437e-07
-2.04668e-07
1.1054e-07
-2.22874e-07
1.13103e-07
-2.41352e-07
1.15126e-07
-2.60021e-07
1.16612e-07
-2.78801e-07
1.17566e-07
-2.97616e-07
1.17995e-07
-3.16387e-07
1.1791e-07
-3.35038e-07
1.1732e-07
-3.53495e-07
1.16239e-07
-3.71685e-07
1.14681e-07
-3.89539e-07
1.12661e-07
-4.06987e-07
1.10195e-07
-4.23965e-07
1.07299e-07
-4.40408e-07
1.03992e-07
-4.56258e-07
1.00291e-07
-4.71456e-07
9.62158e-08
-4.85947e-07
9.17846e-08
-4.99679e-07
8.70175e-08
-5.12605e-07
8.19346e-08
-5.24677e-07
7.65564e-08
-5.35854e-07
7.09036e-08
-5.46097e-07
6.49973e-08
-5.5537e-07
5.8859e-08
-5.6364e-07
5.25104e-08
-5.70878e-07
4.59735e-08
-5.77059e-07
3.92707e-08
-5.82161e-07
3.24245e-08
-5.86164e-07
2.54579e-08
-5.89055e-07
1.83941e-08
-5.90822e-07
1.12565e-08
-5.91457e-07
4.06885e-09
-5.90956e-07
-3.14477e-09
-5.8932e-07
-1.03601e-08
-5.86553e-07
-1.75526e-08
-5.82661e-07
-2.46974e-08
-5.77656e-07
-3.17697e-08
-5.71553e-07
-3.87441e-08
-5.64373e-07
-4.55955e-08
-5.56137e-07
-5.22982e-08
-5.46873e-07
-5.88269e-08
-5.36612e-07
-6.5156e-08
-5.25388e-07
-7.126e-08
-5.1324e-07
-7.71135e-08
-5.00211e-07
-8.26913e-08
-4.86347e-07
-8.79684e-08
-4.71698e-07
-9.29203e-08
-4.56318e-07
-9.75228e-08
-4.40263e-07
-1.01752e-07
-4.23594e-07
-1.05586e-07
-4.06375e-07
-1.09001e-07
-3.88673e-07
-1.11977e-07
-3.70558e-07
-1.14494e-07
-3.52102e-07
-1.16532e-07
-3.33381e-07
-1.18074e-07
-3.14471e-07
-1.19104e-07
-2.95452e-07
-1.19609e-07
-2.76405e-07
-1.19574e-07
-2.57412e-07
-1.18992e-07
-2.38555e-07
-1.17853e-07
-2.19919e-07
-1.16154e-07
-2.01587e-07
-1.13892e-07
-1.83642e-07
-1.11069e-07
-1.66165e-07
-1.0769e-07
-1.49237e-07
-1.03766e-07
-1.32935e-07
-9.93093e-08
-1.17334e-07
-9.43413e-08
-1.02505e-07
-8.88873e-08
-8.85144e-08
-8.298e-08
-7.5423e-08
-7.666e-08
-6.32856e-08
-6.99766e-08
-5.21497e-08
-6.29897e-08
-4.20553e-08
-5.57704e-08
-3.30331e-08
-4.84038e-08
-2.5105e-08
-4.09901e-08
-1.82828e-08
-3.36476e-08
-1.2568e-08
-2.65148e-08
-7.95209e-09
-1.97536e-08
-4.41695e-09
-1.35528e-08
-1.93587e-09
-8.1307e-09
-4.75617e-10
-3.73789e-09
-6.77647e-10
-6.17288e-10
1.53518e-09
-2.46384e-09
6.26081e-09
-5.54037e-09
1.22648e-08
-9.84809e-09
1.92374e-08
-1.5385e-08
2.69205e-08
-2.21437e-08
3.50884e-08
-3.011e-08
4.35456e-08
-3.92622e-08
5.21243e-08
-4.95707e-08
6.06816e-08
-6.09982e-08
6.90964e-08
-7.34999e-08
7.72664e-08
-8.7024e-08
8.51065e-08
-1.01513e-07
9.25461e-08
-1.16902e-07
9.95271e-08
-1.33123e-07
1.06003e-07
-1.50104e-07
1.11936e-07
-1.67769e-07
1.17298e-07
-1.86037e-07
1.22068e-07
-2.04829e-07
1.26229e-07
-2.24062e-07
1.29773e-07
-2.43652e-07
1.32693e-07
-2.63516e-07
1.3499e-07
-2.83569e-07
1.36665e-07
-3.03728e-07
1.37725e-07
-3.2391e-07
1.38178e-07
-3.44033e-07
1.38033e-07
-3.64018e-07
1.37305e-07
-3.83787e-07
1.36008e-07
-4.03262e-07
1.34156e-07
-4.22369e-07
1.31769e-07
-4.41037e-07
1.28863e-07
-4.59196e-07
1.25459e-07
-4.7678e-07
1.21576e-07
-4.93724e-07
1.17236e-07
-5.09969e-07
1.1246e-07
-5.25455e-07
1.07271e-07
-5.40128e-07
1.01691e-07
-5.53937e-07
9.57434e-08
-5.66833e-07
8.94525e-08
-5.78771e-07
8.28422e-08
-5.89711e-07
7.59371e-08
-5.99614e-07
6.8762e-08
-6.08446e-07
6.13422e-08
-6.16176e-07
5.37034e-08
-6.22777e-07
4.58716e-08
-6.28225e-07
3.78731e-08
-6.32502e-07
2.97346e-08
-6.35591e-07
2.14831e-08
-6.3748e-07
1.31459e-08
-6.38162e-07
4.75068e-09
-6.37632e-07
-3.67459e-09
-6.35891e-07
-1.21016e-08
-6.32942e-07
-2.05019e-08
-6.28792e-07
-2.88466e-08
-6.23455e-07
-3.71066e-08
-6.16947e-07
-4.52526e-08
-6.09287e-07
-5.32552e-08
-6.00501e-07
-6.10849e-08
-5.90616e-07