/*--------------------------------*- C++ -*----------------------------------*\
| =========                 |                                                 |
| \\      /  F ield         | OpenFOAM: The Open Source CFD Toolbox           |
|  \\    /   O peration     | Version:  2212                                  |
|   \\  /    A nd           | Website:  www.openfoam.com                      |
|    \\/     M anipulation  |                                                 |
\*---------------------------------------------------------------------------*/
FoamFile
{
    version     2.0;
    format      ascii;
    arch        "LSB;label=32;scalar=64";
    class       volVectorField;
    location    "0.0915";
    object      U_0;
}
// * * * * * * * * * * * * * * * * * * * * * * * * * * * * * * * * * * * * * //

dimensions      [0 1 -1 0 0 0 0];

internalField   nonuniform List<vector> 
10000
(
(3.00506e-06 -3.00526e-06 0)
(1.49624e-05 -7.74152e-06 0)
(3.4024e-05 -8.94487e-06 0)
(5.19707e-05 -7.72136e-06 0)
(6.37598e-05 -5.21108e-06 0)
(6.69505e-05 -2.07585e-06 0)
(6.02727e-05 1.31908e-06 0)
(4.31442e-05 4.76764e-06 0)
(1.54418e-05 8.15147e-06 0)
(-2.26647e-05 1.14018e-05 0)
(-7.08143e-05 1.44789e-05 0)
(-0.000128521 1.73592e-05 0)
(-0.000195215 2.00296e-05 0)
(-0.000270273 2.24836e-05 0)
(-0.000353035 2.47179e-05 0)
(-0.000442818 2.67317e-05 0)
(-0.000538932 2.85268e-05 0)
(-0.000640681 3.01062e-05 0)
(-0.000747372 3.14742e-05 0)
(-0.000858318 3.26349e-05 0)
(-0.000972843 3.35936e-05 0)
(-0.00109028 3.43559e-05 0)
(-0.00120999 3.49275e-05 0)
(-0.00133133 3.53146e-05 0)
(-0.00145368 3.55234e-05 0)
(-0.00157646 3.55599e-05 0)
(-0.00169908 3.54304e-05 0)
(-0.00182099 3.51416e-05 0)
(-0.00194164 3.46997e-05 0)
(-0.00206053 3.4111e-05 0)
(-0.00217716 3.33823e-05 0)
(-0.00229104 3.25198e-05 0)
(-0.00240174 3.153e-05 0)
(-0.00250882 3.04192e-05 0)
(-0.00261186 2.91937e-05 0)
(-0.00271049 2.78597e-05 0)
(-0.00280433 2.64237e-05 0)
(-0.00289304 2.48921e-05 0)
(-0.0029763 2.32709e-05 0)
(-0.0030538 2.15667e-05 0)
(-0.00312527 1.97857e-05 0)
(-0.00319045 1.7934e-05 0)
(-0.00324911 1.60185e-05 0)
(-0.00330103 1.40457e-05 0)
(-0.00334603 1.20216e-05 0)
(-0.00338395 9.95283e-06 0)
(-0.00341463 7.84614e-06 0)
(-0.00343796 5.70826e-06 0)
(-0.00345385 3.54591e-06 0)
(-0.00346222 1.36636e-06 0)
(-0.00346303 -8.23287e-07 0)
(-0.00345625 -3.01624e-06 0)
(-0.0034419 -5.2048e-06 0)
(-0.00342001 -7.38109e-06 0)
(-0.00339062 -9.53823e-06 0)
(-0.00335383 -1.16689e-05 0)
(-0.00330974 -1.37647e-05 0)
(-0.00325849 -1.58179e-05 0)
(-0.00320025 -1.78208e-05 0)
(-0.0031352 -1.97652e-05 0)
(-0.00306357 -2.16424e-05 0)
(-0.0029856 -2.34444e-05 0)
(-0.00290158 -2.51629e-05 0)
(-0.0028118 -2.67895e-05 0)
(-0.00271661 -2.83162e-05 0)
(-0.00261635 -2.97354e-05 0)
(-0.00251143 -3.10385e-05 0)
(-0.00240225 -3.22167e-05 0)
(-0.00228926 -3.32624e-05 0)
(-0.00217294 -3.41683e-05 0)
(-0.00205376 -3.49265e-05 0)
(-0.00193227 -3.55288e-05 0)
(-0.00180899 -3.59684e-05 0)
(-0.0016845 -3.62392e-05 0)
(-0.00155938 -3.63343e-05 0)
(-0.00143425 -3.62465e-05 0)
(-0.00130974 -3.59699e-05 0)
(-0.00118648 -3.54997e-05 0)
(-0.00106514 -3.48314e-05 0)
(-0.000946396 -3.396e-05 0)
(-0.00083093 -3.28811e-05 0)
(-0.000719433 -3.1592e-05 0)
(-0.000612603 -3.00905e-05 0)
(-0.00051114 -2.83745e-05 0)
(-0.000415739 -2.64428e-05 0)
(-0.000327085 -2.42961e-05 0)
(-0.000245852 -2.19372e-05 0)
(-0.000172689 -1.93708e-05 0)
(-0.00010821 -1.66038e-05 0)
(-5.29814e-05 -1.36477e-05 0)
(-7.4989e-06 -1.05209e-05 0)
(2.78363e-05 -7.25191e-06 0)
(5.27622e-05 -3.88543e-06 0)
(6.72203e-05 -4.9434e-07 0)
(7.14579e-05 2.798e-06 0)
(6.61879e-05 5.77958e-06 0)
(5.2813e-05 8.08385e-06 0)
(3.38916e-05 9.061e-06 0)
(1.45119e-05 7.61388e-06 0)
(2.78391e-06 2.78434e-06 0)
(7.73722e-06 -1.49521e-05 0)
(3.14062e-05 -3.13933e-05 0)
(6.31911e-05 -3.35673e-05 0)
(8.86713e-05 -2.5664e-05 0)
(9.82897e-05 -1.15424e-05 0)
(8.65161e-05 6.17661e-06 0)
(4.99483e-05 2.57813e-05 0)
(-1.32956e-05 4.61536e-05 0)
(-0.000103956 6.65614e-05 0)
(-0.000221963 8.65193e-05 0)
(-0.000366676 0.000105703 0)
(-0.000537051 0.000123892 0)
(-0.000731754 0.000140939 0)
(-0.000949253 0.000156748 0)
(-0.00118787 0.000171255 0)
(-0.00144584 0.000184424 0)
(-0.00172133 0.000196234 0)
(-0.00201247 0.000206682 0)
(-0.00231739 0.000215773 0)
(-0.00263421 0.000223524 0)
(-0.00296106 0.000229952 0)
(-0.0032961 0.000235085 0)
(-0.00363753 0.000238951 0)
(-0.00398357 0.000241582 0)
(-0.0043325 0.000243015 0)
(-0.00468262 0.000243285 0)
(-0.00503232 0.00024243 0)
(-0.00538 0.00024049 0)
(-0.00572414 0.000237505 0)
(-0.00606326 0.000233516 0)
(-0.00639596 0.000228565 0)
(-0.00672089 0.000222694 0)
(-0.00703673 0.000215946 0)
(-0.00734227 0.000208363 0)
(-0.00763632 0.000199988 0)
(-0.00791777 0.000190863 0)
(-0.00818558 0.000181031 0)
(-0.00843874 0.000170537 0)
(-0.00867633 0.000159423 0)
(-0.00889749 0.000147733 0)
(-0.00910143 0.000135512 0)
(-0.00928739 0.000122804 0)
(-0.00945471 0.000109654 0)
(-0.00960279 9.61066e-05 0)
(-0.00973109 8.22078e-05 0)
(-0.00983912 6.80032e-05 0)
(-0.00992649 5.35388e-05 0)
(-0.00999286 3.88627e-05 0)
(-0.010038 2.40233e-05 0)
(-0.0100616 9.06865e-06 0)
(-0.0100636 -5.95128e-06 0)
(-0.010044 -2.09859e-05 0)
(-0.0100028 -3.59847e-05 0)
(-0.00993997 -5.0896e-05 0)
(-0.00985582 -6.56673e-05 0)
(-0.00975054 -8.02465e-05 0)
(-0.00962445 -9.45801e-05 0)
(-0.00947796 -0.000108614 0)
(-0.00931154 -0.000122292 0)
(-0.00912575 -0.00013556 0)
(-0.00892123 -0.000148361 0)
(-0.00869868 -0.000160641 0)
(-0.00845892 -0.000172342 0)
(-0.0082028 -0.000183409 0)
(-0.0079313 -0.000193787 0)
(-0.00764543 -0.000203422 0)
(-0.00734632 -0.000212258 0)
(-0.00703515 -0.000220241 0)
(-0.00671319 -0.000227318 0)
(-0.00638176 -0.000233439 0)
(-0.00604229 -0.000238553 0)
(-0.00569624 -0.000242612 0)
(-0.00534517 -0.000245571 0)
(-0.00499066 -0.000247385 0)
(-0.0046344 -0.000248012 0)
(-0.00427808 -0.000247415 0)
(-0.00392349 -0.000245557 0)
(-0.00357243 -0.000242408 0)
(-0.00322675 -0.000237941 0)
(-0.00288832 -0.000232134 0)
(-0.00255905 -0.000224968 0)
(-0.00224085 -0.000216434 0)
(-0.00193563 -0.000206526 0)
(-0.0016453 -0.000195249 0)
(-0.00137173 -0.000182616 0)
(-0.00111678 -0.000168654 0)
(-0.000882207 -0.000153405 0)
(-0.000669697 -0.000136931 0)
(-0.000480804 -0.00011932 0)
(-0.000316906 -0.000100695 0)
(-0.000179149 -8.12294e-05 0)
(-6.83574e-05 -6.11688e-05 0)
(1.50767e-05 -4.08607e-05 0)
(7.13566e-05 -2.08107e-05 0)
(0.000101513 -1.76788e-06 0)
(0.000107722 1.51439e-05 0)
(9.36602e-05 2.82336e-05 0)
(6.50741e-05 3.49512e-05 0)
(3.16169e-05 3.16129e-05 0)
(7.60685e-06 1.45016e-05 0)
(8.96737e-06 -3.4032e-05 0)
(3.37151e-05 -6.32113e-05 0)
(6.20992e-05 -6.18202e-05 0)
(7.68781e-05 -3.8689e-05 0)
(6.65144e-05 -1.03396e-06 0)
(2.38376e-05 4.57519e-05 0)
(-5.58951e-05 9.7788e-05 0)
(-0.000175518 0.00015233 0)
(-0.000336331 0.00020745 0)
(-0.000538473 0.000261787 0)
(-0.000781215 0.000314382 0)
(-0.00106318 0.000364553 0)
(-0.00138253 0.000411819 0)
(-0.00173704 0.000455844 0)
(-0.00212427 0.0004964 0)
(-0.00254158 0.000533335 0)
(-0.00298619 0.000566559 0)
(-0.00345526 0.000596025 0)
(-0.0039459 0.000621724 0)
(-0.00445521 0.000643673 0)
(-0.00498029 0.000661911 0)
(-0.00551825 0.000676494 0)
(-0.00606625 0.000687492 0)
(-0.00662151 0.000694986 0)
(-0.00718129 0.000699065 0)
(-0.00774291 0.000699827 0)
(-0.0083038 0.000697374 0)
(-0.00886142 0.000691812 0)
(-0.00941335 0.000683253 0)
(-0.00995723 0.000671809 0)
(-0.0104908 0.000657598 0)
(-0.0110119 0.000640738 0)
(-0.0115185 0.000621348 0)
(-0.0120085 0.00059955 0)
(-0.0124801 0.000575464 0)
(-0.0129315 0.000549215 0)
(-0.0133609 0.000520925 0)
(-0.0137669 0.00049072 0)
(-0.014148 0.000458724 0)
(-0.0145026 0.000425066 0)
(-0.0148296 0.000389872 0)
(-0.0151277 0.000353271 0)
(-0.015396 0.000315394 0)
(-0.0156333 0.000276371 0)
(-0.0158389 0.000236334 0)
(-0.0160119 0.000195418 0)
(-0.0161518 0.000153759 0)
(-0.016258 0.000111492 0)
(-0.01633 6.87586e-05 0)
(-0.0163676 2.57006e-05 0)
(-0.0163706 -1.75396e-05 0)
(-0.0163388 -6.08159e-05 0)
(-0.0162723 -0.00010398 0)
(-0.0161713 -0.000146884 0)
(-0.016036 -0.000189377 0)
(-0.0158669 -0.000231305 0)
(-0.0156644 -0.000272514 0)
(-0.0154292 -0.000312849 0)
(-0.0151622 -0.000352151 0)
(-0.0148641 -0.000390261 0)
(-0.014536 -0.00042702 0)
(-0.0141791 -0.000462268 0)
(-0.0137946 -0.000495845 0)
(-0.0133839 -0.000527593 0)
(-0.0129487 -0.000557353 0)
(-0.0124905 -0.000584969 0)
(-0.0120111 -0.000610285 0)
(-0.0115125 -0.00063315 0)
(-0.0109966 -0.000653413 0)
(-0.0104656 -0.000670932 0)
(-0.00992171 -0.000685566 0)
(-0.00936732 -0.00069718 0)
(-0.00880488 -0.000705646 0)
(-0.00823693 -0.000710843 0)
(-0.00766611 -0.000712658 0)
(-0.00709515 -0.000710986 0)
(-0.00652684 -0.000705734 0)
(-0.00596404 -0.000696821 0)
(-0.00540966 -0.000684179 0)
(-0.00486664 -0.000667754 0)
(-0.00433797 -0.00064751 0)
(-0.00382663 -0.000623429 0)
(-0.00333559 -0.000595519 0)
(-0.0028678 -0.00056381 0)
(-0.00242615 -0.000528369 0)
(-0.00201344 -0.000489299 0)
(-0.00163235 -0.000446754 0)
(-0.00128538 -0.00040095 0)
(-0.000974814 -0.000352182 0)
(-0.000702619 -0.000300854 0)
(-0.000470369 -0.000247512 0)
(-0.000279118 -0.000192897 0)
(-0.000129235 -0.000138025 0)
(-2.01938e-05 -8.43012e-05 0)
(4.97108e-05 -3.36782e-05 0)
(8.37155e-05 1.11099e-05 0)
(8.69302e-05 4.62532e-05 0)
(6.68076e-05 6.6535e-05 0)
(3.50767e-05 6.50977e-05 0)
(9.07221e-06 3.38834e-05 0)
(7.814e-06 -5.21136e-05 0)
(2.61206e-05 -8.89668e-05 0)
(3.96511e-05 -7.67407e-05 0)
(3.08275e-05 -2.96123e-05 0)
(-1.24538e-05 4.16372e-05 0)
(-9.8111e-05 0.000128681 0)
(-0.000231557 0.000225239 0)
(-0.000416149 0.000326668 0)
(-0.000653534 0.000429556 0)
(-0.000943995 0.000531399 0)
(-0.00128676 0.000630367 0)
(-0.00168022 0.000725117 0)
(-0.00212216 0.000814672 0)
(-0.00260985 0.000898329 0)
(-0.00314022 0.000975587 0)
(-0.00370993 0.0010461 0)
(-0.00431543 0.00110966 0)
(-0.00495306 0.00116612 0)
(-0.00561906 0.00121543 0)
(-0.00630965 0.00125759 0)
(-0.007021 0.00129265 0)
(-0.00774934 0.00132071 0)
(-0.00849091 0.00134186 0)
(-0.00924199 0.00135625 0)
(-0.00999896 0.00136405 0)
(-0.0107583 0.00136543 0)
(-0.0115164 0.00136057 0)
(-0.01227 0.00134967 0)
(-0.0130159 0.00133295 0)
(-0.0137508 0.00131062 0)
(-0.0144718 0.00128289 0)
(-0.0151759 0.00125 0)
(-0.0158603 0.00121218 0)
(-0.0165223 0.00116965 0)
(-0.0171594 0.00112266 0)
(-0.0177691 0.00107144 0)
(-0.0183493 0.00101623 0)
(-0.0188977 0.000957284 0)
(-0.0194124 0.000894836 0)
(-0.0198913 0.000829137 0)
(-0.0203329 0.000760438 0)
(-0.0207355 0.000688989 0)
(-0.0210977 0.000615046 0)
(-0.0214181 0.000538866 0)
(-0.0216955 0.000460709 0)
(-0.021929 0.000380837 0)
(-0.0221177 0.000299519 0)
(-0.0222608 0.000217023 0)
(-0.0223578 0.000133622 0)
(-0.0224082 4.95945e-05 0)
(-0.0224118 -3.47779e-05 0)
(-0.0223685 -0.000119211 0)
(-0.0222784 -0.000203417 0)
(-0.0221416 -0.000287102 0)
(-0.0219586 -0.000369972 0)
(-0.0217298 -0.000451727 0)
(-0.021456 -0.000532067 0)
(-0.0211381 -0.000610687 0)
(-0.0207772 -0.000687279 0)
(-0.0203744 -0.000761534 0)
(-0.0199312 -0.000833143 0)
(-0.019449 -0.000901796 0)
(-0.0189298 -0.000967182 0)
(-0.0183752 -0.00102899 0)
(-0.0177875 -0.00108693 0)
(-0.0171688 -0.00114067 0)
(-0.0165216 -0.00118994 0)
(-0.0158484 -0.00123443 0)
(-0.015152 -0.00127386 0)
(-0.0144351 -0.00130796 0)
(-0.0137009 -0.00133644 0)
(-0.0129524 -0.00135907 0)
(-0.0121931 -0.00137559 0)
(-0.0114262 -0.00138577 0)
(-0.0106553 -0.00138941 0)
(-0.00988405 -0.00138631 0)
(-0.00911618 -0.0013763 0)
(-0.00835546 -0.00135923 0)
(-0.00760577 -0.00133499 0)
(-0.006871 -0.00130348 0)
(-0.00615508 -0.00126466 0)
(-0.00546195 -0.00121851 0)
(-0.00479548 -0.00116507 0)
(-0.00415954 -0.00110443 0)
(-0.00355787 -0.00103675 0)
(-0.00299409 -0.000962257 0)
(-0.0024716 -0.000881303 0)
(-0.0019936 -0.000794344 0)
(-0.00156293 -0.000702002 0)
(-0.001182 -0.000605101 0)
(-0.000852717 -0.000504732 0)
(-0.000576272 -0.000402345 0)
(-0.000353004 -0.000299863 0)
(-0.000182155 -0.000199857 0)
(-6.15886e-05 -0.000105768 0)
(1.25381e-05 -2.22094e-05 0)
(4.6082e-05 4.46691e-05 0)
(4.73192e-05 8.68191e-05 0)
(2.86895e-05 9.39726e-05 0)
(8.15812e-06 5.29177e-05 0)
(5.41081e-06 -6.42531e-05 0)
(1.2454e-05 -9.9281e-05 0)
(2.97118e-06 -6.70106e-05 0)
(-3.89094e-05 1.34172e-05 0)
(-0.00012478 0.00012777 0)
(-0.000262676 0.000264878 0)
(-0.000458164 0.000416089 0)
(-0.00071475 0.000574803 0)
(-0.00103418 0.000736018 0)
(-0.00141676 0.000895953 0)
(-0.00186163 0.00105176 0)
(-0.00236699 0.0012013 0)
(-0.00293029 0.00134297 0)
(-0.00354839 0.00147559 0)
(-0.00421772 0.00159831 0)
(-0.00493434 0.00171051 0)
(-0.00569407 0.00181178 0)
(-0.00649254 0.00190186 0)
(-0.00732526 0.00198061 0)
(-0.00818766 0.00204799 0)
(-0.00907515 0.00210405 0)
(-0.00998313 0.00214889 0)
(-0.010907 0.00218267 0)
(-0.0118423 0.00220559 0)
(-0.0127846 0.0022179 0)
(-0.0137294 0.00221985 0)
(-0.0146726 0.00221173 0)
(-0.01561 0.00219386 0)
(-0.0165376 0.00216656 0)
(-0.0174514 0.00213017 0)
(-0.0183478 0.00208504 0)
(-0.019223 0.00203154 0)
(-0.0200738 0.00197002 0)
(-0.0208966 0.00190087 0)
(-0.0216884 0.00182446 0)
(-0.0224463 0.00174118 0)
(-0.0231672 0.00165141 0)
(-0.0238487 0.00155556 0)
(-0.0244882 0.00145403 0)
(-0.0250833 0.0013472 0)
(-0.0256318 0.0012355 0)
(-0.026132 0.00111932 0)
(-0.0265818 0.000999093 0)
(-0.0269796 0.000875229 0)
(-0.0273241 0.000748156 0)
(-0.027614 0.000618301 0)
(-0.0278481 0.0004861 0)
(-0.0280255 0.000351993 0)
(-0.0281457 0.000216428 0)
(-0.028208 7.98541e-05 0)
(-0.0282121 -5.72687e-05 0)
(-0.0281579 -0.000194476 0)
(-0.0280456 -0.000331298 0)
(-0.0278753 -0.00046726 0)
(-0.0276475 -0.00060188 0)
(-0.027363 -0.000734674 0)
(-0.0270225 -0.000865151 0)
(-0.0266274 -0.000992817 0)
(-0.0261787 -0.00111717 0)
(-0.0256781 -0.00123772 0)
(-0.0251273 -0.00135396 0)
(-0.0245283 -0.00146538 0)
(-0.0238831 -0.00157149 0)
(-0.0231942 -0.00167179 0)
(-0.0224641 -0.00176579 0)
(-0.0216955 -0.00185299 0)
(-0.0208916 -0.00193293 0)
(-0.0200554 -0.00200512 0)
(-0.0191902 -0.00206912 0)
(-0.0182997 -0.00212447 0)
(-0.0173876 -0.00217076 0)
(-0.0164577 -0.00220756 0)
(-0.0155141 -0.00223451 0)
(-0.014561 -0.00225123 0)
(-0.0136027 -0.0022574 0)
(-0.0126437 -0.00225272 0)
(-0.0116885 -0.00223693 0)
(-0.0107419 -0.0022098 0)
(-0.00980834 -0.00217116 0)
(-0.00889277 -0.0021209 0)
(-0.0079999 -0.00205896 0)
(-0.00713449 -0.00198533 0)
(-0.00630124 -0.00190012 0)
(-0.00550479 -0.0018035 0)
(-0.00474961 -0.00169578 0)
(-0.00404001 -0.00157738 0)
(-0.00338004 -0.00144889 0)
(-0.00277343 -0.0013111 0)
(-0.0022235 -0.00116507 0)
(-0.00173305 -0.00101215 0)
(-0.00130422 -0.000854119 0)
(-0.000938379 -0.000693267 0)
(-0.000635872 -0.000532576 0)
(-0.000395858 -0.000375921 0)
(-0.00021603 -0.000228339 0)
(-9.23253e-05 -9.63811e-05 0)
(-1.86521e-05 1.14775e-05 0)
(1.34724e-05 8.44246e-05 0)
(1.61515e-05 0.000108843 0)
(5.96616e-06 6.66403e-05 0)
(2.40422e-06 -6.80731e-05 0)
(-4.73706e-06 -8.87198e-05 0)
(-4.27387e-05 -2.55396e-05 0)
(-0.000124373 9.82754e-05 0)
(-0.000259909 0.000265402 0)
(-0.000457002 0.00046205 0)
(-0.000720967 0.00067732 0)
(-0.00105513 0.000902706 0)
(-0.00146111 0.0011316 0)
(-0.00193908 0.0013589 0)
(-0.00248802 0.00158065 0)
(-0.00310588 0.00179383 0)
(-0.00378983 0.00199613 0)
(-0.00453635 0.00218582 0)
(-0.00534142 0.00236159 0)
(-0.00620062 0.00252251 0)
(-0.00710918 0.00266792 0)
(-0.00806216 0.00279737 0)
(-0.00905441 0.00291061 0)
(-0.0100807 0.00300754 0)
(-0.0111357 0.00308818 0)
(-0.0122142 0.00315264 0)
(-0.0133108 0.00320111 0)
(-0.0144203 0.00323387 0)
(-0.0155375 0.00325121 0)
(-0.0166574 0.00325352 0)
(-0.0177749 0.00324119 0)
(-0.0188853 0.00321466 0)
(-0.0199837 0.00317438 0)
(-0.0210657 0.00312085 0)
(-0.0221269 0.00305456 0)
(-0.0231629 0.00297603 0)
(-0.0241698 0.00288579 0)
(-0.0251435 0.00278438 0)
(-0.0260805 0.00267236 0)
(-0.0269771 0.00255027 0)
(-0.0278301 0.00241871 0)
(-0.0286362 0.00227822 0)
(-0.0293926 0.00212941 0)
(-0.0300965 0.00197286 0)
(-0.0307452 0.00180916 0)
(-0.0313366 0.00163892 0)
(-0.0318685 0.00146274 0)
(-0.0323388 0.00128124 0)
(-0.032746 0.00109505 0)
(-0.0330885 0.000904796 0)
(-0.0333651 0.000711114 0)
(-0.0335747 0.000514653 0)
(-0.0337164 0.000316068 0)
(-0.0337898 0.000116023 0)
(-0.0337943 -8.48093e-05 0)
(-0.0337299 -0.000285749 0)
(-0.0335966 -0.000486107 0)
(-0.0333949 -0.000685186 0)
(-0.0331252 -0.000882283 0)
(-0.0327884 -0.00107669 0)
(-0.0323856 -0.00126768 0)
(-0.031918 -0.00145454 0)
(-0.0313872 -0.00163653 0)
(-0.030795 -0.00181294 0)
(-0.0301435 -0.00198302 0)
(-0.029435 -0.00214605 0)
(-0.0286719 -0.00230131 0)
(-0.0278572 -0.00244805 0)
(-0.0269937 -0.00258558 0)
(-0.0260848 -0.00271318 0)
(-0.025134 -0.00283016 0)
(-0.024145 -0.00293583 0)
(-0.0231217 -0.00302953 0)
(-0.0220683 -0.00311064 0)
(-0.0209893 -0.00317852 0)
(-0.019889 -0.00323261 0)
(-0.0187723 -0.00327234 0)
(-0.0176441 -0.00329721 0)
(-0.0165094 -0.00330675 0)
(-0.0153735 -0.00330054 0)
(-0.0142416 -0.00327822 0)
(-0.0131192 -0.00323949 0)
(-0.0120117 -0.00318413 0)
(-0.0109246 -0.00311198 0)
(-0.00986342 -0.003023 0)
(-0.00883369 -0.00291722 0)
(-0.00784081 -0.00279483 0)
(-0.00689007 -0.00265612 0)
(-0.00598662 -0.00250159 0)
(-0.00513535 -0.00233189 0)
(-0.00434085 -0.00214794 0)
(-0.00360735 -0.00195094 0)
(-0.00293857 -0.00174243 0)
(-0.00233766 -0.00152442 0)
(-0.00180702 -0.00129944 0)
(-0.00134819 -0.00107072 0)
(-0.00096165 -0.000842399 0)
(-0.000646632 -0.000619699 0)
(-0.00040089 -0.000409276 0)
(-0.000220471 -0.000219579 0)
(-9.94526e-05 -6.12998e-05 0)
(-2.9624e-05 5.21755e-05 0)
(-2.28613e-08 0.000104191 0)
(3.14083e-06 7.2608e-05 0)
(-8.56724e-07 -6.23246e-05 0)
(-2.38357e-05 -5.38688e-05 0)
(-9.38467e-05 5.25083e-05 0)
(-0.000219753 0.000230569 0)
(-0.000409937 0.000460409 0)
(-0.000671292 0.000725935 0)
(-0.00100855 0.00101421 0)
(-0.00142459 0.00131493 0)
(-0.00192068 0.00161995 0)
(-0.00249673 0.00192283 0)
(-0.00315143 0.00221851 0)
(-0.00388246 0.00250305 0)
(-0.00468664 0.00277337 0)
(-0.00556012 0.00302711 0)
(-0.00649846 0.00326248 0)
(-0.00749678 0.00347817 0)
(-0.00854983 0.00367321 0)
(-0.00965212 0.00384696 0)
(-0.0107979 0.00399901 0)
(-0.0119815 0.00412917 0)
(-0.0131968 0.00423739 0)
(-0.0144379 0.0043238 0)
(-0.015699 0.00438862 0)
(-0.0169741 0.00443216 0)
(-0.0182573 0.00445483 0)
(-0.0195431 0.00445709 0)
(-0.0208256 0.00443946 0)
(-0.0220996 0.00440252 0)
(-0.0233595 0.00434687 0)
(-0.0246002 0.00427316 0)
(-0.0258168 0.00418206 0)
(-0.0270044 0.00407426 0)
(-0.0281583 0.00395048 0)
(-0.0292742 0.00381145 0)
(-0.0303478 0.00365791 0)
(-0.031375 0.00349064 0)
(-0.0323521 0.00331039 0)
(-0.0332755 0.00311797 0)
(-0.0341417 0.00291415 0)
(-0.0349478 0.00269974 0)
(-0.0356907 0.00247557 0)
(-0.0363678 0.00224245 0)
(-0.0369767 0.00200122 0)
(-0.0375151 0.00175272 0)
(-0.0379811 0.00149781 0)
(-0.0383731 0.00123735 0)
(-0.0386895 0.000972215 0)
(-0.0389292 0.000703295 0)
(-0.0390912 0.000431486 0)
(-0.0391748 0.000157699 0)
(-0.0391797 -0.000117147 0)
(-0.0391057 -0.000392118 0)
(-0.0389528 -0.000666272 0)
(-0.0387215 -0.000938656 0)
(-0.0384125 -0.00120831 0)
(-0.0380266 -0.00147425 0)
(-0.0375652 -0.00173551 0)
(-0.0370296 -0.0019911 0)
(-0.0364218 -0.00224002 0)
(-0.0357436 -0.00248129 0)
(-0.0349976 -0.0027139 0)
(-0.0341862 -0.00293686 0)
(-0.0333124 -0.00314919 0)
(-0.0323794 -0.00334989 0)
(-0.0313907 -0.003538 0)
(-0.0303498 -0.00371256 0)
(-0.0292609 -0.00387262 0)
(-0.0281281 -0.00401726 0)
(-0.026956 -0.0041456 0)
(-0.0257493 -0.00425677 0)
(-0.0245129 -0.00434995 0)
(-0.0232519 -0.00442435 0)
(-0.0219719 -0.00447924 0)
(-0.0206782 -0.00451394 0)
(-0.0193767 -0.00452783 0)
(-0.0180732 -0.00452037 0)
(-0.0167737 -0.00449108 0)
(-0.0154843 -0.0044396 0)
(-0.0142111 -0.00436563 0)
(-0.0129603 -0.004269 0)
(-0.0117381 -0.0041497 0)
(-0.0105507 -0.00400781 0)
(-0.00940403 -0.00384361 0)
(-0.00830409 -0.00365758 0)
(-0.00725656 -0.0034504 0)
(-0.00626687 -0.00322305 0)
(-0.0053401 -0.0029768 0)
(-0.00448091 -0.00271331 0)
(-0.00369343 -0.0024347 0)
(-0.00298114 -0.00214366 0)
(-0.00234672 -0.00184355 0)
(-0.00179197 -0.00153861 0)
(-0.0013176 -0.00123411 0)
(-0.000923062 -0.000936667 0)
(-0.000606401 -0.000654492 0)
(-0.000364037 -0.000397829 0)
(-0.00019054 -0.000179404 0)
(-7.83512e-05 -1.48877e-05 0)
(-1.8213e-05 7.64884e-05 0)
(3.64089e-08 6.95048e-05 0)
(-4.1806e-06 -4.6396e-05 0)
(-4.38263e-05 7.29677e-06 0)
(-0.000147888 0.000170258 0)
(-0.000320927 0.000414118 0)
(-0.000569094 0.000716931 0)
(-0.000898239 0.00106067 0)
(-0.00131226 0.00143062 0)
(-0.00181334 0.00181485 0)
(-0.00240226 0.00220376 0)
(-0.00307847 0.00258966 0)
(-0.0038403 0.00296639 0)
(-0.00468506 0.00332906 0)
(-0.00560922 0.00367382 0)
(-0.00660856 0.00399767 0)
(-0.00767822 0.00429828 0)
(-0.0088129 0.00457391 0)
(-0.0100069 0.00482328 0)
(-0.0112542 0.0050455 0)
(-0.0125487 0.00523997 0)
(-0.0138839 0.0054064 0)
(-0.0152534 0.00554467 0)
(-0.0166506 0.00565489 0)
(-0.0180691 0.00573729 0)
(-0.0195024 0.00579224 0)
(-0.0209441 0.00582023 0)
(-0.0223878 0.00582183 0)
(-0.0238273 0.00579769 0)
(-0.0252566 0.00574852 0)
(-0.0266697 0.00567508 0)
(-0.0280609 0.0055782 0)
(-0.0294247 0.00545873 0)
(-0.0307558 0.00531756 0)
(-0.0320488 0.00515561 0)
(-0.033299 0.00497382 0)
(-0.0345017 0.00477316 0)
(-0.0356522 0.00455462 0)
(-0.0367465 0.00431918 0)
(-0.0377805 0.00406788 0)
(-0.0387504 0.00380175 0)
(-0.0396529 0.00352183 0)
(-0.0404845 0.00322919 0)
(-0.0412424 0.00292489 0)
(-0.0419239 0.00261004 0)
(-0.0425264 0.00228572 0)
(-0.0430479 0.00195305 0)
(-0.0434864 0.00161317 0)
(-0.0438404 0.00126721 0)
(-0.0441084 0.000916338 0)
(-0.0442895 0.000561719 0)
(-0.0443829 0.000204543 0)
(-0.0443881 -0.000153989 0)
(-0.044305 -0.000512663 0)
(-0.0441337 -0.000870247 0)
(-0.0438747 -0.0012255 0)
(-0.0435286 -0.00157717 0)
(-0.0430966 -0.00192399 0)
(-0.04258 -0.00226468 0)
(-0.0419805 -0.00259796 0)
(-0.0413001 -0.00292255 0)
(-0.040541 -0.00323714 0)
(-0.0397059 -0.00354045 0)
(-0.0387977 -0.00383119 0)
(-0.0378196 -0.00410808 0)
(-0.0367751 -0.00436983 0)
(-0.0356682 -0.0046152 0)
(-0.0345029 -0.00484294 0)
(-0.0332836 -0.00505184 0)
(-0.0320151 -0.00524071 0)
(-0.0307023 -0.00540841 0)
(-0.0293505 -0.00555382 0)
(-0.0279652 -0.00567589 0)
(-0.026552 -0.00577362 0)
(-0.025117 -0.00584608 0)
(-0.0236663 -0.00589239 0)
(-0.0222061 -0.00591178 0)
(-0.0207431 -0.00590357 0)
(-0.0192837 -0.00586718 0)
(-0.0178347 -0.00580214 0)
(-0.0164029 -0.00570813 0)
(-0.014995 -0.00558496 0)
(-0.0136178 -0.00543263 0)
(-0.0122782 -0.00525132 0)
(-0.0109826 -0.00504143 0)
(-0.00973756 -0.00480362 0)
(-0.0085493 -0.00453884 0)
(-0.00742374 -0.00424838 0)
(-0.00636642 -0.00393392 0)
(-0.00538243 -0.00359763 0)
(-0.00447627 -0.00324224 0)
(-0.00365177 -0.00287116 0)
(-0.00291197 -0.00248862 0)
(-0.00225899 -0.00209986 0)
(-0.00169386 -0.00171131 0)
(-0.00121645 -0.00133089 0)
(-0.000825228 -0.000968303 0)
(-0.000517232 -0.00063543 0)
(-0.000287773 -0.000346799 0)
(-0.000130224 -0.000120025 0)
(-3.73877e-05 2.36e-05 0)
(-3.15105e-06 5.66619e-05 0)
(-7.46704e-06 -2.00774e-05 0)
(-6.40833e-05 9.58044e-05 0)
(-0.000203222 0.000329516 0)
(-0.000425029 0.000651306 0)
(-0.000733239 0.0010377 0)
(-0.00113247 0.00146911 0)
(-0.00162559 0.0019293 0)
(-0.00221395 0.00240493 0)
(-0.00289763 0.00288509 0)
(-0.00367553 0.00336089 0)
(-0.0045455 0.00382512 0)
(-0.00550442 0.004272 0)
(-0.00654836 0.0046969 0)
(-0.00767266 0.00509614 0)
(-0.00887209 0.00546686 0)
(-0.0101409 0.00580689 0)
(-0.011473 0.00611459 0)
(-0.0128618 0.00638878 0)
(-0.0143008 0.00662869 0)
(-0.0157831 0.00683388 0)
(-0.0173016 0.00700417 0)
(-0.0188494 0.00713961 0)
(-0.0204194 0.00724046 0)
(-0.0220046 0.00730713 0)
(-0.023598 0.00734019 0)
(-0.0251928 0.00734032 0)
(-0.0267823 0.00730829 0)
(-0.0283599 0.00724496 0)
(-0.029919 0.00715128 0)
(-0.0314536 0.00702825 0)
(-0.0329574 0.00687692 0)
(-0.0344248 0.00669838 0)
(-0.03585 0.00649379 0)
(-0.0372277 0.0062643 0)
(-0.0385528 0.00601113 0)
(-0.0398203 0.0057355 0)
(-0.0410256 0.00543868 0)
(-0.0421643 0.00512192 0)
(-0.0432324 0.00478653 0)
(-0.0442261 0.00443383 0)
(-0.0451417 0.00406514 0)
(-0.0459761 0.00368182 0)
(-0.0467262 0.00328524 0)
(-0.0473894 0.00287677 0)
(-0.0479633 0.00245783 0)
(-0.0484459 0.00202983 0)
(-0.0488354 0.00159421 0)
(-0.0491303 0.00115243 0)
(-0.0493295 0.000705966 0)
(-0.0494321 0.00025631 0)
(-0.0494378 -0.000195027 0)
(-0.0493462 -0.000646515 0)
(-0.0491576 -0.00109661 0)
(-0.0488724 -0.00154375 0)
(-0.0484915 -0.00198636 0)
(-0.0480159 -0.00242285 0)
(-0.0474473 -0.00285162 0)
(-0.0467875 -0.00327106 0)
(-0.0460385 -0.00367956 0)
(-0.045203 -0.00407549 0)
(-0.0442838 -0.00445724 0)
(-0.0432841 -0.00482319 0)
(-0.0422073 -0.00517174 0)
(-0.0410575 -0.00550129 0)
(-0.0398387 -0.00581028 0)
(-0.0385555 -0.00609717 0)
(-0.0372127 -0.00636042 0)
(-0.0358154 -0.00659858 0)
(-0.0343692 -0.00681022 0)
(-0.0328796 -0.00699395 0)
(-0.0313526 -0.00714847 0)
(-0.0297946 -0.00727255 0)
(-0.0282119 -0.00736503 0)
(-0.0266113 -0.00742485 0)
(-0.0249996 -0.00745107 0)
(-0.0233838 -0.00744284 0)
(-0.0217711 -0.00739949 0)
(-0.0201689 -0.00732046 0)
(-0.0185843 -0.00720538 0)
(-0.0170248 -0.00705406 0)
(-0.0154977 -0.00686654 0)
(-0.0140103 -0.00664309 0)
(-0.0125698 -0.00638425 0)
(-0.011183 -0.0060909 0)
(-0.00985667 -0.00576426 0)
(-0.00859726 -0.00540596 0)
(-0.00741072 -0.00501814 0)
(-0.00630256 -0.0046035 0)
(-0.00527769 -0.00416539 0)
(-0.00434033 -0.00370798 0)
(-0.00349391 -0.00323635 0)
(-0.00274096 -0.00275672 0)
(-0.00208295 -0.00227665 0)
(-0.00152024 -0.0018053 0)
(-0.00105195 -0.00135372 0)
(-0.00067587 -0.000935263 0)
(-0.000388245 -0.000566011 0)
(-0.000183571 -0.000265168 0)
(-5.69036e-05 -5.55998e-05 0)
(-6.31623e-06 3.38243e-05 0)
(-1.06664e-05 1.6604e-05 0)
(-8.42294e-05 0.000212018 0)
(-0.000258781 0.000531149 0)
(-0.000530098 0.000943444 0)
(-0.000899447 0.00142434 0)
(-0.0013701 0.00195305 0)
(-0.00194377 0.00251208 0)
(-0.00262082 0.00308687 0)
(-0.00340054 0.00366535 0)
(-0.00428116 0.00423755 0)
(-0.00525994 0.0047953 0)
(-0.00633328 0.00533194 0)
(-0.00749675 0.00584208 0)
(-0.00874528 0.00632142 0)
(-0.0100732 0.00676654 0)
(-0.0114743 0.00717481 0)
(-0.0129421 0.00754424 0)
(-0.0144696 0.00787337 0)
(-0.0160497 0.00816122 0)
(-0.0176751 0.00840718 0)
(-0.0193383 0.008611 0)
(-0.021032 0.00877268 0)
(-0.0227484 0.0088925 0)
(-0.0244801 0.0089709 0)
(-0.0262197 0.00900853 0)
(-0.0279599 0.00900617 0)
(-0.0296933 0.00896473 0)
(-0.031413 0.00888524 0)
(-0.033112 0.0087688 0)
(-0.0347836 0.00861663 0)
(-0.0364212 0.00842997 0)
(-0.0380187 0.00821015 0)
(-0.03957 0.00795855 0)
(-0.0410692 0.00767659 0)
(-0.0425109 0.00736572 0)
(-0.0438897 0.00702744 0)
(-0.0452006 0.00666327 0)
(-0.046439 0.00627477 0)
(-0.0476005 0.00586352 0)
(-0.0486808 0.00543111 0)
(-0.0496762 0.00497918 0)
(-0.0505832 0.00450938 0)
(-0.0513986 0.00402338 0)
(-0.0521194 0.00352287 0)
(-0.0527432 0.00300957 0)
(-0.0532676 0.00248522 0)
(-0.0536909 0.00195157 0)
(-0.0540113 0.00141042 0)
(-0.0542278 0.000863567 0)
(-0.0543393 0.000312834 0)
(-0.0543455 -0.000239929 0)
(-0.054246 -0.000792852 0)
(-0.0540411 -0.00134405 0)
(-0.0537313 -0.00189161 0)
(-0.0533175 -0.00243361 0)
(-0.0528009 -0.0029681 0)
(-0.0521831 -0.00349314 0)
(-0.0514661 -0.00400677 0)
(-0.0506523 -0.004507 0)
(-0.0497444 -0.00499188 0)
(-0.0487455 -0.00545942 0)
(-0.047659 -0.00590767 0)
(-0.0464887 -0.00633467 0)
(-0.0452387 -0.00673848 0)
(-0.0439137 -0.0071172 0)
(-0.0425184 -0.00746896 0)
(-0.0410581 -0.0077919 0)
(-0.0395382 -0.00808426 0)
(-0.0379647 -0.00834431 0)
(-0.0363436 -0.00857037 0)
(-0.0346814 -0.00876088 0)
(-0.0329849 -0.00891435 0)
(-0.0312608 -0.0090294 0)
(-0.0295164 -0.00910475 0)
(-0.0277592 -0.00913928 0)
(-0.0259965 -0.00913202 0)
(-0.0242362 -0.00908213 0)
(-0.0224859 -0.00898899 0)
(-0.0207536 -0.00885219 0)
(-0.019047 -0.00867155 0)
(-0.0173741 -0.00844713 0)
(-0.0157427 -0.00817932 0)
(-0.0141603 -0.00786883 0)
(-0.0126344 -0.00751674 0)
(-0.0111722 -0.00712457 0)
(-0.00978054 -0.00669434 0)
(-0.00846582 -0.00622863 0)
(-0.007234 -0.00573068 0)
(-0.0060904 -0.00520448 0)
(-0.00503969 -0.00465494 0)
(-0.00408575 -0.004088 0)
(-0.00323159 -0.00351082 0)
(-0.00247922 -0.00293202 0)
(-0.00182961 -0.00236188 0)
(-0.00128264 -0.0018127 0)
(-0.000836982 -0.00129911 0)
(-0.000489958 -0.000838485 0)
(-0.000237295 -0.000451297 0)
(-7.63667e-05 -0.000161556 0)
(-9.40483e-06 9.85499e-07 0)
(-1.37567e-05 6.34855e-05 0)
(-0.000104043 0.000355873 0)
(-0.000313884 0.000775373 0)
(-0.00063483 0.00129106 0)
(-0.0010657 0.00187766 0)
(-0.00160837 0.00251347 0)
(-0.00226333 0.00318001 0)
(-0.00302985 0.00386169 0)
(-0.00390633 0.00454543 0)
(-0.00489025 0.0052203 0)
(-0.00597821 0.00587726 0)
(-0.00716603 0.00650883 0)
(-0.00844876 0.00710891 0)
(-0.00982084 0.00767258 0)
(-0.0112761 0.0081959 0)
(-0.012808 0.00867578 0)
(-0.0144095 0.00910986 0)
(-0.0160732 0.00949642 0)
(-0.0177917 0.00983424 0)
(-0.019557 0.0101226 0)
(-0.0213614 0.0103611 0)
(-0.0231969 0.0105497 0)
(-0.0250555 0.0106886 0)
(-0.0269292 0.0107785 0)
(-0.0288102 0.01082 0)
(-0.0306907 0.0108139 0)
(-0.0325629 0.0107614 0)
(-0.0344194 0.0106636 0)
(-0.0362529 0.0105219 0)
(-0.0380561 0.0103375 0)
(-0.0398222 0.0101121 0)
(-0.0415444 0.00984714 0)
(-0.0432164 0.00954428 0)
(-0.0448319 0.00920518 0)
(-0.0463851 0.00883159 0)
(-0.0478703 0.00842528 0)
(-0.0492822 0.00798805 0)
(-0.0506158 0.00752177 0)
(-0.0518663 0.00702831 0)
(-0.0530294 0.00650959 0)
(-0.0541009 0.00596755 0)
(-0.0550772 0.00540417 0)
(-0.0559548 0.00482143 0)
(-0.0567306 0.00422137 0)
(-0.0574019 0.00360604 0)
(-0.0579663 0.00297752 0)
(-0.0584219 0.00233791 0)
(-0.0587668 0.00168935 0)
(-0.0589998 0.001034 0)
(-0.0591201 0.000374027 0)
(-0.0591269 -0.000288343 0)
(-0.0590201 -0.00095088 0)
(-0.0587999 -0.00161133 0)
(-0.0584668 -0.00226741 0)
(-0.0580219 -0.00291682 0)
(-0.0574664 -0.00355724 0)
(-0.056802 -0.00418635 0)
(-0.0560309 -0.0048018 0)
(-0.0551555 -0.00540124 0)
(-0.0541789 -0.00598233 0)
(-0.0531042 -0.0065427 0)
(-0.0519351 -0.00708003 0)
(-0.0506756 -0.00759198 0)
(-0.0493304 -0.00807627 0)
(-0.047904 -0.00853061 0)