/*--------------------------------*- C++ -*----------------------------------*\
| =========                 |                                                 |
| \\      /  F ield         | OpenFOAM: The Open Source CFD Toolbox           |
|  \\    /   O peration     | Version:  2212                                  |
|   \\  /    A nd           | Website:  www.openfoam.com                      |
|    \\/     M anipulation  |                                                 |
\*---------------------------------------------------------------------------*/
FoamFile
{
    version     2.0;
    format      ascii;
    arch        "LSB;label=32;scalar=64";
    class       surfaceScalarField;
    location    "0.0685";
    object      phi;
}
// * * * * * * * * * * * * * * * * * * * * * * * * * * * * * * * * * * * * * //

dimensions      [0 3 -1 0 0 0 0];

oriented        oriented;

internalField   nonuniform List<scalar> 
19800
(
6.87812e-11
-6.88066e-11
2.33767e-10
-1.65003e-10
4.16649e-10
-1.8288e-10
5.59441e-10
-1.42799e-10
6.30074e-10
-7.06288e-11
6.10767e-10
1.92894e-11
4.92723e-10
1.18054e-10
2.7269e-10
2.20012e-10
-4.89211e-11
3.21629e-10
-4.69501e-10
4.20578e-10
-9.84871e-10
5.15372e-10
-1.58988e-09
6.05023e-10
-2.27873e-09
6.88853e-10
-3.04517e-09
7.66448e-10
-3.88269e-09
8.37534e-10
-4.78464e-09
9.01946e-10
-5.7443e-09
9.59645e-10
-6.75492e-09
1.01063e-09
-7.80986e-09
1.05493e-09
-8.9025e-09
1.09264e-09
-1.00264e-08
1.12388e-09
-1.11751e-08
1.14876e-09
-1.23426e-08
1.16744e-09
-1.35226e-08
1.18008e-09
-1.47095e-08
1.18688e-09
-1.58975e-08
1.18799e-09
-1.70812e-08
1.18363e-09
-1.82552e-08
1.17399e-09
-1.94144e-08
1.15927e-09
-2.05541e-08
1.13966e-09
-2.16695e-08
1.11539e-09
-2.27561e-08
1.08666e-09
-2.38098e-08
1.05366e-09
-2.48264e-08
1.0166e-09
-2.58021e-08
9.75713e-10
-2.67333e-08
9.31193e-10
-2.76165e-08
8.83242e-10
-2.84486e-08
8.32076e-10
-2.92265e-08
7.77908e-10
-2.99475e-08
7.2095e-10
-3.06089e-08
6.6141e-10
-3.12084e-08
5.99505e-10
-3.17439e-08
5.35466e-10
-3.22134e-08
4.69506e-10
-3.26152e-08
4.01838e-10
-3.29479e-08
3.32684e-10
-3.32101e-08
2.62265e-10
-3.34009e-08
1.90813e-10
-3.35195e-08
1.18563e-10
-3.35652e-08
4.574e-11
-3.35378e-08
-2.7414e-11
-3.34372e-08
-1.00645e-10
-3.32635e-08
-1.73709e-10
-3.30171e-08
-2.46361e-10
-3.26988e-08
-3.18349e-10
-3.23093e-08
-3.89426e-10
-3.185e-08
-4.59332e-10
-3.13222e-08
-5.27795e-10
-3.07277e-08
-5.94548e-10
-3.00683e-08
-6.59336e-10
-2.93464e-08
-7.21887e-10
-2.85645e-08
-7.81927e-10
-2.77253e-08
-8.39183e-10
-2.6832e-08
-8.93381e-10
-2.58877e-08
-9.44241e-10
-2.48962e-08
-9.91496e-10
-2.38613e-08
-1.03489e-09
-2.27872e-08
-1.07415e-09
-2.16782e-08
-1.10902e-09
-2.05389e-08
-1.13925e-09
-1.93743e-08
-1.16459e-09
-1.81895e-08
-1.18481e-09
-1.69899e-08
-1.19965e-09
-1.5781e-08
-1.20891e-09
-1.45686e-08
-1.21237e-09
-1.33587e-08
-1.20985e-09
-1.21576e-08
-1.20117e-09
-1.09714e-08
-1.18616e-09
-9.80672e-09
-1.16469e-09
-8.67007e-09
-1.13665e-09
-7.56815e-09
-1.10192e-09
-6.5077e-09
-1.06044e-09
-5.49552e-09
-1.01218e-09
-4.53837e-09
-9.57153e-10
-3.64298e-09
-8.95401e-10
-2.81595e-09
-8.27034e-10
-2.06372e-09
-7.52231e-10
-1.39246e-09
-6.7126e-10
-8.07952e-10
-5.8451e-10
-3.15409e-10
-4.92538e-10
8.07366e-11
-3.96137e-10
3.77179e-10
-2.96437e-10
5.72246e-10
-1.95067e-10
6.66679e-10
-9.4439e-11
6.64894e-10
1.78431e-12
5.76973e-10
8.79254e-11
4.21829e-10
1.55148e-10
2.32584e-10
1.89246e-10
6.56497e-11
1.66931e-10
6.565e-11
1.68151e-10
-2.36958e-10
4.5838e-10
-4.55192e-10
7.3468e-10
-4.59184e-10
8.99322e-10
-3.07418e-10
8.83407e-10
-5.47076e-11
6.43092e-10
2.59633e-10
1.52879e-10
6.08263e-10
-5.99522e-10
9.72416e-10
-1.61709e-09
1.3392e-09
-2.89622e-09
1.69969e-09
-4.4286e-09
2.04774e-09
-6.2026e-09
2.37902e-09
-8.20428e-09
2.69051e-09
-1.0418e-08
2.98018e-09
-1.28271e-08
3.24661e-09
-1.54141e-08
3.48892e-09
-1.8161e-08
3.70661e-09
-2.10498e-08
3.89945e-09
-2.40623e-08
4.06742e-09
-2.71804e-08
4.21071e-09
-3.03861e-08
4.32959e-09
-3.36618e-08
4.42449e-09
-3.69903e-08
4.49588e-09
-4.03545e-08
4.54431e-09
-4.37381e-08
4.57041e-09
-4.71249e-08
4.57482e-09
-5.04995e-08
4.55824e-09
-5.38469e-08
4.52138e-09
-5.71526e-08
4.46498e-09
-6.04027e-08
4.38979e-09
-6.35839e-08
4.29659e-09
-6.66834e-08
4.18615e-09
-6.96891e-08
4.05927e-09
-7.25892e-08
3.91674e-09
-7.53728e-08
3.75934e-09
-7.80295e-08
3.58787e-09
-8.05494e-08
3.40315e-09
-8.29233e-08
3.20599e-09
-8.51427e-08
2.99722e-09
-8.71994e-08
2.77764e-09
-8.9086e-08
2.54809e-09
-9.07959e-08
2.30941e-09
-9.23229e-08
2.06243e-09
-9.36614e-08
1.80801e-09
-9.48065e-08
1.54701e-09
-9.57541e-08
1.28027e-09
-9.65006e-08
1.0087e-09
-9.70429e-08
7.33161e-10
-9.73789e-08
4.54558e-10
-9.7507e-08
1.73804e-10
-9.74262e-08
-1.08178e-10
-9.71364e-08
-3.90435e-10
-9.66381e-08
-6.72006e-10
-9.59325e-08
-9.51937e-10
-9.50216e-08
-1.22926e-09
-9.39081e-08
-1.50297e-09
-9.25953e-08
-1.77208e-09
-9.10876e-08
-2.03558e-09
-8.93897e-08
-2.29244e-09
-8.75074e-08
-2.54162e-09
-8.54472e-08
-2.78211e-09
-8.32162e-08
-3.01286e-09
-8.08226e-08
-3.23281e-09
-7.82751e-08
-3.44093e-09
-7.55831e-08
-3.63617e-09
-7.27571e-08
-3.81751e-09
-6.98081e-08
-3.98392e-09
-6.67478e-08
-4.13443e-09
-6.35888e-08
-4.26804e-09
-6.03442e-08
-4.38381e-09
-5.7028e-08
-4.48078e-09
-5.36548e-08
-4.55806e-09
-5.02396e-08
-4.6148e-09
-4.67984e-08
-4.65018e-09
-4.33473e-08
-4.66343e-09
-3.99033e-08
-4.65385e-09
-3.64836e-08
-4.62083e-09
-3.3106e-08
-4.56378e-09
-2.97885e-08
-4.48223e-09
-2.65494e-08
-4.37578e-09
-2.34071e-08
-4.24415e-09
-2.03804e-08
-4.08721e-09
-1.74876e-08
-3.90492e-09
-1.47473e-08
-3.69745e-09
-1.21776e-08
-3.46517e-09
-9.79594e-09
-3.20867e-09
-7.61928e-09
-2.92889e-09
-5.66343e-09
-2.62712e-09
-3.94274e-09
-2.3052e-09
-2.46964e-09
-1.96564e-09
-1.25388e-09
-1.61189e-09
-3.01623e-10
-1.2487e-09
3.85948e-10
-8.8264e-10
8.14463e-10
-5.22952e-10
9.9901e-10
-1.82759e-10
9.67799e-10
1.19141e-10
7.67091e-10
3.55852e-10
4.67097e-10
4.89235e-10
1.6681e-10
4.67222e-10
2.32464e-10
1.83267e-10
-4.20222e-10
4.62232e-10
-7.3416e-10
6.67482e-10
-6.64422e-10
6.80646e-10
-3.2059e-10
4.15696e-10
2.10272e-10
-1.8603e-10
8.61353e-10
-1.16108e-09
1.58333e-09
-2.52904e-09
2.34038e-09
-4.29652e-09
3.10667e-09
-6.46039e-09
3.86359e-09
-9.0103e-09
4.59765e-09
-1.19305e-08
5.29917e-09
-1.52011e-08
5.96116e-09
-1.87995e-08
6.57863e-09
-2.27011e-08
7.14812e-09
-2.68794e-08
7.66728e-09
-3.13075e-08
8.13463e-09
-3.59574e-08
8.54936e-09
-4.08011e-08
8.91118e-09
-4.58106e-08
9.22021e-09
-5.09579e-08
9.47687e-09
-5.62153e-08
9.68189e-09
-6.15556e-08
9.83618e-09
-6.69521e-08
9.94083e-09
-7.23787e-08
9.99703e-09
-7.78101e-08
1.00062e-08
-8.32215e-08
9.96963e-09
-8.8589e-08
9.88893e-09
-9.38896e-08
9.76561e-09
-9.91011e-08
9.60128e-09
-1.04202e-07
9.39758e-09
-1.09172e-07
9.15619e-09
-1.13992e-07
8.87879e-09
-1.18642e-07
8.56712e-09
-1.23106e-07
8.22289e-09
-1.27366e-07
7.84785e-09
-1.31406e-07
7.44375e-09
-1.35213e-07
7.01239e-09
-1.38771e-07
6.55555e-09
-1.42068e-07
6.07504e-09
-1.45093e-07
5.57266e-09
-1.47834e-07
5.05027e-09
-1.50281e-07
4.50971e-09
-1.52426e-07
3.95284e-09
-1.5426e-07
3.38155e-09
-1.55778e-07
2.79774e-09
-1.56973e-07
2.20336e-09
-1.5784e-07
1.60034e-09
-1.58376e-07
9.90668e-10
-1.58578e-07
3.7635e-10
-1.58446e-07
-2.40568e-10
-1.57978e-07
-8.58031e-10
-1.57176e-07
-1.47394e-09
-1.56042e-07
-2.08618e-09
-1.54579e-07
-2.6926e-09
-1.52791e-07
-3.29105e-09
-1.50684e-07
-3.87931e-09
-1.48264e-07
-4.45519e-09
-1.4554e-07
-5.01644e-09
-1.42521e-07
-5.56083e-09
-1.39217e-07
-6.08608e-09
-1.3564e-07
-6.58993e-09
-1.31802e-07
-7.07012e-09
-1.27719e-07
-7.52437e-09
-1.23405e-07
-7.95042e-09
-1.18876e-07
-8.34606e-09
-1.14151e-07
-8.70909e-09
-1.09248e-07
-9.03734e-09
-1.04187e-07
-9.32869e-09
-9.89901e-08
-9.5811e-09
-9.36783e-08
-9.79256e-09
-8.82752e-08
-9.96115e-09
-8.2805e-08
-1.0085e-08
-7.72926e-08
-1.01625e-08
-7.17641e-08
-1.0192e-08
-6.6246e-08
-1.01719e-08
-6.07658e-08
-1.01011e-08
-5.53512e-08
-9.97833e-09
-5.00307e-08
-9.80269e-09
-4.48331e-08
-9.57344e-09
-3.97871e-08
-9.2901e-09
-3.49218e-08
-8.9525e-09
-3.0266e-08
-8.56079e-09
-2.58479e-08
-8.11553e-09
-2.16953e-08
-7.61775e-09
-1.78349e-08
-7.06906e-09
-1.4292e-08
-6.47178e-09
-1.109e-08
-5.82913e-09
-8.2497e-09
-5.14551e-09
-5.78856e-09
-4.42678e-09
-3.71965e-09
-3.6808e-09
-2.0502e-09
-2.91814e-09
-7.79843e-10
-2.15299e-09
1.01789e-10
-1.40458e-09
6.18103e-10
-6.99071e-10
8.09399e-10
-7.21461e-11
7.37553e-10
4.27704e-10
4.91013e-10
7.35775e-10
1.89636e-10
7.68605e-10
4.22101e-10
1.44828e-10
-5.65056e-10
3.14521e-10
-9.03846e-10
3.31505e-10
-6.81418e-10
6.92447e-11
-5.83204e-11
-5.65234e-10
8.44721e-10
-1.63715e-09
1.93328e-09
-3.18885e-09
3.13502e-09
-5.24406e-09
4.39559e-09
-7.81178e-09
5.67439e-09
-1.08893e-08
6.94113e-09
-1.4465e-08
8.17328e-09
-1.85199e-08
9.35413e-09
-2.30301e-08
1.04713e-08
-2.79673e-08
1.15159e-08
-3.33004e-08
1.24812e-08
-3.8996e-08
1.33629e-08
-4.50191e-08
1.41578e-08
-5.13339e-08
1.48641e-08
-5.79038e-08
1.54811e-08
-6.4692e-08
1.60084e-08
-7.16618e-08
1.64466e-08
-7.87766e-08
1.67967e-08
-8.60005e-08
1.706e-08
-9.32979e-08
1.72382e-08
-1.00634e-07
1.73333e-08
-1.07975e-07
1.73473e-08
-1.15288e-07
1.72827e-08
-1.22541e-07
1.71419e-08
-1.29703e-07
1.69275e-08
-1.36744e-07
1.66423e-08
-1.43636e-07
1.62889e-08
-1.5035e-07
1.58703e-08
-1.5686e-07
1.53893e-08
-1.63142e-07
1.4849e-08
-1.69171e-07
1.42521e-08
-1.74925e-07
1.36019e-08
-1.80383e-07
1.29013e-08
-1.85524e-07
1.21533e-08
-1.90329e-07
1.13612e-08
-1.94782e-07
1.05279e-08
-1.98866e-07
9.65677e-09
-2.02567e-07
8.75089e-09
-2.05871e-07
7.81348e-09
-2.08766e-07
6.84781e-09
-2.11241e-07
5.85715e-09
-2.13288e-07
4.84483e-09
-2.14899e-07
3.8142e-09
-2.16068e-07
2.76866e-09
-2.16789e-07
1.71168e-09
-2.17059e-07
6.46722e-10
-2.16877e-07
-4.22651e-10
-2.16242e-07
-1.49285e-09
-2.15156e-07
-2.56025e-09
-2.13621e-07
-3.62118e-09
-2.11641e-07
-4.6719e-09
-2.09224e-07
-5.70865e-09
-2.06376e-07
-6.72763e-09
-2.03106e-07
-7.72502e-09
-1.99425e-07
-8.69693e-09
-1.95347e-07
-9.63948e-09
-1.90884e-07
-1.05488e-08
-1.86053e-07
-1.14209e-08
-1.80871e-07
-1.22519e-08
-1.75358e-07
-1.30379e-08
-1.69533e-07
-1.37751e-08
-1.63419e-07
-1.44596e-08
-1.57041e-07
-1.50877e-08
-1.50423e-07
-1.56555e-08
-1.43592e-07
-1.61596e-08
-1.36576e-07
-1.65965e-08
-1.29406e-07
-1.69626e-08
-1.22113e-07
-1.72548e-08
-1.14728e-07
-1.74699e-08
-1.07285e-07
-1.76052e-08
-9.98192e-08
-1.76578e-08
-9.23656e-08
-1.76255e-08
-8.49608e-08
-1.75059e-08
-7.76417e-08
-1.72974e-08
-7.04459e-08
-1.69984e-08
-6.34115e-08
-1.66079e-08
-5.65765e-08
-1.61251e-08
-4.99789e-08
-1.55501e-08
-4.36562e-08
-1.48834e-08
-3.76455e-08
-1.41262e-08
-3.19826e-08
-1.32807e-08
-2.67018e-08
-1.23499e-08
-2.18352e-08
-1.13384e-08
-1.74123e-08
-1.0252e-08
-1.34591e-08
-9.09876e-09
-9.99667e-09
-7.88918e-09
-7.04047e-09
-6.637e-09
-4.59836e-09
-5.36025e-09
-2.66876e-09
-4.0826e-09
-1.23815e-09
-2.8352e-09
-2.78142e-10
-1.65907e-09
2.58045e-10
-6.08327e-10
4.3971e-10
2.4604e-10
3.63119e-10
8.12364e-10
1.5721e-10
9.74518e-10
5.79309e-10
7.50272e-11
-6.40074e-10
6.87063e-11
-8.97542e-10
-1.87104e-10
-4.25586e-10
-8.16347e-10
5.70921e-10
-1.91131e-09
1.93968e-09
-3.53792e-09
3.5599e-09
-5.73987e-09
5.33695e-09
-8.5421e-09
7.19784e-09
-1.19542e-08
9.08651e-09
-1.59732e-08
1.09601e-08
-2.05858e-08
1.27859e-08
-2.57708e-08
1.45391e-08
-3.15005e-08
1.6201e-08
-3.77422e-08
1.77576e-08
-4.44595e-08
1.91985e-08
-5.16129e-08
2.05163e-08
-5.91611e-08
2.1706e-08
-6.70611e-08
2.27642e-08
-7.52692e-08
2.36891e-08
-8.37409e-08
2.44801e-08
-9.24317e-08
2.51375e-08
-1.01297e-07
2.56625e-08
-1.10294e-07
2.60568e-08
-1.19379e-07
2.63226e-08
-1.28508e-07
2.64628e-08
-1.37641e-07
2.64804e-08
-1.46737e-07
2.63787e-08
-1.55757e-07
2.61615e-08
-1.64662e-07
2.58326e-08
-1.73416e-07
2.53959e-08
-1.81982e-07
2.48556e-08
-1.90328e-07
2.4216e-08
-1.9842e-07
2.34814e-08
-2.06227e-07
2.26562e-08
-2.1372e-07
2.1745e-08
-2.2087e-07
2.07522e-08
-2.27652e-07
1.96827e-08
-2.34039e-07
1.85409e-08
-2.4001e-07
1.73317e-08
-2.45542e-07
1.60598e-08
-2.50615e-07
1.47301e-08
-2.55212e-07
1.33473e-08
-2.59315e-07
1.19165e-08
-2.62909e-07
1.04425e-08
-2.65983e-07
8.93053e-09
-2.68523e-07
7.38551e-09
-2.70522e-07
5.81264e-09
-2.7197e-07
4.21711e-09
-2.72863e-07
2.60422e-09
-2.73195e-07
9.79299e-10
-2.72966e-07
-6.52234e-10
-2.72174e-07
-2.2849e-09
-2.70821e-07
-3.91314e-09
-2.68911e-07
-5.53134e-09
-2.66449e-07
-7.13383e-09
-2.63443e-07
-8.71484e-09
-2.59902e-07
-1.02686e-08
-2.55837e-07
-1.17892e-08
-2.51263e-07
-1.32709e-08
-2.46195e-07
-1.47076e-08
-2.40651e-07
-1.60935e-08
-2.34649e-07
-1.74227e-08
-2.28212e-07
-1.86891e-08
-2.21363e-07
-1.98868e-08
-2.14128e-07
-2.10102e-08
-2.06534e-07
-2.20532e-08
-1.98611e-07
-2.30103e-08
-1.90391e-07
-2.38759e-08
-1.81906e-07
-2.46444e-08
-1.73192e-07
-2.53107e-08
-1.64285e-07
-2.58696e-08
-1.55223e-07
-2.63164e-08
-1.46047e-07
-2.66463e-08
-1.36797e-07
-2.68552e-08
-1.27516e-07
-2.6939e-08
-1.18247e-07
-2.68943e-08
-1.09035e-07
-2.67179e-08
-9.99252e-08
-2.64073e-08
-9.09633e-08
-2.59604e-08
-8.21954e-08
-2.53757e-08
-7.36678e-08
-2.46527e-08
-6.54264e-08
-2.37916e-08
-5.75165e-08
-2.27933e-08
-4.99824e-08
-2.16603e-08
-4.28669e-08
-2.03961e-08
-3.62108e-08
-1.9006e-08
-3.00521e-08
-1.74971e-08
-2.44252e-08
-1.58789e-08
-1.93601e-08
-1.41638e-08
-1.48814e-08
-1.2368e-08
-1.10062e-08
-1.05121e-08
-7.74358e-09
-8.62292e-09
-5.09153e-09
-6.73466e-09
-3.03537e-09
-4.89136e-09
-1.54481e-09
-3.14962e-09
-5.71031e-10
-1.58211e-09
-4.31581e-11
-2.81836e-10
1.35554e-10
6.33648e-10
9.28841e-11
1.01719e-09
6.72189e-10
-1.19472e-11
-6.2813e-10
-2.37514e-10
-6.7195e-10
-8.24714e-10
1.61583e-10
-1.88678e-09
1.63299e-09
-3.50956e-09
3.56246e-09
-5.75515e-09
5.80548e-09
-8.66491e-09
8.24673e-09
-1.22624e-08
1.07953e-08
-1.6556e-08
1.33801e-08
-2.15411e-08
1.59452e-08
-2.72026e-08
1.84474e-08
-3.35167e-08
2.08532e-08
-4.04524e-08
2.31367e-08
-4.7973e-08
2.52782e-08
-5.60375e-08
2.7263e-08
-6.46014e-08
2.90802e-08
-7.36177e-08
3.07222e-08
-8.30373e-08
3.21838e-08
-9.28101e-08
3.34619e-08
-1.02885e-07
3.45551e-08
-1.13211e-07
3.54635e-08
-1.23737e-07
3.61882e-08
-1.34411e-07
3.67312e-08
-1.45184e-07
3.70955e-08
-1.56006e-07
3.72847e-08
-1.66828e-07
3.73027e-08
-1.77604e-07
3.71541e-08
-1.88286e-07
3.68438e-08
-1.9883e-07
3.6377e-08
-2.09193e-07
3.57592e-08
-2.19334e-07
3.49961e-08
-2.29211e-07
3.40935e-08
-2.38788e-07
3.30576e-08
-2.48026e-07
3.18945e-08
-2.56891e-07
3.06104e-08
-2.65351e-07
2.92118e-08
-2.73373e-07
2.7705e-08
-2.80929e-07
2.60968e-08
-2.87991e-07
2.43937e-08
-2.94534e-07
2.26024e-08
-3.00533e-07
2.07297e-08
-3.05968e-07
1.87824e-08
-3.10819e-07
1.67676e-08
-3.15069e-07
1.46921e-08
-3.18702e-07
1.25631e-08
-3.21704e-07
1.03878e-08
-3.24065e-07
8.17335e-09
-3.25775e-07
5.92718e-09
-3.26827e-07
3.65671e-09
-3.27217e-07
1.36946e-09
-3.26943e-07
-9.2693e-10
-3.26003e-07
-3.22473e-09
-3.244e-07
-5.51614e-09
-3.22138e-07
-7.79323e-09
-3.19224e-07
-1.0048e-08
-3.15666e-07
-1.22724e-08
-3.11476e-07
-1.44583e-08
-3.06668e-07
-1.65974e-08
-3.01258e-07
-1.86815e-08
-2.95263e-07
-2.07024e-08
-2.88705e-07
-2.26516e-08
-2.81607e-07
-2.45208e-08
-2.73994e-07
-2.63019e-08
-2.65894e-07
-2.79864e-08
-2.57338e-07
-2.95663e-08
-2.48358e-07
-3.10335e-08
-2.38988e-07
-3.238e-08
-2.29266e-07
-3.3598e-08
-2.1923e-07
-3.46801e-08
-2.08922e-07
-3.56189e-08
-1.98384e-07
-3.64072e-08
-1.87662e-07
-3.70386e-08
-1.76802e-07
-3.75066e-08
-1.65852e-07
-3.78055e-08
-1.54861e-07
-3.79297e-08
-1.4388e-07
-3.78747e-08
-1.32962e-07
-3.76362e-08
-1.22159e-07
-3.72108e-08
-1.11523e-07
-3.65959e-08
-1.01109e-07
-3.57899e-08
-9.09695e-08
-3.47922e-08
-8.11578e-08
-3.36033e-08
-7.17258e-08
-3.22253e-08
-6.27243e-08
-3.06618e-08
-5.42022e-08
-2.89182e-08
-4.62058e-08
-2.70024e-08
-3.87781e-08
-2.49248e-08
-3.1958e-08
-2.2699e-08
-2.57793e-08
-2.03425e-08
-2.02692e-08
-1.7878e-08
-1.54474e-08
-1.53339e-08
-1.13243e-08
-1.27461e-08
-7.89886e-09
-1.01601e-08
-5.15719e-09
-7.63303e-09
-3.06983e-09
-5.23699e-09
-1.58944e-09
-3.0625e-09
-6.48092e-10
-1.22319e-09
-1.54304e-10
1.39856e-10
1.0658e-11
8.52221e-10
6.82849e-10
-1.07727e-10
-5.20399e-10
-5.78745e-10
-2.00945e-10
-1.53568e-09
1.11852e-09
-3.07599e-09
3.1733e-09
-5.27477e-09
5.76124e-09
-8.18668e-09
8.7174e-09
-1.1848e-08
1.1908e-08
-1.62784e-08
1.52258e-08
-2.14832e-08
1.85849e-08
-2.74553e-08
2.19173e-08
-3.41768e-08
2.51689e-08
-4.16209e-08
2.82973e-08
-4.97532e-08
3.1269e-08
-5.85335e-08
3.40585e-08
-6.79165e-08
3.6646e-08
-7.7853e-08
3.90168e-08
-8.82911e-08
4.11603e-08
-9.91763e-08
4.3069e-08
-1.10453e-07
4.47385e-08
-1.22064e-07
4.61663e-08
-1.33953e-07
4.73519e-08
-1.46061e-07
4.82964e-08
-1.58332e-07
4.90021e-08
-1.70709e-07
4.94724e-08
-1.83136e-07
4.97118e-08
-1.95558e-07
4.97251e-08
-2.07923e-07
4.95183e-08
-2.20176e-07
4.90976e-08
-2.32269e-07
4.84696e-08
-2.44151e-07
4.76416e-08
-2.55776e-07
4.66208e-08
-2.67098e-07
4.54151e-08
-2.78072e-07
4.40322e-08
-2.88658e-07
4.24804e-08
-2.98816e-07
4.07679e-08
-3.08507e-07
3.89031e-08
-3.17697e-07
3.68947e-08
-3.26351e-07
3.47512e-08
-3.34439e-07
3.24816e-08
-3.41931e-07
3.00948e-08
-3.48801e-07
2.75996e-08
-3.55024e-07
2.50054e-08
-3.60578e-07
2.23212e-08
-3.65442e-07
1.95565e-08
-3.696e-07
1.67207e-08
-3.73036e-07
1.38233e-08
-3.75736e-07
1.08741e-08
-3.77692e-07
7.8827e-09
-3.78894e-07
4.85917e-09
-3.79338e-07
1.81351e-09
-3.79021e-07
-1.24412e-09
-3.77942e-07
-4.30344e-09
-3.76104e-07
-7.35404e-09
-3.73512e-07
-1.03854e-08
-3.70174e-07
-1.33868e-08
-3.66098e-07
-1.63477e-08
-3.61299e-07
-1.92571e-08
-3.55793e-07
-2.21041e-08
-3.49597e-07
-2.48778e-08
-3.42732e-07
-2.75672e-08
-3.35222e-07
-3.01612e-08
-3.27094e-07
-3.26489e-08
-3.18377e-07
-3.50192e-08
-3.09102e-07
-3.72613e-08
-2.99304e-07
-3.93644e-08
-2.89019e-07
-4.13177e-08
-2.78288e-07
-4.31109e-08
-2.67153e-07
-4.47338e-08
-2.55657e-07
-4.61763e-08
-2.43847e-07
-4.74289e-08
-2.31772e-07
-4.84823e-08
-2.19482e-07
-4.93279e-08
-2.07031e-07
-4.99575e-08
-1.94473e-07
-5.03635e-08
-1.81864e-07
-5.05389e-08
-1.69261e-07
-5.04777e-08
-1.56723e-07
-5.01746e-08
-1.44308e-07
-4.96254e-08
-1.32077e-07
-4.88269e-08
-1.2009e-07
-4.77774e-08
-1.08406e-07
-4.64763e-08
-9.7084e-08
-4.49249e-08
-8.61831e-08
-4.31263e-08
-7.57592e-08
-4.10856e-08
-6.58668e-08
-3.88107e-08
-5.6557e-08
-3.63122e-08
-4.78774e-08
-3.36043e-08
-3.98711e-08
-3.07053e-08
-3.25753e-08
-2.76384e-08
-2.60203e-08
-2.4433e-08
-2.02286e-08
-2.11256e-08
-1.52127e-08
-1.7762e-08
-1.09741e-08
-1.43987e-08
-7.50127e-09
-1.11059e-08
-4.76793e-09
-7.97032e-09
-2.73116e-09
-5.09927e-09
-1.32947e-09
-2.62488e-09
-4.80893e-10
-7.08726e-10
-8.10055e-11
4.52332e-10
6.01849e-10
-2.07296e-10
-3.13124e-10
-9.3813e-10
5.29904e-10
-2.28829e-09
2.46868e-09
-4.33646e-09
5.22145e-09
-7.14409e-09
8.56889e-09
-1.07559e-08
1.23292e-08
-1.52005e-08
1.63526e-08
-2.0492e-08
2.05173e-08
-2.66312e-08
2.47241e-08
-3.36068e-08
2.8893e-08
-4.13975e-08
3.29597e-08
-4.9973e-08
3.68728e-08
-5.92954e-08
4.05914e-08
-6.93207e-08
4.40837e-08
-7.99994e-08
4.73247e-08
-9.12782e-08
5.02956e-08
-1.031e-07
5.29825e-08
-1.15407e-07
5.53756e-08
-1.28137e-07
5.74685e-08
-1.41228e-07
5.92576e-08
-1.54618e-07
6.07418e-08
-1.68243e-07
6.19218e-08
-1.82042e-07
6.28002e-08
-1.9595e-07
6.3381e-08
-2.09908e-07
6.36692e-08
-2.23853e-07
6.3671e-08
-2.37728e-07
6.33934e-08
-2.51475e-07
6.2844e-08
-2.65037e-07
6.20313e-08
-2.78359e-07
6.09641e-08
-2.9139e-07
5.96515e-08
-3.04078e-07
5.81034e-08
-3.16375e-07
5.63296e-08
-3.28235e-07
5.43404e-08
-3.39614e-07
5.21463e-08
-3.50469e-07
4.9758e-08
-3.6076e-07
4.71864e-08
-3.70452e-07
4.44426e-08
-3.79508e-07
4.15377e-08
-3.87896e-07
3.84831e-08
-3.95587e-07
3.52904e-08
-4.02553e-07
3.19712e-08
-4.08769e-07
2.85373e-08
-4.14213e-07
2.50006e-08
-4.18865e-07
2.13732e-08
-4.22709e-07
1.76673e-08
-4.25731e-07
1.38953e-08
-4.27918e-07
1.00697e-08
-4.29262e-07
6.2032e-09
-4.29757e-07
2.30864e-09
-4.294e-07
-1.60099e-09
-4.28191e-07
-5.51256e-09
-4.26132e-07
-9.41276e-09
-4.23229e-07
-1.32881e-08
-4.19491e-07
-1.71252e-08
-4.14929e-07
-2.09101e-08
-4.09557e-07
-2.46291e-08
-4.03392e-07
-2.82683e-08
-3.96456e-07
-3.18138e-08
-3.88772e-07
-3.52515e-08
-3.80366e-07
-3.85675e-08
-3.71267e-07
-4.17476e-08
-3.61508e-07
-4.4778e-08
-3.51125e-07
-4.76447e-08
-3.40155e-07
-5.03343e-08
-3.2864e-07
-5.2833e-08
-3.16623e-07
-5.51277e-08
-3.04151e-07
-5.72054e-08
-2.91274e-07
-5.90537e-08
-2.78042e-07
-6.06603e-08
-2.64511e-07
-6.20139e-08
-2.50736e-07
-6.31032e-08
-2.36775e-07
-6.39183e-08
-2.22689e-07
-6.44495e-08
-2.08539e-07
-6.46884e-08
-1.9439e-07
-6.46273e-08
-1.80304e-07
-6.426e-08
-1.66348e-07
-6.35814e-08
-1.52587e-07
-6.25878e-08
-1.39087e-07
-6.12772e-08
-1.25914e-07
-5.96495e-08
-1.13132e-07
-5.77067e-08
-1.00806e-07
-5.5453e-08
-8.89955e-08
-5.28957e-08
-7.77613e-08
-5.00449e-08
-6.71589e-08
-4.69146e-08
-5.72401e-08
-4.35231e-08
-4.8052e-08
-3.98934e-08
-3.96353e-08
-3.60551e-08
-3.2024e-08
-3.20443e-08
-2.52435e-08
-2.79061e-08
-1.93099e-08
-2.36957e-08
-1.42279e-08
-1.94806e-08
-9.99029e-09
-1.53435e-08
-6.57581e-09
-1.13848e-08
-3.94826e-09
-7.72681e-09
-2.05521e-09
-4.51793e-09
-8.27134e-10
-1.93681e-09
-1.76915e-10
-1.97885e-10
4.24936e-10
-3.07636e-10
-5.48603e-12
-1.30482e-09
1.52707e-09
-3.06089e-09
4.22473e-09
-5.63455e-09
7.79514e-09
-9.07197e-09
1.20063e-08
-1.34059e-08
1.66631e-08
-1.86559e-08
2.16026e-08
-2.48285e-08
2.669e-08
-3.19187e-08
3.18142e-08
-3.99102e-08
3.68845e-08
-4.87772e-08
4.18267e-08
-5.84853e-08
4.65808e-08
-6.89927e-08
5.10988e-08
-8.02512e-08
5.53422e-08
-9.22076e-08
5.92811e-08
-1.04804e-07
6.28923e-08
-1.1798e-07
6.61585e-08
-1.31672e-07
6.90672e-08
-1.45813e-07
7.161e-08
-1.60338e-07
7.37822e-08
-1.75178e-07
7.55817e-08
-1.90265e-07
7.70091e-08
-2.05532e-07
7.80669e-08
-2.2091e-07
7.87595e-08
-2.36334e-07
7.90929e-08
-2.51737e-07
7.90742e-08
-2.67056e-07
7.87118e-08
-2.82226e-07
7.80148e-08
-2.97188e-07
7.69932e-08
-3.11882e-07
7.56578e-08
-3.2625e-07
7.40198e-08
-3.40238e-07
7.2091e-08
-3.53792e-07
6.98835e-08
-3.66862e-07
6.741e-08
-3.79399e-07
6.46832e-08
-3.91357e-07
6.17164e-08
-4.02693e-07
5.8523e-08
-4.13367e-07
5.51165e-08
-4.23341e-07
5.15109e-08
-4.32578e-07
4.77201e-08
-4.41046e-07
4.37585e-08
-4.48715e-07
3.96404e-08
-4.55558e-07
3.53804e-08
-4.61551e-07
3.09933e-08
-4.66672e-07
2.64942e-08
-4.70902e-07
2.1898e-08
-4.74227e-07
1.72201e-08
-4.76634e-07
1.24762e-08
-4.78112e-07
7.68177e-09
-4.78656e-07
2.85285e-09
-4.78263e-07
-1.99452e-09
-4.76931e-07
-6.84404e-09
-4.74665e-07
-1.16793e-08
-4.71469e-07
-1.64836e-08
-4.67355e-07
-2.12401e-08
-4.62333e-07
-2.5932e-08
-4.56419e-07
-3.05422e-08
-4.49634e-07
-3.50535e-08
-4.42e-07
-3.94486e-08
-4.33541e-07
-4.37103e-08
-4.24287e-07
-4.78212e-08
-4.1427e-07
-5.17642e-08
-4.03526e-07
-5.5522e-08
-3.92093e-07
-5.90776e-08
-3.80014e-07
-6.24141e-08
-3.67332e-07
-6.5515e-08
-3.54095e-07
-6.8364e-08
-3.40356e-07
-7.09452e-08
-3.26166e-07
-7.32433e-08
-3.11583e-07
-7.52435e-08
-2.96665e-07
-7.69317e-08
-2.81474e-07
-7.82945e-08
-2.66072e-07
-7.93196e-08
-2.50527e-07
-7.99953e-08
-2.34903e-07
-8.03116e-08
-2.19271e-07
-8.02593e-08
-2.03701e-07
-7.98309e-08
-1.88261e-07
-7.90204e-08
-1.73025e-07
-7.78238e-08
-1.58064e-07
-7.6239e-08
-1.43447e-07
-7.42662e-08
-1.29245e-07
-7.19082e-08
-1.15527e-07
-6.91709e-08
-1.0236e-07
-6.60633e-08
-8.98063e-08
-6.25985e-08
-7.79272e-08
-5.87938e-08
-6.67786e-08
-5.46716e-08
-5.64115e-08
-5.02606e-08
-4.68707e-08
-4.55959e-08
-3.81937e-08
-4.07212e-08
-3.04102e-08
-3.56897e-08
-2.354e-08
-3.05658e-08
-1.75929e-08
-2.54278e-08
-1.25668e-08
-2.03696e-08
-8.44728e-09
-1.55043e-08
-5.20663e-09
-1.09675e-08
-2.80327e-09
-6.92129e-09
-1.18186e-09
-3.55822e-09
-2.73957e-10
-1.10578e-09
1.50976e-10
-4.06995e-10
4.01512e-10
-1.67187e-09
2.79195e-09
-3.83897e-09
6.39183e-09
-6.94697e-09
1.09031e-08
-1.10258e-08
1.60852e-08
-1.60954e-08
2.17327e-08
-2.21646e-08
2.76718e-08
-2.92315e-08
3.37569e-08
-3.7284e-08
3.98667e-08
-4.62998e-08
4.59003e-08
-5.62478e-08
5.17747e-08
-6.70889e-08
5.74219e-08
-7.87768e-08
6.27867e-08
-9.12593e-08
6.78247e-08
-1.04479e-07
7.25006e-08
-1.18374e-07
7.6787e-08
-1.32878e-07
8.06632e-08
-1.47925e-07
8.41139e-08
-1.63444e-07
8.71287e-08
-1.79363e-07
8.97014e-08
-1.9561e-07
9.18291e-08
-2.12113e-07
9.35119e-08
-2.28799e-07
9.47525e-08
-2.45595e-07
9.55557e-08
-2.6243e-07
9.59283e-08
-2.79234e-07
9.58784e-08
-2.95938e-07
9.54157e-08
-3.12474e-07
9.45509e-08
-3.28777e-07
9.32959e-08
-3.44783e-07
9.16633e-08
-3.60429e-07
8.96665e-08
-3.75658e-07
8.73194e-08
-3.90411e-07
8.46365e-08
-4.04634e-07
8.1633e-08
-4.18275e-07
7.83241e-08
-4.31284e-07
7.47258e-08
-4.43615e-07
7.08541e-08
-4.55224e-07
6.67254e-08
-4.6607e-07
6.23565e-08
-4.76114e-07
5.77641e-08
-4.85321e-07
5.29656e-08
-4.93659e-07
4.79782e-08
-5.01098e-07
4.28197e-08
-5.07612e-07
3.75078e-08
-5.13179e-07
3.20607e-08
-5.17778e-07
2.64967e-08
-5.21392e-07
2.08342e-08
-5.24008e-07
1.50921e-08
-5.25615e-07
9.28923e-09
-5.26207e-07
3.44491e-09
-5.2578e-07
-2.42145e-09
-5.24334e-07
-8.29019e-09
-5.21872e-07
-1.41414e-08
-5.184e-07
-1.99551e-08
-5.13929e-07
-2.5711e-08
-5.08473e-07
-3.13886e-08
-5.02048e-07
-3.69673e-08
-4.94675e-07
-4.24265e-08
-4.86378e-07
-4.77454e-08
-4.77185e-07
-5.29032e-08
-4.67127e-07
-5.7879e-08
-4.56239e-07
-6.26521e-08
-4.44559e-07
-6.72019e-08
-4.32129e-07
-7.15078e-08
-4.18994e-07
-7.55496e-08
-4.05201e-07
-7.93075e-08
-3.90803e-07
-8.2762e-08
-3.75854e-07
-8.5894e-08
-3.60413e-07
-8.86852e-08
-3.44538e-07
-9.11179e-08
-3.28294e-07
-9.31754e-08
-3.11747e-07
-9.48417e-08
-2.94965e-07
-9.61021e-08
-2.78017e-07
-9.69429e-08
-2.60977e-07
-9.73522e-08
-2.43917e-07
-9.73193e-08
-2.26912e-07
-9.68355e-08
-2.10039e-07
-9.58938e-08
-1.93373e-07
-9.44899e-08
-1.7699e-07
-9.26214e-08
-1.60967e-07
-9.02892e-08
-1.45378e-07
-8.7497e-08
-1.30297e-07
-8.4252e-08
-1.15795e-07
-8.05657e-08
-1.0194e-07
-7.64538e-08
-8.8796e-08
-7.19373e-08
-7.64246e-08
-6.7043e-08
-6.48805e-08
-6.18046e-08
-5.42128e-08
-5.62637e-08
-4.44633e-08
-5.04707e-08
-3.56661e-08
-4.44869e-08
-2.78462e-08
-3.83857e-08
-2.10189e-08
-3.22551e-08
-1.51888e-08
-2.61997e-08
-1.03493e-08
-2.03438e-08
-6.48247e-09
-1.48343e-08
-3.55877e-09
-9.845e-09
-1.53792e-09
-5.57908e-09
-3.70295e-10
-2.2734e-09
-2.19322e-10
-5.04429e-10
9.05923e-10
-2.03502e-09
4.32258e-09
-4.6131e-09
8.96992e-09
-8.2579e-09
1.45479e-08
-1.2983e-08
2.08103e-08
-1.87947e-08
2.75444e-08
-2.56907e-08
3.45677e-08
-3.36595e-08
4.17257e-08
-4.26809e-08
4.8888e-08
-5.27258e-08
5.59452e-08
-6.37574e-08
6.28062e-08
-7.57309e-08
6.93955e-08
-8.85954e-08
7.56512e-08
-1.02294e-07
8.15232e-08
-1.16765e-07
8.69712e-08
-1.31941e-07
9.19637e-08
-1.47754e-07
9.64763e-08
-1.64132e-07
1.00491e-07
-1.80999e-07
1.03996e-07
-1.98281e-07
1.06983e-07
-2.159e-07
1.09448e-07
-2.3378e-07
1.11392e-07
-2.51843e-07
1.12816e-07
-2.70013e-07
1.13726e-07
-2.88213e-07
1.14129e-07
-3.06371e-07
1.14036e-07
-3.24411e-07
1.13456e-07
-3.42262e-07
1.12402e-07
-3.59854e-07
1.10888e-07
-3.7712e-07
1.08929e-07
-3.93994e-07
1.0654e-07
-4.10413e-07
1.03738e-07
-4.26315e-07
1.00539e-07
-4.41642e-07
9.69605e-08
-4.5634e-07
9.30216e-08
-4.70354e-07
8.87405e-08
-4.83636e-07
8.41362e-08
-4.96139e-07
7.9228e-08
-5.07818e-07
7.40356e-08
-5.18633e-07
6.8579e-08
-5.28546e-07
6.28785e-08
-5.37522e-07
5.69546e-08
-5.45531e-07
5.08284e-08
-5.52544e-07
4.45207e-08
-5.58536e-07
3.80532e-08
-5.63487e-07
3.14474e-08
-5.67378e-07
2.47252e-08
-5.70195e-07
1.7909e-08
-5.71927e-07
1.10211e-08
-5.72566e-07
4.08433e-09
-5.72109e-07
-2.87833e-09
-5.70556e-07
-9.84361e-09
-5.67909e-07
-1.6788e-08
-5.64177e-07
-2.36877e-08
-5.59369e-07
-3.05188e-08
-5.535e-07
-3.72571e-08
-5.46589e-07
-4.38783e-08
-5.38658e-07
-5.0358e-08
-5.29732e-07
-5.66716e-08
-5.19841e-07
-6.27945e-08
-5.09017e-07
-6.87021e-08
-4.973e-07
-7.43701e-08
-4.84727e-07
-7.97739e-08
-4.71346e-07
-8.48896e-08
-4.57202e-07
-8.96932e-08
-4.42348e-07
-9.41614e-08
-4.26839e-07
-9.82713e-08
-4.10732e-07
-1.02001e-07
-3.9409e-07
-1.05328e-07
-3.76976e-07
-1.08232e-07
-3.59458e-07
-1.10693e-07
-3.41607e-07
-1.12694e-07
-3.23493e-07
-1.14215e-07
-3.05193e-07
-1.15243e-07
-2.86782e-07
-1.15763e-07
-2.68339e-07
-1.15762e-07
-2.49944e-07
-1.15231e-07
-2.31676e-07
-1.14161e-07
-2.13617e-07
-1.12549e-07
-1.95848e-07
-1.10391e-07
-1.78449e-07
-1.07689e-07
-1.61499e-07
-1.04447e-07
-1.45077e-07
-1.00674e-07
-1.29257e-07
-9.63851e-08
-1.14114e-07
-9.15974e-08
-9.9715e-08
-8.63359e-08
-8.61261e-08
-8.06319e-08
-7.34065e-08
-7.45242e-08
-6.16099e-08
-6.80603e-08
-5.0783e-08
-6.12975e-08
-4.0965e-08
-5.43048e-08
-3.21867e-08
-4.7164e-08
-2.44698e-08
-3.9972e-08
-1.78264e-08
-3.28431e-08
-1.22588e-08
-2.59113e-08
-7.75963e-09
-1.93335e-08
-4.31198e-09
-1.32926e-08
-1.89084e-09
-8.00022e-09
-4.64884e-10
-3.69936e-09
-6.84202e-10
-5.99374e-10
1.5053e-09
-2.39174e-09
6.11492e-09
-5.37738e-09
1.19556e-08
-9.55701e-09
1.87276e-08
-1.49283e-08
2.61816e-08
-2.14836e-08
3.40997e-08
-2.92088e-08
4.22929e-08
-3.80825e-08
5.05995e-08
-4.80757e-08
5.88813e-08
-5.91519e-08
6.70215e-08
-7.12675e-08
7.49218e-08
-8.4372e-08
8.25e-08
-9.8409e-08
8.96882e-08
-1.13317e-07
9.64309e-08
-1.29028e-07
1.02683e-07
-1.45474e-07
1.08409e-07
-1.62579e-07
1.13581e-07
-1.80267e-07
1.18179e-07
-1.9846e-07
1.22189e-07
-2.17077e-07
1.25601e-07
-2.36039e-07
1.2841e-07
-2.55263e-07
1.30616e-07
-2.74669e-07
1.32221e-07
-2.94175e-07
1.33232e-07
-3.13703e-07
1.33657e-07
-3.33172e-07
1.33505e-07
-3.52507e-07
1.3279e-07
-3.7163e-07
1.31526e-07
-3.90469e-07
1.29727e-07
-4.08952e-07
1.27412e-07
-4.27009e-07
1.24597e-07
-4.44573e-07
1.21302e-07
-4.61581e-07
1.17547e-07
-4.77971e-07
1.1335e-07
-4.93684e-07
1.08735e-07
-5.08665e-07
1.03721e-07
-5.2286e-07
9.83314e-08
-5.3622e-07
9.25883e-08
-5.48699e-07
8.65145e-08
-5.60254e-07
8.01334e-08
-5.70844e-07
7.34684e-08
-5.80433e-07
6.65437e-08
-5.88988e-07
5.93833e-08
-5.96479e-07
5.2012e-08
-6.02881e-07
4.44547e-08
-6.0817e-07
3.67365e-08
-6.12327e-07
2.88831e-08
-6.15339e-07
2.09202e-08
-6.17192e-07
1.28741e-08
-6.17879e-07
4.7713e-09
-6.17396e-07
-3.36149e-09
-6.15742e-07
-1.14971e-08
-6.12922e-07
-1.96083e-08
-6.08942e-07
-2.76673e-08
-6.03815e-07
-3.56463e-08
-5.97554e-07
-4.35172e-08
-5.90181e-07
-5.12517e-08
-5.81718e-07
-5.88214e-08