/*--------------------------------*- C++ -*----------------------------------*\
| =========                 |                                                 |
| \\      /  F ield         | OpenFOAM: The Open Source CFD Toolbox           |
|  \\    /   O peration     | Version:  2212                                  |
|   \\  /    A nd           | Website:  www.openfoam.com                      |
|    \\/     M anipulation  |                                                 |
\*---------------------------------------------------------------------------*/
FoamFile
{
    version     2.0;
    format      ascii;
    arch        "LSB;label=32;scalar=64";
    class       volVectorField;
    location    "0.0685";
    object      U;
}
// * * * * * * * * * * * * * * * * * * * * * * * * * * * * * * * * * * * * * //

dimensions      [0 1 -1 0 0 0 0];

internalField   nonuniform List<vector> 
10000
(
(3.14886e-06 -2.73535e-06 0)
(1.44847e-05 -7.25101e-06 0)
(3.28956e-05 -8.5823e-06 0)
(5.00177e-05 -7.40904e-06 0)
(6.12832e-05 -4.97442e-06 0)
(6.41642e-05 -1.92963e-06 0)
(5.74557e-05 1.36628e-06 0)
(4.06071e-05 4.71004e-06 0)
(1.35089e-05 7.98872e-06 0)
(-2.36645e-05 1.11351e-05 0)
(-7.05583e-05 1.41128e-05 0)
(-0.000126696 1.68998e-05 0)
(-0.000191524 1.94825e-05 0)
(-0.000264433 2.18544e-05 0)
(-0.000344783 2.40119e-05 0)
(-0.000431911 2.59552e-05 0)
(-0.000525149 2.76868e-05 0)
(-0.00062382 2.92102e-05 0)
(-0.000727256 3.05293e-05 0)
(-0.00083479 3.16477e-05 0)
(-0.000945769 3.25708e-05 0)
(-0.00105955 3.33039e-05 0)
(-0.00117551 3.38511e-05 0)
(-0.00129303 3.42199e-05 0)
(-0.00141151 3.4417e-05 0)
(-0.00153039 3.44474e-05 0)
(-0.0016491 3.43175e-05 0)
(-0.00176711 3.40341e-05 0)
(-0.00188389 3.36026e-05 0)
(-0.00199896 3.30294e-05 0)
(-0.00211182 3.23214e-05 0)
(-0.00222203 3.14847e-05 0)
(-0.00232914 3.0525e-05 0)
(-0.00243275 2.94488e-05 0)
(-0.00253246 2.82627e-05 0)
(-0.00262789 2.69717e-05 0)
(-0.00271869 2.55819e-05 0)
(-0.00280454 2.40999e-05 0)
(-0.00288511 2.25322e-05 0)
(-0.00296011 2.08842e-05 0)
(-0.00302929 1.91615e-05 0)
(-0.00309239 1.73705e-05 0)
(-0.00314919 1.55186e-05 0)
(-0.00319948 1.36119e-05 0)
(-0.00324309 1.1656e-05 0)
(-0.00327985 9.65679e-06 0)
(-0.00330962 7.62063e-06 0)
(-0.0033323 5.5544e-06 0)
(-0.00334778 3.46489e-06 0)
(-0.00335601 1.35818e-06 0)
(-0.00335693 -7.58922e-07 0)
(-0.00335053 -2.87885e-06 0)
(-0.0033368 -4.99443e-06 0)
(-0.00331579 -7.09855e-06 0)
(-0.00328753 -9.18404e-06 0)
(-0.00325211 -1.12442e-05 0)
(-0.00320965 -1.32719e-05 0)
(-0.00316025 -1.52588e-05 0)
(-0.00310409 -1.71972e-05 0)
(-0.00304134 -1.90796e-05 0)
(-0.00297222 -2.08983e-05 0)
(-0.00289697 -2.2645e-05 0)
(-0.00281584 -2.43121e-05 0)
(-0.00272914 -2.58914e-05 0)
(-0.00263717 -2.73746e-05 0)
(-0.00254029 -2.87537e-05 0)
(-0.00243888 -3.00211e-05 0)
(-0.00233332 -3.11689e-05 0)
(-0.00222405 -3.21892e-05 0)
(-0.00211152 -3.30746e-05 0)
(-0.00199621 -3.38181e-05 0)
(-0.00187861 -3.44119e-05 0)
(-0.00175926 -3.48485e-05 0)
(-0.00163869 -3.51212e-05 0)
(-0.00151749 -3.52236e-05 0)
(-0.00139623 -3.51495e-05 0)
(-0.00127553 -3.4893e-05 0)
(-0.00115601 -3.44489e-05 0)
(-0.00103831 -3.38124e-05 0)
(-0.000923087 -3.29791e-05 0)
(-0.000810999 -3.19448e-05 0)
(-0.00070272 -3.0706e-05 0)
(-0.000598929 -2.92604e-05 0)
(-0.000500303 -2.76064e-05 0)
(-0.00040752 -2.57432e-05 0)
(-0.000321247 -2.36713e-05 0)
(-0.000242139 -2.13924e-05 0)
(-0.000170829 -1.89104e-05 0)
(-0.000107918 -1.62322e-05 0)
(-5.3962e-05 -1.33686e-05 0)
(-9.44869e-06 -1.03372e-05 0)
(2.52242e-05 -7.16471e-06 0)
(4.9793e-05 -3.89391e-06 0)
(6.41892e-05 -5.94961e-07 0)
(6.86393e-05 2.61316e-06 0)
(6.38202e-05 5.52541e-06 0)
(5.10765e-05 7.78726e-06 0)
(3.28735e-05 8.76848e-06 0)
(1.41331e-05 7.40099e-06 0)
(2.73244e-06 2.73303e-06 0)
(7.76541e-06 -1.45915e-05 0)
(3.06678e-05 -3.00568e-05 0)
(6.10728e-05 -3.22405e-05 0)
(8.52881e-05 -2.45177e-05 0)
(9.40858e-05 -1.07723e-05 0)
(8.2082e-05 6.44603e-06 0)
(4.60091e-05 2.54731e-05 0)
(-1.59301e-05 4.52239e-05 0)
(-0.000104429 6.49932e-05 0)
(-0.0002194 8.43115e-05 0)
(-0.00036021 0.00010287 0)
(-0.000525834 0.000120457 0)
(-0.000714973 0.000136933 0)
(-0.000926133 0.000152206 0)
(-0.00115769 0.000166214 0)
(-0.00140792 0.000178922 0)
(-0.00167506 0.000190315 0)
(-0.00195729 0.000200389 0)
(-0.00225279 0.00020915 0)
(-0.00255976 0.000216614 0)
(-0.00287639 0.000222798 0)
(-0.00320089 0.000227729 0)
(-0.00353152 0.000231435 0)
(-0.00386657 0.000233948 0)
(-0.00420435 0.000235301 0)
(-0.00454326 0.00023553 0)
(-0.00488171 0.000234675 0)
(-0.00521817 0.000232773 0)
(-0.00555118 0.000229862 0)
(-0.00587931 0.000225983 0)
(-0.0062012 0.000221177 0)
(-0.00651554 0.000215486 0)
(-0.00682109 0.000208948 0)
(-0.00711666 0.000201606 0)
(-0.00740111 0.0001935 0)
(-0.00767337 0.000184673 0)
(-0.00793244 0.000175165 0)
(-0.00817735 0.000165019 0)
(-0.00840722 0.000154276 0)
(-0.00862121 0.000142979 0)
(-0.00881856 0.00013117 0)
(-0.00899854 0.000118891 0)
(-0.00916053 0.000106188 0)
(-0.00930393 9.31023e-05 0)
(-0.00942823 7.96777e-05 0)
(-0.00953296 6.59583e-05 0)
(-0.00961774 5.19893e-05 0)
(-0.00968225 3.78157e-05 0)
(-0.00972621 2.34835e-05 0)
(-0.00974944 9.03868e-06 0)
(-0.00975182 -5.47115e-06 0)
(-0.00973329 -1.99965e-05 0)
(-0.00969386 -3.44881e-05 0)
(-0.00963363 -4.8897e-05 0)
(-0.00955275 -6.31735e-05 0)
(-0.00945145 -7.72673e-05 0)
(-0.00933004 -9.11273e-05 0)
(-0.0091889 -0.000104701 0)
(-0.00902849 -0.000117935 0)
(-0.00884933 -0.000130777 0)
(-0.00865203 -0.000143174 0)
(-0.00843729 -0.000155072 0)
(-0.00820585 -0.000166416 0)
(-0.00795857 -0.000177153 0)
(-0.00769635 -0.000187228 0)
(-0.00742019 -0.000196588 0)
(-0.00713115 -0.00020518 0)
(-0.00683039 -0.000212953 0)
(-0.0065191 -0.000219855 0)
(-0.00619859 -0.000225837 0)
(-0.0058702 -0.00023085 0)
(-0.00553536 -0.000234845 0)
(-0.00519556 -0.000237777 0)
(-0.00485235 -0.000239603 0)
(-0.00450732 -0.000240283 0)
(-0.00416215 -0.000239778 0)
(-0.00381853 -0.000238055 0)
(-0.00347823 -0.000235082 0)
(-0.00314303 -0.000230832 0)
(-0.00281474 -0.000225282 0)
(-0.00249522 -0.000218415 0)
(-0.00218632 -0.000210218 0)
(-0.00188989 -0.000200686 0)
(-0.00160779 -0.000189824 0)
(-0.00134186 -0.000177642 0)
(-0.00109387 -0.000164167 0)
(-0.000865556 -0.000149436 0)
(-0.000658566 -0.000133509 0)
(-0.000474417 -0.000116467 0)
(-0.000314464 -9.84295e-05 0)
(-0.000179835 -7.95618e-05 0)
(-7.13521e-05 -6.00984e-05 0)
(1.05789e-05 -4.03744e-05 0)
(6.61282e-05 -2.08777e-05 0)
(9.62644e-05 -2.332e-06 0)
(0.000103064 1.41754e-05 0)
(9.00601e-05 2.70052e-05 0)
(6.27951e-05 3.36807e-05 0)
(3.06089e-05 3.06105e-05 0)
(7.39027e-06 1.41217e-05 0)
(8.71792e-06 -3.30105e-05 0)
(3.25221e-05 -6.0788e-05 0)
(5.96012e-05 -5.91752e-05 0)
(7.32745e-05 -3.6542e-05 0)
(6.24688e-05 1.17679e-07 0)
(2.02627e-05 4.55695e-05 0)
(-5.79024e-05 9.60537e-05 0)
(-0.000174736 0.000148917 0)
(-0.000331467 0.000202299 0)
(-0.000528201 0.000254888 0)
(-0.000764209 0.00030576 0)
(-0.00103815 0.000354263 0)
(-0.00134821 0.000399937 0)
(-0.00169224 0.000442462 0)
(-0.00206787 0.000481618 0)
(-0.00247252 0.000517263 0)
(-0.00290352 0.00054931 0)
(-0.00335811 0.000577719 0)
(-0.00383348 0.00060248 0)
(-0.00432683 0.000623613 0)
(-0.00483536 0.000641157 0)
(-0.00535627 0.000655166 0)
(-0.00588683 0.000665709 0)
(-0.00642432 0.000672865 0)
(-0.00696612 0.000676723 0)
(-0.00750964 0.000677375 0)
(-0.00805237 0.000674925 0)
(-0.0085919 0.000669475 0)
(-0.00912587 0.000661133 0)
(-0.00965202 0.00065001 0)
(-0.0101682 0.000636219 0)
(-0.0106722 0.000619876 0)
(-0.0111622 0.000601095 0)
(-0.0116361 0.000579994 0)
(-0.0120922 0.000556691 0)
(-0.0125288 0.000531304 0)
(-0.0129442 0.000503951 0)
(-0.0133369 0.000474754 0)
(-0.0137055 0.000443835 0)
(-0.0140486 0.000411314 0)
(-0.014365 0.000377316 0)
(-0.0146535 0.000341964 0)
(-0.0149131 0.000305383 0)
(-0.015143 0.000267698 0)
(-0.0153421 0.000229037 0)
(-0.0155099 0.000189529 0)
(-0.0156456 0.000149303 0)
(-0.0157488 0.000108492 0)
(-0.015819 6.72282e-05 0)
(-0.015856 2.56469e-05 0)
(-0.0158595 -1.61138e-05 0)
(-0.0158295 -5.79142e-05 0)
(-0.015766 -9.96122e-05 0)
(-0.0156691 -0.000141065 0)
(-0.0155392 -0.000182128 0)
(-0.0153765 -0.000222655 0)
(-0.0151816 -0.000262497 0)
(-0.014955 -0.000301505 0)
(-0.0146976 -0.000339527 0)
(-0.0144102 -0.000376411 0)
(-0.0140938 -0.000412003 0)
(-0.0137494 -0.00044615 0)
(-0.0133784 -0.000478697 0)
(-0.012982 -0.00050949 0)
(-0.0125617 -0.000538375 0)
(-0.0121191 -0.0005652 0)
(-0.011656 -0.000589815 0)
(-0.0111741 -0.000612075 0)
(-0.0106754 -0.000631833 0)
(-0.010162 -0.00064895 0)
(-0.00963597 -0.000663287 0)
(-0.00909964 -0.000674712 0)
(-0.00855537 -0.000683099 0)
(-0.00800561 -0.000688329 0)
(-0.00745292 -0.000690291 0)
(-0.00689992 -0.000688883 0)
(-0.00634932 -0.000684013 0)
(-0.00580388 -0.000675599 0)
(-0.00526642 -0.000663572 0)
(-0.0047398 -0.000647878 0)
(-0.0042269 -0.000628479 0)
(-0.00373063 -0.000605356 0)
(-0.00325387 -0.00057851 0)
(-0.00279948 -0.000547972 0)
(-0.00237027 -0.000513801 0)
(-0.00196899 -0.000476095 0)
(-0.00159822 -0.000434998 0)
(-0.00126043 -0.000390715 0)
(-0.000957846 -0.000343528 0)
(-0.000692399 -0.000293823 0)
(-0.000465648 -0.000242122 0)
(-0.000278646 -0.000189141 0)
(-0.000131785 -0.000135858 0)
(-2.45948e-05 -8.36282e-05 0)
(4.45356e-05 -3.43414e-05 0)
(7.87007e-05 9.35455e-06 0)
(8.28122e-05 4.37634e-05 0)
(6.40609e-05 6.38135e-05 0)
(3.3787e-05 6.28179e-05 0)
(8.77197e-06 3.28565e-05 0)
(7.53448e-06 -5.05115e-05 0)
(2.49907e-05 -8.54189e-05 0)
(3.75384e-05 -7.30363e-05 0)
(2.819e-05 -2.69655e-05 0)
(-1.4683e-05 4.23752e-05 0)
(-9.87098e-05 0.000126915 0)
(-0.000229091 0.000220575 0)
(-0.000409041 0.000318866 0)
(-0.000640116 0.000418496 0)
(-0.000922563 0.000517054 0)
(-0.0012556 0.000612775 0)
(-0.00163766 0.000704371 0)
(-0.00206657 0.000790907 0)
(-0.00253967 0.000871707 0)
(-0.00305399 0.000946296 0)
(-0.00360627 0.00101435 0)
(-0.00419308 0.00107565 0)
(-0.00481087 0.00113008 0)
(-0.00545602 0.00117759 0)
(-0.00612483 0.00121819 0)
(-0.00681364 0.00125191 0)
(-0.00751877 0.00127886 0)
(-0.0082366 0.00129914 0)
(-0.00896354 0.00131289 0)
(-0.00969607 0.00132026 0)
(-0.0104308 0.00132143 0)
(-0.0111643 0.00131659 0)
(-0.0118934 0.00130592 0)
(-0.0126149 0.00128963 0)
(-0.0133257 0.00126793 0)
(-0.0140231 0.00124103 0)
(-0.014704 0.00120915 0)
(-0.0153659 0.00117252 0)
(-0.0160061 0.00113136 0)
(-0.0166222 0.00108591 0)
(-0.017212 0.00103638 0)
(-0.017773 0.000983009 0)
(-0.0183034 0.000926038 0)
(-0.0188012 0.000865699 0)
(-0.0192646 0.000802232 0)
(-0.0196918 0.000735877 0)
(-0.0200814 0.000666877 0)
(-0.0204319 0.000595476 0)
(-0.0207421 0.00052192 0)
(-0.0210109 0.00044646 0)
(-0.0212373 0.000369348 0)
(-0.0214203 0.00029084 0)
(-0.0215594 0.000211193 0)
(-0.021654 0.000130669 0)
(-0.0217036 4.95343e-05 0)
(-0.0217081 -3.19412e-05 0)
(-0.0216672 -0.000113485 0)
(-0.0215811 -0.00019482 0)
(-0.0214499 -0.000275667 0)
(-0.0212741 -0.000355742 0)
(-0.0210541 -0.000434759 0)
(-0.0207906 -0.000512427 0)
(-0.0204844 -0.000588455 0)
(-0.0201366 -0.000662548 0)
(-0.0197483 -0.000734409 0)
(-0.0193209 -0.000803739 0)
(-0.0188558 -0.00087024 0)
(-0.0183547 -0.000933612 0)
(-0.0178194 -0.000993558 0)
(-0.017252 -0.00104978 0)
(-0.0166545 -0.00110199 0)
(-0.0160293 -0.00114988 0)
(-0.0153788 -0.00119319 0)
(-0.0147057 -0.00123163 0)
(-0.0140126 -0.00126494 0)
(-0.0133026 -0.00129284 0)
(-0.0125786 -0.00131509 0)
(-0.0118439 -0.00133145 0)
(-0.0111017 -0.00134169 0)
(-0.0103554 -0.00134561 0)
(-0.00960849 -0.00134301 0)
(-0.00886466 -0.00133373 0)
(-0.00812753 -0.00131763 0)
(-0.00740085 -0.00129457 0)
(-0.0066884 -0.00126447 0)
(-0.00599399 -0.00122727 0)
(-0.00532142 -0.00118296 0)
(-0.00467448 -0.00113156 0)
(-0.00405691 -0.00107317 0)
(-0.00347236 -0.00100791 0)
(-0.00292435 -0.000936026 0)
(-0.00241621 -0.000857829 0)
(-0.00195106 -0.000773762 0)
(-0.00153167 -0.000684417 0)
(-0.00116043 -0.000590585 0)
(-0.000839208 -0.000493314 0)
(-0.00056921 -0.000394 0)
(-0.000350805 -0.000294499 0)
(-0.000183304 -0.000197294 0)
(-6.46874e-05 -0.000105714 0)
(8.72128e-06 -2.42301e-05 0)
(4.25509e-05 4.11896e-05 0)
(4.47838e-05 8.27201e-05 0)
(2.74332e-05 9.03546e-05 0)
(7.85186e-06 5.11584e-05 0)
(5.17414e-06 -6.20387e-05 0)
(1.16537e-05 -9.49239e-05 0)
(1.81206e-06 -6.28716e-05 0)
(-3.96639e-05 1.56467e-05 0)
(-0.000123909 0.000126876 0)
(-0.000258654 0.000260001 0)
(-0.000449247 0.000406645 0)
(-0.000699038 0.000560429 0)
(-0.00100968 0.000716525 0)
(-0.00138144 0.000871288 0)
(-0.00181346 0.00102198 0)
(-0.00230395 0.00116653 0)
(-0.00285044 0.00130342 0)
(-0.00344987 0.00143152 0)
(-0.00409876 0.00155 0)
(-0.0047933 0.00165827 0)
(-0.00552943 0.00175595 0)
(-0.00630292 0.00184279 0)
(-0.00710941 0.00191867 0)
(-0.0079445 0.00198354 0)
(-0.00880374 0.00203746 0)
(-0.00968267 0.00208054 0)
(-0.0105769 0.00211292 0)
(-0.011482 0.00213481 0)
(-0.0123937 0.00214645 0)
(-0.0133079 0.00214809 0)
(-0.0142203 0.00214001 0)
(-0.0151271 0.00212252 0)
(-0.0160243 0.00209593 0)
(-0.0169081 0.00206059 0)
(-0.017775 0.00201681 0)
(-0.0186214 0.00196497 0)
(-0.0194441 0.0019054 0)
(-0.0202398 0.00183848 0)
(-0.0210056 0.00176458 0)
(-0.0217384 0.00168406 0)
(-0.0224356 0.00159729 0)
(-0.0230947 0.00150467 0)
(-0.0237131 0.00140658 0)
(-0.0242888 0.0013034 0)
(-0.0248195 0.00119552 0)
(-0.0253034 0.00108334 0)
(-0.0257388 0.000967255 0)
(-0.026124 0.000847672 0)
(-0.0264577 0.000724997 0)
(-0.0267387 0.000599641 0)
(-0.0269659 0.00047202 0)
(-0.0271384 0.000342556 0)
(-0.0272556 0.000211678 0)
(-0.0273169 7.98176e-05 0)
(-0.0273221 -5.25851e-05 0)
(-0.027271 -0.000185086 0)
(-0.0271637 -0.000317235 0)
(-0.0270004 -0.000448576 0)
(-0.0267816 -0.000578649 0)
(-0.026508 -0.000706986 0)
(-0.0261804 -0.000833118 0)
(-0.0257998 -0.000956569 0)
(-0.0253676 -0.00107686 0)
(-0.024885 -0.00119351 0)
(-0.0243539 -0.00130604 0)
(-0.0237761 -0.00141397 0)
(-0.0231536 -0.0015168 0)
(-0.0224887 -0.00161407 0)
(-0.0217838 -0.00170528 0)
(-0.0210417 -0.00178998 0)
(-0.0202651 -0.00186769 0)
(-0.0194571 -0.00193796 0)
(-0.018621 -0.00200034 0)
(-0.0177602 -0.0020544 0)
(-0.0168782 -0.00209972 0)
(-0.0159788 -0.00213591 0)
(-0.0150659 -0.00216258 0)
(-0.0141435 -0.00217939 0)
(-0.0132159 -0.002186 0)
(-0.0122873 -0.00218212 0)
(-0.0113621 -0.00216749 0)
(-0.0104449 -0.00214189 0)
(-0.00954018 -0.00210515 0)
(-0.00865254 -0.00205714 0)
(-0.00778662 -0.00199779 0)
(-0.00694703 -0.0019271 0)
(-0.00613835 -0.00184515 0)
(-0.00536507 -0.00175212 0)
(-0.00463156 -0.00164826 0)
(-0.003942 -0.001534 0)
(-0.00330035 -0.00140989 0)
(-0.00271027 -0.0012767 0)
(-0.002175 -0.00113541 0)
(-0.00169728 -0.000987343 0)
(-0.00127926 -0.000834199 0)
(-0.000922278 -0.000678189 0)
(-0.00062674 -0.000522192 0)
(-0.000391878 -0.000369952 0)
(-0.000215509 -0.000226344 0)
(-9.37527e-05 -9.77156e-05 0)
(-2.07575e-05 7.70556e-06 0)
(1.16532e-05 7.94112e-05 0)
(1.51486e-05 0.000104142 0)
(5.70143e-06 6.42314e-05 0)
(2.24804e-06 -6.54923e-05 0)
(-5.04303e-06 -8.41378e-05 0)
(-4.25639e-05 -2.18773e-05 0)
(-0.000122606 9.88656e-05 0)
(-0.000255016 0.00026135 0)
(-0.00044716 0.000452231 0)
(-0.000704135 0.000660963 0)
(-0.00102911 0.000879325 0)
(-0.00142363 0.00110094 0)
(-0.00188781 0.00132087 0)
(-0.00242064 0.00153533 0)
(-0.00302011 0.0017414 0)
(-0.00368344 0.00193688 0)
(-0.00440722 0.00212009 0)
(-0.00518754 0.00228979 0)
(-0.00602011 0.00244508 0)
(-0.00690031 0.00258533 0)
(-0.00782334 0.00271013 0)
(-0.00878422 0.00281924 0)
(-0.00977788 0.00291256 0)
(-0.0107992 0.00299013 0)
(-0.0118431 0.00305205 0)
(-0.0129043 0.00309852 0)
(-0.0139779 0.0031298 0)
(-0.0150589 0.0031462 0)
(-0.0161423 0.00314808 0)
(-0.0172234 0.00313584 0)
(-0.0182974 0.00310988 0)
(-0.0193598 0.00307068 0)
(-0.0204062 0.00301869 0)
(-0.0214324 0.0029544 0)
(-0.0224343 0.00287832 0)
(-0.0234079 0.00279096 0)
(-0.0243496 0.00269284 0)
(-0.0252556 0.0025845 0)
(-0.0261226 0.00246647 0)
(-0.0269475 0.00233932 0)
(-0.0277271 0.00220359 0)
(-0.0284587 0.00205983 0)
(-0.0291395 0.00190863 0)
(-0.0297672 0.00175056 0)
(-0.0303394 0.00158618 0)
(-0.0308542 0.00141609 0)
(-0.0313096 0.00124088 0)
(-0.0317041 0.00106115 0)
(-0.0320361 0.000877496 0)
(-0.0323045 0.000690537 0)
(-0.0325083 0.00050089 0)
(-0.0326465 0.000309183 0)
(-0.0327188 0.000116053 0)
(-0.0327246 -7.7857e-05 0)
(-0.0326638 -0.000271895 0)
(-0.0325366 -0.0004654 0)
(-0.0323432 -0.000657705 0)
(-0.0320842 -0.000848135 0)
(-0.0317604 -0.00103601 0)
(-0.0313727 -0.00122063 0)
(-0.0309224 -0.00140131 0)
(-0.0304111 -0.00157736 0)
(-0.0298403 -0.00174806 0)
(-0.0292121 -0.00191271 0)
(-0.0285287 -0.00207062 0)
(-0.0277925 -0.00222107 0)
(-0.0270062 -0.00236336 0)
(-0.0261726 -0.00249681 0)
(-0.0252949 -0.00262073 0)
(-0.0243765 -0.00273444 0)
(-0.023421 -0.00283729 0)
(-0.0224321 -0.00292862 0)
(-0.0214139 -0.00300782 0)
(-0.0203705 -0.00307428 0)
(-0.0193064 -0.00312744 0)
(-0.0182261 -0.00316676 0)
(-0.0171343 -0.00319172 0)
(-0.016036 -0.00320188 0)
(-0.0149362 -0.00319682 0)
(-0.0138399 -0.00317617 0)
(-0.0127525 -0.00313964 0)
(-0.0116793 -0.003087 0)
(-0.0106254 -0.00301808 0)
(-0.00959644 -0.00293283 0)
(-0.00859757 -0.00283128 0)
(-0.0076341 -0.00271358 0)
(-0.00671118 -0.00258002 0)
(-0.00583382 -0.00243104 0)
(-0.00500678 -0.00226728 0)
(-0.00423455 -0.00208961 0)
(-0.00352126 -0.00189917 0)
(-0.00287056 -0.00169745 0)
(-0.00228553 -0.00148636 0)
(-0.00176856 -0.00126836 0)
(-0.00132118 -0.00104655 0)
(-0.000943932 -0.000824916 0)
(-0.000636109 -0.000608525 0)
(-0.0003956 -0.000403816 0)
(-0.000218632 -0.000218974 0)
(-9.95247e-05 -6.43777e-05 0)
(-3.03729e-05 4.69699e-05 0)
(-6.29071e-07 9.88632e-05 0)
(2.94454e-06 6.97268e-05 0)
(-9.12751e-07 -5.96716e-05 0)
(-2.35534e-05 -4.97946e-05 0)
(-9.20972e-05 5.4581e-05 0)
(-0.000215035 0.000228069 0)
(-0.000400394 0.000451433 0)
(-0.000654793 0.00070911 0)
(-0.000982767 0.000988584 0)
(-0.00138705 0.00127991 0)
(-0.00186885 0.0015752 0)
(-0.00242801 0.00186827 0)
(-0.00306326 0.00215422 0)
(-0.0037723 0.00242927 0)
(-0.00455206 0.00269047 0)
(-0.00539876 0.00293555 0)
(-0.0063081 0.00316279 0)
(-0.00727534 0.00337094 0)
(-0.00829539 0.00355908 0)
(-0.00936293 0.00372658 0)
(-0.0104724 0.00387308 0)
(-0.0116182 0.0039984 0)
(-0.0127947 0.0041025 0)
(-0.0139959 0.00418551 0)
(-0.0152163 0.00424765 0)
(-0.0164501 0.00428923 0)
(-0.0176917 0.00431066 0)
(-0.0189355 0.00431238 0)
(-0.0201762 0.0042949 0)
(-0.0214083 0.00425879 0)
(-0.0226269 0.00420464 0)
(-0.0238269 0.00413308 0)
(-0.0250034 0.00404475 0)
(-0.0261518 0.00394032 0)
(-0.0272677 0.00382051 0)
(-0.0283467 0.003686 0)
(-0.0293849 0.00353753 0)
(-0.0303782 0.00337583 0)
(-0.0313231 0.00320164 0)
(-0.0322161 0.00301573 0)
(-0.033054 0.00281886 0)
(-0.0338337 0.0026118 0)
(-0.0345525 0.00239534 0)
(-0.0352077 0.00217027 0)
(-0.0357971 0.00193739 0)
(-0.0363184 0.00169751 0)
(-0.0367699 0.00145146 0)
(-0.03715 0.00120005 0)
(-0.0374571 0.000944126 0)
(-0.0376901 0.000684543 0)
(-0.0378482 0.000422159 0)
(-0.0379306 0.000157845 0)
(-0.037937 -0.000107518 0)
(-0.0378671 -0.000373037 0)
(-0.0377212 -0.000637808 0)
(-0.0374996 -0.000900917 0)
(-0.0372028 -0.00116144 0)
(-0.0368318 -0.00141844 0)
(-0.0363877 -0.00167099 0)
(-0.0358721 -0.00191813 0)
(-0.0352864 -0.0021589 0)
(-0.0346328 -0.00239236 0)
(-0.0339135 -0.00261754 0)
(-0.0331309 -0.00283349 0)
(-0.0322878 -0.00303924 0)
(-0.0313874 -0.00323385 0)
(-0.0304329 -0.00341638 0)
(-0.0294278 -0.00358589 0)
(-0.028376 -0.00374148 0)
(-0.0272816 -0.00388224 0)
(-0.0261489 -0.00400732 0)
(-0.0249824 -0.00411586 0)
(-0.0237869 -0.00420708 0)
(-0.0225674 -0.00428019 0)
(-0.021329 -0.00433448 0)
(-0.0200772 -0.00436927 0)
(-0.0188174 -0.00438397 0)
(-0.0175554 -0.00437803 0)
(-0.0162969 -0.00435097 0)
(-0.0150477 -0.00430243 0)
(-0.013814 -0.0042321 0)
(-0.0126015 -0.00413982 0)
(-0.0114165 -0.00402553 0)
(-0.0102647 -0.00388931 0)
(-0.00915218 -0.00373142 0)
(-0.00808456 -0.00355229 0)
(-0.00706742 -0.00335257 0)
(-0.00610608 -0.00313318 0)
(-0.00520548 -0.00289533 0)
(-0.00437018 -0.00264063 0)
(-0.00360423 -0.00237109 0)
(-0.00291103 -0.0020893 0)
(-0.00229325 -0.00179851 0)
(-0.00175269 -0.00150279 0)
(-0.00129008 -0.00120725 0)
(-0.000904969 -0.000918271 0)
(-0.000595513 -0.000643813 0)
(-0.000358309 -0.000393801 0)
(-0.000188157 -0.000180581 0)
(-7.77925e-05 -1.93704e-05 0)
(-1.83323e-05 7.11336e-05 0)
(-7.68799e-08 6.63866e-05 0)
(-4.13049e-06 -4.3996e-05 0)
(-4.29052e-05 1.00367e-05 0)
(-0.000144419 0.000169493 0)
(-0.000312995 0.000406914 0)
(-0.000554495 0.000701095 0)
(-0.000874532 0.00103461 0)
(-0.00127683 0.00139322 0)
(-0.00176346 0.00176541 0)
(-0.00233513 0.00214191 0)
(-0.00299129 0.0025153 0)
(-0.00373026 0.00287964 0)
(-0.00454942 0.00323023 0)
(-0.00544534 0.00356336 0)
(-0.00641389 0.00387616 0)
(-0.00745037 0.00416639 0)
(-0.00854962 0.0044324 0)
(-0.00970612 0.00467295 0)
(-0.0109141 0.00488719 0)
(-0.0121674 0.00507458 0)
(-0.01346 0.00523482 0)
(-0.0147857 0.00536783 0)
(-0.016138 0.00547371 0)
(-0.0175107 0.00555271 0)
(-0.0188976 0.00560519 0)
(-0.0202924 0.00563163 0)
(-0.0216891 0.00563259 0)
(-0.0230816 0.0056087 0)
(-0.0244641 0.00556066 0)
(-0.0258309 0.00548922 0)
(-0.0271764 0.00539518 0)
(-0.0284954 0.00527936 0)
(-0.0297826 0.00514263 0)
(-0.031033 0.00498588 0)
(-0.032242 0.00481003 0)
(-0.033405 0.004616 0)
(-0.0345177 0.00440475 0)
(-0.035576 0.00417725 0)
(-0.036576 0.00393448 0)
(-0.0375142 0.00367743 0)
(-0.0383872 0.00340711 0)
(-0.0391919 0.00312455 0)
(-0.0399254 0.00283077 0)
(-0.0405851 0.00252683 0)
(-0.0411686 0.00221377 0)
(-0.0416739 0.00189267 0)
(-0.0420991 0.00156461 0)
(-0.0424427 0.00123068 0)
(-0.0427033 0.000891995 0)
(-0.0428801 0.000549678 0)
(-0.0429721 0.000204865 0)
(-0.0429791 -0.000141294 0)
(-0.0429008 -0.000487635 0)
(-0.0427373 -0.000832979 0)
(-0.042489 -0.00117613 0)
(-0.0421567 -0.0015159 0)
(-0.0417414 -0.00185106 0)
(-0.0412442 -0.00218038 0)
(-0.040667 -0.00250265 0)
(-0.0400114 -0.00281661 0)
(-0.0392798 -0.00312102 0)
(-0.0384745 -0.00341464 0)
(-0.0375985 -0.00369623 0)
(-0.0366548 -0.00396454 0)
(-0.0356468 -0.00421835 0)
(-0.0345781 -0.00445643 0)
(-0.0334528 -0.00467759 0)
(-0.0322751 -0.00488064 0)
(-0.0310495 -0.00506444 0)
(-0.0297808 -0.00522786 0)
(-0.028474 -0.00536982 0)
(-0.0271345 -0.0054893 0)
(-0.0257677 -0.00558532 0)
(-0.0243794 -0.00565694 0)
(-0.0229755 -0.00570333 0)
(-0.0215622 -0.00572372 0)
(-0.0201457 -0.00571742 0)
(-0.0187323 -0.00568386 0)
(-0.0173286 -0.00562257 0)
(-0.0159411 -0.00553321 0)
(-0.0145764 -0.00541558 0)
(-0.0132411 -0.00526967 0)
(-0.0119418 -0.00509561 0)
(-0.0106848 -0.00489379 0)
(-0.00947644 -0.0046648 0)
(-0.00832279 -0.00440955 0)
(-0.00722961 -0.00412925 0)
(-0.00620232 -0.00382553 0)
(-0.00524587 -0.00350045 0)
(-0.00436469 -0.00315663 0)
(-0.00356255 -0.00279736 0)
(-0.00284244 -0.00242671 0)
(-0.00220646 -0.00204973 0)
(-0.00165571 -0.00167264 0)
(-0.00119007 -0.00130309 0)
(-0.000808176 -0.000950479 0)
(-0.000507196 -0.00062632 0)
(-0.000282659 -0.000344706 0)
(-0.000128207 -0.000122733 0)
(-3.69668e-05 1.8912e-05 0)
(-3.17411e-06 5.35759e-05 0)
(-7.30917e-06 -1.82701e-05 0)
(-6.25024e-05 9.63332e-05 0)
(-0.000197963 0.000324584 0)
(-0.000413733 0.000637681 0)
(-0.00071335 0.00101295 0)
(-0.00110123 0.00143146 0)
(-0.0015801 0.00187751 0)
(-0.00215123 0.00233821 0)
(-0.00281464 0.00280304 0)
(-0.00356926 0.0032634 0)
(-0.00441294 0.00371238 0)
(-0.00534265 0.00414439 0)
(-0.00635455 0.00455497 0)
(-0.00744411 0.00494061 0)
(-0.00860625 0.00529856 0)
(-0.00983538 0.00562673 0)
(-0.0111256 0.00592355 0)
(-0.0124706 0.00618792 0)
(-0.0138639 0.0064191 0)
(-0.0152989 0.00661668 0)
(-0.0167688 0.00678049 0)
(-0.0182668 0.00691061 0)
(-0.0197862 0.0070073 0)
(-0.0213202 0.00707097 0)
(-0.0228619 0.00710217 0)
(-0.0244049 0.00710157 0)
(-0.0259426 0.00706993 0)
(-0.0274686 0.00700811 0)
(-0.0289767 0.006917 0)
(-0.0304609 0.00679759 0)
(-0.0319154 0.0066509 0)
(-0.0333346 0.006478 0)
(-0.034713 0.00627999 0)
(-0.0360454 0.00605802 0)
(-0.0373269 0.00581323 0)
(-0.0385528 0.00554682 0)
(-0.0397186 0.00526001 0)
(-0.0408201 0.00495401 0)
(-0.0418533 0.00463008 0)
(-0.0428147 0.00428949 0)
(-0.0437007 0.00393352 0)
(-0.0445083 0.00356345 0)
(-0.0452346 0.00318062 0)
(-0.0458769 0.00278634 0)
(-0.0464331 0.00238196 0)
(-0.0469011 0.00196884 0)
(-0.0472792 0.00154837 0)
(-0.0475661 0.00112194 0)
(-0.0477605 0.000690967 0)
(-0.0478618 0.000256872 0)
(-0.0478694 -0.000178892 0)
(-0.0477831 -0.000614861 0)
(-0.0476031 -0.00104955 0)
(-0.0473298 -0.00148147 0)
(-0.046964 -0.00190911 0)
(-0.0465068 -0.00233093 0)
(-0.0459596 -0.00274541 0)
(-0.0453242 -0.00315099 0)
(-0.0446026 -0.00354612 0)
(-0.0437972 -0.00392924 0)
(-0.0429108 -0.0042988 0)
(-0.0419465 -0.00465324 0)
(-0.0409075 -0.004991 0)
(-0.0397977 -0.00531055 0)
(-0.038621 -0.00561037 0)
(-0.0373817 -0.00588895 0)
(-0.0360846 -0.00614484 0)
(-0.0347345 -0.00637659 0)
(-0.0333366 -0.00658282 0)
(-0.0318965 -0.00676218 0)
(-0.03042 -0.0069134 0)
(-0.028913 -0.00703527 0)
(-0.0273817 -0.00712665 0)
(-0.0258327 -0.0071865 0)
(-0.0242726 -0.00721389 0)
(-0.0227081 -0.00720798 0)
(-0.0211462 -0.00716809 0)
(-0.0195939 -0.00709366 0)
(-0.0180584 -0.0069843 0)
(-0.0165467 -0.00683981 0)
(-0.0150661 -0.0066602 0)
(-0.0136234 -0.00644569 0)
(-0.0122257 -0.0061968 0)
(-0.0108798 -0.00591433 0)
(-0.00959224 -0.00559944 0)
(-0.00836915 -0.00525368 0)
(-0.00721643 -0.0048791 0)
(-0.00613944 -0.00447828 0)
(-0.00514301 -0.00405444 0)
(-0.00423128 -0.00361158 0)
(-0.00340763 -0.00315461 0)
(-0.00267457 -0.00268953 0)
(-0.0020336 -0.00222364 0)
(-0.00148514 -0.00176579 0)
(-0.00102838 -0.0013267 0)
(-0.000661267 -0.000919297 0)
(-0.000380234 -0.000559171 0)
(-0.000180013 -0.000264961 0)
(-5.59149e-05 -5.88694e-05 0)
(-6.24621e-06 3.10581e-05 0)
(-1.04011e-05 1.7479e-05 0)
(-8.19828e-05 0.000209432 0)
(-0.000251705 0.000520677 0)
(-0.000515381 0.000921627 0)
(-0.000874163 0.00138856 0)
(-0.00133117 0.00190139 0)
(-0.00188802 0.00244321 0)
(-0.00254502 0.00299994 0)
(-0.00330143 0.00355995 0)
(-0.00415551 0.00411361 0)
(-0.00510458 0.00465305 0)
(-0.0061451 0.00517185 0)
(-0.00727279 0.00566484 0)
(-0.00848269 0.00612788 0)
(-0.00976928 0.00655769 0)
(-0.0111266 0.00695175 0)
(-0.0125482 0.00730815 0)
(-0.0140275 0.00762551 0)
(-0.0155575 0.0079029 0)
(-0.0171312 0.00813975 0)
(-0.0187414 0.00833583 0)
(-0.0203807 0.00849118 0)
(-0.0220419 0.00860605 0)
(-0.0237178 0.00868091 0)
(-0.0254012 0.00871638 0)
(-0.0270849 0.00871324 0)
(-0.028762 0.00867239 0)
(-0.0304257 0.00859481 0)
(-0.0320692 0.00848161 0)
(-0.0336862 0.00833394 0)
(-0.0352703 0.00815303 0)
(-0.0368155 0.00794017 0)
(-0.038316 0.00769668 0)
(-0.0397661 0.00742396 0)
(-0.0411606 0.00712339 0)
(-0.0424943 0.00679644 0)
(-0.0437624 0.00644456 0)
(-0.0449605 0.00606926 0)
(-0.0460842 0.00567207 0)
(-0.0471296 0.00525451 0)
(-0.048093 0.00481816 0)
(-0.048971 0.00436461 0)
(-0.0497606 0.00389545 0)
(-0.0504589 0.00341233 0)
(-0.0510635 0.00291687 0)
(-0.0515722 0.00241075 0)
(-0.0519832 0.00189565 0)
(-0.052295 0.00137329 0)
(-0.0525064 0.000845395 0)
(-0.0526165 0.000313707 0)
(-0.0526248 -0.000219998 0)
(-0.0525311 -0.000753931 0)
(-0.0523356 -0.00128628 0)
(-0.0520387 -0.00181522 0)
(-0.0516413 -0.00233889 0)
(-0.0511445 -0.00285545 0)
(-0.05055 -0.003363 0)
(-0.0498595 -0.00385967 0)
(-0.0490754 -0.00434356 0)
(-0.0482001 -0.00481278 0)
(-0.0472368 -0.00526541 0)
(-0.0461886 -0.00569956 0)
(-0.0450592 -0.00611336 0)
(-0.0438526 -0.00650492 0)
(-0.0425732 -0.00687241 0)
(-0.0412255 -0.00721399 0)
(-0.0398147 -0.0075279 0)
(-0.0383459 -0.00781239 0)
(-0.0368249 -0.00806579 0)
(-0.0352576 -0.00828646 0)
(-0.03365 -0.00847288 0)
(-0.0320088 -0.00862358 0)
(-0.0303406 -0.0087372 0)
(-0.0286523 -0.00881251 0)
(-0.0269511 -0.00884837 0)
(-0.0252442 -0.00884382 0)
(-0.0235391 -0.00879804 0)
(-0.0218433 -0.00871039 0)
(-0.0201644 -0.00858043 0)
(-0.0185101 -0.00840796 0)
(-0.016888 -0.00819302 0)
(-0.0153055 -0.00793594 0)
(-0.0137702 -0.00763737 0)
(-0.0122893 -0.00729833 0)
(-0.0108698 -0.00692027 0)
(-0.00951825 -0.00650509 0)
(-0.00824106 -0.00605526 0)
(-0.00704399 -0.00557388 0)
(-0.00593226 -0.00506481 0)
(-0.00491044 -0.00453275 0)
(-0.00398237 -0.00398343 0)
(-0.003151 -0.00342376 0)
(-0.00241839 -0.00286207 0)
(-0.00178553 -0.0023083 0)
(-0.00125235 -0.00177437 0)
(-0.00081768 -0.00127444 0)
(-0.000478969 -0.000825357 0)
(-0.000232155 -0.000446985 0)
(-7.48005e-05 -0.000162626 0)
(-9.24171e-06 -1.1657e-06 0)
(-1.33873e-05 6.30887e-05 0)
(-0.000101141 0.000349269 0)
(-0.000304998 0.000757974 0)
(-0.000616696 0.00125926 0)
(-0.00103502 0.00182871 0)
(-0.00156175 0.00244536 0)
(-0.0021973 0.00309134 0)
(-0.00294094 0.00375161 0)
(-0.00379107 0.00441352 0)
(-0.00474522 0.00506656 0)
(-0.00580007 0.00570199 0)
(-0.00695152 0.00631261 0)
(-0.00819477 0.00689257 0)
(-0.00952441 0.00743711 0)
(-0.0109345 0.00794247 0)
(-0.0124185 0.00840568 0)
(-0.0139698 0.0088245 0)
(-0.0155811 0.00919727 0)
(-0.0172453 0.00952284 0)
(-0.0189546 0.00980052 0)
(-0.0207016 0.01003 0)
(-0.0224784 0.0102112 0)
(-0.0242775 0.0103444 0)
(-0.026091 0.0104302 0)
(-0.0279115 0.0104693 0)
(-0.0297312 0.0104624 0)
(-0.0315429 0.0104107 0)
(-0.0333392 0.0103153 0)
(-0.0351131 0.0101776 0)
(-0.0368577 0.0099987 0)
(-0.0385663 0.00978024 0)
(-0.0402325 0.00952368 0)
(-0.04185 0.00923059 0)
(-0.0434129 0.00890262 0)
(-0.0449155 0.00854141 0)
(-0.0463524 0.00814871 0)
(-0.0477184 0.00772624 0)
(-0.0490088 0.0072758 0)
(-0.0502189 0.00679921 0)
(-0.0513446 0.0062983 0)
(-0.0523819 0.00577494 0)
(-0.0533272 0.00523102 0)
(-0.0541772 0.00466847 0)
(-0.0549289 0.00408924 0)
(-0.0555798 0.00349528 0)
(-0.0561274 0.00288859 0)
(-0.0565699 0.00227119 0)
(-0.0569056 0.00164512 0)
(-0.0571333 0.00101246 0)
(-0.057252 0.000375285 0)
(-0.0572612 -0.000264278 0)
(-0.0571606 -0.000904091 0)
(-0.0569505 -0.00154199 0)
(-0.0566313 -0.00217579 0)
(-0.056204 -0.00280328 0)
(-0.0556697 -0.00342224 0)
(-0.0550303 -0.00403043 0)
(-0.0542875 -0.0046256 0)
(-0.053444 -0.00520549 0)
(-0.0525023 -0.00576783 0)
(-0.0514657 -0.00631036 0)
(-0.0503377 -0.00683082 0)
(-0.0491221 -0.00732698 0)
(-0.0478233 -0.00779659 0)