/*--------------------------------*- C++ -*----------------------------------*\
| =========                 |                                                 |
| \\      /  F ield         | OpenFOAM: The Open Source CFD Toolbox           |
|  \\    /   O peration     | Version:  2212                                  |
|   \\  /    A nd           | Website:  www.openfoam.com                      |
|    \\/     M anipulation  |                                                 |
\*---------------------------------------------------------------------------*/
FoamFile
{
    version     2.0;
    format      ascii;
    arch        "LSB;label=32;scalar=64";
    class       surfaceScalarField;
    location    "0.0345";
    object      phi_0;
}
// * * * * * * * * * * * * * * * * * * * * * * * * * * * * * * * * * * * * * //

dimensions      [0 3 -1 0 0 0 0];

oriented        oriented;

internalField   nonuniform List<scalar> 
19800
(
6.13184e-11
-6.13669e-11
1.91898e-10
-1.30573e-10
3.21074e-10
-1.29183e-10
4.10404e-10
-8.93106e-11
4.36726e-10
-2.63194e-11
3.86186e-10
5.05382e-11
2.51797e-10
1.34387e-10
3.12879e-11
2.2051e-10
-2.74564e-10
3.05849e-10
-6.63062e-10
3.88507e-10
-1.13021e-09
4.67146e-10
-1.67121e-09
5.40997e-10
-2.28079e-09
6.09587e-10
-2.95333e-09
6.72545e-10
-3.68306e-09
7.29723e-10
-4.46411e-09
7.81056e-10
-5.29069e-09
8.26572e-10
-6.15698e-09
8.66291e-10
-7.05728e-09
9.00301e-10
-7.98598e-09
9.28701e-10
-8.93765e-09
9.51666e-10
-9.90699e-09
9.69345e-10
-1.08889e-08
9.81925e-10
-1.18785e-08
9.89563e-10
-1.28709e-08
9.92421e-10
-1.38616e-08
9.90673e-10
-1.48461e-08
9.84507e-10
-1.58202e-08
9.74125e-10
-1.67799e-08
9.59711e-10
-1.77213e-08
9.41447e-10
-1.86409e-08
9.19523e-10
-1.9535e-08
8.94116e-10
-2.04004e-08
8.65396e-10
-2.12339e-08
8.33542e-10
-2.20327e-08
7.98744e-10
-2.27939e-08
7.61183e-10
-2.35149e-08
7.21016e-10
-2.41933e-08
6.78412e-10
-2.48268e-08
6.33551e-10
-2.54135e-08
5.86608e-10
-2.59512e-08
5.37753e-10
-2.64384e-08
4.87144e-10
-2.68733e-08
4.34939e-10
-2.72546e-08
3.81305e-10
-2.7581e-08
3.26411e-10
-2.78514e-08
2.70417e-10
-2.80649e-08
2.13485e-10
-2.82207e-08
1.55797e-10
-2.83182e-08
9.75301e-11
-2.83571e-08
3.8843e-11
-2.8337e-08
-2.01018e-11
-2.82578e-08
-7.91328e-11
-2.81198e-08
-1.38076e-10
-2.7923e-08
-1.96732e-10
-2.76681e-08
-2.54905e-10
-2.73557e-08
-3.12436e-10
-2.69866e-08
-3.69142e-10
-2.65618e-08
-4.24803e-10
-2.60825e-08
-4.79219e-10
-2.55503e-08
-5.32208e-10
-2.49668e-08
-5.83563e-10
-2.43337e-08
-6.33067e-10
-2.36532e-08
-6.8052e-10
-2.29275e-08
-7.25714e-10
-2.2159e-08
-7.68418e-10
-2.13506e-08
-8.08412e-10
-2.05052e-08
-8.45489e-10
-1.96257e-08
-8.79435e-10
-1.87157e-08
-9.10024e-10
-1.77787e-08
-9.37041e-10
-1.68184e-08
-9.60288e-10
-1.58388e-08
-9.79561e-10
-1.48442e-08
-9.94637e-10
-1.38389e-08
-1.00529e-09
-1.28276e-08
-1.01133e-09
-1.1815e-08
-1.01258e-09
-1.08061e-08
-1.00886e-09
-9.8061e-09
-1.00002e-09
-8.8202e-09
-9.85887e-10
-7.85387e-09
-9.66326e-10
-6.91267e-09
-9.41194e-10
-6.00232e-09
-9.10364e-10
-5.12858e-09
-8.73742e-10
-4.29729e-09
-8.31285e-10
-3.5143e-09
-7.82983e-10
-2.78545e-09
-7.28852e-10
-2.1165e-09
-6.68953e-10
-1.51307e-09
-6.03426e-10
-9.8056e-10
-5.32514e-10
-5.23991e-10
-4.56572e-10
-1.47866e-10
-3.76127e-10
1.44107e-10
-2.91972e-10
3.49423e-10
-2.05314e-10
4.67428e-10
-1.18004e-10
5.00362e-10
-3.29347e-11
4.55035e-10
4.53263e-11
3.45578e-10
1.09459e-10
1.98203e-10
1.47378e-10
5.96693e-11
1.38533e-10
5.96722e-11
1.44428e-10
-2.05788e-10
3.70569e-10
-3.56711e-10
5.57029e-10
-3.15639e-10
6.29813e-10
-1.62107e-10
5.38249e-10
6.52616e-11
2.4989e-10
3.38879e-10
-2.53539e-10
6.37829e-10
-9.79985e-10
9.46949e-10
-1.92991e-09
1.25577e-09
-3.09839e-09
1.55701e-09
-4.47692e-09
1.84568e-09
-6.0543e-09
2.11839e-09
-7.81758e-09
2.37287e-09
-9.75268e-09
2.60764e-09
-1.18447e-08
2.82174e-09
-1.40783e-08
3.01464e-09
-1.64379e-08
3.18619e-09
-1.89079e-08
3.33633e-09
-2.14729e-08
3.46526e-09
-2.41174e-08
3.57329e-09
-2.68266e-08
3.66085e-09
-2.95857e-08
3.72842e-09
-3.23803e-08
3.77659e-09
-3.51967e-08
3.80595e-09
-3.80214e-08
3.81708e-09
-4.08414e-08
3.81064e-09
-4.36442e-08
3.7873e-09
-4.64178e-08
3.74775e-09
-4.91508e-08
3.69268e-09
-5.18321e-08
3.62278e-09
-5.44513e-08
3.53874e-09
-5.69985e-08
3.44125e-09
-5.94641e-08
3.33099e-09
-6.18392e-08
3.20863e-09
-6.41153e-08
3.07488e-09
-6.62845e-08
2.93042e-09
-6.83394e-08
2.77589e-09
-7.02729e-08
2.61194e-09
-7.20786e-08
2.43926e-09
-7.37505e-08
2.2585e-09
-7.52831e-08
2.07031e-09
-7.66713e-08
1.87532e-09
-7.79105e-08
1.67418e-09
-7.89968e-08
1.46754e-09
-7.99264e-08
1.25604e-09
-8.06963e-08
1.04031e-09
-8.13038e-08
8.20987e-10
-8.17467e-08
5.9874e-10
-8.20234e-08
3.74233e-10
-8.21327e-08
1.48125e-10
-8.20739e-08
-7.89308e-11
-8.18468e-08
-3.06253e-10
-8.14517e-08
-5.33142e-10
-8.08895e-08
-7.58903e-10
-8.01616e-08
-9.82824e-10
-7.92699e-08
-1.20418e-09
-7.82168e-08
-1.42225e-09
-7.70053e-08
-1.63627e-09
-7.56391e-08
-1.84546e-09
-7.41222e-08
-2.04907e-09
-7.24595e-08
-2.24631e-09
-7.06561e-08
-2.43639e-09
-6.87182e-08
-2.61851e-09
-6.6652e-08
-2.79184e-09
-6.44649e-08
-2.95556e-09
-6.21645e-08
-3.10884e-09
-5.97591e-08
-3.25086e-09
-5.72578e-08
-3.38079e-09
-5.467e-08
-3.4978e-09
-5.20059e-08
-3.6011e-09
-4.92763e-08
-3.68989e-09
-4.64925e-08
-3.76337e-09
-4.36664e-08
-3.82075e-09
-4.08104e-08
-3.86126e-09
-3.79376e-08
-3.88418e-09
-3.50614e-08
-3.88882e-09
-3.21957e-08
-3.87452e-09
-2.9355e-08
-3.84071e-09
-2.65541e-08
-3.78684e-09
-2.3808e-08
-3.71239e-09
-2.11322e-08
-3.61693e-09
-1.85425e-08
-3.50011e-09
-1.60545e-08
-3.3617e-09
-1.36842e-08
-3.20159e-09
-1.14474e-08
-3.01984e-09
-9.35951e-09
-2.8167e-09
-7.43583e-09
-2.59263e-09
-5.69084e-09
-2.34842e-09
-4.13811e-09
-2.08525e-09
-2.78987e-09
-1.80482e-09
-1.6564e-09
-1.50959e-09
-7.45305e-10
-1.20307e-09
-6.03459e-11
-8.90273e-10
4.00094e-10
-5.78441e-10
6.45275e-10
-2.7811e-10
6.95328e-10
-4.71999e-12
5.85676e-10
2.19117e-10
3.72603e-10
3.6045e-10
1.38524e-10
3.7261e-10
1.98205e-10
1.56105e-10
-3.619e-10
3.64707e-10
-5.65311e-10
4.76743e-10
-4.27673e-10
3.98769e-10
-8.4131e-11
6.60047e-11
3.98024e-10
-5.64517e-10
9.69414e-10
-1.5183e-09
1.59161e-09
-2.80743e-09
2.23608e-09
-4.4338e-09
2.88214e-09
-6.39168e-09
3.51488e-09
-8.66965e-09
4.12364e-09
-1.12522e-08
4.70092e-09
-1.41207e-08
5.24141e-09
-1.72546e-08
5.74153e-09
-2.06317e-08
6.19888e-09
-2.42291e-08
6.61198e-09
-2.80229e-08
6.98006e-09
-3.19895e-08
7.30289e-09
-3.61048e-08
7.58058e-09
-4.03452e-08
7.81363e-09
-4.46871e-08
8.00277e-09
-4.91076e-08
8.14893e-09
-5.35842e-08
8.25318e-09
-5.80949e-08
8.3167e-09
-6.26186e-08
8.34074e-09
-6.71346e-08
8.32662e-09
-7.1623e-08
8.27576e-09
-7.60648e-08
8.18957e-09
-8.04417e-08
8.06952e-09
-8.4736e-08
7.91709e-09
-8.8931e-08
7.73376e-09
-9.30108e-08
7.521e-09
-9.69601e-08
7.28029e-09
-1.00765e-07
7.01313e-09
-1.04411e-07
6.721e-09
-1.07886e-07
6.40536e-09
-1.11177e-07
6.06766e-09
-1.14275e-07
5.70936e-09
-1.17167e-07
5.33189e-09
-1.19846e-07
4.93669e-09
-1.22301e-07
4.52519e-09
-1.24524e-07
4.09879e-09
-1.26509e-07
3.65892e-09
-1.28248e-07
3.20698e-09
-1.29737e-07
2.7444e-09
-1.30969e-07
2.27258e-09
-1.31941e-07
1.79294e-09
-1.32649e-07
1.30693e-09
-1.33091e-07
8.15981e-10
-1.33264e-07
3.21552e-10
-1.33168e-07
-1.74883e-10
-1.32803e-07
-6.71837e-10
-1.32168e-07
-1.16779e-09
-1.31266e-07
-1.66119e-09
-1.30098e-07
-2.1505e-09
-1.28668e-07
-2.63414e-09
-1.2698e-07
-3.11047e-09
-1.25038e-07
-3.57786e-09
-1.22849e-07
-4.03465e-09
-1.20419e-07
-4.47914e-09
-1.17756e-07
-4.90961e-09
-1.14868e-07
-5.32435e-09
-1.11765e-07
-5.7216e-09
-1.08457e-07
-6.09958e-09
-1.04956e-07
-6.45651e-09
-1.01274e-07
-6.7906e-09
-9.7425e-08
-7.10004e-09
-9.34227e-08
-7.38307e-09
-8.92826e-08
-7.6379e-09
-8.50209e-08
-7.86279e-09
-8.06548e-08
-8.05601e-09
-7.62023e-08
-8.21586e-09
-7.16824e-08
-8.34068e-09
-6.71148e-08
-8.42885e-09
-6.25202e-08
-8.47882e-09
-5.79198e-08
-8.48916e-09
-5.33358e-08
-8.45851e-09
-4.87909e-08
-8.38564e-09
-4.43083e-08
-8.26942e-09
-3.99118e-08
-8.10887e-09
-3.56256e-08
-7.90319e-09
-3.1474e-08
-7.65175e-09
-2.74814e-08
-7.35422e-09
-2.36725e-08
-7.01055e-09
-2.00712e-08
-6.62107e-09
-1.67014e-08
-6.18654e-09
-1.35858e-08
-5.70827e-09
-1.07459e-08
-5.18829e-09
-8.20159e-09
-4.62954e-09
-5.97025e-09
-4.03615e-09
-4.06597e-09
-3.41387e-09
-2.4984e-09
-2.77065e-09
-1.27119e-09
-2.11747e-09
-3.80035e-10
-1.4696e-09
1.90087e-10
-8.48235e-10
4.68305e-10
-2.82932e-10
5.02182e-10
1.85249e-10
3.62441e-10
5.00193e-10
1.47952e-10
5.87106e-10
3.46159e-10
1.14305e-10
-4.76184e-10
2.17254e-10
-6.68274e-10
1.54967e-10
-3.65392e-10
-1.74382e-10
2.45226e-10
-8.42021e-10
1.06565e-09
-1.89588e-09
2.02327e-09
-3.36525e-09
3.06097e-09
-5.2646e-09
4.13545e-09
-7.5967e-09
5.21424e-09
-1.03552e-08
6.27334e-09
-1.35266e-08
7.29508e-09
-1.70922e-08
8.2665e-09
-2.10291e-08
9.17835e-09
-2.53116e-08
1.0024e-08
-2.99117e-08
1.0799e-08
-3.48001e-08
1.15003e-08
-3.99463e-08
1.21262e-08
-4.53194e-08
1.2676e-08
-5.08883e-08
1.31495e-08
-5.66219e-08
1.35473e-08
-6.24894e-08
1.38703e-08
-6.84605e-08
1.412e-08
-7.45054e-08
1.4298e-08
-8.05949e-08
1.44062e-08
-8.67007e-08
1.44466e-08
-9.27955e-08
1.44214e-08
-9.88526e-08
1.43328e-08
-1.04846e-07
1.41834e-08
-1.10752e-07
1.39755e-08
-1.16547e-07
1.37116e-08
-1.22207e-07
1.33942e-08
-1.27712e-07
1.30259e-08
-1.33041e-07
1.26093e-08
-1.38175e-07
1.21467e-08
-1.43095e-07
1.16409e-08
-1.47784e-07
1.10943e-08
-1.52225e-07
1.05094e-08
-1.56405e-07
9.88878e-09
-1.60308e-07
9.23489e-09
-1.63921e-07
8.55022e-09
-1.67233e-07
7.83725e-09
-1.70233e-07
7.09843e-09
-1.7291e-07
6.33625e-09
-1.75257e-07
5.55314e-09
-1.77264e-07
4.75156e-09
-1.78925e-07
3.93398e-09
-1.80235e-07
3.10288e-09
-1.81189e-07
2.26077e-09
-1.81783e-07
1.41015e-09
-1.82015e-07
5.5356e-10
-1.81884e-07
-3.06446e-10
-1.81388e-07
-1.16726e-09
-1.8053e-07
-2.02625e-09
-1.7931e-07
-2.88074e-09
-1.77733e-07
-3.72803e-09
-1.75801e-07
-4.56536e-09
-1.73522e-07
-5.38994e-09
-1.70901e-07
-6.19891e-09
-1.67946e-07
-6.9894e-09
-1.64667e-07
-7.75848e-09
-1.61073e-07
-8.50319e-09
-1.57177e-07
-9.22055e-09
-1.52991e-07
-9.90752e-09
-1.4853e-07
-1.0561e-08
-1.43808e-07
-1.11781e-08
-1.38843e-07
-1.17555e-08
-1.33653e-07
-1.22903e-08
-1.28257e-07
-1.27793e-08
-1.22675e-07
-1.32196e-08
-1.1693e-07
-1.36082e-08
-1.11044e-07
-1.3942e-08
-1.05041e-07
-1.42183e-08
-9.89477e-08
-1.44342e-08
-9.27896e-08
-1.45869e-08
-8.65944e-08
-1.4674e-08
-8.03907e-08
-1.4693e-08
-7.42076e-08
-1.46416e-08
-6.80754e-08
-1.45178e-08
-6.2025e-08
-1.43199e-08
-5.60877e-08
-1.40462e-08
-5.02953e-08
-1.36956e-08
-4.46798e-08
-1.32672e-08
-3.92733e-08
-1.27607e-08
-3.41076e-08
-1.21763e-08
-2.9214e-08
-1.15147e-08
-2.46228e-08
-1.07777e-08
-2.03632e-08
-9.96791e-09
-1.64623e-08
-9.08919e-09
-1.29448e-08
-8.14703e-09
-9.83198e-09
-7.14895e-09
-7.1407e-09
-6.10514e-09
-4.88197e-09
-5.02937e-09
-3.05929e-09
-3.94014e-09
-1.66656e-09
-2.86233e-09
-6.85409e-10
-1.82938e-09
-8.20831e-11
-8.86249e-10
1.96327e-10
-9.31613e-11
2.26006e-10
4.70517e-10
1.11541e-10
7.01576e-10
4.57695e-10
4.55047e-11
-5.21688e-10
-1.48804e-11
-6.07865e-10
-3.22787e-10
-5.74912e-11
-9.78002e-10
9.00429e-10
-2.05168e-09
2.13934e-09
-3.59235e-09
3.56393e-09
-5.63004e-09
5.09867e-09
-8.17966e-09
6.68506e-09
-1.12438e-08
8.27838e-09
-1.48151e-08
9.84468e-09
-1.88784e-08
1.13583e-08
-2.34121e-08
1.28002e-08
-2.83901e-08
1.41563e-08
-3.37822e-08
1.54161e-08
-3.95557e-08
1.65725e-08
-4.56759e-08
1.76206e-08
-5.21069e-08
1.85572e-08
-5.88115e-08
1.93806e-08
-6.57525e-08
2.00905e-08
-7.28924e-08
2.06872e-08
-8.0194e-08
2.11719e-08
-8.76205e-08
2.15464e-08
-9.51354e-08
2.1813e-08
-1.02703e-07
2.19741e-08
-1.1029e-07
2.20328e-08
-1.1786e-07
2.19923e-08
-1.25383e-07
2.18558e-08
-1.32827e-07
2.16269e-08
-1.40161e-07
2.13092e-08
-1.47356e-07
2.09065e-08
-1.54384e-07
2.04223e-08
-1.61218e-07
1.98607e-08
-1.67834e-07
1.92253e-08
-1.74208e-07
1.85201e-08
-1.80316e-07
1.77488e-08
-1.86137e-07
1.69153e-08
-1.91651e-07
1.60234e-08
-1.96839e-07
1.5077e-08
-2.01684e-07
1.40798e-08
-2.06169e-07
1.30356e-08
-2.1028e-07
1.19482e-08
-2.14003e-07
1.08213e-08
-2.17326e-07
9.65882e-09
-2.20237e-07
8.46439e-09
-2.22727e-07
7.24179e-09
-2.24788e-07
5.99481e-09
-2.26412e-07
4.72725e-09
-2.27594e-07
3.44293e-09
-2.2833e-07
2.1457e-09
-2.28616e-07
8.3944e-10
-2.2845e-07
-4.71938e-10
-2.27833e-07
-1.78444e-09
-2.26765e-07
-3.09404e-09
-2.25249e-07
-4.39667e-09
-2.23289e-07
-5.68818e-09
-2.2089e-07
-6.96437e-09
-2.18059e-07
-8.22097e-09
-2.14804e-07
-9.45365e-09
-2.11136e-07
-1.0658e-08
-2.07065e-07
-1.18296e-08
-2.02604e-07
-1.29639e-08
-1.97768e-07
-1.40565e-08
-1.92573e-07
-1.51026e-08
-1.87036e-07
-1.60976e-08
-1.81177e-07
-1.7037e-08
-1.75017e-07
-1.79161e-08
-1.68577e-07
-1.87302e-08
-1.61882e-07
-1.94747e-08
-1.54956e-07
-2.0145e-08
-1.47828e-07
-2.07367e-08
-1.40525e-07
-2.12452e-08
-1.33077e-07
-2.16663e-08
-1.25515e-07
-2.19958e-08
-1.17872e-07
-2.22297e-08
-1.10182e-07
-2.23641e-08
-1.0248e-07
-2.23955e-08
-9.48004e-08
-2.23207e-08
-8.71816e-08
-2.21366e-08
-7.96606e-08
-2.18408e-08
-7.22756e-08
-2.14311e-08
-6.50653e-08
-2.09059e-08
-5.80682e-08
-2.02643e-08
-5.1323e-08
-1.95059e-08
-4.48679e-08
-1.86314e-08
-3.87401e-08
-1.76425e-08
-3.29758e-08
-1.6542e-08
-2.76092e-08
-1.53345e-08
-2.26723e-08
-1.40261e-08
-1.81936e-08
-1.26257e-08
-1.41977e-08
-1.11449e-08
-1.07036e-08
-9.59925e-09
-7.72368e-09
-8.00928e-09
-5.26189e-09
-6.40193e-09
-3.31171e-09
-4.81251e-09
-1.85382e-09
-3.28726e-09
-8.53444e-10
-1.88663e-09
-2.57235e-10
-6.89378e-10
1.00545e-11
2.03232e-10
4.99161e-11
6.61715e-10
5.07611e-10
-3.54837e-11
-4.86212e-10
-2.9351e-10
-3.49855e-10
-8.94071e-10
5.43079e-10
-1.92735e-09
1.93371e-09
-3.45906e-09
3.67104e-09
-5.53446e-09
5.63934e-09
-8.18156e-09
7.74575e-09
-1.14138e-08
9.91726e-09
-1.52322e-08
1.20969e-08
-1.96281e-08
1.42405e-08
-2.45839e-08
1.63142e-08
-3.00758e-08
1.82921e-08
-3.60742e-08
2.01547e-08
-4.25456e-08
2.18875e-08
-4.94531e-08
2.348e-08
-5.67574e-08
2.49249e-08
-6.44177e-08
2.62174e-08
-7.23916e-08
2.73546e-08
-8.06366e-08
2.83355e-08
-8.91095e-08
2.91601e-08
-9.77675e-08
2.98299e-08
-1.06568e-07
3.03468e-08
-1.15468e-07
3.07136e-08
-1.24428e-07
3.09339e-08
-1.33407e-07
3.10113e-08
-1.42365e-07
3.09502e-08
-1.51264e-07
3.07551e-08
-1.60068e-07
3.04307e-08
-1.6874e-07
2.99819e-08
-1.77248e-07
2.94139e-08
-1.85557e-07
2.87318e-08
-1.93638e-07
2.79409e-08
-2.01459e-07
2.70465e-08
-2.08993e-07
2.60539e-08
-2.16212e-07
2.49684e-08
-2.23093e-07
2.37955e-08
-2.2961e-07
2.25405e-08
-2.35741e-07
2.12087e-08
-2.41467e-07
1.98055e-08
-2.46768e-07
1.83361e-08
-2.51626e-07
1.6806e-08
-2.56025e-07
1.52203e-08
-2.5995e-07
1.35845e-08
-2.6339e-07
1.19037e-08
-2.66331e-07
1.01833e-08
-2.68765e-07
8.42873e-09
-2.70683e-07
6.64521e-09
-2.72078e-07
4.83818e-09
-2.72946e-07
3.01304e-09
-2.73281e-07
1.17531e-09
-2.73084e-07
-6.69494e-10
-2.72353e-07
-2.51577e-09
-2.71089e-07
-4.35783e-09
-2.69295e-07
-6.18993e-09
-2.66977e-07
-8.00624e-09
-2.64141e-07
-9.80085e-09
-2.60794e-07
-1.15677e-08
-2.56947e-07
-1.33008e-08
-2.52611e-07
-1.4994e-08
-2.478e-07
-1.66409e-08
-2.42528e-07
-1.82353e-08
-2.36814e-07
-1.97708e-08
-2.30675e-07
-2.1241e-08
-2.24134e-07
-2.26394e-08
-2.17211e-07
-2.39595e-08
-2.09932e-07
-2.51949e-08
-2.02324e-07
-2.6339e-08
-1.94413e-07
-2.73854e-08
-1.8623e-07
-2.83277e-08
-1.77807e-07
-2.91598e-08
-1.69177e-07
-2.98754e-08
-1.60375e-07
-3.04686e-08
-1.51437e-07
-3.09337e-08
-1.42401e-07
-3.12651e-08
-1.33308e-07
-3.14577e-08
-1.24197e-07
-3.15066e-08
-1.1511e-07
-3.14074e-08
-1.0609e-07
-3.11562e-08
-9.71815e-08
-3.07496e-08
-8.84278e-08
-3.01849e-08
-7.98735e-08
-2.94602e-08
-7.15633e-08
-2.85744e-08
-6.35416e-08
-2.75276e-08
-5.5852e-08
-2.63211e-08
-4.8537e-08
-2.49574e-08
-4.16378e-08
-2.34413e-08
-3.51931e-08
-2.17792e-08
-2.92387e-08
-1.99805e-08
-2.38068e-08
-1.80576e-08
-1.89246e-08
-1.6027e-08
-1.46136e-08
-1.39102e-08
-1.08878e-08
-1.1735e-08
-7.75249e-09
-9.53726e-09
-5.20214e-09
-7.36285e-09
-3.21868e-09
-5.27071e-09
-1.76925e-09
-3.33606e-09
-8.03878e-10
-1.65475e-09
-2.53071e-10
-3.47571e-10
-2.49888e-11
4.33631e-10
4.82628e-10
-1.21285e-10
-3.64933e-10
-5.9549e-10
1.24364e-10
-1.51765e-09
1.46523e-09
-2.9634e-09
3.37944e-09
-4.98906e-09
5.6967e-09
-7.63358e-09
8.28386e-09
-1.09205e-08
1.10327e-08
-1.486e-08
1.38568e-08
-1.94506e-08
1.66874e-08
-2.46807e-08
1.94706e-08
-3.05306e-08
2.21641e-08
-3.69735e-08
2.4735e-08
-4.39769e-08
2.71581e-08
-5.15039e-08
2.94145e-08
-5.95139e-08
3.14901e-08
-6.79637e-08
3.33747e-08
-7.68078e-08
3.50616e-08
-8.59998e-08
3.65466e-08
-9.54919e-08
3.78276e-08
-1.05236e-07
3.89046e-08
-1.15185e-07
3.97785e-08
-1.2529e-07
4.04519e-08
-1.35505e-07
4.09281e-08
-1.45782e-07
4.12112e-08
-1.56077e-07
4.13061e-08
-1.66345e-07
4.12181e-08
-1.76542e-07
4.0953e-08
-1.86629e-07
4.05168e-08
-1.96563e-07
3.9916e-08
-2.06306e-07
3.91572e-08
-2.15821e-07
3.82471e-08
-2.25073e-07
3.71926e-08
-2.34027e-07
3.60007e-08
-2.42652e-07
3.46784e-08
-2.50916e-07
3.32327e-08
-2.58791e-07
3.16707e-08
-2.6625e-07
2.99996e-08
-2.73268e-07
2.82263e-08
-2.7982e-07
2.6358e-08
-2.85886e-07
2.44018e-08
-2.91445e-07
2.23646e-08
-2.96478e-07
2.02536e-08
-3.00969e-07
1.80759e-08
-3.04904e-07
1.58384e-08
-3.08269e-07
1.35482e-08
-3.11053e-07
1.12125e-08
-3.13246e-07
8.83847e-09
-3.14841e-07
6.4332e-09
-3.15832e-07
4.00397e-09
-3.16215e-07
1.55806e-09
-3.15987e-07
-8.97121e-10
-3.15149e-07
-3.3541e-09
-3.13701e-07
-5.80533e-09
-3.11648e-07
-8.24316e-09
-3.08994e-07
-1.06598e-08
-3.05748e-07
-1.30474e-08
-3.01917e-07
-1.5398e-08
-2.97515e-07
-1.77035e-08
-2.92553e-07
-1.99557e-08
-2.87048e-07
-2.21463e-08
-2.81016e-07
-2.4267e-08
-2.74478e-07
-2.63092e-08
-2.67454e-07
-2.82645e-08
-2.59969e-07
-3.01243e-08
-2.52049e-07
-3.18801e-08
-2.4372e-07
-3.35233e-08
-2.35014e-07
-3.50453e-08
-2.25962e-07
-3.64377e-08
-2.16597e-07
-3.76921e-08
-2.06957e-07
-3.88002e-08
-1.97078e-07
-3.97541e-08
-1.87001e-07
-4.0546e-08
-1.76766e-07
-4.11684e-08
-1.66417e-07
-4.1614e-08
-1.55999e-07
-4.18763e-08
-1.45556e-07
-4.19489e-08
-1.35137e-07
-4.18263e-08
-1.2479e-07
-4.15035e-08
-1.14563e-07
-4.09762e-08
-1.04507e-07
-4.02414e-08
-9.46705e-08
-3.92966e-08
-8.5104e-08
-3.8141e-08
-7.58567e-08
-3.67749e-08
-6.69773e-08
-3.52005e-08
-5.8513e-08
-3.34218e-08
-5.05091e-08
-3.14452e-08
-4.30084e-08
-2.92798e-08
-3.60505e-08
-2.69384e-08
-2.96707e-08
-2.44375e-08
-2.38991e-08
-2.17986e-08
-1.87597e-08
-1.90497e-08
-1.42688e-08
-1.62259e-08
-1.04339e-08
-1.33722e-08
-7.25196e-09
-1.05448e-08
-4.70808e-09
-7.81459e-09
-2.77368e-09
-5.27046e-09
-1.40506e-09
-3.02337e-09
-5.41938e-10
-1.21069e-09
-1.06181e-10
-2.12503e-12
3.76451e-10
-2.08115e-10
-1.56817e-10
-9.07037e-10
8.23282e-10
-2.16664e-09
2.72484e-09
-4.04562e-09
5.25843e-09
-6.58836e-09
8.23944e-09
-9.82516e-09
1.15207e-08
-1.37732e-08
1.49808e-08
-1.84378e-08
1.85213e-08
-2.38133e-08
2.2063e-08
-2.98851e-08
2.55424e-08
-3.66302e-08
2.89091e-08
-4.40187e-08
3.21235e-08
-5.2015e-08
3.51545e-08
-6.05789e-08
3.79784e-08
-6.96663e-08
4.05774e-08
-7.92302e-08
4.29386e-08
-8.92213e-08
4.50527e-08
-9.9589e-08
4.69142e-08
-1.10281e-07
4.85199e-08
-1.21246e-07
4.98691e-08
-1.3243e-07
5.09628e-08
-1.43782e-07
5.18035e-08
-1.55249e-07
5.23953e-08
-1.6678e-07
5.27429e-08
-1.78327e-07
5.28522e-08
-1.89838e-07
5.27297e-08
-2.01268e-07
5.23824e-08
-2.12569e-07
5.1818e-08
-2.23697e-07
5.10442e-08
-2.34609e-07
5.00695e-08
-2.45264e-07
4.89023e-08
-2.55623e-07
4.75511e-08
-2.65647e-07
4.60249e-08
-2.75301e-07
4.43323e-08
-2.84551e-07
4.24825e-08
-2.93364e-07
4.04843e-08
-3.01712e-07
3.83468e-08
-3.09564e-07
3.60789e-08
-3.16896e-07
3.36897e-08
-3.23682e-07
3.11883e-08
-3.29901e-07
2.85835e-08
-3.35532e-07
2.58844e-08
-3.40556e-07
2.31001e-08
-3.44957e-07
2.02395e-08
-3.48721e-07
1.73118e-08
-3.51834e-07
1.43259e-08
-3.54287e-07
1.12911e-08
-3.5607e-07
8.21657e-09
-3.57178e-07
5.1115e-09
-3.57605e-07
1.98528e-09
-3.5735e-07
-1.15264e-09
-3.56411e-07
-4.29272e-09
-3.54791e-07
-7.4253e-09
-3.52494e-07
-1.05406e-08
-3.49525e-07
-1.36287e-08
-3.45893e-07
-1.66795e-08
-3.41608e-07
-1.96829e-08
-3.36683e-07
-2.26285e-08
-3.31132e-07
-2.5506e-08
-3.24974e-07
-2.83047e-08
-3.18227e-07
-3.1014e-08
-3.10913e-07
-3.36232e-08
-3.03056e-07
-3.61213e-08
-2.94683e-07
-3.84977e-08
-2.85822e-07
-4.07413e-08
-2.76504e-07
-4.28413e-08
-2.66762e-07
-4.47869e-08
-2.56633e-07
-4.65673e-08
-2.46152e-07
-4.81721e-08
-2.35362e-07
-4.95908e-08
-2.24303e-07
-5.08134e-08
-2.13019e-07
-5.183e-08
-2.01556e-07
-5.26313e-08
-1.89962e-07
-5.32082e-08
-1.78285e-07
-5.35526e-08
-1.66577e-07
-5.36566e-08
-1.5489e-07
-5.35135e-08
-1.43277e-07
-5.3117e-08
-1.31791e-07
-5.24623e-08
-1.20487e-07
-5.15455e-08
-1.09419e-07
-5.03641e-08
-9.86428e-08
-4.89173e-08
-8.82116e-08
-4.72061e-08
-7.81785e-08
-4.52336e-08
-6.85949e-08
-4.30053e-08
-5.95103e-08
-4.05298e-08
-5.09711e-08
-3.7819e-08
-4.30203e-08
-3.48892e-08
-3.56965e-08
-3.17612e-08
-2.90329e-08
-2.84622e-08
-2.30563e-08
-2.50262e-08
-1.77862e-08
-2.14961e-08
-1.3233e-08
-1.79253e-08
-9.39766e-09
-1.43801e-08
-6.26986e-09
-1.09424e-08
-3.82722e-09
-7.7131e-09
-2.03441e-09
-4.81618e-09
-8.42606e-10
-2.4025e-09
-1.89521e-10
-6.55205e-10
1.86927e-10
-2.93948e-10
1.37121e-10
-1.21979e-09
1.74912e-09
-2.82373e-09
4.32879e-09
-5.14672e-09
7.58142e-09
-8.21974e-09
1.13125e-08
-1.20629e-08
1.53638e-08
-1.66856e-08
1.96034e-08
-2.20868e-08
2.39225e-08
-2.82561e-08
2.82323e-08
-3.51744e-08
3.24607e-08
-4.2815e-08
3.65497e-08
-5.11445e-08
4.0453e-08
-6.0124e-08
4.4134e-08
-6.97098e-08
4.75642e-08
-7.98544e-08
5.0722e-08
-9.05071e-08
5.35913e-08
-1.01615e-07
5.61608e-08
-1.13124e-07
5.84229e-08
-1.24977e-07
6.03735e-08
-1.37119e-07
6.20111e-08
-1.49493e-07
6.33366e-08
-1.62042e-07
6.43527e-08
-1.74711e-07
6.50637e-08
-1.87443e-07
6.54753e-08
-2.00185e-07
6.55943e-08
-2.12884e-07
6.54284e-08
-2.25488e-07
6.4986e-08
-2.37946e-07
6.42762e-08
-2.5021e-07
6.33086e-08
-2.62234e-07
6.20932e-08
-2.73972e-07
6.06402e-08
-2.85381e-07
5.89603e-08
-2.9642e-07
5.70641e-08
-3.0705e-07
5.49624e-08
-3.17234e-07
5.26663e-08
-3.26937e-07
5.01869e-08
-3.36125e-07
4.75351e-08
-3.44768e-07
4.47221e-08
-3.52838e-07
4.1759e-08
-3.60306e-07
3.86569e-08
-3.6715e-07
3.54271e-08
-3.73346e-07
3.20805e-08
-3.78874e-07
2.86285e-08
-3.83717e-07
2.50821e-08
-3.87858e-07
2.14526e-08
-3.91283e-07
1.77513e-08
-3.93982e-07
1.39895e-08
-3.95943e-07
1.01785e-08
-3.97162e-07
6.3299e-09
-3.97632e-07
2.45525e-09
-3.97351e-07
-1.43376e-09
-3.96318e-07
-5.32528e-09
-3.94536e-07
-9.20737e-09
-3.92009e-07
-1.30679e-08
-3.88743e-07
-1.68946e-08
-3.84747e-07
-2.0675e-08
-3.80034e-07
-2.43965e-08
-3.74616e-07
-2.80464e-08
-3.6851e-07
-3.16119e-08
-3.61735e-07
-3.50798e-08
-3.54312e-07
-3.84369e-08
-3.46265e-07
-4.16702e-08
-3.3762e-07
-4.47661e-08
-3.28407e-07
-4.77113e-08
-3.18656e-07
-5.04925e-08
-3.08401e-07
-5.30962e-08
-2.97678e-07
-5.55093e-08
-2.86527e-07
-5.77184e-08
-2.74988e-07
-5.97108e-08
-2.63106e-07
-6.14736e-08
-2.50924e-07
-6.29946e-08
-2.38493e-07
-6.42619e-08
-2.2586e-07
-6.52639e-08
-2.13078e-07
-6.59899e-08
-2.00201e-07
-6.64298e-08
-1.87283e-07
-6.65744e-08
-1.74381e-07
-6.64153e-08
-1.61553e-07
-6.59455e-08
-1.48856e-07
-6.51591e-08
-1.3635e-07
-6.40517e-08
-1.24093e-07
-6.26207e-08
-1.12145e-07
-6.08655e-08
-1.00563e-07
-5.87877e-08
-8.94055e-08
-5.63915e-08
-7.87268e-08
-5.36841e-08
-6.85802e-08
-5.06763e-08
-5.90161e-08
-4.73832e-08
-5.00807e-08
-4.38245e-08
-4.18161e-08
-4.00258e-08
-3.42588e-08
-3.60195e-08
-2.74391e-08
-3.18459e-08
-2.138e-08
-2.75553e-08
-1.60961e-08
-2.32091e-08
-1.15932e-08
-1.8883e-08
-7.86697e-09
-1.46687e-08
-4.90254e-09
-1.06775e-08
-2.67435e-09
-7.04438e-09
-1.14628e-09
-3.93057e-09
-2.72593e-10
-1.52889e-09
-8.5671e-11
-3.77637e-10
5.14767e-10
-1.52883e-09
2.90031e-09
-3.47799e-09
6.27794e-09
-6.2486e-09
1.0352e-08
-9.85769e-09
1.49216e-08
-1.43143e-08
1.98205e-08
-1.96189e-08
2.4908e-08
-2.57634e-08
3.0067e-08
-3.27313e-08
3.52002e-08
-4.04985e-08
4.0228e-08
-4.9034e-08
4.50852e-08
-5.83004e-08
4.97194e-08
-6.8255e-08
5.40886e-08
-7.88506e-08
5.81598e-08
-9.0036e-08
6.19075e-08
-1.01757e-07
6.53126e-08
-1.13958e-07
6.83613e-08
-1.26579e-07
7.10445e-08
-1.39563e-07
7.33566e-08
-1.52847e-07
7.52956e-08
-1.66372e-07
7.6862e-08
-1.80078e-07
7.80586e-08
-1.93905e-07
7.88903e-08
-2.07793e-07
7.93634e-08
-2.21685e-07
7.94858e-08
-2.35523e-07
7.92663e-08
-2.49252e-07
7.8715e-08
-2.62818e-07
7.78423e-08
-2.76169e-07
7.66596e-08
-2.89254e-07
7.51788e-08
-3.02026e-07
7.3412e-08
-3.14437e-07
7.13718e-08
-3.26444e-07
6.9071e-08
-3.38005e-07
6.65226e-08
-3.49078e-07
6.37398e-08
-3.59627e-07
6.07357e-08
-3.69615e-07
5.75237e-08
-3.79011e-07
5.41173e-08
-3.87781e-07
5.05296e-08
-3.95898e-07
4.67742e-08
-4.03336e-07
4.28646e-08
-4.10069e-07
3.8814e-08
-4.16077e-07
3.46361e-08
-4.21339e-07
3.03444e-08
-4.25839e-07
2.59523e-08
-4.29561e-07
2.14736e-08
-4.32494e-07
1.69218e-08
-4.34626e-07
1.23108e-08
-4.35951e-07
7.65451e-09
-4.36462e-07
2.96684e-09
-4.36158e-07
-1.73802e-09
-4.35037e-07
-6.44578e-09
-4.33103e-07
-1.1142e-08
-4.30359e-07
-1.5812e-08
-4.26812e-07
-2.0441e-08
-4.22473e-07
-2.5014e-08
-4.17354e-07
-2.95158e-08
-4.11469e-07
-3.3931e-08
-4.04837e-07
-3.8244e-08
-3.97478e-07
-4.24393e-08
-3.89414e-07
-4.65008e-08
-3.80671e-07
-5.04127e-08
-3.71279e-07
-5.41589e-08
-3.61267e-07
-5.77233e-08
-3.50669e-07
-6.10899e-08
-3.39523e-07
-6.42426e-08
-3.27867e-07
-6.71655e-08
-3.15742e-07
-6.98427e-08
-3.03194e-07
-7.22589e-08
-2.90269e-07
-7.43989e-08
-2.77016e-07
-7.62479e-08
-2.63486e-07
-7.77917e-08
-2.49733e-07
-7.90168e-08
-2.35813e-07
-7.99102e-08
-2.21782e-07
-8.04602e-08
-2.07701e-07
-8.06558e-08
-1.93629e-07
-8.04874e-08
-1.79628e-07
-7.99466e-08
-1.6576e-07
-7.90268e-08
-1.52089e-07
-7.7723e-08
-1.38677e-07
-7.60326e-08
-1.25587e-07
-7.39551e-08
-1.12882e-07
-7.14928e-08
-1.00622e-07
-6.86512e-08
-8.8867e-08
-6.54392e-08
-7.76733e-08
-6.18701e-08
-6.70947e-08
-5.79618e-08
-5.71813e-08
-5.37379e-08
-4.79786e-08
-4.92285e-08
-3.9527e-08
-4.44711e-08
-3.18605e-08
-3.95124e-08
-2.50065e-08
-3.44093e-08
-1.89846e-08
-2.92311e-08
-1.38061e-08
-2.40615e-08
-9.47377e-09
-1.9001e-08
-5.98123e-09
-1.41701e-08
-3.31348e-09
-9.71214e-09
-1.44754e-09
-5.7965e-09
-3.54053e-10
-2.62237e-09
-4.39721e-10
-4.58742e-10
9.73516e-10
-1.83136e-09
4.27293e-09
-4.12274e-09
8.56932e-09
-7.33968e-09
1.3569e-08
-1.14854e-08
1.90672e-08
-1.65573e-08
2.48924e-08
-2.25464e-08
3.08971e-08
-2.94366e-08
3.69572e-08
-3.72049e-08
4.29685e-08
-4.58215e-08
4.88445e-08
-5.52503e-08
5.4514e-08
-6.54495e-08
5.99186e-08
-7.63724e-08
6.50115e-08
-8.79679e-08
6.97553e-08
-1.00181e-07
7.41208e-08
-1.12955e-07
7.8086e-08
-1.26228e-07
8.16348e-08
-1.3994e-07
8.47562e-08
-1.54027e-07
8.74436e-08
-1.68425e-07
8.9694e-08
-1.83071e-07
9.15078e-08
-1.979e-07
9.28879e-08
-2.1285e-07
9.38395e-08
-2.27856e-07
9.43699e-08
-2.42858e-07
9.44878e-08
-2.57795e-07
9.42035e-08
-2.72609e-07
9.35283e-08
-2.87241e-07
9.24745e-08
-3.01636e-07
9.10552e-08
-3.15742e-07
8.92842e-08
-3.29506e-07
8.71756e-08
-3.42878e-07
8.47443e-08
-3.55812e-07
8.20051e-08
-3.68263e-07
7.89734e-08
-3.80188e-07
7.56645e-08
-3.91546e-07
7.2094e-08
-4.023e-07
6.82777e-08
-4.12414e-07
6.42312e-08
-4.21855e-07
5.99704e-08
-4.30592e-07
5.55112e-08
-4.38596e-07
5.08694e-08
-4.45843e-07
4.60609e-08
-4.52309e-07
4.11017e-08
-4.57972e-07
3.60077e-08
-4.62815e-07
3.07951e-08
-4.66821e-07
2.54799e-08
-4.69978e-07
2.00784e-08
-4.72274e-07
1.46068e-08
-4.73701e-07
9.0817e-09
-4.74254e-07
3.51957e-09
-4.73929e-07
-2.0628e-09
-4.72727e-07
-7.64849e-09
-4.70648e-07
-1.32204e-08
-4.67699e-07
-1.87611e-08
-4.63887e-07
-2.42532e-08
-4.59222e-07
-2.96789e-08
-4.53718e-07
-3.50201e-08
-4.4739e-07
-4.02589e-08
-4.40257e-07
-4.53766e-08
-4.32341e-07
-5.03549e-08
-4.23667e-07
-5.5175e-08
-4.14262e-07
-5.98181e-08
-4.04156e-07
-6.42651e-08
-3.93382e-07
-6.84973e-08
-3.81976e-07
-7.24956e-08
-3.69978e-07
-7.6241e-08
-3.57428e-07
-7.9715e-08
-3.44372e-07
-8.2899e-08
-3.30856e-07
-8.57747e-08
-3.1693e-07
-8.83245e-08
-3.02647e-07
-9.05309e-08
-2.88062e-07
-9.23775e-08
-2.7323e-07
-9.38483e-08
-2.58212e-07
-9.49285e-08
-2.43068e-07
-9.56042e-08
-2.27861e-07
-9.58628e-08
-2.12655e-07
-9.56931e-08
-1.97516e-07
-9.50858e-08
-1.82509e-07
-9.40331e-08
-1.67703e-07
-9.25298e-08
-1.53162e-07
-9.05728e-08
-1.38956e-07
-8.81621e-08
-1.25148e-07
-8.53006e-08
-1.11804e-07
-8.19951e-08
-9.89868e-08
-7.82563e-08
-8.67571e-08
-7.40999e-08
-7.51721e-08
-6.95468e-08
-6.42858e-08
-6.46243e-08
-5.41475e-08
-5.93668e-08
-4.48016e-08
-5.3817e-08
-3.62867e-08
-4.80273e-08
-2.86349e-08
-4.20611e-08
-2.18715e-08
-3.59945e-08
-1.60142e-08
-2.99188e-08
-1.10732e-08
-2.39419e-08
-7.05143e-09
-1.81918e-08
-3.94473e-09
-1.28188e-08
-1.74324e-09
-7.99799e-09
-4.33211e-10
-3.9324e-09
-8.72926e-10
-5.3706e-10
1.51057e-09
-2.12598e-09
5.86186e-09
-4.75425e-09
1.11976e-08
-8.4131e-09
1.72278e-08
-1.30922e-08
2.37464e-08
-1.87775e-08
3.05777e-08
-2.54502e-08
3.75698e-08
-3.30857e-08
4.45928e-08
-4.16539e-08
5.15367e-08
-5.11186e-08
5.83093e-08
-6.14384e-08
6.48337e-08
-7.25665e-08
7.10468e-08
-8.44519e-08
7.68969e-08
-9.70393e-08
8.23426e-08
-1.1027e-07
8.73516e-08
-1.24083e-07
9.18988e-08
-1.38414e-07
9.59658e-08
-1.53198e-07
9.95401e-08
-1.68368e-07
1.02614e-07
-1.83857e-07
1.05183e-07
-1.99599e-07
1.07249e-07
-2.15524e-07
1.08813e-07
-2.31567e-07
1.09882e-07
-2.47661e-07
1.10464e-07
-2.63741e-07
1.10568e-07
-2.79744e-07
1.10207e-07
-2.95608e-07
1.09392e-07
-3.11272e-07
1.08138e-07
-3.26677e-07
1.0646e-07
-3.41767e-07
1.04374e-07
-3.56487e-07
1.01896e-07
-3.70786e-07
9.9043e-08
-3.84613e-07
9.58322e-08
-3.97921e-07
9.22812e-08
-4.10664e-07
8.8408e-08
-4.22801e-07
8.42305e-08
-4.3429e-07
7.97669e-08
-4.45094e-07
7.50357e-08
-4.55179e-07
7.0055e-08
-4.64511e-07
6.48433e-08
-4.73061e-07
5.9419e-08
-4.80801e-07
5.38008e-08
-4.87706e-07
4.80071e-08
-4.93755e-07
4.20565e-08
-4.98927e-07
3.59678e-08
-5.03207e-07
2.97598e-08
-5.0658e-07
2.34512e-08
-5.09034e-07
1.70612e-08
-5.10562e-07
1.06088e-08
-5.11156e-07
4.1135e-09
-5.10813e-07
-2.40533e-09
-5.09534e-07
-8.92793e-09
-5.0732e-07
-1.54344e-08
-5.04176e-07
-2.19045e-08
-5.00112e-07
-2.83178e-08
-4.95137e-07
-3.46538e-08
-4.89265e-07
-4.08914e-08