/*--------------------------------*- C++ -*----------------------------------*\
| =========                 |                                                 |
| \\      /  F ield         | OpenFOAM: The Open Source CFD Toolbox           |
|  \\    /   O peration     | Version:  2212                                  |
|   \\  /    A nd           | Website:  www.openfoam.com                      |
|    \\/     M anipulation  |                                                 |
\*---------------------------------------------------------------------------*/
FoamFile
{
    version     2.0;
    format      ascii;
    arch        "LSB;label=32;scalar=64";
    class       surfaceScalarField;
    location    "0.0235";
    object      phi_0;
}
// * * * * * * * * * * * * * * * * * * * * * * * * * * * * * * * * * * * * * //

dimensions      [0 3 -1 0 0 0 0];

oriented        oriented;

internalField   nonuniform List<scalar> 
19800
(
6.0708e-11
-6.06928e-11
1.99616e-10
-1.38922e-10
3.14982e-10
-1.1535e-10
3.81473e-10
-6.64854e-11
3.77253e-10
4.22989e-12
2.93317e-10
8.39389e-11
1.26774e-10
1.66548e-10
-1.21751e-10
2.48526e-10
-4.49469e-10
3.27724e-10
-8.52279e-10
4.02807e-10
-1.32532e-09
4.73046e-10
-1.86334e-09
5.38017e-10
-2.46074e-09
5.97399e-10
-3.11176e-09
6.51025e-10
-3.81063e-09
6.98871e-10
-4.55168e-09
7.41035e-10
-5.32935e-09
7.77661e-10
-6.13823e-09
8.08875e-10
-6.97304e-09
8.34812e-10
-7.82871e-09
8.55674e-10
-8.70037e-09
8.7166e-10
-9.58334e-09
8.82963e-10
-1.04731e-08
8.89774e-10
-1.13654e-08
8.92282e-10
-1.22561e-08
8.90676e-10
-1.31412e-08
8.85133e-10
-1.40171e-08
8.75878e-10
-1.48802e-08
8.63141e-10
-1.57273e-08
8.47087e-10
-1.65552e-08
8.27894e-10
-1.7361e-08
8.05795e-10
-1.8142e-08
7.80966e-10
-1.88955e-08
7.5353e-10
-1.96192e-08
7.23664e-10
-2.03107e-08
6.91553e-10
-2.0968e-08
6.57325e-10
-2.15891e-08
6.21104e-10
-2.21722e-08
5.83072e-10
-2.27156e-08
5.43416e-10
-2.32179e-08
5.02258e-10
-2.36776e-08
4.59694e-10
-2.40934e-08
4.15856e-10
-2.44643e-08
3.70891e-10
-2.47892e-08
3.24922e-10
-2.50673e-08
2.78056e-10
-2.52977e-08
2.30403e-10
-2.54798e-08
1.82101e-10
-2.56131e-08
1.33276e-10
-2.56971e-08
8.40261e-11
-2.57316e-08
3.44484e-11
-2.57162e-08
-1.53403e-11
-2.5651e-08
-6.52112e-11
-2.5536e-08
-1.15028e-10
-2.53713e-08
-1.64665e-10
-2.51573e-08
-2.14003e-10
-2.48944e-08
-2.62906e-10
-2.45832e-08
-3.11227e-10
-2.42244e-08
-3.58825e-10
-2.38188e-08
-4.05555e-10
-2.33675e-08
-4.51282e-10
-2.28716e-08
-4.95864e-10
-2.23325e-08
-5.39136e-10
-2.17516e-08
-5.80914e-10
-2.11306e-08
-6.21016e-10
-2.04713e-08
-6.59266e-10
-1.97758e-08
-6.95495e-10
-1.90463e-08
-7.29538e-10
-1.82851e-08
-7.61211e-10
-1.74948e-08
-7.90313e-10
-1.66781e-08
-8.16645e-10
-1.58381e-08
-8.4001e-10
-1.49779e-08
-8.60211e-10
-1.41008e-08
-8.77061e-10
-1.32105e-08
-8.90377e-10
-1.23105e-08
-8.99962e-10
-1.14049e-08
-9.05593e-10
-1.04979e-08
-9.07049e-10
-9.59374e-09
-9.04115e-10
-8.69716e-09
-8.96587e-10
-7.81289e-09
-8.84268e-10
-6.94591e-09
-8.66984e-10
-6.10133e-09
-8.44577e-10
-5.28444e-09
-8.16897e-10
-4.50063e-09
-7.83803e-10
-3.75545e-09
-7.45177e-10
-3.05452e-09
-7.00927e-10
-2.40353e-09
-6.50991e-10
-1.80818e-09
-5.95356e-10
-1.27408e-09
-5.34094e-10
-8.06687e-10
-4.67391e-10
-4.11123e-10
-3.95569e-10
-9.1973e-11
-3.19153e-10
1.47041e-10
-2.39007e-10
3.03605e-10
-1.56555e-10
3.77744e-10
-7.41392e-11
3.7342e-10
4.32134e-12
3.0113e-10
7.22933e-11
1.82614e-10
1.18519e-10
5.95883e-11
1.2302e-10
5.95865e-11
1.05523e-10
-1.66231e-10
2.88509e-10
-3.21897e-10
4.27596e-10
-2.54446e-10
4.38024e-10
-7.69253e-11
2.76987e-10
1.65256e-10
-8.107e-11
4.41988e-10
-6.47873e-10
7.33331e-10
-1.42575e-09
1.02641e-09
-2.41085e-09
1.31281e-09
-3.59507e-09
1.58702e-09
-4.96748e-09
1.84546e-09
-6.51533e-09
2.08587e-09
-8.22476e-09
2.30683e-09
-1.00812e-08
2.50744e-09
-1.20696e-08
2.68732e-09
-1.41751e-08
2.84648e-09
-1.63825e-08
2.98513e-09
-1.86773e-08
3.10364e-09
-2.1045e-08
3.20248e-09
-2.34715e-08
3.28223e-09
-2.59434e-08
3.34353e-09
-2.84475e-08
3.38706e-09
-3.09712e-08
3.41351e-09
-3.35025e-08
3.42353e-09
-3.60297e-08
3.41789e-09
-3.85419e-08
3.3973e-09
-4.10285e-08
3.36249e-09
-4.34795e-08
3.3142e-09
-4.58856e-08
3.2532e-09
-4.82379e-08
3.18017e-09
-5.05279e-08
3.09581e-09
-5.27477e-08
3.00079e-09
-5.489e-08
2.89577e-09
-5.69477e-08
2.78138e-09
-5.89144e-08
2.65819e-09
-6.07839e-08
2.52683e-09
-6.25507e-08
2.38788e-09
-6.42095e-08
2.24194e-09
-6.57557e-08
2.08955e-09
-6.71846e-08
1.93124e-09
-6.84925e-08
1.76753e-09
-6.96755e-08
1.59891e-09
-7.07305e-08
1.42587e-09
-7.16545e-08
1.24891e-09
-7.24449e-08
1.06848e-09
-7.30996e-08
8.85068e-10
-7.36166e-08
6.99119e-10
-7.39944e-08
5.11093e-10
-7.42318e-08
3.21432e-10
-7.4328e-08
1.30575e-10
-7.42823e-08
-6.10102e-11
-7.40947e-08
-2.52848e-10
-7.37652e-08
-4.44459e-10
-7.32945e-08
-6.35348e-10
-7.26835e-08
-8.25017e-10
-7.19335e-08
-1.01295e-09
-7.10461e-08
-1.19861e-09
-7.00235e-08
-1.38145e-09
-6.88681e-08
-1.56093e-09
-6.75829e-08
-1.73647e-09
-6.61713e-08
-1.9075e-09
-6.4637e-08
-2.07339e-09
-6.29845e-08
-2.23349e-09
-6.12184e-08
-2.38714e-09
-5.9344e-08
-2.53367e-09
-5.7367e-08
-2.67241e-09
-5.52939e-08
-2.80268e-09
-5.31314e-08
-2.92375e-09
-5.08867e-08
-3.03492e-09
-4.8568e-08
-3.13544e-09
-4.61834e-08
-3.22454e-09
-4.37421e-08
-3.30151e-09
-4.12536e-08
-3.3656e-09
-3.87279e-08
-3.41607e-09
-3.61757e-08
-3.45216e-09
-3.36082e-08
-3.4731e-09
-3.10371e-08
-3.47813e-09
-2.84748e-08
-3.46647e-09
-2.59339e-08
-3.43741e-09
-2.34279e-08
-3.39027e-09
-2.09705e-08
-3.32445e-09
-1.85757e-08
-3.23934e-09
-1.62581e-08
-3.13445e-09
-1.40326e-08
-3.00936e-09
-1.1914e-08
-2.86375e-09
-9.9175e-09
-2.69743e-09
-8.05812e-09
-2.51037e-09
-6.35066e-09
-2.30282e-09
-4.80943e-09
-2.07532e-09
-3.44793e-09
-1.82889e-09
-2.27831e-09
-1.56519e-09
-1.3107e-09
-1.28675e-09
-5.52283e-10
-9.97426e-10
-5.77151e-12
-7.03074e-10
3.32672e-10
-4.12585e-10
4.76521e-10
-1.39517e-10
4.53384e-10
9.54325e-11
3.10854e-10
2.61035e-10
1.2285e-10
3.1102e-10
1.82432e-10
1.1549e-10
-2.81705e-10
2.42633e-10
-4.49049e-10
2.65311e-10
-2.77104e-10
9.00695e-11
9.83119e-11
-3.41175e-10
5.96511e-10
-1.06346e-09
1.16427e-09
-2.09477e-09
1.76465e-09
-3.44063e-09
2.37226e-09
-5.09748e-09
2.96967e-09
-7.0553e-09
3.54485e-09
-9.29949e-09
4.08964e-09
-1.18122e-08
4.59853e-09
-1.45733e-08
5.06794e-09
-1.75615e-08
5.49562e-09
-2.07545e-08
5.88033e-09
-2.41297e-08
6.22165e-09
-2.76642e-08
6.51971e-09
-3.13356e-08
6.77502e-09
-3.51215e-08
6.98839e-09
-3.90002e-08
7.16089e-09
-4.29504e-08
7.29372e-09
-4.69515e-08
7.38821e-09
-5.09838e-08
7.44577e-09
-5.50281e-08
7.46786e-09
-5.90662e-08
7.45595e-09
-6.30805e-08
7.41158e-09
-6.70543e-08
7.33633e-09
-7.09719e-08
7.23176e-09
-7.4818e-08
7.09937e-09
-7.85786e-08
6.94068e-09
-8.224e-08
6.75722e-09
-8.57896e-08
6.55043e-09
-8.92155e-08
6.3217e-09
-9.25065e-08
6.07238e-09
-9.56522e-08
5.80384e-09
-9.86427e-08
5.51738e-09
-1.01469e-07
5.21427e-09
-1.04123e-07
4.89577e-09
-1.06597e-07
4.56309e-09
-1.08883e-07
4.21742e-09
-1.10975e-07
3.85984e-09
-1.12868e-07
3.49147e-09
-1.14555e-07
3.1134e-09
-1.16033e-07
2.72669e-09
-1.17297e-07
2.33239e-09
-1.18343e-07
1.93152e-09
-1.19169e-07
1.5251e-09
-1.19772e-07
1.11412e-09
-1.2015e-07
6.99607e-10
-1.20302e-07
2.82543e-10
-1.20227e-07
-1.3605e-10
-1.19925e-07
-5.55129e-10
-1.19396e-07
-9.73641e-10
-1.18641e-07
-1.39051e-09
-1.17661e-07
-1.80463e-09
-1.16459e-07
-2.21487e-09
-1.15038e-07
-2.62008e-09
-1.134e-07
-3.01908e-09
-1.1155e-07
-3.41063e-09
-1.09493e-07
-3.79351e-09
-1.07234e-07
-4.1664e-09
-1.0478e-07
-4.52797e-09
-1.02137e-07
-4.87683e-09
-9.93121e-08
-5.21157e-09
-9.63151e-08
-5.53072e-09
-9.31547e-08
-5.83281e-09
-8.9841e-08
-6.11634e-09
-8.6385e-08
-6.37977e-09
-8.27984e-08
-6.62151e-09
-7.90938e-08
-6.84e-09
-7.52848e-08
-7.03361e-09
-7.13855e-08
-7.20074e-09
-6.74114e-08
-7.33977e-09
-6.33784e-08
-7.44909e-09
-5.93034e-08
-7.5271e-09
-5.52043e-08
-7.57218e-09
-5.10997e-08
-7.58274e-09
-4.7009e-08
-7.55724e-09
-4.29522e-08
-7.4942e-09
-3.89502e-08
-7.39225e-09
-3.50245e-08
-7.25011e-09
-3.11972e-08
-7.06665e-09
-2.74907e-08
-6.84092e-09
-2.3928e-08
-6.57215e-09
-2.05319e-08
-6.25985e-09
-1.73254e-08
-5.90386e-09
-1.43313e-08
-5.50446e-09
-1.15717e-08
-5.06247e-09
-9.06749e-09
-4.57952e-09
-6.83814e-09
-4.05824e-09
-4.90064e-09
-3.50268e-09
-3.26859e-09
-2.9188e-09
-1.9507e-09
-2.31532e-09
-9.4894e-10
-1.70484e-09
-2.55948e-10
-1.10558e-09
1.48375e-10
-5.43846e-10
3.01283e-10
-5.74927e-11
2.62289e-10
3.00021e-10
1.18753e-10
4.54555e-10
3.01177e-10
6.90424e-11
-3.50742e-10
8.02912e-11
-4.60308e-10
-9.0586e-11
-1.0623e-10
-5.34707e-10
5.42435e-10
-1.31344e-09
1.37523e-09
-2.46514e-09
2.31598e-09
-4.01049e-09
3.31e-09
-5.95641e-09
4.31818e-09
-8.29937e-09
5.31263e-09
-1.1028e-08
6.27345e-09
-1.41249e-08
7.18658e-09
-1.75686e-08
8.04221e-09
-2.13343e-08
8.83371e-09
-2.53955e-08
9.55675e-09
-2.97239e-08
1.02087e-08
-3.42906e-08
1.07884e-08
-3.90665e-08
1.12955e-08
-4.40221e-08
1.17307e-08
-4.91286e-08
1.20949e-08
-5.43574e-08
1.23897e-08
-5.96806e-08
1.26169e-08
-6.50711e-08
1.27787e-08
-7.05027e-08
1.28773e-08
-7.59498e-08
1.2915e-08
-8.13882e-08
1.28944e-08
-8.67946e-08
1.2818e-08
-9.21466e-08
1.26883e-08
-9.74229e-08
1.25081e-08
-1.02603e-07
1.22798e-08
-1.07669e-07
1.20061e-08
-1.12601e-07
1.16895e-08
-1.17383e-07
1.13324e-08
-1.21999e-07
1.09373e-08
-1.26433e-07
1.05065e-08
-1.30671e-07
1.00423e-08
-1.34701e-07
9.54707e-09
-1.3851e-07
9.0229e-09
-1.42086e-07
8.47198e-09
-1.45419e-07
7.89639e-09
-1.485e-07
7.29817e-09
-1.51319e-07
6.67927e-09
-1.53869e-07
6.04162e-09
-1.56143e-07
5.3871e-09
-1.58134e-07
4.71757e-09
-1.59836e-07
4.03483e-09
-1.61246e-07
3.34068e-09
-1.62357e-07
2.63691e-09
-1.63169e-07
1.92527e-09
-1.63677e-07
1.20751e-09
-1.63879e-07
4.85415e-10
-1.63776e-07
-2.39255e-10
-1.63367e-07
-9.64686e-10
-1.62651e-07
-1.68904e-09
-1.61631e-07
-2.41045e-09
-1.60309e-07
-3.12701e-09
-1.58687e-07
-3.83675e-09
-1.56769e-07
-4.53766e-09
-1.54561e-07
-5.22771e-09
-1.52067e-07
-5.90477e-09
-1.49294e-07
-6.56666e-09
-1.46249e-07
-7.21116e-09
-1.42941e-07
-7.83593e-09
-1.39379e-07
-8.43861e-09
-1.35574e-07
-9.01675e-09
-1.31537e-07
-9.56787e-09
-1.2728e-07
-1.00894e-08
-1.22818e-07
-1.05788e-08
-1.18164e-07
-1.10333e-08
-1.13335e-07
-1.14503e-08
-1.08348e-07
-1.18271e-08
-1.03221e-07
-1.21609e-08
-9.79728e-08
-1.24489e-08
-9.26241e-08
-1.26885e-08
-8.71964e-08
-1.28768e-08
-8.17124e-08
-1.30111e-08
-7.61958e-08
-1.30888e-08
-7.06714e-08
-1.31072e-08
-6.51649e-08
-1.30637e-08
-5.9703e-08
-1.29561e-08
-5.43133e-08
-1.2782e-08
-4.9024e-08
-1.25394e-08
-4.38642e-08
-1.22265e-08
-3.88631e-08
-1.1842e-08
-3.40505e-08
-1.13847e-08
-2.94563e-08
-1.08541e-08
-2.51099e-08
-1.02503e-08
-2.10403e-08
-9.57407e-09
-1.72753e-08
-8.8274e-09
-1.38413e-08
-8.01351e-09
-1.07622e-08
-7.13741e-09
-8.05838e-09
-6.20649e-09
-5.74587e-09
-5.23131e-09
-3.83442e-09
-4.22677e-09
-2.32557e-09
-3.21369e-09
-1.21009e-09
-2.22106e-09
-4.64814e-10
-1.28913e-09
-4.88455e-11
-4.73469e-10
1.007e-10
1.50484e-10
7.37948e-11
4.81453e-10
3.74968e-10
2.79696e-12
-3.5353e-10
-1.50847e-10
-3.06677e-10
-5.71948e-10
3.14882e-10
-1.34438e-09
1.31485e-09
-2.52662e-09
2.55747e-09
-4.1561e-09
3.94546e-09
-6.25318e-09
5.40708e-09
-8.82448e-09
6.88948e-09
-1.18657e-08
8.35383e-09
-1.53639e-08
9.77164e-09
-1.92994e-08
1.11222e-08
-2.36478e-08
1.23906e-08
-2.83806e-08
1.35665e-08
-3.34667e-08
1.46428e-08
-3.88732e-08
1.56153e-08
-4.45662e-08
1.64814e-08
-5.05109e-08
1.72402e-08
-5.66723e-08
1.78921e-08
-6.30158e-08
1.84383e-08
-6.95069e-08
1.88808e-08
-7.6112e-08
1.9222e-08
-8.2798e-08
1.94648e-08
-8.95331e-08
1.96124e-08
-9.62863e-08
1.96682e-08
-1.03028e-07
1.96359e-08
-1.09729e-07
1.95191e-08
-1.16362e-07
1.93218e-08
-1.22902e-07
1.90476e-08
-1.29322e-07
1.87005e-08
-1.35601e-07
1.82842e-08
-1.41714e-07
1.78026e-08
-1.47641e-07
1.72594e-08
-1.53362e-07
1.66582e-08
-1.58858e-07
1.60026e-08
-1.64112e-07
1.52961e-08
-1.69107e-07
1.45421e-08
-1.73828e-07
1.3744e-08
-1.78261e-07
1.2905e-08
-1.82393e-07
1.20283e-08
-1.86212e-07
1.1117e-08
-1.89706e-07
1.01741e-08
-1.92867e-07
9.20248e-09
-1.95685e-07
8.2051e-09
-1.98153e-07
7.18477e-09
-2.00262e-07
6.14427e-09
-2.02008e-07
5.08636e-09
-2.03384e-07
4.01375e-09
-2.04388e-07
2.92917e-09
-2.05016e-07
1.83531e-09
-2.05266e-07
7.34884e-10
-2.05136e-07
-3.69363e-10
-2.04626e-07
-1.47468e-09
-2.03736e-07
-2.57824e-09
-2.0247e-07
-3.6772e-09
-2.00828e-07
-4.76863e-09
-1.98815e-07
-5.84954e-09
-1.96436e-07
-6.91687e-09
-1.93696e-07
-7.96747e-09
-1.90603e-07
-8.99815e-09
-1.87164e-07
-1.00056e-08
-1.83389e-07
-1.09863e-08
-1.79288e-07
-1.19369e-08
-1.74873e-07
-1.28537e-08
-1.70157e-07
-1.3733e-08
-1.65153e-07
-1.4571e-08
-1.59879e-07
-1.5364e-08
-1.5435e-07
-1.61078e-08
-1.48584e-07
-1.67986e-08
-1.42602e-07
-1.74323e-08
-1.36425e-07
-1.80048e-08
-1.30074e-07
-1.85119e-08
-1.23573e-07
-1.89495e-08
-1.16948e-07
-1.93134e-08
-1.10225e-07
-1.95997e-08
-1.03432e-07
-1.98042e-08
-9.6598e-08
-1.99229e-08
-8.97532e-08
-1.9952e-08
-8.29291e-08
-1.98879e-08
-7.61582e-08
-1.9727e-08
-6.9474e-08
-1.94661e-08
-6.29108e-08
-1.91025e-08
-5.65036e-08
-1.86337e-08
-5.02878e-08
-1.80578e-08
-4.42989e-08
-1.73736e-08
-3.85725e-08
-1.65805e-08
-3.31437e-08
-1.56791e-08
-2.80465e-08
-1.46712e-08
-2.33137e-08
-1.35603e-08
-1.89756e-08
-1.23516e-08
-1.50597e-08
-1.10533e-08
-1.15895e-08
-9.67673e-09
-8.58283e-09
-8.23797e-09
-6.0507e-09
-6.75889e-09
-3.99514e-09
-5.26924e-09
-2.40695e-09
-3.80925e-09
-1.26304e-09
-2.43305e-09
-5.2338e-10
-1.21312e-09
-1.278e-10
-2.45089e-10
7.93522e-12
3.4571e-10
3.82908e-10
-7.38909e-11
-2.79635e-10
-4.19241e-10
3.86623e-11
-1.12669e-09
1.02232e-09
-2.26721e-09
2.45538e-09
-3.89185e-09
4.18211e-09
-6.03357e-09
6.08718e-09
-8.70993e-09
8.08344e-09
-1.19255e-08
1.0105e-08
-1.56741e-08
1.21024e-08
-1.99408e-08
1.40384e-08
-2.47038e-08
1.58852e-08
-2.99357e-08
1.76224e-08
-3.56049e-08
1.92356e-08
-4.16767e-08
2.07146e-08
-4.81141e-08
2.20527e-08
-5.48787e-08
2.3246e-08
-6.19313e-08
2.42928e-08
-6.9232e-08
2.51928e-08
-7.67411e-08
2.59474e-08
-8.44192e-08
2.65589e-08
-9.22274e-08
2.70302e-08
-1.00128e-07
2.73652e-08
-1.08083e-07
2.75679e-08
-1.16058e-07
2.76429e-08
-1.24017e-07
2.75951e-08
-1.31928e-07
2.74295e-08
-1.39757e-07
2.71513e-08
-1.47475e-07
2.67656e-08
-1.55053e-07
2.62778e-08
-1.62461e-07
2.5693e-08
-1.69675e-07
2.50166e-08
-1.76669e-07
2.42536e-08
-1.8342e-07
2.34092e-08
-1.89906e-07
2.24883e-08
-1.96106e-07
2.14958e-08
-2.02e-07
2.04365e-08
-2.07571e-07
1.93151e-08
-2.12802e-07
1.81361e-08
-2.17678e-07
1.6904e-08
-2.22184e-07
1.56231e-08
-2.26308e-07
1.42977e-08
-2.30037e-07
1.29319e-08
-2.33362e-07
1.15298e-08
-2.36273e-07
1.00953e-08
-2.38761e-07
8.63241e-09
-2.40819e-07
7.14503e-09
-2.42443e-07
5.63699e-09
-2.43626e-07
4.11212e-09
-2.44364e-07
2.57426e-09
-2.44657e-07
1.02725e-09
-2.44501e-07
-5.2506e-10
-2.43897e-07
-2.07874e-09
-2.42845e-07
-3.62985e-09
-2.41348e-07
-5.17433e-09
-2.39409e-07
-6.70807e-09
-2.37032e-07
-8.22687e-09
-2.34222e-07
-9.72641e-09
-2.30987e-07
-1.12023e-08
-2.27335e-07
-1.265e-08
-2.23276e-07
-1.40648e-08
-2.18821e-07
-1.54419e-08
-2.13981e-07
-1.67765e-08
-2.08771e-07
-1.80635e-08
-2.03206e-07
-1.92977e-08
-1.97304e-07
-2.04739e-08
-1.91081e-07
-2.15865e-08
-1.84559e-07
-2.26303e-08
-1.77758e-07
-2.35994e-08
-1.70702e-07
-2.44885e-08
-1.63415e-07
-2.52916e-08
-1.55924e-07
-2.60031e-08
-1.48256e-07
-2.66172e-08
-1.40441e-07
-2.71283e-08
-1.3251e-07
-2.75307e-08
-1.24495e-07
-2.78188e-08
-1.16431e-07
-2.79873e-08
-1.08352e-07
-2.80309e-08
-1.00295e-07
-2.79447e-08
-9.22984e-08
-2.7724e-08
-8.43998e-08
-2.73647e-08
-7.66394e-08
-2.6863e-08
-6.90573e-08
-2.62159e-08
-6.16941e-08
-2.5421e-08
-5.45905e-08
-2.44772e-08
-4.77869e-08
-2.33841e-08
-4.13231e-08
-2.21429e-08
-3.52375e-08
-2.07568e-08
-2.95669e-08
-1.92309e-08
-2.43452e-08
-1.75733e-08
-1.96031e-08
-1.57954e-08
-1.53664e-08
-1.39134e-08
-1.16553e-08
-1.19491e-08
-8.48254e-09
-9.93165e-09
-5.85175e-09
-7.90002e-09
-3.75561e-09
-5.90539e-09
-2.17372e-09
-4.01495e-09
-1.07042e-09
-2.31642e-09
-3.92689e-10
-9.22821e-10
-6.77798e-11
2.08022e-11
3.15132e-10
-1.54508e-10
-1.25122e-10
-7.04845e-10
5.88981e-10
-1.71879e-09
2.03628e-09
-3.25135e-09
3.98794e-09
-5.34295e-09
6.27371e-09
-8.01943e-09
8.76366e-09
-1.12934e-08
1.13574e-08
-1.51658e-08
1.39774e-08
-1.96274e-08
1.65641e-08
-2.46609e-08
1.90718e-08
-3.02416e-08
2.14658e-08
-3.63393e-08
2.37202e-08
-4.29197e-08
2.5816e-08
-4.99446e-08
2.77395e-08
-5.73735e-08
2.94816e-08
-6.51642e-08
3.10368e-08
-7.32734e-08
3.2402e-08
-8.16571e-08
3.35765e-08
-9.02711e-08
3.45615e-08
-9.90718e-08
3.53595e-08
-1.08016e-07
3.59741e-08
-1.1706e-07
3.64098e-08
-1.26164e-07
3.66718e-08
-1.35287e-07
3.67657e-08
-1.4439e-07
3.66978e-08
-1.53435e-07
3.64744e-08
-1.62385e-07
3.61021e-08
-1.71208e-07
3.55878e-08
-1.79868e-07
3.49382e-08
-1.88335e-07
3.41601e-08
-1.96579e-07
3.32605e-08
-2.04571e-07
3.2246e-08
-2.12286e-07
3.11233e-08
-2.19696e-07
2.98991e-08
-2.2678e-07
2.85796e-08
-2.33515e-07
2.71713e-08
-2.3988e-07
2.56804e-08
-2.45857e-07
2.41128e-08
-2.51427e-07
2.24745e-08
-2.56575e-07
2.07712e-08
-2.61286e-07
1.90086e-08
-2.65546e-07
1.71922e-08
-2.69344e-07
1.53274e-08
-2.72668e-07
1.34196e-08
-2.7551e-07
1.1474e-08
-2.77861e-07
9.49574e-09
-2.79714e-07
7.49005e-09
-2.81064e-07
5.462e-09
-2.81906e-07
3.41673e-09
-2.82238e-07
1.35936e-09
-2.82058e-07
-7.04934e-10
-2.81366e-07
-2.77095e-09
-2.80163e-07
-4.83338e-09
-2.7845e-07
-6.88685e-09
-2.76232e-07
-8.92588e-09
-2.73514e-07
-1.09449e-08
-2.70303e-07
-1.2938e-08
-2.66605e-07
-1.48996e-08
-2.62432e-07
-1.68234e-08
-2.57793e-07
-1.87034e-08
-2.52702e-07
-2.05332e-08
-2.47172e-07
-2.23062e-08
-2.4122e-07
-2.40158e-08
-2.34863e-07
-2.56551e-08
-2.28119e-07
-2.72172e-08
-2.21011e-07
-2.86949e-08
-2.1356e-07
-3.0081e-08
-2.05792e-07
-3.13681e-08
-1.97731e-07
-3.25487e-08
-1.89407e-07
-3.36155e-08
-1.8085e-07
-3.45609e-08
-1.7209e-07
-3.53773e-08
-1.63161e-07
-3.60573e-08
-1.54098e-07
-3.65936e-08
-1.44938e-07
-3.69789e-08
-1.35719e-07
-3.72063e-08
-1.2648e-07
-3.72691e-08
-1.17264e-07
-3.71609e-08
-1.08112e-07
-3.6876e-08
-9.90677e-08
-3.6409e-08
-9.01752e-08
-3.57555e-08
-8.14795e-08
-3.49116e-08
-7.30256e-08
-3.38749e-08
-6.48588e-08
-3.2644e-08
-5.70238e-08
-3.12191e-08
-4.95643e-08
-2.96024e-08
-4.25227e-08
-2.77984e-08
-3.59391e-08
-2.58144e-08
-2.9851e-08
-2.36614e-08
-2.42917e-08
-2.13547e-08
-1.92898e-08
-1.89153e-08
-1.4868e-08
-1.63709e-08
-1.10415e-08
-1.37582e-08
-7.81667e-09
-1.11248e-08
-5.1898e-09
-8.53227e-09
-3.14528e-09
-6.05947e-09
-1.65441e-09
-3.80729e-09
-6.74272e-10
-1.90296e-09
-1.47162e-10
-5.06299e-10
1.67968e-10
-2.35244e-10
1.1012e-10
-9.95083e-10
1.34882e-09
-2.32442e-09
3.3656e-09
-4.26102e-09
5.92454e-09
-6.83284e-09
8.84554e-09
-1.00567e-08
1.19875e-08
-1.39386e-08
1.52393e-08
-1.84745e-08
1.85133e-08
-2.36514e-08
2.17409e-08
-2.94481e-08
2.48686e-08
-3.58373e-08
2.7855e-08
-4.27857e-08
3.06686e-08
-5.02557e-08
3.3286e-08
-5.82064e-08
3.56901e-08
-6.65938e-08
3.78691e-08
-7.53723e-08
3.98153e-08
-8.44949e-08
4.15246e-08
-9.39141e-08
4.29956e-08
-1.03582e-07
4.42292e-08
-1.1345e-07
4.52279e-08
-1.23472e-07
4.5996e-08
-1.33601e-07
4.65386e-08
-1.43791e-07
4.6862e-08
-1.53998e-07
4.69731e-08
-1.6418e-07
4.68793e-08
-1.74294e-07
4.65885e-08
-1.84301e-07
4.61089e-08
-1.94162e-07
4.5449e-08
-2.03841e-07
4.46171e-08
-2.13303e-07
4.36219e-08
-2.22514e-07
4.2472e-08
-2.31444e-07
4.11757e-08
-2.40062e-07
3.97416e-08
-2.48341e-07
3.81779e-08
-2.56254e-07
3.64928e-08
-2.63777e-07
3.46943e-08
-2.70887e-07
3.27902e-08
-2.77563e-07
3.07883e-08
-2.83784e-07
2.8696e-08
-2.89534e-07
2.65207e-08
-2.94795e-07
2.42697e-08
-2.99552e-07
2.19498e-08
-3.03793e-07
1.95682e-08
-3.07505e-07
1.71315e-08
-3.10678e-07
1.46466e-08
-3.13302e-07
1.212e-08
-3.1537e-07
9.5583e-09
-3.16876e-07
6.96816e-09
-3.17816e-07
4.35609e-09
-3.18185e-07
1.72866e-09
-3.17982e-07
-9.07507e-10
-3.17207e-07
-3.54573e-09
-3.15862e-07
-6.17923e-09
-3.13947e-07
-8.80113e-09
-3.11469e-07
-1.14044e-08
-3.08432e-07
-1.39819e-08
-3.04844e-07
-1.65263e-08
-3.00713e-07
-1.90301e-08
-2.96051e-07
-2.14856e-08
-2.90869e-07
-2.38849e-08
-2.85183e-07
-2.62199e-08
-2.79006e-07
-2.84824e-08
-2.72358e-07
-3.06638e-08
-2.65258e-07
-3.27555e-08
-2.57727e-07
-3.47485e-08
-2.49788e-07
-3.66339e-08
-2.41466e-07
-3.84024e-08
-2.3279e-07
-4.00448e-08
-2.23787e-07
-4.15517e-08
-2.14489e-07
-4.29135e-08
-2.04929e-07
-4.41209e-08
-1.95142e-07
-4.51643e-08
-1.85164e-07
-4.60345e-08
-1.75036e-07
-4.67222e-08
-1.64796e-07
-4.72184e-08
-1.54488e-07
-4.75146e-08
-1.44155e-07
-4.76023e-08
-1.33842e-07
-4.74739e-08
-1.23595e-07
-4.71223e-08
-1.13463e-07
-4.6541e-08
-1.03494e-07
-4.57248e-08
-9.37364e-08
-4.46693e-08
-8.42397e-08
-4.33717e-08
-7.50528e-08
-4.18308e-08
-6.62245e-08
-4.00474e-08
-5.78021e-08
-3.80248e-08
-4.98315e-08
-3.5769e-08
-4.23562e-08
-3.32898e-08
-3.54164e-08
-3.06012e-08
-2.90487e-08
-2.77224e-08
-2.32846e-08
-2.46794e-08
-1.81496e-08
-2.15059e-08
-1.36623e-08
-1.82455e-08
-9.83294e-09
-1.49542e-08
-6.66264e-09
-1.17026e-08
-4.14228e-09
-8.57984e-09
-2.25187e-09
-5.6977e-09
-9.60447e-10
-3.19439e-09
-2.26576e-10
-1.24017e-09
-5.86115e-11
-3.14098e-10
4.24223e-10
-1.2824e-09
2.31711e-09
-2.92826e-09
5.01146e-09
-5.27225e-09
8.26853e-09
-8.32897e-09
1.19023e-08
-1.21051e-08
1.57637e-08
-1.65988e-08
1.9733e-08
-2.18e-08
2.37145e-08
-2.76906e-08
2.76315e-08
-3.42456e-08
3.14236e-08
-4.14339e-08
3.50433e-08
-4.9219e-08
3.84538e-08
-5.75603e-08
4.16273e-08
-6.64134e-08
4.45432e-08
-7.57314e-08
4.71871e-08
-8.54654e-08
4.95493e-08
-9.55652e-08
5.16244e-08
-1.0598e-07
5.341e-08
-1.16657e-07
5.49068e-08
-1.27547e-07
5.61175e-08
-1.38597e-07
5.70466e-08
-1.49759e-07
5.77001e-08
-1.60982e-07
5.80853e-08
-1.72219e-07
5.82103e-08
-1.83424e-07
5.80839e-08
-1.94551e-07
5.77156e-08
-2.05557e-07
5.71151e-08
-2.16401e-07
5.62927e-08
-2.27042e-07
5.52585e-08
-2.37443e-07
5.40229e-08
-2.47568e-07
5.25964e-08
-2.57381e-07
5.09894e-08
-2.66852e-07
4.9212e-08
-2.75949e-07
4.72746e-08
-2.84643e-07
4.51871e-08
-2.92908e-07
4.29593e-08
-3.00719e-07
4.0601e-08
-3.08052e-07
3.81215e-08
-3.14886e-07
3.55302e-08
-3.21201e-07
3.28361e-08
-3.2698e-07
3.00482e-08
-3.32205e-07
2.71752e-08
-3.36863e-07
2.42256e-08
-3.40939e-07
2.12079e-08
-3.44423e-07
1.81304e-08
-3.47304e-07
1.50013e-08
-3.49575e-07
1.1829e-08
-3.51228e-07
8.62136e-09
-3.52259e-07
5.38668e-09
-3.52663e-07
2.1331e-09
-3.5244e-07
-1.13119e-09
-3.51587e-07
-4.39788e-09
-3.50108e-07
-7.65858e-09
-3.48004e-07
-1.09048e-08
-3.45281e-07
-1.41277e-08
-3.41945e-07
-1.73186e-08
-3.38003e-07
-2.04683e-08
-3.33465e-07
-2.35675e-08
-3.28344e-07
-2.66069e-08
-3.22652e-07
-2.95765e-08
-3.16406e-07
-3.24665e-08
-3.09621e-07
-3.52666e-08
-3.02319e-07
-3.79662e-08
-2.9452e-07
-4.05548e-08
-2.86247e-07
-4.30215e-08
-2.77526e-07
-4.5355e-08
-2.68384e-07
-4.75441e-08
-2.58851e-07
-4.95774e-08
-2.4896e-07
-5.14434e-08
-2.38743e-07
-5.31304e-08
-2.28237e-07
-5.4627e-08
-2.17479e-07
-5.59216e-08
-2.06511e-07
-5.70028e-08
-1.95374e-07
-5.78594e-08
-1.84111e-07
-5.84807e-08
-1.7277e-07
-5.8856e-08
-1.61397e-07
-5.89756e-08
-1.5004e-07
-5.88302e-08
-1.38752e-07
-5.84112e-08
-1.27581e-07
-5.77114e-08
-1.16582e-07
-5.67244e-08
-1.05806e-07
-5.54454e-08
-9.53058e-08
-5.38715e-08
-8.5135e-08
-5.20015e-08
-7.53454e-08
-4.98371e-08
-6.59877e-08
-4.73825e-08
-5.71109e-08
-4.46457e-08
-4.87619e-08
-4.16389e-08
-4.0984e-08
-3.8379e-08
-3.38168e-08
-3.48896e-08
-2.72952e-08
-3.1201e-08
-2.14481e-08
-2.73529e-08
-1.62981e-08
-2.33955e-08
-1.18604e-08
-1.93919e-08
-8.14181e-09
-1.54211e-08
-5.14097e-09
-1.15807e-08
-2.84768e-09
-7.99099e-09
-1.24373e-09
-4.79833e-09
-3.04156e-10
-2.17975e-09
-3.62766e-10
-3.90074e-10
8.14291e-10
-1.56246e-09
3.4895e-09
-3.52096e-09
6.96996e-09
-6.26964e-09
1.10172e-08
-9.80965e-09
1.54423e-08
-1.41369e-08
2.0091e-08
-1.92411e-08
2.48372e-08
-2.51051e-08
2.95785e-08
-3.17053e-08
3.42317e-08
-3.90119e-08
3.87303e-08
-4.69898e-08
4.30211e-08
-5.55987e-08
4.70627e-08
-6.47947e-08
5.08232e-08
-7.45302e-08
5.42787e-08
-8.47551e-08
5.7412e-08
-9.54175e-08
6.02116e-08
-1.06464e-07
6.26706e-08
-1.1784e-07
6.47859e-08
-1.2949e-07
6.65577e-08
-1.41362e-07
6.79888e-08
-1.53399e-07
6.90842e-08
-1.6555e-07
6.98506e-08
-1.77761e-07
7.02963e-08
-1.89981e-07
7.04307e-08
-2.02161e-07
7.0264e-08
-2.14253e-07
6.98072e-08
-2.2621e-07
6.90719e-08
-2.37987e-07
6.80699e-08
-2.49542e-07
6.68134e-08
-2.60834e-07
6.53148e-08
-2.71824e-07
6.35863e-08
-2.82475e-07
6.16404e-08
-2.92752e-07
5.94894e-08
-3.02623e-07
5.71454e-08
-3.12056e-07
5.46203e-08
-3.21023e-07
5.19261e-08
-3.29496e-07
4.90743e-08
-3.37451e-07
4.60763e-08
-3.44864e-07
4.29432e-08
-3.51714e-07
3.96861e-08
-3.57981e-07
3.63156e-08
-3.63649e-07
3.28423e-08
-3.68699e-07
2.92765e-08
-3.7312e-07
2.56284e-08
-3.76898e-07
2.19082e-08
-3.80022e-07
1.81257e-08
-3.82484e-07
1.42909e-08
-3.84276e-07
1.04137e-08
-3.85394e-07
6.50378e-09
-3.85832e-07
2.57114e-09
-3.85588e-07
-1.3743e-09
-3.84664e-07
-5.32251e-09
-3.83059e-07
-9.26333e-09
-3.80777e-07
-1.31864e-08
-3.77824e-07
-1.70814e-08
-3.74205e-07
-2.09373e-08
-3.6993e-07
-2.47435e-08
-3.65009e-07
-2.84885e-08
-3.59455e-07
-3.21611e-08
-3.53282e-07
-3.57493e-08
-3.46507e-07
-3.92412e-08
-3.39149e-07
-4.26245e-08
-3.31229e-07
-4.58866e-08
-3.22769e-07
-4.90146e-08
-3.13795e-07
-5.19953e-08
-3.04335e-07
-5.48156e-08
-2.94417e-07
-5.74617e-08
-2.84074e-07
-5.99201e-08
-2.73341e-07
-6.2177e-08
-2.62252e-07
-6.42185e-08
-2.50849e-07
-6.60308e-08
-2.3917e-07
-6.76001e-08
-2.2726e-07
-6.89131e-08
-2.15163e-07
-6.99564e-08
-2.02926e-07
-7.07171e-08
-1.90599e-07
-7.1183e-08
-1.78233e-07
-7.13424e-08
-1.65878e-07
-7.11844e-08
-1.5359e-07
-7.06994e-08
-1.41423e-07
-6.98786e-08
-1.29432e-07
-6.87152e-08
-1.17674e-07
-6.72036e-08
-1.06205e-07
-6.53408e-08
-9.50802e-08
-6.3126e-08
-8.43559e-08
-6.05613e-08
-7.4086e-08
-5.76524e-08
-6.43226e-08
-5.44091e-08
-5.51158e-08
-5.08457e-08
-4.65122e-08
-4.69827e-08
-3.85548e-08
-4.2847e-08
-3.12819e-08
-3.84739e-08
-2.47267e-08
-3.39081e-08
-1.89164e-08
-2.92059e-08
-1.38714e-08
-2.44369e-08
-9.60572e-09
-1.96868e-08
-6.12599e-09
-1.50604e-08
-3.43247e-09
-1.06845e-08
-1.51981e-09
-6.71098e-09
-3.7889e-10
-3.32067e-09
-7.41654e-10
-4.62688e-10
1.27698e-09
-1.83297e-09
4.85979e-09
-4.09712e-09
9.23411e-09
-7.24386e-09
1.4164e-08
-1.12612e-08
1.94596e-08
-1.61343e-08
2.49641e-08
-2.18438e-08
3.05467e-08
-2.8365e-08
3.60997e-08
-3.56683e-08
4.1535e-08
-4.37186e-08
4.67805e-08
-5.24761e-08
5.17786e-08
-6.18967e-08
5.64834e-08
-7.19327e-08
6.08592e-08
-8.25331e-08
6.48792e-08
-9.36448e-08
6.85237e-08
-1.05212e-07
7.17792e-08
-1.17179e-07
7.46375e-08
-1.29488e-07
7.70949e-08
-1.42082e-07
7.9151e-08
-1.54902e-07
8.08088e-08
-1.67891e-07
8.20737e-08
-1.80994e-07
8.29533e-08
-1.94154e-07
8.34567e-08
-2.07318e-07
8.35947e-08
-2.20433e-07
8.3379e-08
-2.33448e-07
8.28221e-08
-2.46314e-07
8.19374e-08
-2.58982e-07
8.07388e-08
-2.71409e-07
7.92402e-08
-2.8355e-07
7.7456e-08
-2.95365e-07
7.54007e-08
-3.06813e-07
7.30887e-08
-3.17858e-07
7.05345e-08
-3.28465e-07
6.77521e-08
-3.38601e-07
6.47559e-08
-3.48234e-07
6.15595e-08
-3.57336e-07
5.81768e-08
-3.65881e-07
5.46211e-08
-3.73844e-07
5.09056e-08
-3.81201e-07
4.70433e-08
-3.87932e-07
4.30467e-08
-3.94018e-07
3.89285e-08
-3.99443e-07
3.47007e-08
-4.0419e-07
3.03756e-08
-4.08247e-07
2.59651e-08
-4.11602e-07
2.14808e-08
-4.14246e-07
1.69347e-08
-4.1617e-07
1.23384e-08
-4.1737e-07
7.70348e-09
-4.17841e-07
3.04175e-09
-4.1758e-07
-1.63504e-09
-4.16587e-07
-6.31498e-09
-4.14865e-07
-1.0986e-08
-4.12415e-07
-1.5636e-08
-4.09244e-07
-2.02524e-08
-4.05359e-07
-2.48226e-08
-4.00769e-07
-2.93336e-08
-3.95485e-07
-3.37722e-08
-3.89521e-07
-3.81248e-08
-3.82893e-07
-4.23776e-08
-3.75618e-07
-4.65162e-08
-3.67716e-07
-5.05263e-08
-3.5921e-07
-5.43928e-08
-3.50124e-07
-5.81008e-08
-3.40484e-07
-6.16346e-08
-3.30321e-07
-6.49786e-08
-3.19666e-07
-6.8117e-08
-3.08553e-07
-7.10335e-08
-2.97018e-07
-7.37121e-08
-2.851e-07
-7.61365e-08
-2.7284e-07
-7.82905e-08
-2.60282e-07
-8.01582e-08
-2.47471e-07
-8.17236e-08
-2.34456e-07
-8.29714e-08
-2.21287e-07
-8.38867e-08
-2.08014e-07
-8.44552e-08
-1.94693e-07
-8.46634e-08
-1.81379e-07
-8.44988e-08
-1.68128e-07
-8.39504e-08
-1.54998e-07
-8.30084e-08
-1.42048e-07
-8.16648e-08
-1.29338e-07
-7.99139e-08
-1.16927e-07
-7.77522e-08
-1.04874e-07
-7.51793e-08
-9.32369e-08
-7.2198e-08
-8.20742e-08
-6.88151e-08
-7.1441e-08
-6.50423e-08
-6.13904e-08
-6.08963e-08
-5.19727e-08
-5.64004e-08
-4.32344e-08
-5.15853e-08
-3.52179e-08
-4.64904e-08
-2.79608e-08
-4.11652e-08
-2.14954e-08
-3.56713e-08
-1.58484e-08
-3.00839e-08
-1.10407e-08
-2.44945e-08
-7.088e-09
-1.90132e-08
-4.0008e-09
-1.37717e-08
-1.78636e-09
-8.92543e-09
-4.50313e-10
-4.65672e-09
-1.19197e-09
-5.3181e-10
1.80879e-09
-2.09292e-09
6.42089e-09
-4.65403e-09
1.17952e-08
-8.18979e-09
1.76997e-08
-1.26758e-08
2.39456e-08
-1.80865e-08
3.03747e-08
-2.43933e-08
3.68535e-08
-3.15641e-08
4.32705e-08
-3.95623e-08
4.95332e-08
-4.83473e-08
5.55656e-08
-5.78744e-08
6.13057e-08
-6.80952e-08
6.67042e-08
-7.8958e-08
7.1722e-08
-9.04083e-08
7.63294e-08
-1.02389e-07
8.05047e-08
-1.14843e-07
8.42325e-08
-1.27709e-07
8.75036e-08
-1.40927e-07
9.03133e-08
-1.54437e-07
9.26611e-08
-1.68178e-07
9.455e-08
-1.82091e-07
9.5986e-08
-1.96115e-07
9.69773e-08
-2.10192e-07
9.75344e-08
-2.24267e-07
9.7669e-08
-2.38282e-07
9.73946e-08
-2.52186e-07
9.67253e-08
-2.65925e-07
9.56765e-08
-2.79449e-07
9.42637e-08
-2.92712e-07
9.25031e-08
-3.05668e-07
9.04112e-08
-3.18271e-07
8.80046e-08
-3.30483e-07
8.52998e-08
-3.42262e-07
8.23136e-08
-3.53572e-07
7.90623e-08
-3.64378e-07
7.55622e-08
-3.74648e-07
7.18294e-08
-3.84351e-07
6.78798e-08
-3.93459e-07
6.37289e-08
-4.01945e-07
5.9392e-08
-4.09786e-07
5.48842e-08
-4.16959e-07
5.02201e-08
-4.23445e-07
4.54143e-08
-4.29225e-07
4.0481e-08
-4.34284e-07
3.54343e-08
-4.38607e-07
3.02882e-08
-4.42183e-07
2.50563e-08
-4.45e-07
1.97523e-08
-4.47052e-07
1.43899e-08
-4.48331e-07
8.98272e-09
-4.48834e-07
3.54433e-09
-4.48557e-07
-1.91151e-09
-4.47501e-07
-7.37092e-09
-4.45668e-07
-1.28199e-08
-4.43059e-07
-1.82441e-08
-4.39683e-07
-2.36292e-08
-4.35545e-07
-2.89604e-08
-4.30656e-07
-3.42225e-08
-4.25028e-07