/*--------------------------------*- C++ -*----------------------------------*\
| =========                 |                                                 |
| \\      /  F ield         | OpenFOAM: The Open Source CFD Toolbox           |
|  \\    /   O peration     | Version:  2212                                  |
|   \\  /    A nd           | Website:  www.openfoam.com                      |
|    \\/     M anipulation  |                                                 |
\*---------------------------------------------------------------------------*/
FoamFile
{
    version     2.0;
    format      ascii;
    arch        "LSB;label=32;scalar=64";
    class       volVectorField;
    location    "0.0235";
    object      U;
}
// * * * * * * * * * * * * * * * * * * * * * * * * * * * * * * * * * * * * * //

dimensions      [0 1 -1 0 0 0 0];

internalField   nonuniform List<vector> 
10000
(
(2.9925e-06 -2.59898e-06 0)
(1.15441e-05 -4.35814e-06 0)
(2.16672e-05 -3.73848e-06 0)
(2.86092e-05 -2.62088e-06 0)
(3.00575e-05 -9.24145e-07 0)
(2.48907e-05 1.23007e-06 0)
(1.22193e-05 3.65594e-06 0)
(-8.33597e-06 6.13389e-06 0)
(-3.67764e-05 8.5865e-06 0)
(-7.28651e-05 1.09325e-05 0)
(-0.000116226 1.3119e-05 0)
(-0.000166375 1.51473e-05 0)
(-0.000222795 1.69922e-05 0)
(-0.000284934 1.86431e-05 0)
(-0.000352209 2.01231e-05 0)
(-0.000424068 2.14251e-05 0)
(-0.000499951 2.25474e-05 0)
(-0.000579285 2.35094e-05 0)
(-0.000661545 2.43082e-05 0)
(-0.000746211 2.49353e-05 0)
(-0.000832758 2.54093e-05 0)
(-0.00092071 2.57426e-05 0)
(-0.00100961 2.59426e-05 0)
(-0.001099 2.60225e-05 0)
(-0.00118847 2.59893e-05 0)
(-0.0012776 2.58402e-05 0)
(-0.00136603 2.55741e-05 0)
(-0.00145338 2.5203e-05 0)
(-0.00153931 2.47381e-05 0)
(-0.00162349 2.41827e-05 0)
(-0.00170562 2.35391e-05 0)
(-0.00178541 2.28133e-05 0)
(-0.00186259 2.20127e-05 0)
(-0.0019369 2.11395e-05 0)
(-0.0020081 2.01974e-05 0)
(-0.00207598 1.91944e-05 0)
(-0.00214032 1.81394e-05 0)
(-0.00220093 1.7035e-05 0)
(-0.00225764 1.58794e-05 0)
(-0.00231029 1.4676e-05 0)
(-0.00235872 1.3431e-05 0)
(-0.0024028 1.21491e-05 0)
(-0.00244241 1.08335e-05 0)
(-0.00247744 9.48808e-06 0)
(-0.00250778 8.11913e-06 0)
(-0.00253336 6.72945e-06 0)
(-0.00255409 5.31807e-06 0)
(-0.00256993 3.88757e-06 0)
(-0.00258081 2.44196e-06 0)
(-0.00258671 9.86638e-07 0)
(-0.00258758 -4.7078e-07 0)
(-0.00258343 -1.92857e-06 0)
(-0.00257425 -3.38807e-06 0)
(-0.00256005 -4.84454e-06 0)
(-0.00254086 -6.29239e-06 0)
(-0.00251671 -7.72875e-06 0)
(-0.00248765 -9.14854e-06 0)
(-0.00245376 -1.05469e-05 0)
(-0.0024151 -1.19212e-05 0)
(-0.00237178 -1.32663e-05 0)
(-0.00232391 -1.45756e-05 0)
(-0.00227162 -1.58468e-05 0)
(-0.00221505 -1.70768e-05 0)
(-0.00215435 -1.8258e-05 0)
(-0.00208971 -1.93836e-05 0)
(-0.00202132 -2.04502e-05 0)
(-0.0019494 -2.14532e-05 0)
(-0.00187417 -2.23855e-05 0)
(-0.0017959 -2.32423e-05 0)
(-0.00171484 -2.40191e-05 0)
(-0.0016313 -2.47096e-05 0)
(-0.00154557 -2.53064e-05 0)
(-0.00145799 -2.5804e-05 0)
(-0.00136891 -2.61969e-05 0)
(-0.0012787 -2.6477e-05 0)
(-0.00118775 -2.66366e-05 0)
(-0.00109648 -2.66711e-05 0)
(-0.00100532 -2.65773e-05 0)
(-0.000914711 -2.63495e-05 0)
(-0.000825129 -2.5979e-05 0)
(-0.000737061 -2.54573e-05 0)
(-0.000651014 -2.47782e-05 0)
(-0.000567513 -2.39371e-05 0)
(-0.000487098 -2.2929e-05 0)
(-0.00041032 -2.17493e-05 0)
(-0.000337739 -2.03938e-05 0)
(-0.000269923 -1.88579e-05 0)
(-0.00020744 -1.71372e-05 0)
(-0.000150859 -1.52303e-05 0)
(-0.000100734 -1.31389e-05 0)
(-5.75948e-05 -1.0867e-05 0)
(-2.19304e-05 -8.42287e-06 0)
(5.83796e-06 -5.824e-06 0)
(2.54009e-05 -3.10788e-06 0)
(3.66337e-05 -3.47534e-07 0)
(3.97137e-05 2.32108e-06 0)
(3.52914e-05 4.64811e-06 0)
(2.48712e-05 6.14725e-06 0)
(1.19536e-05 5.90958e-06 0)
(2.75036e-06 2.74764e-06 0)
(7.44489e-06 -1.24278e-05 0)
(2.3851e-05 -1.96603e-05 0)
(4.02216e-05 -1.51594e-05 0)
(4.63088e-05 -6.34334e-06 0)
(3.69723e-05 5.44284e-06 0)
(9.69922e-06 1.93532e-05 0)
(-3.73554e-05 3.43479e-05 0)
(-0.000105034 4.96976e-05 0)
(-0.000193369 6.48327e-05 0)
(-0.000301918 7.93885e-05 0)
(-0.00042978 9.31502e-05 0)
(-0.000575857 0.000105953 0)
(-0.000738867 0.000117712 0)
(-0.000917383 0.000128395 0)
(-0.00110998 0.000137967 0)
(-0.00131516 0.000146435 0)
(-0.0015314 0.000153812 0)
(-0.00175725 0.000160122 0)
(-0.00199125 0.000165382 0)
(-0.00223194 0.000169632 0)
(-0.00247795 0.0001729 0)
(-0.00272794 0.000175227 0)
(-0.00298061 0.000176651 0)
(-0.00323472 0.000177224 0)
(-0.00348908 0.000176985 0)
(-0.00374255 0.000175967 0)
(-0.00399404 0.000174204 0)
(-0.00424252 0.000171739 0)
(-0.004487 0.000168612 0)
(-0.00472657 0.000164856 0)
(-0.00496034 0.000160508 0)
(-0.0051875 0.000155606 0)
(-0.00540725 0.000150182 0)
(-0.00561887 0.000144266 0)
(-0.00582168 0.000137889 0)
(-0.00601504 0.000131087 0)
(-0.00619834 0.000123893 0)
(-0.00637105 0.000116333 0)
(-0.00653266 0.000108436 0)
(-0.00668268 0.000100227 0)
(-0.00682071 9.17358e-05 0)
(-0.00694633 8.29866e-05 0)
(-0.00705921 7.40046e-05 0)
(-0.00715902 6.48171e-05 0)
(-0.00724548 5.54484e-05 0)
(-0.00731835 4.59238e-05 0)
(-0.00737742 3.62646e-05 0)
(-0.00742251 2.64917e-05 0)
(-0.00745348 1.66315e-05 0)
(-0.00747023 6.70965e-06 0)
(-0.00747267 -3.25044e-06 0)
(-0.00746079 -1.32241e-05 0)
(-0.00743458 -2.31869e-05 0)
(-0.00739407 -3.31135e-05 0)
(-0.00733934 -4.29773e-05 0)
(-0.00727051 -5.27524e-05 0)
(-0.00718772 -6.24118e-05 0)
(-0.00709118 -7.19258e-05 0)
(-0.00698111 -8.12633e-05 0)
(-0.00685779 -9.03932e-05 0)
(-0.00672155 -9.92848e-05 0)
(-0.00657275 -0.000107909 0)
(-0.00641181 -0.000116233 0)
(-0.0062392 -0.00012422 0)
(-0.0060554 -0.000131836 0)
(-0.005861 -0.000139045 0)
(-0.00565661 -0.000145811 0)
(-0.00544289 -0.000152096 0)
(-0.00522056 -0.000157862 0)
(-0.00499039 -0.000163074 0)
(-0.00475322 -0.000167691 0)
(-0.00450992 -0.000171675 0)
(-0.00426144 -0.000174986 0)
(-0.00400876 -0.000177581 0)
(-0.00375294 -0.000179418 0)
(-0.00349509 -0.000180457 0)
(-0.00323636 -0.00018066 0)
(-0.00297796 -0.000179993 0)
(-0.00272117 -0.000178419 0)
(-0.00246731 -0.000175899 0)
(-0.00221772 -0.000172394 0)
(-0.0019738 -0.000167872 0)
(-0.00173701 -0.000162303 0)
(-0.00150882 -0.000155662 0)
(-0.00129071 -0.00014793 0)
(-0.0010842 -0.000139092 0)
(-0.000890804 -0.000129144 0)
(-0.000712011 -0.000118089 0)
(-0.000549282 -0.000105949 0)
(-0.00040401 -9.27654e-05 0)
(-0.000277477 -7.86112e-05 0)
(-0.000170807 -6.36055e-05 0)
(-8.48743e-05 -4.79392e-05 0)
(-2.01881e-05 -3.19147e-05 0)
(2.32796e-05 -1.60146e-05 0)
(4.63497e-05 -1.01043e-06 0)
(5.09506e-05 1.18588e-05 0)
(4.06347e-05 2.05971e-05 0)
(2.20727e-05 2.20467e-05 0)
(5.91843e-06 1.195e-05 0)
(8.38887e-06 -2.76834e-05 0)
(2.47502e-05 -3.88409e-05 0)
(3.64631e-05 -2.42739e-05 0)
(3.04773e-05 1.4394e-06 0)
(1.66979e-07 3.46122e-05 0)
(-5.79795e-05 7.27052e-05 0)
(-0.000146268 0.000113435 0)
(-0.000265726 0.000155015 0)
(-0.000416488 0.000196118 0)
(-0.000597829 0.000235852 0)
(-0.000808585 0.000273558 0)
(-0.00104718 0.000308817 0)
(-0.00131172 0.000341379 0)
(-0.00160019 0.00037105 0)
(-0.00191041 0.000397753 0)
(-0.00224014 0.000421465 0)
(-0.00258712 0.000442178 0)
(-0.00294909 0.00045993 0)
(-0.00332379 0.000474793 0)
(-0.00370902 0.000486833 0)
(-0.00410263 0.000496133 0)
(-0.0045025 0.000502792 0)
(-0.00490661 0.000506906 0)
(-0.005313 0.00050858 0)
(-0.00571979 0.000507927 0)
(-0.00612516 0.000505047 0)
(-0.0065274 0.000500047 0)
(-0.00692486 0.000493035 0)
(-0.00731596 0.000484117 0)
(-0.00769924 0.000473394 0)
(-0.00807329 0.000460968 0)
(-0.00843678 0.000446939 0)
(-0.00878846 0.000431404 0)
(-0.00912716 0.000414455 0)
(-0.00945178 0.000396182 0)
(-0.0097613 0.000376677 0)
(-0.0100547 0.00035603 0)
(-0.0103312 0.000334322 0)
(-0.01059 0.000311636 0)
(-0.0108302 0.000288052 0)
(-0.0110512 0.000263651 0)
(-0.0112523 0.000238506 0)
(-0.011433 0.000212689 0)
(-0.0115928 0.000186273 0)
(-0.0117312 0.000159335 0)
(-0.0118478 0.00013194 0)
(-0.0119424 0.000104159 0)
(-0.0120145 7.60623e-05 0)
(-0.012064 4.77176e-05 0)
(-0.0120907 1.91972e-05 0)
(-0.0120945 -9.42856e-06 0)
(-0.0120754 -3.80923e-05 0)
(-0.0120333 -6.67195e-05 0)
(-0.0119684 -9.52324e-05 0)
(-0.0118807 -0.000123557 0)
(-0.0117704 -0.000151619 0)
(-0.0116378 -0.000179335 0)
(-0.0114832 -0.000206626 0)
(-0.011307 -0.000233404 0)
(-0.0111097 -0.000259581 0)
(-0.0108917 -0.000285066 0)
(-0.0106536 -0.000309772 0)
(-0.0103962 -0.000333605 0)
(-0.0101201 -0.000356465 0)
(-0.00982621 -0.000378252 0)
(-0.0095154 -0.000398864 0)
(-0.00918868 -0.0004182 0)
(-0.0088471 -0.00043615 0)
(-0.00849182 -0.000452608 0)
(-0.00812407 -0.000467466 0)
(-0.00774518 -0.000480614 0)
(-0.00735656 -0.000491943 0)
(-0.00695971 -0.000501338 0)
(-0.00655622 -0.000508687 0)
(-0.00614775 -0.000513877 0)
(-0.00573606 -0.000516796 0)
(-0.00532298 -0.000517338 0)
(-0.00491045 -0.000515403 0)
(-0.00450045 -0.000510889 0)
(-0.00409505 -0.000503699 0)
(-0.00369639 -0.00049374 0)
(-0.00330664 -0.000480932 0)
(-0.00292806 -0.000465202 0)
(-0.00256292 -0.000446494 0)
(-0.00221352 -0.000424771 0)
(-0.00188217 -0.000400017 0)
(-0.00157115 -0.000372242 0)
(-0.00128272 -0.000341495 0)
(-0.00101903 -0.000307876 0)
(-0.000782099 -0.000271551 0)
(-0.000573757 -0.000232785 0)
(-0.000395539 -0.000191976 0)
(-0.00024857 -0.000149724 0)
(-0.000133403 -0.000106912 0)
(-4.97935e-05 -6.48558e-05 0)
(3.58953e-06 -2.54965e-05 0)
(2.94995e-05 8.2897e-06 0)
(3.25804e-05 3.23223e-05 0)
(2.07362e-05 4.06461e-05 0)
(6.17551e-06 2.489e-05 0)
(6.41267e-06 -4.07819e-05 0)
(1.56093e-05 -5.10789e-05 0)
(1.29479e-05 -2.02154e-05 0)
(-1.45181e-05 3.04486e-05 0)
(-7.42054e-05 9.40107e-05 0)
(-0.000170201 0.000165874 0)
(-0.000305081 0.000242198 0)
(-0.000480048 0.000319945 0)
(-0.000695111 0.000396919 0)
(-0.000949517 0.000471465 0)
(-0.00124181 0.000542411 0)
(-0.00157002 0.000608975 0)
(-0.00193189 0.000670592 0)
(-0.00232484 0.000726907 0)
(-0.00274614 0.000777732 0)
(-0.00319296 0.000822951 0)
(-0.00366237 0.000862543 0)
(-0.00415144 0.00089655 0)
(-0.00465727 0.000925061 0)
(-0.00517698 0.00094819 0)
(-0.00570772 0.000966097 0)
(-0.00624675 0.000978934 0)
(-0.00679136 0.000986881 0)
(-0.00733896 0.000990128 0)
(-0.00788704 0.000988867 0)
(-0.00843319 0.000983295 0)
(-0.00897512 0.000973614 0)
(-0.00951061 0.000960026 0)
(-0.0100376 0.000942726 0)
(-0.010554 0.000921911 0)
(-0.011058 0.000897777 0)
(-0.0115479 0.000870516 0)
(-0.0120218 0.000840311 0)
(-0.0124783 0.000807345 0)
(-0.0129158 0.000771798 0)
(-0.013333 0.000733843 0)
(-0.0137285 0.000693649 0)
(-0.0141012 0.000651378 0)
(-0.01445 0.000607192 0)
(-0.0147738 0.00056125 0)
(-0.0150717 0.000513703 0)
(-0.0153428 0.000464699 0)
(-0.0155864 0.000414384 0)
(-0.0158018 0.000362901 0)
(-0.0159883 0.000310389 0)
(-0.0161454 0.000256989 0)
(-0.0162727 0.000202834 0)
(-0.0163698 0.000148064 0)
(-0.0164364 9.28189e-05 0)
(-0.0164723 3.72348e-05 0)
(-0.0164773 -1.85524e-05 0)
(-0.0164513 -7.4403e-05 0)
(-0.0163944 -0.000130174 0)
(-0.0163067 -0.000185716 0)
(-0.0161883 -0.000240881 0)
(-0.0160395 -0.000295519 0)
(-0.0158606 -0.000349478 0)
(-0.0156521 -0.000402593 0)
(-0.0154145 -0.000454696 0)
(-0.0151484 -0.00050562 0)
(-0.0148546 -0.000555193 0)
(-0.0145337 -0.000603235 0)
(-0.0141868 -0.00064956 0)
(-0.0138148 -0.000693983 0)
(-0.0134189 -0.000736309 0)
(-0.0130002 -0.000776341 0)
(-0.0125602 -0.000813877 0)
(-0.0121002 -0.000848714 0)
(-0.0116218 -0.000880641 0)
(-0.0111267 -0.00090945 0)
(-0.0106166 -0.000934929 0)
(-0.0100935 -0.000956867 0)
(-0.00955931 -0.000975049 0)
(-0.00901623 -0.00098926 0)
(-0.00846647 -0.000999288 0)
(-0.00791237 -0.00100493 0)
(-0.00735638 -0.00100598 0)
(-0.00680105 -0.00100224 0)
(-0.00624905 -0.000993541 0)
(-0.00570309 -0.000979694 0)
(-0.005166 -0.000960543 0)
(-0.00464064 -0.000935946 0)
(-0.00412997 -0.000905786 0)
(-0.00363695 -0.000869979 0)
(-0.00316457 -0.000828477 0)
(-0.0027158 -0.000781275 0)
(-0.00229358 -0.000728433 0)
(-0.00190075 -0.000670085 0)
(-0.00154004 -0.000606471 0)
(-0.00121394 -0.000537968 0)
(-0.000924685 -0.000465135 0)
(-0.000674103 -0.000388791 0)
(-0.000463488 -0.000310106 0)
(-0.000293417 -0.000230746 0)
(-0.00016352 -0.000153067 0)
(-7.22061e-05 -8.04022e-05 0)
(-1.63461e-05 -1.74349e-05 0)
(9.13244e-06 2.93701e-05 0)
(1.2243e-05 5.12043e-05 0)
(4.72752e-06 3.54289e-05 0)
(3.42904e-06 -4.7188e-05 0)
(1.47514e-06 -4.85116e-05 0)
(-2.19579e-05 5.73396e-06 0)
(-7.78362e-05 8.86789e-05 0)
(-0.000173305 0.000190301 0)
(-0.000312648 0.000303819 0)
(-0.00049853 0.000423673 0)
(-0.000732039 0.000545607 0)
(-0.0010132 0.000666331 0)
(-0.00134107 0.000783415 0)
(-0.00171397 0.000895096 0)
(-0.00212968 0.00100008 0)
(-0.00258555 0.00109748 0)
(-0.0030786 0.0011867 0)
(-0.00360564 0.00126736 0)
(-0.00416332 0.00133926 0)
(-0.0047482 0.00140232 0)
(-0.00535678 0.00145657 0)
(-0.00598558 0.00150211 0)
(-0.00663112 0.0015391 0)
(-0.00728999 0.00156774 0)
(-0.00795884 0.00158828 0)
(-0.00863441 0.00160098 0)
(-0.00931352 0.00160614 0)
(-0.00999312 0.00160404 0)
(-0.0106702 0.00159499 0)
(-0.0113421 0.00157931 0)
(-0.0120059 0.00155731 0)
(-0.0126591 0.0015293 0)
(-0.0132993 0.0014956 0)
(-0.0139241 0.00145651 0)
(-0.0145314 0.00141235 0)
(-0.0151189 0.0013634 0)
(-0.0156848 0.00130997 0)
(-0.0162272 0.00125234 0)
(-0.0167444 0.0011908 0)
(-0.0172348 0.0011256 0)
(-0.0176969 0.00105703 0)
(-0.0181293 0.000985344 0)
(-0.0185308 0.000910792 0)
(-0.0189001 0.000833625 0)
(-0.0192362 0.000754082 0)
(-0.0195382 0.000672404 0)
(-0.0198051 0.000588826 0)
(-0.0200363 0.000503576 0)
(-0.020231 0.000416878 0)
(-0.0203887 0.000328958 0)
(-0.020509 0.000240042 0)
(-0.0205914 0.000150356 0)
(-0.0206357 6.0124e-05 0)
(-0.0206417 -3.0431e-05 0)
(-0.0206093 -0.000121077 0)
(-0.0205385 -0.000211579 0)
(-0.0204295 -0.000301702 0)
(-0.0202825 -0.000391205 0)
(-0.0200978 -0.000479839 0)
(-0.0198759 -0.000567349 0)
(-0.0196172 -0.000653476 0)
(-0.0193225 -0.000737952 0)
(-0.0189925 -0.0008205 0)
(-0.0186281 -0.00090084 0)
(-0.0182302 -0.000978684 0)
(-0.0178001 -0.00105373 0)
(-0.017339 -0.00112568 0)
(-0.0168483 -0.00119421 0)
(-0.0163295 -0.00125902 0)
(-0.0157842 -0.00131977 0)
(-0.0152142 -0.00137614 0)
(-0.0146215 -0.00142778 0)
(-0.0140081 -0.00147438 0)
(-0.0133762 -0.00151557 0)
(-0.0127282 -0.00155104 0)
(-0.0120665 -0.00158043 0)
(-0.0113937 -0.0016034 0)
(-0.0107127 -0.00161963 0)
(-0.0100262 -0.00162878 0)
(-0.00933727 -0.00163055 0)
(-0.00864905 -0.00162464 0)
(-0.00796476 -0.00161075 0)
(-0.00728772 -0.00158862 0)
(-0.00662134 -0.00155801 0)
(-0.00596912 -0.00151873 0)
(-0.00533459 -0.00147062 0)
(-0.00472133 -0.00141355 0)
(-0.00413291 -0.0013475 0)
(-0.00357286 -0.0012725 0)
(-0.00304465 -0.00118868 0)
(-0.00255164 -0.00109631 0)
(-0.00209699 -0.000995834 0)
(-0.00168359 -0.000887906 0)
(-0.00131399 -0.000773471 0)
(-0.000990258 -0.000653862 0)
(-0.000713845 -0.000530927 0)
(-0.000485403 -0.000407215 0)
(-0.000304577 -0.000286212 0)
(-0.000169763 -0.000172672 0)
(-7.78248e-05 -7.3046e-05 0)
(-2.37482e-05 4.0584e-06 0)
(-2.37396e-07 4.72201e-05 0)
(2.48137e-06 4.01371e-05 0)
(2.74544e-07 -4.51891e-05 0)
(-1.4537e-05 -2.68483e-05 0)
(-6.24903e-05 5.89712e-05 0)
(-0.000151291 0.000181758 0)
(-0.000287007 0.000328756 0)
(-0.000473752 0.000491069 0)
(-0.000713896 0.000661582 0)
(-0.00100842 0.00083465 0)
(-0.00135711 0.00100596 0)
(-0.00175885 0.00117225 0)
(-0.00221174 0.00133106 0)
(-0.0027133 0.00148059 0)
(-0.00326056 0.00161955 0)
(-0.0038502 0.00174705 0)
(-0.00447862 0.00186249 0)
(-0.00514205 0.00196554 0)
(-0.00583659 0.00205603 0)
(-0.00655827 0.00213397 0)
(-0.00730311 0.00219944 0)
(-0.00806713 0.00225266 0)
(-0.0088464 0.00229386 0)
(-0.00963705 0.00232339 0)
(-0.0104353 0.00234159 0)
(-0.0112375 0.00234887 0)
(-0.0120401 0.00234562 0)
(-0.0128396 0.00233229 0)
(-0.0136328 0.00230931 0)
(-0.0144164 0.00227712 0)
(-0.0151874 0.00223618 0)
(-0.0159431 0.00218694 0)
(-0.0166805 0.00212983 0)
(-0.0173972 0.0020653 0)
(-0.0180906 0.00199378 0)
(-0.0187585 0.00191569 0)
(-0.0193987 0.00183146 0)
(-0.0200091 0.00174148 0)
(-0.0205878 0.00164616 0)
(-0.0211332 0.0015459 0)
(-0.0216435 0.00144106 0)
(-0.0221173 0.00133202 0)
(-0.0225531 0.00121914 0)
(-0.0229497 0.00110279 0)
(-0.0233061 0.0009833 0)
(-0.023621 0.000861022 0)
(-0.0238937 0.000736292 0)
(-0.0241234 0.000609445 0)
(-0.0243095 0.000480813 0)
(-0.0244512 0.000350727 0)
(-0.0245483 0.000219515 0)
(-0.0246004 8.75089e-05 0)
(-0.0246072 -4.49574e-05 0)
(-0.0245688 -0.000177546 0)
(-0.0244851 -0.000309913 0)
(-0.0243562 -0.000441711 0)
(-0.0241825 -0.000572586 0)
(-0.0239643 -0.000702175 0)
(-0.0237022 -0.000830105 0)
(-0.0233968 -0.000955994 0)
(-0.0230488 -0.00107945 0)
(-0.0226592 -0.00120007 0)
(-0.022229 -0.00131745 0)
(-0.0217595 -0.00143116 0)
(-0.0212519 -0.00154077 0)
(-0.0207078 -0.00164583 0)
(-0.0201287 -0.00174589 0)
(-0.0195166 -0.0018405 0)
(-0.0188732 -0.00192917 0)
(-0.0182008 -0.00201142 0)
(-0.0175016 -0.00208679 0)
(-0.016778 -0.00215477 0)
(-0.0160325 -0.00221488 0)
(-0.0152681 -0.00226663 0)
(-0.0144875 -0.00230953 0)
(-0.0136937 -0.0023431 0)
(-0.0128901 -0.00236687 0)
(-0.01208 -0.00238036 0)
(-0.0112669 -0.00238315 0)
(-0.0104544 -0.0023748 0)
(-0.00964618 -0.00235492 0)
(-0.0088462 -0.00232315 0)
(-0.00805838 -0.00227918 0)
(-0.00728672 -0.00222273 0)
(-0.00653531 -0.00215362 0)
(-0.00580823 -0.00207172 0)
(-0.00510956 -0.00197701 0)
(-0.0044433 -0.00186958 0)
(-0.0038134 -0.0017497 0)
(-0.00322361 -0.0016178 0)
(-0.00267749 -0.00147457 0)
(-0.00217826 -0.00132101 0)
(-0.00172875 -0.00115851 0)
(-0.00133127 -0.000988972 0)
(-0.000987439 -0.00081499 0)
(-0.000698082 -0.000640029 0)
(-0.000463003 -0.000468708 0)
(-0.000280809 -0.000307155 0)
(-0.000148657 -0.000163447 0)
(-6.1967e-05 -4.80955e-05 0)
(-1.47376e-05 2.52743e-05 0)
(-8.20882e-08 3.75825e-05 0)
(-2.73849e-06 -3.45141e-05 0)
(-3.10537e-05 1.56751e-05 0)
(-0.000105367 0.000142416 0)
(-0.000229689 0.000313089 0)
(-0.000408508 0.000512719 0)
(-0.000645282 0.000730702 0)
(-0.000942003 0.000958345 0)
(-0.00129924 0.0011888 0)
(-0.00171648 0.00141674 0)
(-0.00219236 0.00163803 0)
(-0.00272472 0.00184951 0)
(-0.00331079 0.00204885 0)
(-0.00394732 0.00223432 0)
(-0.00463066 0.00240469 0)
(-0.00535688 0.00255914 0)
(-0.00612181 0.00269715 0)
(-0.00692118 0.00281845 0)
(-0.00775058 0.002923 0)
(-0.00860561 0.00301086 0)
(-0.00948185 0.00308228 0)
(-0.0103749 0.00313756 0)
(-0.0112805 0.00317709 0)
(-0.0121943 0.00320134 0)
(-0.0131123 0.0032108 0)
(-0.0140305 0.00320601 0)
(-0.0149449 0.00318754 0)
(-0.0158518 0.00315597 0)
(-0.0167477 0.00311188 0)
(-0.0176292 0.00305587 0)
(-0.0184929 0.00298855 0)
(-0.0193358 0.00291051 0)
(-0.0201549 0.00282233 0)
(-0.0209474 0.00272461 0)
(-0.0217106 0.00261793 0)
(-0.0224422 0.00250284 0)
(-0.0231397 0.0023799 0)
(-0.0238011 0.00224965 0)
(-0.0244243 0.00211263 0)
(-0.0250074 0.00196934 0)
(-0.0255487 0.00182031 0)
(-0.0260467 0.00166603 0)
(-0.0264998 0.00150697 0)
(-0.0269069 0.00134363 0)
(-0.0272667 0.00117648 0)
(-0.0275782 0.00100596 0)
(-0.0278406 0.000832551 0)
(-0.028053 0.000656701 0)
(-0.0282148 0.000478869 0)
(-0.0283256 0.000299504 0)
(-0.0283849 0.000119059 0)
(-0.0283925 -6.20058e-05 0)
(-0.0283484 -0.000243224 0)
(-0.0282526 -0.000424124 0)
(-0.0281051 -0.000604233 0)
(-0.0279064 -0.000783064 0)
(-0.027657 -0.000960119 0)
(-0.0273573 -0.00113489 0)
(-0.0270081 -0.00130685 0)
(-0.0266104 -0.00147546 0)
(-0.0261651 -0.00164019 0)
(-0.0256735 -0.00180047 0)
(-0.025137 -0.00195572 0)
(-0.024557 -0.00210535 0)
(-0.0239353 -0.00224876 0)
(-0.0232737 -0.00238533 0)
(-0.0225743 -0.00251444 0)
(-0.0218393 -0.00263544 0)
(-0.0210711 -0.00274769 0)
(-0.0202723 -0.00285052 0)
(-0.0194456 -0.0029433 0)
(-0.0185939 -0.00302535 0)
(-0.0177205 -0.00309602 0)
(-0.0168285 -0.00315465 0)
(-0.0159214 -0.00320059 0)
(-0.0150029 -0.00323322 0)
(-0.0140768 -0.00325193 0)
(-0.013147 -0.00325612 0)
(-0.0122175 -0.00324525 0)
(-0.0112926 -0.0032188 0)
(-0.0103767 -0.00317631 0)
(-0.0094741 -0.00311738 0)
(-0.00858933 -0.0030417 0)
(-0.00772691 -0.00294902 0)
(-0.0068914 -0.00283924 0)
(-0.00608729 -0.00271236 0)
(-0.00531904 -0.00256859 0)
(-0.00459097 -0.00240831 0)
(-0.00390722 -0.00223217 0)
(-0.00327167 -0.00204114 0)
(-0.00268785 -0.00183661 0)
(-0.00215887 -0.00162044 0)
(-0.00168728 -0.00139516 0)
(-0.00127496 -0.0011641 0)
(-0.000922984 -0.000931645 0)
(-0.000631454 -0.000703488 0)
(-0.000399383 -0.000487016 0)
(-0.000224455 -0.000291745 0)
(-0.000102798 -0.00012978 0)
(-3.00708e-05 -1.6475e-05 0)
(-2.71563e-06 2.71715e-05 0)
(-5.58141e-06 -1.52714e-05 0)
(-4.7361e-05 7.97114e-05 0)
(-0.000148723 0.000257574 0)
(-0.000309839 0.000484577 0)
(-0.000533238 0.000744307 0)
(-0.000821614 0.0010246 0)
(-0.00117627 0.00131553 0)
(-0.00159723 0.00160914 0)
(-0.00208361 0.00189911 0)
(-0.00263367 0.00218051 0)
(-0.00324494 0.00244952 0)
(-0.00391435 0.00270322 0)
(-0.00463836 0.00293945 0)
(-0.00541301 0.00315663 0)
(-0.00623403 0.00335367 0)
(-0.00709694 0.00352987 0)
(-0.00799707 0.00368484 0)
(-0.00892968 0.00381843 0)
(-0.00988997 0.00393074 0)
(-0.0108731 0.00402197 0)
(-0.0118743 0.00409251 0)
(-0.0128889 0.00414282 0)
(-0.0139122 0.00417345 0)
(-0.0149397 0.00418502 0)
(-0.015967 0.00417819 0)
(-0.0169898 0.00415368 0)
(-0.0180041 0.0041122 0)
(-0.0190057 0.00405451 0)
(-0.0199911 0.00398137 0)
(-0.0209565 0.00389354 0)
(-0.0218985 0.00379179 0)
(-0.0228138 0.00367687 0)
(-0.0236993 0.00354953 0)
(-0.0245521 0.00341053 0)
(-0.0253694 0.00326058 0)
(-0.0261487 0.00310041 0)
(-0.0268876 0.00293071 0)
(-0.0275837 0.00275219 0)
(-0.0282351 0.0025655 0)
(-0.0288398 0.00237131 0)
(-0.029396 0.00217028 0)
(-0.0299021 0.00196302 0)
(-0.0303568 0.00175018 0)
(-0.0307586 0.00153236 0)
(-0.0311065 0.00131016 0)
(-0.0313994 0.00108419 0)
(-0.0316365 0.000855041 0)
(-0.0318171 0.000623313 0)
(-0.0319407 0.000389595 0)
(-0.0320068 0.00015448 0)
(-0.0320152 -8.14282e-05 0)
(-0.0319657 -0.000317523 0)
(-0.0318585 -0.000553192 0)
(-0.0316937 -0.000787814 0)
(-0.0314716 -0.00102075 0)
(-0.0311928 -0.00125136 0)
(-0.0308579 -0.00147896 0)
(-0.0304678 -0.00170289 0)
(-0.0300234 -0.00192246 0)
(-0.029526 -0.00213693 0)
(-0.0289768 -0.0023456 0)
(-0.0283774 -0.00254769 0)
(-0.0277296 -0.00274246 0)
(-0.0270351 -0.00292912 0)
(-0.0262962 -0.00310687 0)
(-0.025515 -0.0032749 0)
(-0.024694 -0.00343238 0)
(-0.0238359 -0.00357847 0)
(-0.0229435 -0.00371233 0)
(-0.02202 -0.00383313 0)
(-0.0210685 -0.00394 0)
(-0.0200926 -0.0040321 0)
(-0.0190958 -0.0041086 0)
(-0.018082 -0.00416867 0)
(-0.0170552 -0.00421152 0)
(-0.0160196 -0.00423636 0)
(-0.0149796 -0.00424246 0)
(-0.0139396 -0.00422913 0)
(-0.0129042 -0.00419573 0)
(-0.0118782 -0.00414171 0)
(-0.0108665 -0.00406657 0)
(-0.00987394 -0.00396995 0)
(-0.00890546 -0.00385158 0)
(-0.00796602 -0.00371137 0)
(-0.00706052 -0.00354939 0)
(-0.00619378 -0.00336593 0)
(-0.00537048 -0.00316155 0)
(-0.00459511 -0.00293714 0)
(-0.00387185 -0.00269398 0)
(-0.00320456 -0.00243384 0)
(-0.00259661 -0.0021591 0)
(-0.00205086 -0.00187289 0)
(-0.00156949 -0.00157929 0)
(-0.00115391 -0.00128354 0)
(-0.000804667 -0.000992317 0)
(-0.000521318 -0.00071413 0)
(-0.000302253 -0.000459701 0)
(-0.000144489 -0.000242402 0)
(-4.55319e-05 -7.8851e-05 0)
(-5.29054e-06 8.75341e-06 0)
(-8.20978e-06 1.22576e-05 0)
(-6.31711e-05 0.000165264 0)
(-0.000191533 0.000404841 0)
(-0.000389705 0.000697098 0)
(-0.000658266 0.00102447 0)
(-0.000998899 0.00137375 0)
(-0.00141208 0.00173396 0)
(-0.00189721 0.00209616 0)
(-0.00245287 0.00245319 0)
(-0.00307689 0.00279936 0)
(-0.00376644 0.00313022 0)
(-0.00451812 0.0034423 0)
(-0.00532805 0.003733 0)
(-0.00619196 0.00400038 0)
(-0.00710527 0.00424309 0)
(-0.00806317 0.00446021 0)
(-0.00906068 0.00465124 0)
(-0.0100927 0.00481593 0)
(-0.0111541 0.00495433 0)
(-0.0122396 0.00506668 0)
(-0.0133443 0.0051534 0)
(-0.0144628 0.00521501 0)
(-0.0155904 0.00525217 0)
(-0.016722 0.00526561 0)
(-0.0178529 0.00525614 0)
(-0.0189785 0.00522461 0)
(-0.0200944 0.0051719 0)
(-0.0211961 0.00509893 0)
(-0.0222797 0.00500663 0)
(-0.0233412 0.00489594 0)
(-0.0243767 0.0047678 0)
(-0.0253829 0.00462317 0)
(-0.0263561 0.00446296 0)
(-0.0272933 0.0042881 0)
(-0.0281915 0.0040995 0)
(-0.0290479 0.00389807 0)
(-0.0298597 0.00368466 0)
(-0.0306245 0.00346016 0)
(-0.0313402 0.00322539 0)
(-0.0320044 0.0029812 0)
(-0.0326154 0.00272839 0)
(-0.0331714 0.00246776 0)
(-0.0336708 0.0022001 0)
(-0.0341122 0.00192618 0)
(-0.0344942 0.00164676 0)
(-0.0348159 0.0013626 0)
(-0.0350763 0.00107445 0)
(-0.0352746 0.000783059 0)
(-0.0354102 0.000489173 0)
(-0.0354827 0.000193545 0)
(-0.0354918 -0.000103067 0)
(-0.0354374 -0.000399902 0)
(-0.0353195 -0.000696189 0)
(-0.0351383 -0.000991141 0)
(-0.0348943 -0.00128396 0)
(-0.0345879 -0.00157382 0)
(-0.03422 -0.0018599 0)
(-0.0337914 -0.00214134 0)
(-0.0333032 -0.00241727 0)
(-0.0327567 -0.0026868 0)
(-0.0321534 -0.002949 0)
(-0.031495 -0.00320294 0)
(-0.0307833 -0.00344767 0)
(-0.0300204 -0.0036822 0)
(-0.0292086 -0.00390553 0)
(-0.0283503 -0.00411666 0)
(-0.0274483 -0.00431454 0)
(-0.0265055 -0.00449815 0)
(-0.0255249 -0.00466642 0)
(-0.02451 -0.00481832 0)
(-0.0234643 -0.00495278 0)
(-0.0223915 -0.00506877 0)
(-0.0212957 -0.00516524 0)
(-0.0201809 -0.00524118 0)
(-0.0190515 -0.00529562 0)
(-0.0179121 -0.00532759 0)
(-0.0167674 -0.00533622 0)
(-0.0156222 -0.00532066 0)
(-0.0144815 -0.00528014 0)
(-0.0133506 -0.00521401 0)
(-0.0122345 -0.00512169 0)
(-0.0111386 -0.00500277 0)
(-0.0100682 -0.00485697 0)
(-0.00902863 -0.00468421 0)
(-0.00802509 -0.00448462 0)
(-0.00706278 -0.00425864 0)
(-0.00614673 -0.004007 0)
(-0.00528172 -0.00373082 0)
(-0.00447228 -0.00343172 0)
(-0.00372255 -0.00311187 0)
(-0.00303625 -0.00277415 0)
(-0.00241654 -0.00242228 0)
(-0.001866 -0.00206104 0)
(-0.00138645 -0.00169645 0)
(-0.000978964 -0.00133609 0)
(-0.000643779 -0.000989391 0)
(-0.000380102 -0.000668067 0)
(-0.000185944 -0.000386443 0)
(-6.07177e-05 -0.000161996 0)
(-7.74903e-06 -1.75637e-05 0)
(-1.06497e-05 4.77176e-05 0)
(-7.83491e-05 0.000271869 0)
(-0.000233189 0.000584077 0)
(-0.000468118 0.000950649 0)
(-0.000781714 0.00135344 0)
(-0.00117457 0.00177844 0)
(-0.0016463 0.00221384 0)
(-0.00219554 0.00264992 0)
(-0.00282026 0.00307879 0)
(-0.0035178 0.00349409 0)
(-0.00428491 0.00389076 0)
(-0.00511781 0.00426484 0)
(-0.00601226 0.00461331 0)
(-0.00696367 0.00493387 0)
(-0.00796713 0.0052249 0)
(-0.00901753 0.00548529 0)
(-0.0101095 0.00571437 0)
(-0.0112378 0.00591185 0)
(-0.0123967 0.00607769 0)
(-0.0135809 0.00621217 0)
(-0.0147849 0.00631572 0)
(-0.0160032 0.00638895 0)
(-0.0172306 0.00643262 0)
(-0.0184617 0.00644757 0)
(-0.0196915 0.00643474 0)
(-0.0209152 0.00639514 0)
(-0.0221277 0.00632983 0)
(-0.0233247 0.00623988 0)
(-0.0245016 0.00612642 0)
(-0.0256543 0.00599057 0)
(-0.0267787 0.00583347 0)
(-0.0278709 0.00565625 0)
(-0.0289273 0.00546004 0)
(-0.0299445 0.00524596 0)
(-0.0309192 0.0050151 0)
(-0.0318484 0.00476856 0)
(-0.0327292 0.0045074 0)
(-0.0335591 0.00423267 0)
(-0.0343354 0.0039454 0)
(-0.035056 0.00364661 0)
(-0.0357188 0.00333729 0)
(-0.0363219 0.0030184 0)
(-0.0368636 0.00269091 0)
(-0.0373423 0.00235577 0)
(-0.0377567 0.00201391 0)
(-0.0381055 0.00166626 0)
(-0.0383879 0.00131373 0)
(-0.0386029 0.000957248 0)
(-0.03875 0.000597723 0)
(-0.0388286 0.000236079 0)
(-0.0388384 -0.000126758 0)
(-0.0387793 -0.000489853 0)
(-0.0386514 -0.000852262 0)
(-0.0384549 -0.00121302 0)
(-0.0381902 -0.00157115 0)
(-0.0378579 -0.00192566 0)
(-0.0374588 -0.00227552 0)
(-0.0369939 -0.0026197 0)
(-0.0364644 -0.00295712 0)
(-0.0358717 -0.0032867 0)
(-0.0352173 -0.00360732 0)
(-0.0345031 -0.00391783 0)
(-0.0337311 -0.00421707 0)
(-0.0329035 -0.00450386 0)
(-0.0320228 -0.00477697 0)
(-0.0310917 -0.00503517 0)
(-0.030113 -0.00527721 0)
(-0.0290899 -0.00550184 0)
(-0.0280259 -0.00570778 0)
(-0.0269243 -0.00589376 0)
(-0.0257892 -0.0060585 0)
(-0.0246245 -0.00620076 0)
(-0.0234344 -0.00631928 0)
(-0.0222235 -0.00641285 0)
(-0.0209964 -0.0064803 0)
(-0.019758 -0.0065205 0)
(-0.0185133 -0.00653238 0)
(-0.0172675 -0.00651495 0)
(-0.016026 -0.00646734 0)
(-0.0147943 -0.00638875 0)
(-0.0135779 -0.00627854 0)
(-0.0123824 -0.00613626 0)
(-0.0112135 -0.0059616 0)
(-0.0100769 -0.00575452 0)
(-0.00897812 -0.00551523 0)
(-0.0079227 -0.00524429 0)
(-0.00691596 -0.00494262 0)
(-0.00596303 -0.0046116 0)
(-0.00506876 -0.00425316 0)
(-0.00423762 -0.00386987 0)
(-0.00347366 -0.0034651 0)
(-0.00278044 -0.00304313 0)
(-0.00216095 -0.00260937 0)
(-0.00161754 -0.00217055 0)
(-0.00115186 -0.001735 0)
(-0.000764902 -0.00131295 0)
(-0.000456768 -0.000916872 0)
(-0.000226507 -0.000561762 0)
(-7.54151e-05 -0.000265627 0)
(-1.00741e-05 -5.15342e-05 0)
(-1.29317e-05 9.07235e-05 0)
(-9.28299e-05 0.000398932 0)
(-0.000273427 0.000794644 0)
(-0.00054441 0.00124476 0)
(-0.000902428 0.00173087 0)
(-0.00134704 0.00223838 0)
(-0.00187688 0.00275491 0)
(-0.00248978 0.0032701 0)
(-0.00318307 0.00377546 0)
(-0.00395351 0.00426402 0)
(-0.00479737 0.00473023 0)
(-0.00571045 0.00516966 0)
(-0.00668815 0.00557887 0)
(-0.00772551 0.00595528 0)
(-0.0088173 0.00629697 0)
(-0.00995807 0.00660265 0)
(-0.0111422 0.0068715 0)
(-0.012364 0.00710314 0)
(-0.0136176 0.00729751 0)
(-0.0148973 0.00745487 0)
(-0.0161972 0.0075757 0)
(-0.0175117 0.00766068 0)
(-0.0188351 0.00771065 0)
(-0.0201619 0.0077266 0)
(-0.0214866 0.0077096 0)
(-0.0228041 0.00766082 0)
(-0.0241093 0.00758148 0)
(-0.0253973 0.00747285 0)
(-0.0266634 0.00733624 0)
(-0.0279031 0.00717296 0)
(-0.0291121 0.00698437 0)
(-0.0302864 0.0067718 0)
(-0.031422 0.00653657 0)
(-0.0325152 0.00628 0)
(-0.0335627 0.00600342 0)
(-0.0345612 0.00570811 0)
(-0.0355076 0.00539533 0)
(-0.0363992 0.00506635 0)
(-0.0372332 0.00472238 0)
(-0.0380073 0.00436463 0)
(-0.0387193 0.00399428 0)
(-0.0393671 0.00361251 0)
(-0.0399489 0.00322045 0)
(-0.0404631 0.00281925 0)
(-0.0409081 0.00241001 0)
(-0.0412828 0.00199385 0)
(-0.0415861 0.00157186 0)
(-0.041817 0.00114515 0)
(-0.041975 0.000714814 0)
(-0.0420594 0.000281953 0)
(-0.04207 -0.000152322 0)
(-0.0420066 -0.000586894 0)
(-0.0418693 -0.00102063 0)
(-0.0416583 -0.00145238 0)
(-0.0413741 -0.00188097 0)
(-0.0410173 -0.00230521 0)
(-0.0405888 -0.00272388 0)
(-0.0400895 -0.00313574 0)
(-0.0395209 -0.00353952 0)