/*--------------------------------*- C++ -*----------------------------------*\
| =========                 |                                                 |
| \\      /  F ield         | OpenFOAM: The Open Source CFD Toolbox           |
|  \\    /   O peration     | Version:  2212                                  |
|   \\  /    A nd           | Website:  www.openfoam.com                      |
|    \\/     M anipulation  |                                                 |
\*---------------------------------------------------------------------------*/
FoamFile
{
    version     2.0;
    format      ascii;
    arch        "LSB;label=32;scalar=64";
    class       volVectorField;
    location    "0.0235";
    object      U_0;
}
// * * * * * * * * * * * * * * * * * * * * * * * * * * * * * * * * * * * * * //

dimensions      [0 1 -1 0 0 0 0];

internalField   nonuniform List<vector> 
10000
(
(7.70315e-07 -4.89558e-06 0)
(1.26352e-05 -8.57606e-06 0)
(2.53311e-05 -6.73329e-06 0)
(3.64905e-05 -4.73489e-06 0)
(3.97424e-05 -2.1438e-06 0)
(3.54264e-05 6.48619e-07 0)
(2.29225e-05 3.45517e-06 0)
(2.13564e-06 6.17267e-06 0)
(-2.67524e-05 8.74515e-06 0)
(-6.33745e-05 1.11467e-05 0)
(-0.00010728 1.33708e-05 0)
(-0.000157962 1.5409e-05 0)
(-0.000214864 1.72464e-05 0)
(-0.000277415 1.88792e-05 0)
(-0.000345039 2.03193e-05 0)
(-0.000417168 2.15838e-05 0)
(-0.000493237 2.26825e-05 0)
(-0.000572693 2.36144e-05 0)
(-0.000655 2.43829e-05 0)
(-0.000739643 2.49958e-05 0)
(-0.000826123 2.54612e-05 0)
(-0.000913965 2.57905e-05 0)
(-0.00100271 2.59878e-05 0)
(-0.00109191 2.6056e-05 0)
(-0.00118116 2.60045e-05 0)
(-0.00127004 2.58379e-05 0)
(-0.00135817 2.55595e-05 0)
(-0.00144521 2.5179e-05 0)
(-0.0015308 2.47032e-05 0)
(-0.00161462 2.41357e-05 0)
(-0.00169637 2.34837e-05 0)
(-0.00177578 2.27543e-05 0)
(-0.00185256 2.19514e-05 0)
(-0.00192648 2.10792e-05 0)
(-0.0019973 2.01421e-05 0)
(-0.00206479 1.91424e-05 0)
(-0.00212875 1.80834e-05 0)
(-0.00218901 1.69733e-05 0)
(-0.00224537 1.58192e-05 0)
(-0.00229769 1.4623e-05 0)
(-0.00234582 1.33849e-05 0)
(-0.00238963 1.2109e-05 0)
(-0.00242899 1.08018e-05 0)
(-0.0024638 9.46738e-06 0)
(-0.00249397 8.10734e-06 0)
(-0.00251941 6.72372e-06 0)
(-0.00254005 5.32091e-06 0)
(-0.00255583 3.90356e-06 0)
(-0.00256671 2.47399e-06 0)
(-0.00257264 1.03376e-06 0)
(-0.0025736 -4.14251e-07 0)
(-0.00256957 -1.86564e-06 0)
(-0.00256056 -3.31556e-06 0)
(-0.00254656 -4.76027e-06 0)
(-0.00252762 -6.19703e-06 0)
(-0.00250376 -7.62251e-06 0)
(-0.00247504 -9.03227e-06 0)
(-0.00244152 -1.04214e-05 0)
(-0.00240328 -1.17851e-05 0)
(-0.00236041 -1.31199e-05 0)
(-0.00231302 -1.44226e-05 0)
(-0.00226123 -1.56885e-05 0)
(-0.00220519 -1.6912e-05 0)
(-0.00214506 -1.80868e-05 0)
(-0.002081 -1.92073e-05 0)
(-0.00201321 -2.02688e-05 0)
(-0.0019419 -2.1267e-05 0)
(-0.0018673 -2.21969e-05 0)
(-0.00178966 -2.30527e-05 0)
(-0.00170924 -2.38285e-05 0)
(-0.00162634 -2.45178e-05 0)
(-0.00154125 -2.51144e-05 0)
(-0.0014543 -2.56124e-05 0)
(-0.00136584 -2.60072e-05 0)
(-0.00127623 -2.62935e-05 0)
(-0.00118585 -2.64649e-05 0)
(-0.00109512 -2.65143e-05 0)
(-0.00100445 -2.64342e-05 0)
(-0.000914305 -2.62166e-05 0)
(-0.000825147 -2.58545e-05 0)
(-0.000737464 -2.53416e-05 0)
(-0.000651762 -2.46732e-05 0)
(-0.000568561 -2.38445e-05 0)
(-0.000488396 -2.28509e-05 0)
(-0.000411815 -2.16873e-05 0)
(-0.000339378 -2.03485e-05 0)
(-0.000271651 -1.88291e-05 0)
(-0.000209205 -1.7125e-05 0)
(-0.000152608 -1.52348e-05 0)
(-0.000102416 -1.31593e-05 0)
(-5.91627e-05 -1.09021e-05 0)
(-2.33417e-05 -8.47108e-06 0)
(4.62127e-06 -5.88411e-06 0)
(2.44079e-05 -3.17738e-06 0)
(3.58789e-05 -4.20626e-07 0)
(3.91931e-05 2.25329e-06 0)
(3.49809e-05 4.59314e-06 0)
(2.47269e-05 6.11232e-06 0)
(1.19205e-05 5.89824e-06 0)
(2.75101e-06 2.7532e-06 0)
(3.24099e-06 -1.14358e-05 0)
(1.86091e-05 -2.47368e-05 0)
(3.75972e-05 -2.05416e-05 0)
(4.69756e-05 -1.06745e-05 0)
(4.03054e-05 2.84439e-06 0)
(1.47704e-05 1.81504e-05 0)
(-3.13176e-05 3.4112e-05 0)
(-9.8579e-05 5.00326e-05 0)
(-0.000186873 6.54744e-05 0)
(-0.000295565 8.0167e-05 0)
(-0.00042368 9.39441e-05 0)
(-0.000570018 0.000106711 0)
(-0.000733233 0.0001184 0)
(-0.000911882 0.000128971 0)
(-0.00110449 0.000138414 0)
(-0.00130954 0.000146744 0)
(-0.00152555 0.000153986 0)
(-0.00175102 0.000160165 0)
(-0.00198449 0.000165306 0)
(-0.00222454 0.000169445 0)
(-0.00246979 0.000172621 0)
(-0.00271891 0.000174867 0)
(-0.0029706 0.000176226 0)
(-0.00322364 0.000176735 0)
(-0.00347685 0.000176428 0)
(-0.00372908 0.000175344 0)
(-0.00397927 0.000173527 0)
(-0.0042264 0.000171015 0)
(-0.00446948 0.000167847 0)
(-0.00470761 0.000164058 0)
(-0.00493993 0.000159687 0)
(-0.00516561 0.000154771 0)
(-0.00538388 0.000149341 0)
(-0.00559405 0.00014343 0)
(-0.00579543 0.000137068 0)
(-0.00598738 0.000130287 0)
(-0.00616933 0.000123114 0)
(-0.00634073 0.000115582 0)
(-0.0065011 0.000107723 0)
(-0.00664996 9.95623e-05 0)
(-0.00678689 9.11243e-05 0)
(-0.00691152 8.24345e-05 0)
(-0.0070235 7.3519e-05 0)
(-0.00712252 6.44025e-05 0)
(-0.0072083 5.51083e-05 0)
(-0.0072806 4.56603e-05 0)
(-0.00733923 3.6083e-05 0)
(-0.00738401 2.63998e-05 0)
(-0.00741479 1.66315e-05 0)
(-0.00743148 6.79937e-06 0)
(-0.00743401 -3.07281e-06 0)
(-0.00742235 -1.29598e-05 0)
(-0.00739649 -2.28358e-05 0)
(-0.00735647 -3.26759e-05 0)
(-0.00730235 -4.24557e-05 0)
(-0.00723426 -5.21486e-05 0)
(-0.00715234 -6.17261e-05 0)
(-0.00705679 -7.11596e-05 0)
(-0.00694782 -8.0421e-05 0)
(-0.00682571 -8.94818e-05 0)
(-0.00669078 -9.83129e-05 0)
(-0.00654339 -0.000106882 0)
(-0.00638393 -0.000115156 0)
(-0.00621288 -0.000123097 0)
(-0.00603072 -0.000130672 0)
(-0.005838 -0.000137845 0)
(-0.00563533 -0.000144583 0)
(-0.00542337 -0.000150849 0)
(-0.00520283 -0.000156605 0)
(-0.00497446 -0.000161813 0)
(-0.00473908 -0.000166433 0)
(-0.00449756 -0.000170426 0)
(-0.00425083 -0.000173755 0)
(-0.00399986 -0.000176381 0)
(-0.0037457 -0.000178264 0)
(-0.00348943 -0.000179364 0)
(-0.0032322 -0.000179639 0)
(-0.00297522 -0.000179046 0)
(-0.00271975 -0.000177546 0)
(-0.00246707 -0.000175102 0)
(-0.00221856 -0.000171678 0)
(-0.00197559 -0.000167243 0)
(-0.00173962 -0.000161768 0)
(-0.0015121 -0.000155227 0)
(-0.00129452 -0.000147599 0)
(-0.0010884 -0.000138869 0)
(-0.000895249 -0.000129026 0)
(-0.000716555 -0.000118075 0)
(-0.000553787 -0.000106033 0)
(-0.000408343 -9.29423e-05 0)
(-0.000281521 -7.88746e-05 0)
(-0.000174455 -6.39456e-05 0)
(-8.80415e-05 -4.83406e-05 0)
(-2.28144e-05 -3.23559e-05 0)
(2.12247e-05 -1.64665e-05 0)
(4.48616e-05 -1.43773e-06 0)
(4.99857e-05 1.14928e-05 0)
(4.01146e-05 2.03252e-05 0)
(2.1878e-05 2.18854e-05 0)
(5.88504e-06 1.19065e-05 0)
(5.31997e-06 -2.39493e-05 0)
(1.88762e-05 -4.07383e-05 0)
(2.88142e-05 -3.05231e-05 0)
(2.33347e-05 -4.7262e-06 0)
(-5.77993e-06 3.02098e-05 0)
(-6.28069e-05 7.0143e-05 0)
(-0.000150205 0.000112299 0)
(-0.000269044 0.000154835 0)
(-0.000419356 0.00019652 0)
(-0.000600393 0.00023652 0)
(-0.000810888 0.000274299 0)
(-0.0010492 0.000309504 0)
(-0.0013134 0.000341909 0)
(-0.00160141 0.000371373 0)
(-0.00191102 0.000397826 0)
(-0.00223999 0.000421255 0)
(-0.00258603 0.00044168 0)
(-0.00294689 0.000459155 0)
(-0.0033203 0.000473744 0)
(-0.00370406 0.000485521 0)
(-0.00409602 0.000494584 0)
(-0.00449409 0.000501028 0)
(-0.00489624 0.000504945 0)
(-0.00530053 0.000506442 0)
(-0.00570509 0.000505626 0)
(-0.00610813 0.000502599 0)
(-0.00650794 0.000497471 0)
(-0.0069029 0.000490354 0)
(-0.00729144 0.000481351 0)
(-0.00767212 0.000470566 0)
(-0.00804354 0.000458103 0)
(-0.0084044 0.000444061 0)
(-0.00875347 0.000428534 0)
(-0.00908958 0.000411615 0)
(-0.00941166 0.000393397 0)
(-0.00971871 0.000373967 0)
(-0.0100098 0.000353411 0)
(-0.010284 0.000331816 0)
(-0.0105405 0.000309265 0)
(-0.0107787 0.000285836 0)
(-0.0109978 0.000261605 0)
(-0.0111972 0.000236645 0)
(-0.0113763 0.000211029 0)
(-0.0115347 0.00018483 0)
(-0.0116718 0.000158118 0)
(-0.0117874 0.000130963 0)
(-0.0118811 0.000103432 0)
(-0.0119526 7.55935e-05 0)
(-0.0120017 4.75133e-05 0)
(-0.0120283 1.92578e-05 0)
(-0.0120321 -9.10369e-06 0)
(-0.0120133 -3.75004e-05 0)
(-0.0119717 -6.58612e-05 0)
(-0.0119074 -9.41135e-05 0)
(-0.0118206 -0.000122183 0)
(-0.0117115 -0.000149995 0)
(-0.0115803 -0.000177468 0)
(-0.0114272 -0.000204521 0)
(-0.0112527 -0.000231075 0)
(-0.0110573 -0.000257044 0)
(-0.0108413 -0.00028234 0)
(-0.0106055 -0.000306875 0)
(-0.0103504 -0.000330551 0)
(-0.0100768 -0.000353272 0)
(-0.00978553 -0.000374938 0)
(-0.00947742 -0.000395449 0)
(-0.00915345 -0.000414704 0)
(-0.00881468 -0.000432598 0)
(-0.00846225 -0.000449024 0)
(-0.00809737 -0.000463874 0)
(-0.00772135 -0.000477036 0)
(-0.00733557 -0.000488402 0)
(-0.00694151 -0.000497861 0)
(-0.00654074 -0.000505304 0)
(-0.00613491 -0.00051062 0)
(-0.00572576 -0.000513695 0)
(-0.0053151 -0.000514419 0)
(-0.00490485 -0.000512683 0)
(-0.00449696 -0.000508381 0)
(-0.0040935 -0.000501418 0)
(-0.00369658 -0.000491703 0)
(-0.00330838 -0.000479152 0)
(-0.00293113 -0.000463694 0)
(-0.0025671 -0.000445271 0)
(-0.00221859 -0.00042384 0)
(-0.0018879 -0.00039938 0)
(-0.00157733 -0.000371897 0)
(-0.00128911 -0.000341433 0)
(-0.00102542 -0.000308082 0)
(-0.000788299 -0.000272008 0)
(-0.000579581 -0.000233469 0)
(-0.00040083 -0.000192857 0)
(-0.0002532 -0.000150758 0)
(-0.000137281 -0.000108045 0)
(-5.28707e-05 -6.60172e-05 0)
(1.31766e-06 -2.66074e-05 0)
(2.79878e-05 7.31415e-06 0)
(3.17331e-05 3.15588e-05 0)
(2.04009e-05 4.01408e-05 0)
(6.11181e-06 2.4704e-05 0)
(4.16388e-06 -3.25011e-05 0)
(1.05595e-05 -4.88494e-05 0)
(4.92722e-06 -2.47448e-05 0)
(-2.37799e-05 2.44933e-05 0)
(-8.36351e-05 8.91299e-05 0)
(-0.000179417 0.000162621 0)
(-0.000313927 0.000240376 0)
(-0.000488448 0.000319185 0)
(-0.000703083 0.000396808 0)
(-0.000957024 0.000471672 0)
(-0.00124878 0.000542681 0)
(-0.00157638 0.000609102 0)
(-0.00193749 0.000670451 0)
(-0.00232952 0.000726413 0)
(-0.0027497 0.000776808 0)
(-0.00319518 0.00082156 0)
(-0.00366303 0.000860668 0)
(-0.00415033 0.000894188 0)
(-0.00465415 0.000922224 0)
(-0.00517162 0.000944904 0)
(-0.0056999 0.000962376 0)
(-0.00623625 0.000974814 0)
(-0.00677799 0.000982398 0)
(-0.00732254 0.000985311 0)
(-0.00786741 0.000983752 0)
(-0.00841022 0.00097792 0)
(-0.00894868 0.000968016 0)
(-0.00948061 0.000954243 0)
(-0.0100039 0.000936804 0)
(-0.0105167 0.000915897 0)
(-0.011017 0.000891713 0)
(-0.0115032 0.000864446 0)
(-0.0119734 0.000834282 0)
(-0.0124263 0.000801401 0)
(-0.0128602 0.000765977 0)
(-0.013274 0.000728184 0)
(-0.0136662 0.000688191 0)
(-0.0140357 0.000646164 0)
(-0.0143814 0.00060226 0)
(-0.0147023 0.000556634 0)
(-0.0149976 0.000509437 0)
(-0.0152662 0.000460813 0)
(-0.0155076 0.000410906 0)
(-0.015721 0.000359855 0)
(-0.0159058 0.0003078 0)
(-0.0160614 0.000254878 0)
(-0.0161876 0.000201221 0)
(-0.0162838 0.000146964 0)
(-0.0163498 9.22398e-05 0)
(-0.0163854 3.71814e-05 0)
(-0.0163904 -1.80754e-05 0)
(-0.0163648 -7.33933e-05 0)
(-0.0163085 -0.000128634 0)
(-0.0162217 -0.000183654 0)
(-0.0161045 -0.00023831 0)
(-0.0159572 -0.000292449 0)
(-0.0157801 -0.000345921 0)
(-0.0155737 -0.000398568 0)
(-0.0153384 -0.00045023 0)
(-0.0150749 -0.000500743 0)
(-0.0147838 -0.000549933 0)
(-0.0144659 -0.000597625 0)
(-0.0141222 -0.000643636 0)
(-0.0137536 -0.00068778 0)
(-0.0133611 -0.000729866 0)
(-0.0129461 -0.000769699 0)
(-0.0125098 -0.000807079 0)
(-0.0120536 -0.000841805 0)
(-0.0115791 -0.000873668 0)
(-0.0110879 -0.000902461 0)
(-0.0105817 -0.000927971 0)
(-0.0100624 -0.000949987 0)
(-0.00953208 -0.000968298 0)
(-0.00899271 -0.000982692 0)
(-0.00844655 -0.000992958 0)
(-0.00789592 -0.000998886 0)
(-0.00734324 -0.00100027 0)
(-0.00679105 -0.00099691 0)
(-0.00624196 -0.000988616 0)
(-0.00569868 -0.000975211 0)
(-0.00516402 -0.000956533 0)
(-0.00464084 -0.000932439 0)
(-0.00413206 -0.000902807 0)
(-0.00364064 -0.000867545 0)
(-0.00316957 -0.000826597 0)
(-0.00272181 -0.000779953 0)
(-0.00230031 -0.000727662 0)
(-0.00190791 -0.00066985 0)
(-0.00154734 -0.000606746 0)
(-0.00122113 -0.000538715 0)
(-0.000931532 -0.000466307 0)
(-0.000680395 -0.000390326 0)
(-0.000469052 -0.000311925 0)
(-0.000298126 -0.00023275 0)
(-0.000167298 -0.000155137 0)
(-7.50303e-05 -8.24033e-05 0)
(-1.82509e-05 -1.92232e-05 0)
(8.05024e-06 2.79291e-05 0)
(1.18073e-05 5.02126e-05 0)
(4.63994e-06 3.50285e-05 0)
(2.0374e-06 -3.6685e-05 0)
(-1.97308e-06 -4.26219e-05 0)
(-2.84644e-05 3.77475e-06 0)
(-8.63807e-05 8.41502e-05 0)
(-0.000182901 0.000186041 0)
(-0.000322761 0.000300686 0)
(-0.000508755 0.00042172 0)
(-0.000742141 0.000544533 0)
(-0.00102298 0.000665792 0)
(-0.00135036 0.000783091 0)
(-0.00172261 0.000894698 0)
(-0.00213746 0.000999388 0)
(-0.00259225 0.00109633 0)
(-0.00308399 0.00118497 0)
(-0.00360946 0.00126497 0)
(-0.00416529 0.00133615 0)
(-0.00474804 0.00139848 0)
(-0.00535421 0.00145198 0)
(-0.00598031 0.00149679 0)
(-0.00662289 0.00153307 0)
(-0.00727853 0.00156105 0)
(-0.00794389 0.00158097 0)
(-0.00861573 0.0015931 0)
(-0.0092909 0.00159773 0)
(-0.00996636 0.00159517 0)
(-0.0106392 0.00158572 0)
(-0.0113066 0.0015697 0)
(-0.0119659 0.00154743 0)
(-0.0126145 0.00151921 0)
(-0.01325 0.00148538 0)
(-0.0138701 0.00144623 0)
(-0.0144726 0.00140208 0)
(-0.0150555 0.00135322 0)
(-0.0156168 0.00129994 0)
(-0.0161547 0.00124253 0)
(-0.0166675 0.00118127 0)
(-0.0171537 0.00111643 0)
(-0.0176118 0.00104827 0)
(-0.0180403 0.000977055 0)
(-0.0184382 0.000903034 0)
(-0.0188041 0.000826449 0)
(-0.0191371 0.00074754 0)
(-0.0194363 0.00066654 0)
(-0.0197007 0.00058368 0)
(-0.0199297 0.000499185 0)
(-0.0201226 0.000413276 0)
(-0.0202788 0.000326175 0)
(-0.020398 0.000238099 0)
(-0.0204796 0.000149268 0)
(-0.0205235 5.99031e-05 0)
(-0.0205295 -2.97762e-05 0)
(-0.0204975 -0.000119547 0)
(-0.0204275 -0.000209181 0)
(-0.0203197 -0.000298446 0)
(-0.0201742 -0.000387106 0)
(-0.0199913 -0.000474917 0)
(-0.0197716 -0.000561631 0)
(-0.0195155 -0.000646994 0)
(-0.0192237 -0.000730745 0)
(-0.0188968 -0.000812615 0)
(-0.0185359 -0.000892325 0)
(-0.0181418 -0.00096959 0)
(-0.0177157 -0.00104412 0)
(-0.0172588 -0.0011156 0)
(-0.0167724 -0.00118374 0)
(-0.0162582 -0.00124822 0)
(-0.0157175 -0.00130871 0)
(-0.0151523 -0.00136489 0)
(-0.0145645 -0.00141643 0)
(-0.013956 -0.001463 0)
(-0.0133289 -0.00150424 0)
(-0.0126858 -0.00153983 0)
(-0.0120288 -0.00156943 0)
(-0.0113608 -0.00159269 0)
(-0.0106843 -0.00160929 0)
(-0.0100022 -0.0016189 0)
(-0.00931745 -0.0016212 0)
(-0.0086332 -0.00161587 0)
(-0.00795263 -0.00160263 0)
(-0.00727904 -0.00158121 0)
(-0.00661581 -0.00155137 0)
(-0.00596641 -0.00151289 0)
(-0.00533438 -0.00146562 0)
(-0.00472326 -0.00140942 0)
(-0.00413662 -0.00134425 0)
(-0.003578 -0.00127013 0)
(-0.00305087 -0.00118719 0)
(-0.00255858 -0.00109567 0)
(-0.00210432 -0.000996008 0)
(-0.00169099 -0.000888831 0)
(-0.00132116 -0.00077507 0)
(-0.000996955 -0.000656037 0)
(-0.000719847 -0.000533556 0)
(-0.000490543 -0.000410149 0)
(-0.000308745 -0.000289276 0)
(-0.000172911 -0.000175668 0)
(-7.99679e-05 -7.57612e-05 0)
(-2.4975e-05 1.8277e-06 0)
(-7.33555e-07 4.5652e-05 0)
(2.38107e-06 3.94828e-05 0)
(-4.92956e-07 -3.33656e-05 0)
(-1.66389e-05 -1.81534e-05 0)
(-6.7234e-05 5.95626e-05 0)
(-0.000158278 0.000179062 0)
(-0.000295494 0.000325631 0)
(-0.000483169 0.000488552 0)
(-0.000723802 0.000659823 0)
(-0.00101842 0.000833468 0)
(-0.00136689 0.00100506 0)
(-0.00176811 0.00117132 0)
(-0.00222022 0.00132981 0)
(-0.0027207 0.0014788 0)
(-0.00326658 0.00161704 0)
(-0.00385452 0.00174367 0)
(-0.00448092 0.00185815 0)
(-0.00514199 0.00196018 0)
(-0.00583384 0.00204963 0)
(-0.00655249 0.00212651 0)
(-0.00729397 0.00219095 0)
(-0.0080543 0.00224316 0)
(-0.00882957 0.00228342 0)
(-0.00961594 0.00231206 0)
(-0.0104096 0.00232944 0)
(-0.011207 0.00233598 0)
(-0.0120046 0.00233208 0)
(-0.0127989 0.00231818 0)
(-0.0135867 0.00229473 0)
(-0.0143648 0.00226217 0)
(-0.0151302 0.00222095 0)
(-0.0158802 0.00217154 0)
(-0.016612 0.00211436 0)
(-0.017323 0.00204987 0)
(-0.0180108 0.00197849 0)
(-0.0186732 0.00190065 0)
(-0.019308 0.00181675 0)
(-0.0199131 0.00172722 0)
(-0.0204868 0.00163243 0)
(-0.0210274 0.00153279 0)
(-0.0215331 0.00142866 0)
(-0.0220025 0.00132042 0)
(-0.0224343 0.00120841 0)
(-0.0228272 0.00109299 0)
(-0.0231802 0.000974513 0)
(-0.0234922 0.000853304 0)
(-0.0237623 0.000729696 0)
(-0.0239898 0.000604017 0)
(-0.024174 0.000476593 0)
(-0.0243144 0.000347746 0)
(-0.0244106 0.000217799 0)
(-0.0244622 8.70759e-05 0)
(-0.0244691 -4.40984e-05 0)
(-0.0244311 -0.000175395 0)
(-0.0243483 -0.000306479 0)
(-0.0242208 -0.000437011 0)
(-0.0240488 -0.000566641 0)
(-0.0238329 -0.000695015 0)
(-0.0235734 -0.00082177 0)
(-0.023271 -0.000946532 0)
(-0.0229264 -0.00106892 0)
(-0.0225406 -0.00118854 0)
(-0.0221146 -0.00130498 0)
(-0.0216495 -0.00141783 0)
(-0.0211466 -0.00152667 0)
(-0.0206075 -0.00163104 0)
(-0.0200337 -0.00173052 0)
(-0.019427 -0.00182463 0)
(-0.0187892 -0.00191291 0)
(-0.0181225 -0.00199489 0)
(-0.017429 -0.00207009 0)
(-0.0167113 -0.00213802 0)
(-0.0159717 -0.0021982 0)
(-0.015213 -0.00225013 0)
(-0.0144381 -0.00229332 0)
(-0.0136501 -0.00232731 0)
(-0.012852 -0.0023516 0)
(-0.0120471 -0.00236574 0)
(-0.0112391 -0.00236927 0)
(-0.0104314 -0.00236177 0)
(-0.00962773 -0.00234282 0)
(-0.00883198 -0.00231208 0)
(-0.00804804 -0.0022692 0)
(-0.0072799 -0.00221391 0)
(-0.00653162 -0.00214601 0)
(-0.00580727 -0.00206535 0)
(-0.00511091 -0.0019719 0)
(-0.00444657 -0.00186575 0)
(-0.00381816 -0.00174713 0)
(-0.00322947 -0.00161645 0)
(-0.00268405 -0.00147439 0)
(-0.00218515 -0.00132191 0)
(-0.00173564 -0.00116038 0)
(-0.00133783 -0.000991677 0)
(-0.000993431 -0.000818361 0)
(-0.000703289 -0.000643864 0)
(-0.000467278 -0.000472771 0)
(-0.000284072 -0.000311176 0)
(-0.000150898 -0.00016714 0)
(-6.32564e-05 -5.11713e-05 0)
(-1.52583e-05 2.30876e-05 0)
(-1.84136e-07 3.66592e-05 0)
(-3.1256e-06 -2.20385e-05 0)
(-3.21742e-05 2.63966e-05 0)
(-0.000108613 0.000145287 0)
(-0.000235065 0.000312296 0)
(-0.000415472 0.000510995 0)
(-0.000653368 0.000729039 0)
(-0.000950726 0.000956989 0)
(-0.00130815 0.00118763 0)
(-0.00172519 0.00141549 0)
(-0.00220047 0.00163639 0)
(-0.00273186 0.00184723 0)
(-0.00331659 0.00204569 0)
(-0.00395141 0.00223009 0)
(-0.00463265 0.00239924 0)
(-0.00535636 0.00255236 0)
(-0.00611842 0.00268899 0)
(-0.0069145 0.00280888 0)
(-0.00774024 0.00291201 0)
(-0.00859123 0.00299849 0)
(-0.00946305 0.00306857 0)
(-0.0103513 0.00312258 0)
(-0.0112518 0.00316092 0)
(-0.0121603 0.00318408 0)
(-0.0130726 0.00319255 0)
(-0.0139848 0.0031869 0)
(-0.0148931 0.00316768 0)
(-0.0157938 0.00313548 0)
(-0.0166833 0.00309091 0)
(-0.0175582 0.00303455 0)
(-0.0184153 0.00296702 0)
(-0.0192516 0.00288891 0)
(-0.0200641 0.00280081 0)
(-0.0208501 0.00270331 0)
(-0.021607 0.00259698 0)
(-0.0223323 0.00248238 0)
(-0.0230237 0.00236006 0)
(-0.0236792 0.00223056 0)
(-0.0242968 0.00209441 0)
(-0.0248745 0.00195212 0)
(-0.0254108 0.00180419 0)
(-0.0259041 0.00165111 0)
(-0.026353 0.00149336 0)
(-0.0267562 0.00133142 0)
(-0.0271125 0.00116574 0)
(-0.0274211 0.000996773 0)
(-0.0276809 0.000824977 0)
(-0.0278912 0.000650795 0)
(-0.0280515 0.000474671 0)
(-0.0281612 0.000297048 0)
(-0.02822 0.000118371 0)
(-0.0282276 -6.09131e-05 0)
(-0.028184 -0.000240352 0)
(-0.0280892 -0.000419486 0)
(-0.0279433 -0.000597849 0)
(-0.0277466 -0.000774964 0)
(-0.0274997 -0.000950346 0)
(-0.0272031 -0.0011235 0)
(-0.0268574 -0.00129391 0)
(-0.0264636 -0.00146105 0)
(-0.0260227 -0.00162439 0)
(-0.0255359 -0.00178338 0)
(-0.0250044 -0.00193744 0)
(-0.0244299 -0.002086 0)
(-0.023814 -0.00222846 0)
(-0.0231585 -0.00236421 0)
(-0.0224653 -0.00249263 0)
(-0.0217368 -0.00261309 0)
(-0.0209752 -0.00272495 0)
(-0.0201831 -0.00282755 0)
(-0.0193632 -0.00292024 0)
(-0.0185183 -0.00300236 0)
(-0.0176516 -0.00307326 0)
(-0.0167663 -0.00313227 0)
(-0.0158658 -0.00317877 0)
(-0.0149537 -0.0032121 0)
(-0.0140338 -0.00323166 0)
(-0.0131099 -0.00323685 0)
(-0.0121862 -0.00322711 0)
(-0.0112667 -0.00320191 0)
(-0.0103558 -0.00316079 0)
(-0.00945782 -0.00310334 0)
(-0.00857728 -0.00302921 0)
(-0.00771868 -0.00293815 0)
(-0.00688652 -0.00283004 0)
(-0.00608532 -0.00270487 0)
(-0.00531952 -0.00256281 0)
(-0.00459344 -0.00240422 0)
(-0.00391122 -0.00222973 0)
(-0.00327675 -0.00204027 0)
(-0.0026936 -0.0018372 0)
(-0.00216489 -0.00162235 0)
(-0.00169323 -0.00139821 0)
(-0.00128054 -0.00116808 0)
(-0.00092793 -0.000936285 0)
(-0.000635581 -0.00070849 0)
(-0.000402575 -0.000492039 0)
(-0.00022667 -0.000296416 0)
(-0.000104079 -0.000133718 0)
(-3.05865e-05 -1.93005e-05 0)
(-2.81513e-06 2.59741e-05 0)
(-5.71698e-06 -2.56476e-06 0)
(-4.78392e-05 9.18377e-05 0)
(-0.000150814 0.000262325 0)
(-0.000313756 0.000485575 0)
(-0.000538662 0.000743964 0)
(-0.000828123 0.00102385 0)
(-0.00118339 0.00131461 0)
(-0.00160451 0.00160795 0)
(-0.00209057 0.00189741 0)
(-0.00263985 0.00217802 0)
(-0.00324991 0.00244597 0)
(-0.00391767 0.00269837 0)
(-0.00463958 0.00293311 0)
(-0.00541167 0.00314865 0)
(-0.00622969 0.00334395 0)
(-0.00708914 0.00351834 0)
(-0.00798538 0.00367147 0)
(-0.00891367 0.00380325 0)
(-0.0098692 0.00391377 0)
(-0.0108472 0.00400329 0)
(-0.0118429 0.00407221 0)
(-0.0128515 0.00412099 0)
(-0.0138686 0.00415023 0)
(-0.0148896 0.00416054 0)
(-0.0159101 0.00415261 0)
(-0.0169259 0.00412715 0)
(-0.0179329 0.00408489 0)
(-0.0189272 0.0040266 0)
(-0.0199051 0.00395303 0)
(-0.020863 0.00386496 0)
(-0.0217975 0.00376315 0)
(-0.0227053 0.00364835 0)
(-0.0235834 0.00352132 0)
(-0.024429 0.0033828 0)
(-0.0252392 0.00323352 0)
(-0.0260116 0.00307418 0)
(-0.0267438 0.00290549 0)
(-0.0274336 0.00272812 0)
(-0.0280789 0.00254275 0)
(-0.0286779 0.00235002 0)
(-0.0292288 0.00215058 0)
(-0.0297301 0.00194506 0)
(-0.0301803 0.00173405 0)
(-0.0305782 0.00151817 0)
(-0.0309227 0.00129801 0)
(-0.0312127 0.00107416 0)
(-0.0314475 0.000847206 0)
(-0.0316264 0.000617723 0)
(-0.0317488 0.000386294 0)
(-0.0318143 0.0001535 0)
(-0.0318226 -8.00734e-05 0)
(-0.0317737 -0.000313835 0)
(-0.0316677 -0.000547186 0)
(-0.0315046 -0.000779515 0)
(-0.0312848 -0.0010102 0)
(-0.0310089 -0.00123861 0)
(-0.0306774 -0.0014641 0)
(-0.0302912 -0.00168599 0)
(-0.0298513 -0.00190362 0)
(-0.0293588 -0.00211627 0)
(-0.028815 -0.00232323 0)
(-0.0282215 -0.00252376 0)
(-0.0275798 -0.00271712 0)
(-0.0268918 -0.00290252 0)
(-0.0261597 -0.00307918 0)
(-0.0253856 -0.0032463 0)
(-0.0245719 -0.00340306 0)
(-0.0237213 -0.00354862 0)
(-0.0228366 -0.00368216 0)
(-0.0219207 -0.00380282 0)
(-0.020977 -0.00390976 0)
(-0.0200087 -0.00400214 0)
(-0.0190196 -0.00407913 0)
(-0.0180133 -0.00413989 0)
(-0.0169938 -0.00418362 0)
(-0.0159654 -0.00420955 0)
(-0.0149322 -0.00421692 0)
(-0.0138987 -0.00420503 0)
(-0.0128696 -0.00417324 0)
(-0.0118495 -0.00412096 0)
(-0.0108432 -0.00404771 0)
(-0.00985565 -0.00395307 0)
(-0.0088917 -0.00383679 0)
(-0.0079563 -0.00369872 0)
(-0.00705434 -0.00353892 0)
(-0.00619065 -0.00335766 0)
(-0.00536988 -0.00315546 0)
(-0.00459654 -0.00293317 0)
(-0.00387482 -0.00269203 0)
(-0.00320859 -0.00243378 0)
(-0.00260129 -0.00216076 0)
(-0.00205577 -0.00187605 0)
(-0.00157429 -0.00158367 0)
(-0.00115831 -0.00128882 0)
(-0.000808422 -0.000998142 0)
(-0.000524277 -0.000720072 0)
(-0.000304337 -0.000465299 0)
(-0.000145707 -0.000247175 0)
(-4.60258e-05 -8.23081e-05 0)
(-5.38699e-06 7.28506e-06 0)
(-8.20209e-06 2.49283e-05 0)
(-6.32239e-05 0.000178292 0)
(-0.000192734 0.000411107 0)
(-0.000392393 0.000699596 0)
(-0.000662224 0.00102536 0)
(-0.00100376 0.00137382 0)
(-0.00141739 0.00173338 0)
(-0.0019025 0.00209482 0)
(-0.00245763 0.00245086 0)
(-0.00308062 0.00279576 0)
(-0.00376863 0.00312508 0)
(-0.00451826 0.00343538 0)
(-0.00532564 0.00372411 0)
(-0.0061865 0.00398938 0)
(-0.00709625 0.00422986 0)
(-0.0080501 0.00444471 0)
(-0.00904305 0.00463343 0)
(-0.01007 0.00479585 0)
(-0.0111259 0.00493204 0)
(-0.0122056 0.00504226 0)
(-0.0133038 0.00512696 0)
(-0.0144157 0.0051867 0)
(-0.0155361 0.00522214 0)
(-0.0166603 0.00523404 0)
(-0.0177836 0.00522321 0)
(-0.0189012 0.00519052 0)
(-0.020009 0.00513686 0)
(-0.0211025 0.00506316 0)
(-0.0221777 0.00497036 0)
(-0.0232307 0.0048594 0)
(-0.0242579 0.00473122 0)
(-0.0252556 0.00458677 0)
(-0.0262206 0.00442697 0)
(-0.0271497 0.00425276 0)
(-0.02804 0.00406502 0)
(-0.0288886 0.00386466 0)
(-0.029693 0.00365254 0)
(-0.0304507 0.00342953 0)
(-0.0311596 0.00319644 0)
(-0.0318175 0.00295411 0)
(-0.0324227 0.00270334 0)
(-0.0329733 0.0024449 0)
(-0.0334677 0.00217958 0)
(-0.0339047 0.00190813 0)
(-0.034283 0.00163129 0)
(-0.0346015 0.00134982 0)
(-0.0348593 0.00106445 0)
(-0.0350556 0.000775908 0)
(-0.0351899 0.000484924 0)
(-0.0352618 0.000192233 0)
(-0.0352708 -0.000101425 0)
(-0.035217 -0.000395307 0)
(-0.0351004 -0.000688655 0)
(-0.0349212 -0.000980704 0)
(-0.0346797 -0.00127067 0)
(-0.0343765 -0.00155776 0)
(-0.0340123 -0.00184115 0)
(-0.0335881 -0.00212001 0)
(-0.0331048 -0.00239348 0)
(-0.0325638 -0.00266069 0)
(-0.0319665 -0.00292073 0)
(-0.0313145 -0.00317269 0)
(-0.0306097 -0.00341561 0)
(-0.029854 -0.00364854 0)
(-0.0290498 -0.00387049 0)
(-0.0281995 -0.00408044 0)
(-0.0273056 -0.0042774 0)
(-0.0263711 -0.00446031 0)
(-0.0253991 -0.00462814 0)
(-0.0243928 -0.00477985 0)
(-0.0233557 -0.00491438 0)
(-0.0222916 -0.00503068 0)
(-0.0212043 -0.00512773 0)
(-0.0200979 -0.00520451 0)
(-0.0189768 -0.00526003 0)
(-0.0178455 -0.00529333 0)
(-0.0167085 -0.00530351 0)
(-0.0155708 -0.00528972 0)
(-0.0144373 -0.00525119 0)
(-0.013313 -0.00518721 0)
(-0.0122032 -0.00509722 0)
(-0.0111131 -0.00498076 0)
(-0.010048 -0.00483753 0)
(-0.00901319 -0.00466743 0)
(-0.00801389 -0.00447056 0)
(-0.00705527 -0.0042473 0)
(-0.00614235 -0.00399836 0)
(-0.00527994 -0.00372482 0)
(-0.00447255 -0.00342824 0)
(-0.00372436 -0.00311076 0)
(-0.00303912 -0.00277519 0)
(-0.00242003 -0.00242522 0)
(-0.00186971 -0.00206555 0)
(-0.00139003 -0.00170216 0)
(-0.000982149 -0.00134255 0)
(-0.000646363 -0.000996103 0)
(-0.000381964 -0.000674481 0)
(-0.000187056 -0.000391976 0)
(-6.11807e-05 -0.000166039 0)
(-7.84632e-06 -1.92903e-05 0)
(-1.0553e-05 6.01913e-05 0)
(-7.81057e-05 0.00028544 0)
(-0.000233727 0.000591452 0)
(-0.00046976 0.000954339 0)
(-0.000784298 0.00135529 0)
(-0.0011778 0.00177908 0)
(-0.00164971 0.00221336 0)
(-0.00219863 0.00264818 0)
(-0.0028225 0.00307553 0)
(-0.00351866 0.00348903 0)
(-0.00428383 0.00388363 0)
(-0.00511422 0.0042554 0)
(-0.00600561 0.00460136 0)
(-0.00695341 0.00491928 0)
(-0.00795271 0.00520756 0)
(-0.00899839 0.00546515 0)
(-0.0100852 0.00569143 0)
(-0.0112076 0.00588614 0)
(-0.0123603 0.0060493 0)
(-0.0135378 0.00618121 0)
(-0.0147346 0.00628233 0)
(-0.0159453 0.0063533 0)
(-0.0171647 0.0063949 0)
(-0.0183875 0.006408 0)
(-0.0196088 0.00639355 0)
(-0.0208235 0.00635258 0)
(-0.0220271 0.00628614 0)
(-0.0232149 0.00619534 0)
(-0.0243825 0.00608131 0)
(-0.0255259 0.00594516 0)
(-0.0266409 0.00578804 0)
(-0.0277238 0.00561109 0)
(-0.0287711 0.00541542 0)
(-0.0297793 0.00520215 0)
(-0.0307453 0.00497238 0)
(-0.0316659 0.00472719 0)
(-0.0325386 0.00446764 0)
(-0.0333606 0.00419477 0)
(-0.0341296 0.00390959 0)
(-0.0348432 0.00361311 0)
(-0.0354995 0.00330631 0)
(-0.0360967 0.00299013 0)
(-0.036633 0.00266554 0)
(-0.0371069 0.00233345 0)
(-0.0375171 0.00199478 0)
(-0.0378624 0.00165045 0)
(-0.0381419 0.00130134 0)
(-0.0383548 0.000948368 0)
(-0.0385004 0.000592418 0)
(-0.0385782 0.000234392 0)
(-0.038588 -0.000124806 0)
(-0.0385296 -0.000484262 0)
(-0.0384031 -0.000843052 0)
(-0.0382087 -0.00120024 0)
(-0.0379467 -0.00155486 0)
(-0.0376179 -0.00190594 0)
(-0.037223 -0.00225249 0)
(-0.0367629 -0.00259348 0)
(-0.0362388 -0.00292787 0)
(-0.0356521 -0.00325459 0)
(-0.0350042 -0.00357254 0)
(-0.0342971 -0.0038806 0)
(-0.0335326 -0.00417761 0)
(-0.032713 -0.0044624 0)
(-0.0318407 -0.00473378 0)
(-0.0309183 -0.00499052 0)
(-0.0299486 -0.00523139 0)
(-0.0289347 -0.00545514 0)
(-0.02788 -0.0056605 0)
(-0.026788 -0.00584621 0)
(-0.0256624 -0.00601099 0)
(-0.0245073 -0.0061536 0)
(-0.0233267 -0.0062728 0)
(-0.0221252 -0.00636735 0)
(-0.0209073 -0.00643608 0)
(-0.0196779 -0.00647785 0)
(-0.018442 -0.00649159 0)
(-0.0172046 -0.00647628 0)
(-0.0159711 -0.00643104 0)
(-0.014747 -0.00635504 0)
(-0.0135377 -0.00624763 0)
(-0.0123488 -0.0061083 0)
(-0.011186 -0.00593675 0)
(-0.010055 -0.00573287 0)
(-0.00896115 -0.00549686 0)
(-0.00791011 -0.00522922 0)
(-0.00690717 -0.00493081 0)
(-0.00595745 -0.00460299 0)
(-0.0050658 -0.00424762 0)
(-0.00423673 -0.00386722 0)
(-0.00347432 -0.0034651 0)
(-0.00278216 -0.00304547 0)
(-0.00216328 -0.00261367 0)
(-0.00162008 -0.00217638 0)
(-0.00115429 -0.00174185 0)
(-0.000766985 -0.00132023 0)
(-0.00045833 -0.000923939 0)
(-0.000227474 -0.000567937 0)
(-7.58368e-05 -0.000270184 0)
(-1.01709e-05 -5.35011e-05 0)
(-1.2757e-05 0.000102893 0)
(-9.23819e-05 0.000412724 0)
(-0.000273424 0.000802775 0)
(-0.000545136 0.0012493 0)
(-0.000903745 0.00173334 0)
(-0.00134864 0.00223927 0)
(-0.00187831 0.00275421 0)
(-0.00249053 0.00326762 0)
(-0.00318257 0.00377089 0)
(-0.00395118 0.00425709 0)
(-0.00479262 0.00472065 0)
(-0.00570267 0.00515718 0)
(-0.00667674 0.00556331 0)
(-0.00770987 0.00593648 0)
(-0.00879683 0.00627486 0)
(-0.00993218 0.00657718 0)
(-0.0111103 0.00684268 0)
(-0.0123256 0.00707103 0)
(-0.0135721 0.00726222 0)
(-0.0148442 0.00741653 0)
(-0.0161361 0.00753449 0)
(-0.0174421 0.00761681 0)
(-0.0187566 0.00766435 0)
(-0.0200742 0.00767813 0)
(-0.0213894 0.00765924 0)
(-0.0226972 0.00760885 0)
(-0.0239924 0.00752822 0)
(-0.0252703 0.00741862 0)
(-0.0265262 0.00728136 0)
(-0.0277556 0.00711778 0)
(-0.0289544 0.00692921 0)
(-0.0301185 0.00671699 0)
(-0.0312441 0.00648245 0)
(-0.0323275 0.00622691 0)
(-0.0333654 0.00595167 0)
(-0.0343546 0.00565802 0)
(-0.0352921 0.00534721 0)
(-0.0361751 0.00502048 0)
(-0.0370011 0.00467905 0)
(-0.0377676 0.00432411 0)
(-0.0384725 0.00395681 0)
(-0.0391138 0.00357832 0)
(-0.0396898 0.00318976 0)
(-0.0401987 0.00279224 0)
(-0.0406392 0.00238686 0)
(-0.0410101 0.0019747 0)
(-0.0413102 0.00155685 0)
(-0.0415388 0.00113437 0)
(-0.0416952 0.000708346 0)
(-0.0417788 0.000279847 0)
(-0.0417893 -0.000150043 0)
(-0.0417266 -0.000580228 0)
(-0.0415908 -0.0010096 0)
(-0.0413821 -0.00143704 0)
(-0.0411009 -0.0018614 0)
(-0.0407478 -0.00228151 0)
(-0.0403238 -0.00269619 0)
(-0.0398298 -0.00310421 0)