/*--------------------------------*- C++ -*----------------------------------*\
| =========                 |                                                 |
| \\      /  F ield         | OpenFOAM: The Open Source CFD Toolbox           |
|  \\    /   O peration     | Version:  2212                                  |
|   \\  /    A nd           | Website:  www.openfoam.com                      |
|    \\/     M anipulation  |                                                 |
\*---------------------------------------------------------------------------*/
FoamFile
{
    version     2.0;
    format      ascii;
    arch        "LSB;label=32;scalar=64";
    class       volVectorField;
    location    "0.0695";
    object      U;
}
// * * * * * * * * * * * * * * * * * * * * * * * * * * * * * * * * * * * * * //

dimensions      [0 1 -1 0 0 0 0];

internalField   nonuniform List<vector> 
10000
(
(2.94457e-06 -2.94437e-06 0)
(1.45596e-05 -7.5109e-06 0)
(3.29979e-05 -8.63905e-06 0)
(5.02827e-05 -7.42941e-06 0)
(6.15522e-05 -4.98363e-06 0)
(6.44489e-05 -1.9349e-06 0)
(5.7746e-05 1.36354e-06 0)
(4.08892e-05 4.712e-06 0)
(1.37644e-05 7.99582e-06 0)
(-2.34589e-05 1.11482e-05 0)
(-7.04244e-05 1.41322e-05 0)
(-0.000126657 1.69249e-05 0)
(-0.000191601 1.95129e-05 0)
(-0.000264648 2.1891e-05 0)
(-0.000345155 2.40553e-05 0)
(-0.00043246 2.60048e-05 0)
(-0.000525889 2.77419e-05 0)
(-0.000624769 2.92695e-05 0)
(-0.000728426 3.05909e-05 0)
(-0.000836192 3.1712e-05 0)
(-0.000947412 3.26365e-05 0)
(-0.00106144 3.33697e-05 0)
(-0.00117765 3.3919e-05 0)
(-0.00129543 3.42901e-05 0)
(-0.00141418 3.44885e-05 0)
(-0.00153332 3.45207e-05 0)
(-0.0016523 3.43922e-05 0)
(-0.00177058 3.41085e-05 0)
(-0.00188763 3.36761e-05 0)
(-0.00200295 3.31024e-05 0)
(-0.00211608 3.23935e-05 0)
(-0.00222655 3.15554e-05 0)
(-0.00233391 3.05943e-05 0)
(-0.00243776 2.95162e-05 0)
(-0.00253771 2.83271e-05 0)
(-0.00263336 2.70331e-05 0)
(-0.00272438 2.56404e-05 0)
(-0.00281042 2.41554e-05 0)
(-0.00289119 2.2584e-05 0)
(-0.00296637 2.09323e-05 0)
(-0.00303571 1.92065e-05 0)
(-0.00309897 1.74122e-05 0)
(-0.0031559 1.55559e-05 0)
(-0.00320631 1.36441e-05 0)
(-0.00325002 1.1683e-05 0)
(-0.00328687 9.67927e-06 0)
(-0.00331672 7.63911e-06 0)
(-0.00333944 5.56821e-06 0)
(-0.00335496 3.47365e-06 0)
(-0.00336321 1.36223e-06 0)
(-0.00336413 -7.59702e-07 0)
(-0.00335771 -2.88457e-06 0)
(-0.00334395 -5.00494e-06 0)
(-0.00332288 -7.11439e-06 0)
(-0.00329455 -9.2056e-06 0)
(-0.00325905 -1.12708e-05 0)
(-0.00321647 -1.33031e-05 0)
(-0.00316695 -1.52951e-05 0)
(-0.00311065 -1.72382e-05 0)
(-0.00304775 -1.91249e-05 0)
(-0.00297846 -2.09479e-05 0)
(-0.00290302 -2.26987e-05 0)
(-0.0028217 -2.43688e-05 0)
(-0.00273479 -2.59508e-05 0)
(-0.0026426 -2.7437e-05 0)
(-0.0025455 -2.88188e-05 0)
(-0.00244384 -3.00885e-05 0)
(-0.00233804 -3.12386e-05 0)
(-0.00222852 -3.22614e-05 0)
(-0.00211573 -3.31484e-05 0)
(-0.00200015 -3.38923e-05 0)
(-0.00188229 -3.44863e-05 0)
(-0.00176267 -3.49232e-05 0)
(-0.00164184 -3.51958e-05 0)
(-0.00152036 -3.52977e-05 0)
(-0.00139884 -3.52232e-05 0)
(-0.00127788 -3.49661e-05 0)
(-0.0011581 -3.45207e-05 0)
(-0.00104015 -3.38821e-05 0)
(-0.000924686 -3.30466e-05 0)
(-0.000812364 -3.201e-05 0)
(-0.000703863 -3.07682e-05 0)
(-0.000599861 -2.93186e-05 0)
(-0.000501038 -2.766e-05 0)
(-0.000408072 -2.57921e-05 0)
(-0.000321634 -2.37149e-05 0)
(-0.00024238 -2.14298e-05 0)
(-0.000170943 -1.89413e-05 0)
(-0.000107925 -1.62567e-05 0)
(-5.38835e-05 -1.33871e-05 0)
(-9.30652e-06 -1.03494e-05 0)
(2.54091e-05 -7.17024e-06 0)
(5.00003e-05 -3.8927e-06 0)
(6.43989e-05 -5.87764e-07 0)
(6.88327e-05 2.62513e-06 0)
(6.39815e-05 5.54126e-06 0)
(5.11939e-05 7.80581e-06 0)
(3.29418e-05 8.78703e-06 0)
(1.41584e-05 7.41433e-06 0)
(2.73517e-06 2.7355e-06 0)
(7.53402e-06 -1.45657e-05 0)
(3.04451e-05 -3.04145e-05 0)
(6.10809e-05 -3.23822e-05 0)
(8.54728e-05 -2.46165e-05 0)
(9.4378e-05 -1.0844e-05 0)
(8.24502e-05 6.39952e-06 0)
(4.64044e-05 2.54606e-05 0)
(-1.55652e-05 4.52535e-05 0)
(-0.00010416 6.50667e-05 0)
(-0.000219295 8.44326e-05 0)
(-0.000360335 0.000103037 0)
(-0.000526255 0.000120669 0)
(-0.00071575 0.000137188 0)
(-0.000927327 0.0001525 0)
(-0.00115935 0.000166546 0)
(-0.00141011 0.00017929 0)
(-0.00167781 0.000190715 0)
(-0.00196065 0.000200816 0)
(-0.0022568 0.000209601 0)
(-0.00256444 0.000217084 0)
(-0.00288177 0.000223285 0)
(-0.003207 0.000228229 0)
(-0.00353837 0.000231946 0)
(-0.00387417 0.000234467 0)
(-0.00421273 0.000235827 0)
(-0.00455241 0.000236062 0)
(-0.00489164 0.000235208 0)
(-0.00522888 0.000233305 0)
(-0.00556266 0.000230391 0)
(-0.00589155 0.000226507 0)
(-0.0062142 0.000221693 0)
(-0.00652928 0.00021599 0)
(-0.00683555 0.000209439 0)
(-0.00713182 0.000202081 0)
(-0.00741695 0.000193957 0)
(-0.00768986 0.00018511 0)
(-0.00794954 0.00017558 0)
(-0.00819504 0.00016541 0)
(-0.00842546 0.000154643 0)
(-0.00863996 0.000143319 0)
(-0.00883777 0.000131483 0)
(-0.00901819 0.000119176 0)
(-0.00918056 0.000106441 0)
(-0.0093243 9.33236e-05 0)
(-0.00944889 7.98662e-05 0)
(-0.00955387 6.6113e-05 0)
(-0.00963884 5.21099e-05 0)
(-0.00970349 3.7902e-05 0)
(-0.00974755 2.35347e-05 0)
(-0.00977082 9.05555e-06 0)
(-0.00977319 -5.48814e-06 0)
(-0.0097546 -2.00489e-05 0)
(-0.00971506 -3.45768e-05 0)
(-0.00965466 -4.90216e-05 0)
(-0.00957357 -6.33335e-05 0)
(-0.009472 -7.74621e-05 0)
(-0.00935028 -9.13555e-05 0)
(-0.00920878 -0.000104962 0)
(-0.00904795 -0.000118228 0)
(-0.00886834 -0.000131101 0)
(-0.00867055 -0.000143526 0)
(-0.00845527 -0.00015545 0)
(-0.00822326 -0.000166819 0)
(-0.00797537 -0.000177577 0)
(-0.00771252 -0.000187673 0)
(-0.00743569 -0.000197053 0)
(-0.00714596 -0.000205663 0)
(-0.00684447 -0.000213451 0)
(-0.00653246 -0.000220366 0)
(-0.00621119 -0.000226358 0)
(-0.00588204 -0.000231376 0)
(-0.00554642 -0.000235375 0)
(-0.00520584 -0.000238309 0)
(-0.00486185 -0.000240135 0)
(-0.00451604 -0.000240812 0)
(-0.0041701 -0.000240302 0)
(-0.00382573 -0.000238571 0)
(-0.00348468 -0.000235586 0)
(-0.00314875 -0.000231322 0)
(-0.00281976 -0.000225755 0)
(-0.00249957 -0.000218868 0)
(-0.00219002 -0.000210649 0)
(-0.00189298 -0.000201091 0)
(-0.00161031 -0.0001902 0)
(-0.00134385 -0.000177987 0)
(-0.00109538 -0.000164477 0)
(-0.000866635 -0.000149709 0)
(-0.000659266 -0.000133742 0)
(-0.000474792 -0.00011666 0)
(-0.000314572 -9.85813e-05 0)
(-0.000179733 -7.96718e-05 0)
(-7.10986e-05 -6.01666e-05 0)
(1.09286e-05 -4.04023e-05 0)
(6.65205e-05 -2.08684e-05 0)
(9.66503e-05 -2.28991e-06 0)
(0.000103402 1.42439e-05 0)
(9.03181e-05 2.70907e-05 0)
(6.29571e-05 3.37686e-05 0)
(3.06804e-05 3.06791e-05 0)
(7.40526e-06 1.41468e-05 0)
(8.70295e-06 -3.30457e-05 0)
(3.25555e-05 -6.10881e-05 0)
(5.97137e-05 -5.94297e-05 0)
(7.35061e-05 -3.6763e-05 0)
(6.27884e-05 -5.81111e-08 0)
(2.06207e-05 4.54727e-05 0)
(-5.75767e-05 9.60608e-05 0)
(-0.000174531 0.000149047 0)
(-0.000331477 0.000202559 0)
(-0.000528528 0.000255281 0)
(-0.000764956 0.000306285 0)
(-0.00103941 0.000354916 0)
(-0.00135008 0.000400711 0)
(-0.00169482 0.000443348 0)
(-0.00207123 0.000482608 0)
(-0.00247674 0.000518348 0)
(-0.00290867 0.000550482 0)
(-0.00336425 0.000578968 0)
(-0.00384068 0.000603797 0)
(-0.00433513 0.000624989 0)
(-0.0048448 0.000642582 0)
(-0.0053669 0.000656632 0)
(-0.00589866 0.000667208 0)
(-0.00643738 0.000674389 0)
(-0.00698043 0.000678264 0)
(-0.00752521 0.000678928 0)
(-0.00806921 0.00067648 0)
(-0.00861 0.000671026 0)
(-0.00914523 0.000662673 0)
(-0.00967262 0.000651532 0)
(-0.01019 0.000637716 0)
(-0.0106952 0.000621339 0)
(-0.0111863 0.000602518 0)
(-0.0116614 0.00058137 0)
(-0.0121186 0.000558014 0)
(-0.0125563 0.000532567 0)
(-0.0129727 0.000505151 0)
(-0.0133663 0.000475886 0)
(-0.0137358 0.000444894 0)
(-0.0140797 0.000412296 0)
(-0.0143968 0.000378215 0)
(-0.014686 0.000342778 0)
(-0.0149463 0.000306107 0)
(-0.0151766 0.00026833 0)
(-0.0153763 0.000229574 0)
(-0.0155444 0.000189968 0)
(-0.0156804 0.000149642 0)
(-0.0157839 0.000108729 0)
(-0.0158542 6.73637e-05 0)
(-0.0158913 2.56804e-05 0)
(-0.0158948 -1.61824e-05 0)
(-0.0158647 -5.80846e-05 0)
(-0.015801 -9.98859e-05 0)
(-0.0157038 -0.000141442 0)
(-0.0155735 -0.000182606 0)
(-0.0154104 -0.000223232 0)
(-0.0152149 -0.000263172 0)
(-0.0149878 -0.000302274 0)
(-0.0147297 -0.000340387 0)
(-0.0144416 -0.000377358 0)
(-0.0141244 -0.000413033 0)
(-0.0137791 -0.000447256 0)
(-0.0134072 -0.000479874 0)
(-0.0130098 -0.000510733 0)
(-0.0125884 -0.000539679 0)
(-0.0121448 -0.00056656 0)
(-0.0116805 -0.000591226 0)
(-0.0111975 -0.000613529 0)
(-0.0106976 -0.000633323 0)
(-0.0101829 -0.000650467 0)
(-0.00965568 -0.000664824 0)
(-0.00911809 -0.000676262 0)
(-0.00857255 -0.000684654 0)
(-0.00802153 -0.000689883 0)
(-0.00746757 -0.000691836 0)
(-0.00691332 -0.00069041 0)
(-0.00636149 -0.000685515 0)
(-0.00581484 -0.000677067 0)
(-0.00527621 -0.000664998 0)
(-0.00474845 -0.000649254 0)
(-0.00423446 -0.000629797 0)
(-0.00373714 -0.000606608 0)
(-0.00325939 -0.000579689 0)
(-0.00280407 -0.000549069 0)
(-0.002374 -0.000514808 0)
(-0.00197193 -0.000477005 0)
(-0.00160045 -0.000435806 0)
(-0.00126203 -0.000391415 0)
(-0.000958899 -0.000344116 0)
(-0.000692993 -0.000294296 0)
(-0.000465872 -0.00024248 0)
(-0.000278588 -0.000189385 0)
(-0.00013153 -0.000135992 0)
(-2.42243e-05 -8.36593e-05 0)
(4.49462e-05 -3.42817e-05 0)
(7.90862e-05 9.48748e-06 0)
(8.31226e-05 4.39447e-05 0)
(6.42657e-05 6.40087e-05 0)
(3.3883e-05 6.29795e-05 0)
(8.79393e-06 3.29279e-05 0)
(7.55609e-06 -5.0482e-05 0)
(2.5056e-05 -8.57173e-05 0)
(3.7636e-05 -7.33397e-05 0)
(2.83302e-05 -2.72402e-05 0)
(-1.45364e-05 4.21765e-05 0)
(-9.86175e-05 0.000126857 0)
(-0.000229142 0.000220709 0)
(-0.000409339 0.000319227 0)
(-0.00064078 0.0004191 0)
(-0.000923717 0.000517906 0)
(-0.00125737 0.000613874 0)
(-0.00164018 0.00070571 0)
(-0.00206995 0.000792472 0)
(-0.00254403 0.000873486 0)
(-0.00305943 0.000948273 0)
(-0.0036129 0.00101651 0)
(-0.00420099 0.00107797 0)
(-0.00482015 0.00113255 0)
(-0.00546673 0.00118019 0)
(-0.00613705 0.0012209 0)
(-0.00682742 0.00125472 0)
(-0.00753416 0.00128175 0)
(-0.00825363 0.00130209 0)
(-0.00898225 0.00131589 0)
(-0.00971648 0.0013233 0)
(-0.0104529 0.00132449 0)
(-0.0111881 0.00131964 0)
(-0.0119189 0.00130896 0)
(-0.0126421 0.00129265 0)
(-0.0133547 0.00127091 0)
(-0.0140537 0.00124396 0)
(-0.0147362 0.00121202 0)
(-0.0153997 0.00117531 0)
(-0.0160415 0.00113406 0)
(-0.0166591 0.0010885 0)
(-0.0172502 0.00103885 0)
(-0.0178126 0.000985359 0)
(-0.0183443 0.000928253 0)
(-0.0188433 0.000867769 0)
(-0.0193077 0.00080415 0)
(-0.019736 0.000737633 0)
(-0.0201265 0.000668463 0)
(-0.0204779 0.000596885 0)
(-0.0207888 0.000523148 0)
(-0.0210582 0.0004475 0)
(-0.0212851 0.000370197 0)
(-0.0214686 0.000291492 0)
(-0.021608 0.000211646 0)
(-0.0217027 0.000130921 0)
(-0.0217524 4.95856e-05 0)
(-0.0217568 -3.20923e-05 0)
(-0.0217158 -0.000113838 0)
(-0.0216294 -0.000195375 0)
(-0.0214979 -0.000276422 0)
(-0.0213216 -0.000356694 0)
(-0.021101 -0.000435905 0)
(-0.0208367 -0.000513762 0)
(-0.0205298 -0.000589974 0)
(-0.0201811 -0.000664244 0)
(-0.0197918 -0.000736274 0)
(-0.0193632 -0.000805765 0)
(-0.018897 -0.000872417 0)
(-0.0183946 -0.000935931 0)
(-0.017858 -0.000996007 0)
(-0.0172891 -0.00105235 0)
(-0.0166902 -0.00110466 0)
(-0.0160634 -0.00115266 0)
(-0.0154113 -0.00119605 0)
(-0.0147366 -0.00123456 0)
(-0.0140419 -0.00126792 0)
(-0.0133302 -0.00129586 0)
(-0.0126045 -0.00131814 0)
(-0.011868 -0.00133451 0)
(-0.0111241 -0.00134475 0)
(-0.010376 -0.00134865 0)
(-0.00962748 -0.00134602 0)
(-0.00888197 -0.00133669 0)
(-0.0081432 -0.00132051 0)
(-0.00741492 -0.00129737 0)
(-0.00670091 -0.00126717 0)
(-0.006005 -0.00122986 0)
(-0.005331 -0.00118543 0)
(-0.0046827 -0.00113389 0)
(-0.00406386 -0.00107533 0)
(-0.00347812 -0.0010099 0)
(-0.00292902 -0.000937835 0)
(-0.00241989 -0.000859444 0)
(-0.00195385 -0.000775172 0)
(-0.00153369 -0.000685615 0)
(-0.00116179 -0.000591566 0)
(-0.000840022 -0.000494078 0)
(-0.000569592 -0.000394548 0)
(-0.000350863 -0.000294839 0)
(-0.000183145 -0.000197441 0)
(-6.44089e-05 -0.000105689 0)
(9.03274e-06 -2.40648e-05 0)
(4.28273e-05 4.14525e-05 0)
(4.49783e-05 8.30222e-05 0)
(2.75287e-05 9.06175e-05 0)
(7.87457e-06 5.12841e-05 0)
(5.19975e-06 -6.20881e-05 0)
(1.17015e-05 -9.52412e-05 0)
(1.82927e-06 -6.31716e-05 0)
(-3.96964e-05 1.54031e-05 0)
(-0.000124045 0.000126762 0)
(-0.000258972 0.000260104 0)
(-0.000449849 0.000407043 0)
(-0.000700046 0.000561172 0)
(-0.00101123 0.000717643 0)
(-0.00138368 0.000872792 0)
(-0.00181652 0.00102386 0)
(-0.00230799 0.00116879 0)
(-0.0028556 0.00130604 0)
(-0.00345628 0.00143448 0)
(-0.00410656 0.00155326 0)
(-0.00480261 0.00166183 0)
(-0.00554035 0.00175977 0)
(-0.00631556 0.00184685 0)
(-0.00712386 0.00192293 0)
(-0.00796084 0.00198798 0)
(-0.00882203 0.00204206 0)
(-0.00970297 0.00208526 0)
(-0.0105992 0.00211775 0)
(-0.0115065 0.00213972 0)
(-0.0124203 0.00215141 0)
(-0.0133366 0.00215308 0)
(-0.0142512 0.00214501 0)
(-0.0151601 0.0021275 0)
(-0.0160594 0.00210087 0)
(-0.0169454 0.00206546 0)
(-0.0178143 0.0020216 0)
(-0.0186628 0.00196964 0)
(-0.0194874 0.00190995 0)
(-0.0202851 0.00184288 0)
(-0.0210526 0.0017688 0)
(-0.0217872 0.00168809 0)
(-0.0224861 0.00160112 0)
(-0.0231468 0.00150828 0)
(-0.0237667 0.00140995 0)
(-0.0243437 0.00130652 0)
(-0.0248757 0.00119837 0)
(-0.0253608 0.00108591 0)
(-0.0257972 0.000969543 0)
(-0.0261833 0.000849663 0)
(-0.0265178 0.000726681 0)
(-0.0267994 0.00060101 0)
(-0.0270271 0.00047307 0)
(-0.0272 0.000343282 0)
(-0.0273174 0.000212076 0)
(-0.0273788 7.98857e-05 0)
(-0.027384 -5.28478e-05 0)
(-0.0273327 -0.000185679 0)
(-0.027225 -0.000318157 0)
(-0.0270613 -0.000449824 0)
(-0.0268419 -0.000580217 0)
(-0.0265675 -0.000708869 0)
(-0.026239 -0.000835308 0)
(-0.0258574 -0.000959057 0)
(-0.025424 -0.00107964 0)
(-0.0249402 -0.00119656 0)
(-0.0244078 -0.00130936 0)
(-0.0238284 -0.00141753 0)
(-0.0232044 -0.00152059 0)
(-0.0225378 -0.00161807 0)
(-0.0218311 -0.00170948 0)
(-0.0210872 -0.00179436 0)
(-0.0203087 -0.00187222 0)
(-0.0194987 -0.00194263 0)
(-0.0186606 -0.00200512 0)
(-0.0177977 -0.00205927 0)
(-0.0169136 -0.00210466 0)
(-0.016012 -0.0021409 0)
(-0.015097 -0.00216759 0)
(-0.0141725 -0.00218439 0)
(-0.0132427 -0.00219097 0)
(-0.012312 -0.00218703 0)
(-0.0113847 -0.00217232 0)
(-0.0104654 -0.00214662 0)
(-0.00955867 -0.00210974 0)
(-0.00866908 -0.00206157 0)
(-0.00780128 -0.00200204 0)
(-0.00695989 -0.00193114 0)
(-0.0061495 -0.00184897 0)
(-0.00537461 -0.00175568 0)
(-0.00463959 -0.00165155 0)
(-0.00394864 -0.001537 0)
(-0.00330573 -0.00141258 0)
(-0.0027145 -0.00127906 0)
(-0.00217822 -0.00113744 0)
(-0.00169963 -0.000989027 0)
(-0.00128087 -0.000835539 0)
(-0.000923287 -0.00067919 0)
(-0.000627279 -0.000522865 0)
(-0.000392074 -0.000370319 0)
(-0.000215482 -0.000226438 0)
(-9.36065e-05 -9.75824e-05 0)
(-2.0579e-05 8.0034e-06 0)
(1.17988e-05 7.97898e-05 0)
(1.52268e-05 0.00010449 0)
(5.72151e-06 6.44068e-05 0)
(2.26741e-06 -6.55797e-05 0)
(-5.03654e-06 -8.44293e-05 0)
(-4.26483e-05 -2.21009e-05 0)
(-0.000122836 9.87572e-05 0)
(-0.000255476 0.000261447 0)
(-0.000447947 0.000452646 0)
(-0.00070537 0.00066179 0)
(-0.00103093 0.000880631 0)
(-0.00142618 0.00110276 0)
(-0.00189127 0.00132324 0)
(-0.00242515 0.00153824 0)
(-0.00302584 0.00174484 0)
(-0.00369055 0.00194082 0)
(-0.00441587 0.00212451 0)
(-0.00519787 0.00229466 0)
(-0.00603225 0.00245036 0)
(-0.0069144 0.00259098 0)
(-0.00783949 0.00271612 0)
(-0.00880254 0.00282553 0)
(-0.00979845 0.00291912 0)
(-0.0108221 0.00299691 0)
(-0.0118684 0.00305902 0)
(-0.0129321 0.00310563 0)
(-0.0140082 0.00313703 0)
(-0.0150917 0.0031535 0)
(-0.0161776 0.00315543 0)
(-0.0172612 0.00314318 0)
(-0.0183378 0.0031172 0)
(-0.0194027 0.00307793 0)
(-0.0204517 0.00302585 0)
(-0.0214803 0.00296143 0)
(-0.0224846 0.00288518 0)
(-0.0234606 0.00279763 0)
(-0.0244044 0.00269929 0)
(-0.0253127 0.00259069 0)
(-0.0261818 0.00247239 0)
(-0.0270086 0.00234493 0)
(-0.0277901 0.00220887 0)
(-0.0285234 0.00206477 0)
(-0.0292059 0.0019132 0)
(-0.0298351 0.00175473 0)
(-0.0304087 0.00158995 0)
(-0.0309247 0.00141944 0)
(-0.0313812 0.00124379 0)
(-0.0317766 0.00106361 0)
(-0.0321094 0.000879494 0)
(-0.0323784 0.000692064 0)
(-0.0325825 0.00050194 0)
(-0.0327211 0.000309752 0)
(-0.0327934 0.000116136 0)
(-0.0327991 -7.826e-05 0)
(-0.0327382 -0.000272783 0)
(-0.0326105 -0.000466771 0)
(-0.0324166 -0.000659553 0)
(-0.0321569 -0.000850453 0)
(-0.0318321 -0.00103879 0)
(-0.0314434 -0.00122386 0)
(-0.0309919 -0.00140498 0)
(-0.0304792 -0.00158144 0)
(-0.029907 -0.00175255 0)
(-0.0292772 -0.00191759 0)
(-0.028592 -0.00207585 0)
(-0.0278539 -0.00222664 0)
(-0.0270656 -0.00236926 0)
(-0.0262299 -0.00250299 0)
(-0.0253501 -0.00262717 0)
(-0.0244294 -0.00274111 0)
(-0.0234715 -0.00284416 0)
(-0.0224802 -0.00293566 0)
(-0.0214595 -0.00301499 0)
(-0.0204136 -0.00308156 0)
(-0.0193469 -0.00313478 0)
(-0.0182641 -0.00317412 0)
(-0.0171698 -0.00319908 0)
(-0.0160689 -0.0032092 0)
(-0.0149665 -0.00320405 0)
(-0.0138678 -0.00318329 0)
(-0.012778 -0.0031466 0)
(-0.0117023 -0.00309376 0)
(-0.0106461 -0.00302462 0)
(-0.00961488 -0.00293911 0)
(-0.00861385 -0.00283726 0)
(-0.00764833 -0.00271923 0)
(-0.00672347 -0.0025853 0)
(-0.00584429 -0.00243593 0)
(-0.00501557 -0.00227175 0)
(-0.0042418 -0.00209364 0)
(-0.0035271 -0.00190273 0)
(-0.00287515 -0.00170053 0)
(-0.00228902 -0.00148896 0)
(-0.00177111 -0.00127046 0)
(-0.00132296 -0.00104816 0)
(-0.000945074 -0.000826066 0)
(-0.000636764 -0.000609238 0)
(-0.000395907 -0.000404134 0)
(-0.000218715 -0.00021896 0)
(-9.94888e-05 -6.41134e-05 0)
(-3.03022e-05 4.73749e-05 0)
(-5.78397e-07 9.92654e-05 0)
(2.96028e-06 6.99398e-05 0)
(-9.04248e-07 -5.97677e-05 0)
(-2.35903e-05 -5.00093e-05 0)
(-9.22896e-05 5.45132e-05 0)
(-0.000215474 0.000228205 0)
(-0.00040119 0.000451881 0)
(-0.000656073 0.000709997 0)
(-0.000984672 0.00099002 0)
(-0.00138973 0.00128197 0)
(-0.00187248 0.00157795 0)
(-0.00243276 0.00187172 0)
(-0.0030693 0.00215839 0)
(-0.00377982 0.00243414 0)
(-0.00456122 0.00269601 0)
(-0.00540974 0.00294172 0)
(-0.00632106 0.00316956 0)
(-0.00729042 0.00337826 0)
(-0.00831275 0.0035669 0)
(-0.00938268 0.00373486 0)
(-0.0104947 0.00388176 0)
(-0.0116431 0.00400743 0)
(-0.0128222 0.00411184 0)
(-0.0140263 0.0041951 0)
(-0.0152495 0.00425744 0)
(-0.0164861 0.00429917 0)
(-0.0177306 0.00432069 0)
(-0.0189774 0.00432246 0)
(-0.020221 0.00430499 0)
(-0.0214561 0.00426884 0)
(-0.0226775 0.0042146 0)
(-0.0238804 0.00414289 0)
(-0.0250597 0.00405438 0)
(-0.0262109 0.00394973 0)
(-0.0273294 0.00382965 0)
(-0.0284111 0.00369483 0)
(-0.0294517 0.00354602 0)
(-0.0304474 0.00338393 0)
(-0.0313946 0.00320933 0)
(-0.0322898 0.00302297 0)
(-0.0331297 0.00282562 0)
(-0.0339113 0.00261806 0)
(-0.0346317 0.00240106 0)
(-0.0352885 0.00217543 0)
(-0.0358793 0.00194197 0)
(-0.0364019 0.00170149 0)
(-0.0368544 0.00145481 0)
(-0.0372353 0.00120277 0)
(-0.0375431 0.000946205 0)
(-0.0377766 0.000685968 0)
(-0.037935 0.000422922 0)
(-0.0380175 0.000157942 0)
(-0.0380238 -0.000108088 0)
(-0.0379537 -0.000374272 0)
(-0.0378073 -0.000639704 0)
(-0.037585 -0.000903467 0)
(-0.0372874 -0.00116463 0)
(-0.0369154 -0.00142227 0)
(-0.0364701 -0.00167543 0)
(-0.035953 -0.00192317 0)
(-0.0353659 -0.00216452 0)
(-0.0347105 -0.00239853 0)
(-0.0339893 -0.00262424 0)
(-0.0332047 -0.00284068 0)
(-0.0323595 -0.0030469 0)
(-0.0314568 -0.00324194 0)
(-0.0304999 -0.00342486 0)
(-0.0294923 -0.00359473 0)
(-0.0284379 -0.00375063 0)
(-0.0273408 -0.00389167 0)
(-0.0262053 -0.00401698 0)
(-0.025036 -0.00412571 0)
(-0.0238376 -0.00421706 0)
(-0.0226152 -0.00429026 0)
(-0.0213739 -0.00434459 0)
(-0.0201191 -0.00437939 0)
(-0.0188564 -0.00439403 0)
(-0.0175915 -0.00438797 0)
(-0.0163301 -0.00436076 0)
(-0.0150781 -0.004312 0)
(-0.0138416 -0.00424142 0)
(-0.0126265 -0.00414883 0)
(-0.0114388 -0.00403418 0)
(-0.0102845 -0.00389756 0)
(-0.0091696 -0.00373922 0)
(-0.00809972 -0.0035596 0)
(-0.00708047 -0.00335936 0)
(-0.00611714 -0.0031394 0)
(-0.00521472 -0.00290097 0)
(-0.00437777 -0.00264564 0)
(-0.00361032 -0.00237546 0)
(-0.00291579 -0.00209302 0)
(-0.00229687 -0.00180157 0)
(-0.00175533 -0.0015052 0)
(-0.00129191 -0.00120904 0)
(-0.00090616 -0.000919472 0)
(-0.000596216 -0.00064448 0)
(-0.000358666 -0.000394011 0)
(-0.000188295 -0.000180436 0)
(-7.78138e-05 -1.9004e-05 0)
(-1.83155e-05 7.15475e-05 0)
(-6.66393e-08 6.66204e-05 0)
(-4.13132e-06 -4.40717e-05 0)
(-4.29874e-05 9.95363e-06 0)
(-0.000144724 0.000169664 0)
(-0.000313645 0.000407411 0)
(-0.000555635 0.000702035 0)
(-0.000876315 0.00103614 0)
(-0.00127942 0.00139545 0)
(-0.00176703 0.00176844 0)
(-0.00233987 0.00214581 0)
(-0.00299737 0.00252009 0)
(-0.00373789 0.00288532 0)
(-0.00455878 0.00323679 0)
(-0.00545662 0.00357077 0)
(-0.00642727 0.00388437 0)
(-0.00746602 0.00417537 0)
(-0.00856771 0.00444207 0)
(-0.00972679 0.00468326 0)
(-0.0109374 0.00489808 0)
(-0.0121937 0.00508599 0)
(-0.0134892 0.00524668 0)
(-0.0148179 0.00538008 0)
(-0.0161733 0.00548628 0)
(-0.0175493 0.00556553 0)
(-0.0189394 0.0056182 0)
(-0.0203375 0.00564477 0)
(-0.0217374 0.00564579 0)
(-0.0231332 0.0056219 0)
(-0.024519 0.0055738 0)
(-0.025889 0.00550223 0)
(-0.0272378 0.00540801 0)
(-0.0285599 0.00529195 0)
(-0.0298502 0.00515492 0)
(-0.0311036 0.00499782 0)
(-0.0323155 0.00482157 0)
(-0.0334813 0.00462709 0)
(-0.0345967 0.00441534 0)
(-0.0356575 0.00418729 0)
(-0.03666 0.00394393 0)
(-0.0376004 0.00368625 0)
(-0.0384755 0.00341527 0)
(-0.0392821 0.00313201 0)
(-0.0400174 0.0028375 0)
(-0.0406786 0.00253279 0)
(-0.0412635 0.00221895 0)
(-0.0417699 0.00189704 0)
(-0.0421961 0.00156815 0)
(-0.0425404 0.00123338 0)
(-0.0428017 0.000893839 0)
(-0.0429787 0.000550658 0)
(-0.0430709 0.000204975 0)
(-0.0430778 -0.000142056 0)
(-0.0429991 -0.000489265 0)
(-0.0428351 -0.000835472 0)
(-0.0425861 -0.00117948 0)
(-0.0422529 -0.00152009 0)
(-0.0418364 -0.00185607 0)
(-0.0413379 -0.0021862 0)
(-0.0407591 -0.00250924 0)
(-0.0401018 -0.00282396 0)
(-0.0393682 -0.00312909 0)
(-0.0385609 -0.0034234 0)
(-0.0376826 -0.00370564 0)
(-0.0367365 -0.00397455 0)
(-0.0357259 -0.00422892 0)
(-0.0346546 -0.00446752 0)
(-0.0335264 -0.00468915 0)
(-0.0323458 -0.00489261 0)
(-0.0311171 -0.00507677 0)
(-0.0298453 -0.00524049 0)
(-0.0285354 -0.0053827 0)
(-0.0271926 -0.00550237 0)
(-0.0258226 -0.0055985 0)
(-0.024431 -0.00567018 0)
(-0.0230239 -0.00571657 0)
(-0.0216072 -0.00573688 0)
(-0.0201874 -0.00573045 0)
(-0.0187708 -0.00569668 0)
(-0.0173639 -0.00563513 0)
(-0.0159733 -0.00554543 0)
(-0.0146056 -0.00542742 0)
(-0.0132674 -0.00528104 0)
(-0.0119652 -0.00510647 0)
(-0.0107055 -0.00490407 0)
(-0.00949457 -0.00467446 0)
(-0.00833849 -0.00441854 0)
(-0.00724304 -0.00413752 0)
(-0.00621365 -0.00383304 0)
(-0.00525529 -0.00350716 0)
(-0.00437237 -0.00316253 0)
(-0.00356867 -0.00280243 0)
(-0.00284719 -0.00243094 0)
(-0.00221004 -0.00205313 0)
(-0.00165829 -0.00167524 0)
(-0.00119185 -0.00130493 0)
(-0.000809315 -0.000951631 0)
(-0.000507858 -0.000626873 0)
(-0.000282989 -0.000344778 0)
(-0.000128332 -0.00012248 0)
(-3.6988e-05 1.92881e-05 0)
(-3.17031e-06 5.38113e-05 0)
(-7.31961e-06 -1.82983e-05 0)
(-6.26281e-05 9.64334e-05 0)
(-0.000198379 0.000325078 0)
(-0.000414599 0.000638655 0)
(-0.000714838 0.00101453 0)
(-0.00110352 0.0014338 0)
(-0.00158338 0.00188073 0)
(-0.00215569 0.00234243 0)
(-0.0028205 0.0028083 0)
(-0.0035767 0.00326976 0)
(-0.00442217 0.00371983 0)
(-0.00535388 0.00415291 0)
(-0.00636797 0.00456453 0)
(-0.00745991 0.00495115 0)
(-0.00862461 0.00531003 0)
(-0.00985648 0.00563906 0)
(-0.0111496 0.00593667 0)
(-0.0124976 0.00620176 0)
(-0.0138941 0.00643358 0)
(-0.0153323 0.00663171 0)
(-0.0168056 0.006796 0)
(-0.0183072 0.00692651 0)
(-0.0198301 0.00702351 0)
(-0.0213676 0.00708741 0)
(-0.022913 0.00711876 0)
(-0.0244596 0.00711824 0)
(-0.0260009 0.00708659 0)
(-0.0275305 0.00702468 0)
(-0.0290422 0.00693341 0)
(-0.03053 0.00681377 0)
(-0.031988 0.00666678 0)
(-0.0334105 0.0064935 0)
(-0.0347922 0.00629504 0)
(-0.0361278 0.00607255 0)
(-0.0374124 0.0058272 0)
(-0.0386412 0.00556016 0)
(-0.0398098 0.00527265 0)
(-0.0409139 0.00496591 0)
(-0.0419497 0.00464119 0)
(-0.0429133 0.00429976 0)
(-0.0438015 0.0039429 0)
(-0.044611 0.00357191 0)
(-0.0453389 0.00318812 0)
(-0.0459828 0.00279284 0)
(-0.0465403 0.00238745 0)
(-0.0470093 0.00197329 0)
(-0.0473883 0.00155176 0)
(-0.0476757 0.00112425 0)
(-0.0478706 0.000692183 0)
(-0.0479719 0.000256993 0)
(-0.0479794 -0.000179869 0)
(-0.0478928 -0.000616933 0)
(-0.0477122 -0.00105271 0)
(-0.0474381 -0.00148571 0)
(-0.0470712 -0.0019144 0)
(-0.0466128 -0.00233726 0)
(-0.0460641 -0.00275275 0)
(-0.045427 -0.00315931 0)
(-0.0447035 -0.00355539 0)
(-0.043896 -0.00393942 0)
(-0.0430073 -0.00430984 0)
(-0.0420405 -0.0046651 0)
(-0.0409988 -0.00500362 0)
(-0.0398862 -0.00532388 0)
(-0.0387065 -0.00562435 0)
(-0.0374642 -0.00590353 0)
(-0.0361638 -0.00615994 0)
(-0.0348104 -0.00639214 0)
(-0.0334091 -0.00659875 0)
(-0.0319656 -0.00677843 0)
(-0.0304855 -0.00692988 0)
(-0.0289748 -0.0070519 0)
(-0.02744 -0.00714336 0)
(-0.0258873 -0.00720321 0)
(-0.0243235 -0.00723051 0)
(-0.0227554 -0.00722444 0)
(-0.02119 -0.0071843 0)
(-0.0196342 -0.00710954 0)
(-0.0180952 -0.00699977 0)
(-0.0165802 -0.0068548 0)
(-0.0150962 -0.00667462 0)
(-0.0136504 -0.00645948 0)
(-0.0122497 -0.00620988 0)
(-0.010901 -0.00592664 0)
(-0.00961064 -0.00561091 0)
(-0.00838501 -0.00526427 0)
(-0.00722992 -0.00488875 0)
(-0.00615075 -0.00448695 0)
(-0.00515233 -0.0040621 0)
(-0.00423882 -0.00361821 0)
(-0.00341358 -0.00316021 0)
(-0.00267914 -0.00269411 0)
(-0.00203699 -0.00222723 0)
(-0.00148753 -0.00176844 0)
(-0.00102998 -0.00132848 0)
(-0.000662253 -0.000920317 0)
(-0.00038077 -0.000559564 0)
(-0.000180246 -0.000264902 0)
(-5.59763e-05 -5.85841e-05 0)
(-6.24924e-06 3.12748e-05 0)
(-1.04212e-05 1.75202e-05 0)
(-8.21524e-05 0.000209775 0)
(-0.000252234 0.000521581 0)
(-0.000516464 0.000923193 0)
(-0.000876002 0.00139093 0)
(-0.00133397 0.00190471 0)
(-0.001892 0.00244762 0)
(-0.00255038 0.00300555 0)
(-0.0033084 0.00356682 0)
(-0.00416431 0.00412177 0)
(-0.00511542 0.00466251 0)
(-0.0061582 0.0051826 0)
(-0.00728834 0.00567682 0)
(-0.0085009 0.00614104 0)
(-0.00979034 0.00657195 0)
(-0.0111507 0.00696704 0)
(-0.0125755 0.00732439 0)
(-0.0140581 0.0076426 0)
(-0.0155917 0.00792075 0)
(-0.0171689 0.00815827 0)
(-0.0187828 0.00835493 0)
(-0.0204259 0.00851074 0)
(-0.022091 0.00862598 0)
(-0.0237708 0.00870111 0)
(-0.0254581 0.00873676 0)
(-0.0271457 0.0087337 0)
(-0.0288268 0.00869283 0)
(-0.0304944 0.00861515 0)
(-0.0321419 0.00850174 0)
(-0.0337627 0.00835378 0)
(-0.0353506 0.00817249 0)
(-0.0368995 0.00795916 0)
(-0.0384035 0.00771513 0)
(-0.0398571 0.00744177 0)
(-0.0412549 0.0071405 0)
(-0.0425918 0.00681277 0)
(-0.043863 0.00646005 0)
(-0.045064 0.00608384 0)
(-0.0461904 0.00568567 0)
(-0.0472383 0.00526708 0)
(-0.0482039 0.00482965 0)
(-0.049084 0.00437496 0)
(-0.0498754 0.00390463 0)
(-0.0505754 0.00342028 0)
(-0.0511813 0.00292358 0)
(-0.0516912 0.00241618 0)
(-0.0521031 0.00189978 0)
(-0.0524155 0.0013761 0)
(-0.0526273 0.000846865 0)
(-0.0527376 0.000313836 0)
(-0.0527457 -0.000221214 0)
(-0.0526517 -0.000756487 0)
(-0.0524555 -0.00129017 0)
(-0.0521577 -0.00182042 0)
(-0.0517592 -0.00234539 0)
(-0.051261 -0.00286322 0)
(-0.0506649 -0.00337201 0)
(-0.0499726 -0.00386988 0)
(-0.0491863 -0.00435493 0)
(-0.0483088 -0.00482526 0)
(-0.047343 -0.00527894 0)
(-0.0462921 -0.0057141 0)
(-0.0451598 -0.00612883 0)
(-0.0439502 -0.00652127 0)
(-0.0426675 -0.00688955 0)
(-0.0413165 -0.00723186 0)
(-0.0399022 -0.00754641 0)
(-0.0384298 -0.00783146 0)
(-0.0369051 -0.00808533 0)
(-0.035334 -0.00830639 0)
(-0.0337226 -0.00849309 0)
(-0.0320775 -0.00864399 0)
(-0.0304053 -0.00875771 0)
(-0.0287131 -0.00883302 0)
(-0.0270079 -0.00886879 0)
(-0.0252971 -0.00886404 0)
(-0.023588 -0.00881797 0)
(-0.0218884 -0.00872992 0)
(-0.0202058 -0.00859948 0)
(-0.0185478 -0.00842642 0)
(-0.016922 -0.00821081 0)
(-0.0153361 -0.00795296 0)
(-0.0137975 -0.00765355 0)
(-0.0123134 -0.00731359 0)
(-0.0108909 -0.00693452 0)
(-0.00953656 -0.00651827 0)
(-0.00825673 -0.00606731 0)
(-0.00705722 -0.00558477 0)
(-0.00594326 -0.00507448 0)
(-0.00491942 -0.00454119 0)
(-0.00398954 -0.00399063 0)
(-0.00315658 -0.00342973 0)
(-0.00242259 -0.00286683 0)
(-0.00178857 -0.00231193 0)
(-0.00125443 -0.00177693 0)
(-0.000819 -0.00127606 0)
(-0.000479716 -0.00082618 0)
(-0.0002325 -0.000447204 0)
(-7.49028e-05 -0.000162486 0)
(-9.25117e-06 -9.87974e-07 0)
(-1.3416e-05 6.32231e-05 0)
(-0.000101353 0.000349908 0)
(-0.000305643 0.000759377 0)
(-0.000617997 0.00126154 0)
(-0.00103721 0.00183201 0)
(-0.00156506 0.00244983 0)
(-0.00220196 0.00309713 0)
(-0.0029472 0.00375882 0)
(-0.00379916 0.00442222 0)
(-0.00475536 0.00507678 0)
(-0.0058125 0.00571373 0)
(-0.00696646 0.00632585 0)
(-0.00821244 0.00690725 0)
(-0.00954502 0.00745317 0)
(-0.0109582 0.00795982 0)
(-0.0124456 0.00842424 0)
(-0.0140003 0.00884416 0)
(-0.0156153 0.00921793 0)
(-0.0172832 0.00954439 0)
(-0.0189965 0.00982285 0)
(-0.0207475 0.010053 0)
(-0.0225284 0.0102347 0)
(-0.0243316 0.0103684 0)
(-0.0261494 0.0104545 0)
(-0.0279741 0.0104937 0)
(-0.0297981 0.010487 0)
(-0.031614 0.0104353 0)
(-0.0334146 0.0103398 0)
(-0.0351927 0.0102017 0)
(-0.0369414 0.0100225 0)
(-0.0386541 0.00980358 0)
(-0.0403242 0.00954645 0)
(-0.0419456 0.0092527 0)
(-0.0435122 0.00892397 0)
(-0.0450184 0.00856192 0)
(-0.0464587 0.00816827 0)
(-0.047828 0.00774479 0)
(-0.0491214 0.00729326 0)
(-0.0503344 0.00681549 0)
(-0.0514628 0.00631334 0)
(-0.0525025 0.00578868 0)
(-0.05345 0.00524341 0)
(-0.054302 0.00467945 0)
(-0.0550555 0.00409875 0)
(-0.0557078 0.00350329 0)
(-0.0562567 0.00289507 0)
(-0.0567001 0.00227611 0)
(-0.0570365 0.00164846 0)
(-0.0572646 0.0010142 0)
(-0.0573835 0.00037542 0)
(-0.0573925 -0.000265753 0)
(-0.0572915 -0.000907171 0)
(-0.0570807 -0.00154666 0)
(-0.0567606 -0.00218204 0)
(-0.056332 -0.00281108 0)
(-0.0557963 -0.00343156 0)
(-0.0551551 -0.00404124 0)
(-0.0544104 -0.00463784 0)
(-0.0535646 -0.00521912 0)
(-0.0526205 -0.00578279 0)
(-0.0515812 -0.00632659 0)
(-0.0504503 -0.00684825 0)
(-0.0492317 -0.00734553 0)
(-0.0479296 -0.00781619 0)