/*--------------------------------*- C++ -*----------------------------------*\
| =========                 |                                                 |
| \\      /  F ield         | OpenFOAM: The Open Source CFD Toolbox           |
|  \\    /   O peration     | Version:  2212                                  |
|   \\  /    A nd           | Website:  www.openfoam.com                      |
|    \\/     M anipulation  |                                                 |
\*---------------------------------------------------------------------------*/
FoamFile
{
    version     2.0;
    format      ascii;
    arch        "LSB;label=32;scalar=64";
    class       volVectorField;
    location    "0.0695";
    object      U_0;
}
// * * * * * * * * * * * * * * * * * * * * * * * * * * * * * * * * * * * * * //

dimensions      [0 1 -1 0 0 0 0];

internalField   nonuniform List<vector> 
10000
(
(2.91501e-06 -2.95966e-06 0)
(1.45829e-05 -7.66644e-06 0)
(3.32569e-05 -8.87771e-06 0)
(5.08224e-05 -7.61886e-06 0)
(6.22915e-05 -5.09765e-06 0)
(6.52831e-05 -1.98911e-06 0)
(5.86104e-05 1.34594e-06 0)
(4.17463e-05 4.71579e-06 0)
(1.46005e-05 8.00994e-06 0)
(-2.26452e-05 1.1165e-05 0)
(-6.96263e-05 1.41477e-05 0)
(-0.000125863 1.69373e-05 0)
(-0.000190796 1.95206e-05 0)
(-0.000263818 2.18925e-05 0)
(-0.000344285 2.40521e-05 0)
(-0.000431537 2.59972e-05 0)
(-0.000524901 2.77299e-05 0)
(-0.000623704 2.92539e-05 0)
(-0.000727275 3.05734e-05 0)
(-0.000834949 3.1692e-05 0)
(-0.00094607 3.2615e-05 0)
(-0.00106 3.33481e-05 0)
(-0.0011761 3.38959e-05 0)
(-0.00129377 3.4265e-05 0)
(-0.0014124 3.44624e-05 0)
(-0.00153143 3.44941e-05 0)
(-0.0016503 3.43653e-05 0)
(-0.00176846 3.40816e-05 0)
(-0.0018854 3.365e-05 0)
(-0.00200061 3.30768e-05 0)
(-0.00211362 3.23679e-05 0)
(-0.00222398 3.15298e-05 0)
(-0.00233124 3.05687e-05 0)
(-0.00243499 2.9491e-05 0)
(-0.00253483 2.83028e-05 0)
(-0.00263038 2.701e-05 0)
(-0.00272131 2.56184e-05 0)
(-0.00280726 2.41343e-05 0)
(-0.00288794 2.25641e-05 0)
(-0.00296305 2.09138e-05 0)
(-0.00303232 1.91891e-05 0)
(-0.0030955 1.73963e-05 0)
(-0.00315238 1.5542e-05 0)
(-0.00320274 1.36322e-05 0)
(-0.0032464 1.16732e-05 0)
(-0.00328321 9.67096e-06 0)
(-0.00331302 7.63196e-06 0)
(-0.00333573 5.56335e-06 0)
(-0.00335124 3.47149e-06 0)
(-0.00335947 1.36234e-06 0)
(-0.0033604 -7.57149e-07 0)
(-0.00335399 -2.87971e-06 0)
(-0.00334025 -4.99836e-06 0)
(-0.00331921 -7.1057e-06 0)
(-0.00329092 -9.19448e-06 0)
(-0.00325546 -1.12577e-05 0)
(-0.00321294 -1.32879e-05 0)
(-0.00316348 -1.5277e-05 0)
(-0.00310725 -1.72177e-05 0)
(-0.00304442 -1.91023e-05 0)
(-0.00297522 -2.09227e-05 0)
(-0.00289987 -2.2671e-05 0)
(-0.00281865 -2.43391e-05 0)
(-0.00273184 -2.5919e-05 0)
(-0.00263977 -2.74032e-05 0)
(-0.00254278 -2.87841e-05 0)
(-0.00244125 -3.00531e-05 0)
(-0.00233557 -3.12021e-05 0)
(-0.00222618 -3.22233e-05 0)
(-0.00211352 -3.31091e-05 0)
(-0.00199808 -3.38522e-05 0)
(-0.00188036 -3.44453e-05 0)
(-0.00176087 -3.48818e-05 0)
(-0.00164018 -3.51548e-05 0)
(-0.00151885 -3.52574e-05 0)
(-0.00139746 -3.51833e-05 0)
(-0.00127664 -3.49266e-05 0)
(-0.00115699 -3.44822e-05 0)
(-0.00103917 -3.3845e-05 0)
(-0.000923828 -3.30106e-05 0)
(-0.000811627 -3.19753e-05 0)
(-0.00070324 -3.07358e-05 0)
(-0.000599344 -2.92894e-05 0)
(-0.00050062 -2.7634e-05 0)
(-0.000407745 -2.57688e-05 0)
(-0.000321387 -2.36942e-05 0)
(-0.000242205 -2.14119e-05 0)
(-0.000170832 -1.89262e-05 0)
(-0.000107869 -1.62439e-05 0)
(-5.38714e-05 -1.33766e-05 0)
(-9.32939e-06 -1.03415e-05 0)
(2.53614e-05 -7.16573e-06 0)
(4.9938e-05 -3.89191e-06 0)
(6.43326e-05 -5.90407e-07 0)
(6.8772e-05 2.62e-06 0)
(6.39337e-05 5.53465e-06 0)
(5.1164e-05 7.79866e-06 0)
(3.2931e-05 8.78131e-06 0)
(1.41597e-05 7.4135e-06 0)
(2.7387e-06 2.73915e-06 0)
(7.34987e-06 -1.44853e-05 0)
(3.01703e-05 -3.05814e-05 0)
(6.08963e-05 -3.28125e-05 0)
(8.55173e-05 -2.50028e-05 0)
(9.46566e-05 -1.10871e-05 0)
(8.2894e-05 6.28246e-06 0)
(4.69592e-05 2.54216e-05 0)
(-1.49274e-05 4.52572e-05 0)
(-0.000103449 6.50823e-05 0)
(-0.000218503 8.44423e-05 0)
(-0.000359445 0.00010303 0)
(-0.000525244 0.00012064 0)
(-0.000714592 0.000137133 0)
(-0.000925991 0.000152418 0)
(-0.00115781 0.000166439 0)
(-0.00140834 0.00017916 0)
(-0.00167579 0.000190563 0)
(-0.00195835 0.000200647 0)
(-0.0022542 0.000209416 0)
(-0.00256154 0.000216886 0)
(-0.00287854 0.000223077 0)
(-0.00320342 0.000228014 0)
(-0.00353445 0.000231724 0)
(-0.00386989 0.00023424 0)
(-0.00420809 0.000235597 0)
(-0.0045474 0.000235829 0)
(-0.00488626 0.000234974 0)
(-0.00522314 0.000233072 0)
(-0.00555655 0.00023016 0)
(-0.00588508 0.000226278 0)
(-0.00620737 0.000221467 0)
(-0.00652211 0.000215768 0)
(-0.00682804 0.000209222 0)
(-0.00712398 0.000201869 0)
(-0.00740878 0.000193753 0)
(-0.00768139 0.000184914 0)
(-0.00794078 0.000175394 0)
(-0.008186 0.000165235 0)
(-0.00841615 0.000154478 0)
(-0.00863041 0.000143166 0)
(-0.00882801 0.000131342 0)
(-0.00900822 0.000119048 0)
(-0.00917041 0.000106328 0)
(-0.00931399 9.32252e-05 0)
(-0.00943844 7.97826e-05 0)
(-0.0095433 6.6045e-05 0)
(-0.00962819 5.20573e-05 0)
(-0.00969277 3.78652e-05 0)
(-0.00973679 2.35152e-05 0)
(-0.00976004 9.05305e-06 0)
(-0.00976242 -5.47408e-06 0)
(-0.00974386 -2.00175e-05 0)
(-0.00970438 -3.45284e-05 0)
(-0.00964407 -4.8957e-05 0)
(-0.00956308 -6.32529e-05 0)
(-0.00946165 -7.73652e-05 0)
(-0.00934008 -9.12424e-05 0)
(-0.00919876 -0.000104832 0)
(-0.00903814 -0.000118082 0)
(-0.00885875 -0.000130939 0)
(-0.00866121 -0.00014335 0)
(-0.00844619 -0.00015526 0)
(-0.00821447 -0.000166615 0)
(-0.00796688 -0.000177361 0)
(-0.00770435 -0.000187446 0)
(-0.00742785 -0.000196816 0)
(-0.00713847 -0.000205419 0)
(-0.00683735 -0.0002132 0)
(-0.0065257 -0.000220107 0)
(-0.00620481 -0.000226092 0)
(-0.00587604 -0.000231106 0)
(-0.00554081 -0.000235102 0)
(-0.00520062 -0.000238034 0)
(-0.00485702 -0.000239861 0)
(-0.00451161 -0.00024054 0)
(-0.00416605 -0.000240033 0)
(-0.00382206 -0.000238306 0)
(-0.00348139 -0.000235327 0)
(-0.00314582 -0.00023107 0)
(-0.00281719 -0.000225512 0)
(-0.00249733 -0.000218636 0)
(-0.00218811 -0.000210429 0)
(-0.00189137 -0.000200887 0)
(-0.00160899 -0.000190012 0)
(-0.00134279 -0.000177816 0)
(-0.00109456 -0.000164324 0)
(-0.00086603 -0.000149574 0)
(-0.00065885 -0.000133625 0)
(-0.00047454 -0.000116561 0)
(-0.000314454 -9.85012e-05 0)
(-0.000179722 -7.96114e-05 0)
(-7.11667e-05 -6.01268e-05 0)
(1.0809e-05 -4.0383e-05 0)
(6.63756e-05 -2.08679e-05 0)
(9.65045e-05 -2.3056e-06 0)
(0.000103276 1.42163e-05 0)
(9.02271e-05 2.7057e-05 0)
(6.29072e-05 3.37378e-05 0)
(3.06639e-05 3.06639e-05 0)
(7.40374e-06 1.41485e-05 0)
(8.43546e-06 -3.26638e-05 0)
(3.20102e-05 -6.10571e-05 0)
(5.90017e-05 -5.9922e-05 0)
(7.28299e-05 -3.7308e-05 0)
(6.22443e-05 -4.6679e-07 0)
(2.02242e-05 4.52012e-05 0)
(-5.78123e-05 9.58857e-05 0)
(-0.000174598 0.000148914 0)
(-0.000331357 0.000202431 0)
(-0.00052819 0.000255129 0)
(-0.000764374 0.00030609 0)
(-0.00103855 0.000354668 0)
(-0.0013489 0.000400405 0)
(-0.00169329 0.000442984 0)
(-0.0020693 0.000482188 0)
(-0.00247439 0.000517875 0)
(-0.00290586 0.000549961 0)
(-0.00336095 0.000578404 0)
(-0.00383686 0.000603196 0)
(-0.00433078 0.000624355 0)
(-0.00483989 0.000641921 0)
(-0.0053614 0.00065595 0)
(-0.00589257 0.000666508 0)
(-0.00643069 0.000673677 0)
(-0.00697313 0.000677544 0)
(-0.00751729 0.000678202 0)
(-0.00806067 0.000675753 0)
(-0.00860085 0.000670301 0)
(-0.00913546 0.000661953 0)
(-0.00966224 0.00065082 0)
(-0.010179 0.000637016 0)
(-0.0106837 0.000620654 0)
(-0.0111742 0.000601851 0)
(-0.0116487 0.000580724 0)
(-0.0121054 0.000557391 0)
(-0.0125425 0.000531971 0)
(-0.0129584 0.000504585 0)
(-0.0133516 0.000475352 0)
(-0.0137206 0.000444394 0)
(-0.0140642 0.000411833 0)
(-0.0143809 0.000377792 0)
(-0.0146698 0.000342394 0)
(-0.0149298 0.000305766 0)
(-0.0151599 0.000268034 0)
(-0.0153592 0.000229323 0)
(-0.0155272 0.000189764 0)
(-0.0156631 0.000149486 0)
(-0.0157664 0.000108622 0)
(-0.0158367 6.73053e-05 0)
(-0.0158737 2.56722e-05 0)
(-0.0158772 -1.61405e-05 0)
(-0.0158472 -5.79932e-05 0)
(-0.0157836 -9.97442e-05 0)
(-0.0156866 -0.00014125 0)
(-0.0155564 -0.000182367 0)
(-0.0153935 -0.000222945 0)
(-0.0151983 -0.000262837 0)
(-0.0149715 -0.000301892 0)
(-0.0147138 -0.000339959 0)
(-0.014426 -0.000376887 0)
(-0.0141092 -0.00041252 0)
(-0.0137644 -0.000446704 0)
(-0.0133928 -0.000479285 0)
(-0.0129959 -0.000510109 0)
(-0.0125751 -0.000539024 0)
(-0.012132 -0.000565878 0)
(-0.0116683 -0.00059052 0)
(-0.0111858 -0.000612802 0)
(-0.0106865 -0.000632577 0)
(-0.0101725 -0.000649705 0)
(-0.00964585 -0.00066405 0)
(-0.00910889 -0.00067548 0)
(-0.00856397 -0.000683869 0)
(-0.00801358 -0.000689099 0)
(-0.00746025 -0.000691057 0)
(-0.00690662 -0.000689641 0)
(-0.0063554 -0.000684758 0)
(-0.00580935 -0.000676327 0)
(-0.0052713 -0.000664279 0)
(-0.00474411 -0.000648561 0)
(-0.00423066 -0.000629134 0)
(-0.00373386 -0.00060598 0)
(-0.0032566 -0.0005791 0)
(-0.00280175 -0.000548523 0)
(-0.00237211 -0.000514309 0)
(-0.00197042 -0.000476554 0)
(-0.00159931 -0.000435404 0)
(-0.0012612 -0.000391065 0)
(-0.000958338 -0.00034382 0)
(-0.000692661 -0.000294055 0)
(-0.000465724 -0.000242295 0)
(-0.00027858 -0.000189256 0)
(-0.000131623 -0.000135917 0)
(-2.43764e-05 -8.36359e-05 0)
(4.47721e-05 -3.43027e-05 0)
(7.89226e-05 9.43184e-06 0)
(8.29939e-05 4.38685e-05 0)
(6.41859e-05 6.39325e-05 0)
(3.38495e-05 6.29303e-05 0)
(8.78722e-06 3.29167e-05 0)
(7.34288e-06 -4.97597e-05 0)
(2.45711e-05 -8.5361e-05 0)
(3.69114e-05 -7.37138e-05 0)
(2.75355e-05 -2.78121e-05 0)
(-1.52779e-05 4.16569e-05 0)
(-9.9233e-05 0.000126431 0)
(-0.000229579 0.000220342 0)
(-0.000409552 0.000318871 0)
(-0.000640724 0.000418715 0)
(-0.000923346 0.000517457 0)
(-0.00125664 0.000613341 0)
(-0.00163903 0.000705083 0)
(-0.00206833 0.000791746 0)
(-0.0025419 0.00087266 0)
(-0.00305675 0.00094735 0)
(-0.00360961 0.00101549 0)
(-0.00419706 0.00107687 0)
(-0.00481553 0.00113138 0)
(-0.0054614 0.00117895 0)
(-0.00613097 0.0012196 0)
(-0.00682056 0.00125338 0)
(-0.0075265 0.00128036 0)
(-0.00824516 0.00130067 0)
(-0.00897294 0.00131444 0)
(-0.00970633 0.00132184 0)
(-0.0104419 0.00132302 0)
(-0.0111763 0.00131817 0)
(-0.0119062 0.0013075 0)
(-0.0126286 0.0012912 0)
(-0.0133403 0.00126948 0)
(-0.0140385 0.00124255 0)
(-0.0147202 0.00121064 0)
(-0.0153829 0.00117397 0)
(-0.0160239 0.00113276 0)
(-0.0166408 0.00108725 0)
(-0.0172312 0.00103766 0)
(-0.017793 0.000984226 0)
(-0.018324 0.000927185 0)
(-0.0188224 0.000866772 0)
(-0.0192863 0.000803226 0)
(-0.0197141 0.000736787 0)
(-0.0201041 0.000667699 0)
(-0.0204551 0.000596207 0)
(-0.0207657 0.000522558 0)
(-0.0210348 0.000447001 0)
(-0.0212614 0.000369791 0)
(-0.0214447 0.000291182 0)
(-0.0215839 0.000211433 0)
(-0.0216786 0.000130807 0)
(-0.0217282 4.95692e-05 0)
(-0.0217327 -3.20093e-05 0)
(-0.0216917 -0.000113656 0)
(-0.0216055 -0.000195094 0)
(-0.0214741 -0.000276043 0)
(-0.021298 -0.000356219 0)
(-0.0210777 -0.000435335 0)
(-0.0208139 -0.0005131 0)
(-0.0205073 -0.00058922 0)
(-0.020159 -0.000663402 0)
(-0.0197702 -0.000735348 0)
(-0.0193423 -0.000804759 0)
(-0.0188766 -0.000871335 0)
(-0.0183748 -0.000934777 0)
(-0.0178389 -0.000994787 0)
(-0.0172707 -0.00105107 0)
(-0.0166725 -0.00110333 0)
(-0.0160465 -0.00115128 0)
(-0.0153952 -0.00119463 0)
(-0.0147212 -0.0012331 0)
(-0.0140274 -0.00126643 0)
(-0.0133165 -0.00129435 0)
(-0.0125916 -0.00131661 0)
(-0.011856 -0.00133298 0)
(-0.0111129 -0.00134322 0)
(-0.0103658 -0.00134713 0)
(-0.00961805 -0.00134451 0)
(-0.00887337 -0.00133521 0)
(-0.00813541 -0.00131907 0)
(-0.00740793 -0.00129597 0)
(-0.00669469 -0.00126582 0)
(-0.00599952 -0.00122857 0)
(-0.00532622 -0.0011842 0)
(-0.0046786 -0.00113273 0)
(-0.00406039 -0.00107425 0)
(-0.00347524 -0.00100891 0)
(-0.00292668 -0.000936937 0)
(-0.00241805 -0.000858642 0)
(-0.00195245 -0.00077447 0)
(-0.00153267 -0.000685016 0)
(-0.0011611 -0.000591073 0)
(-0.0008396 -0.000493691 0)
(-0.000569385 -0.000394268 0)
(-0.000350817 -0.000294662 0)
(-0.000183207 -0.000197359 0)
(-6.45303e-05 -0.000105692 0)
(8.89489e-06 -2.4135e-05 0)
(4.27067e-05 4.13378e-05 0)
(4.48976e-05 8.28968e-05 0)
(2.74926e-05 9.05257e-05 0)
(7.86688e-06 5.12532e-05 0)
(5.06597e-06 -6.11161e-05 0)
(1.13879e-05 -9.45815e-05 0)
(1.31184e-06 -6.3375e-05 0)
(-4.03058e-05 1.48643e-05 0)
(-0.00012462 0.000126176 0)
(-0.000259426 0.000259533 0)
(-0.0004501 0.000406464 0)
(-0.000700024 0.000560546 0)
(-0.00101087 0.000716927 0)
(-0.00138291 0.000871956 0)
(-0.00181529 0.00102289 0)
(-0.00230623 0.00116766 0)
(-0.00285324 0.00130476 0)
(-0.00345327 0.00143304 0)
(-0.00410283 0.00155168 0)
(-0.00479811 0.0016601 0)
(-0.00553504 0.00175792 0)
(-0.00630939 0.00184488 0)
(-0.00711679 0.00192086 0)
(-0.00795282 0.00198582 0)
(-0.00881303 0.00203982 0)
(-0.00969297 0.00208296 0)
(-0.0105882 0.0021154 0)
(-0.0114944 0.00213733 0)
(-0.0124072 0.002149 0)
(-0.0133224 0.00215065 0)
(-0.014236 0.00214257 0)
(-0.0151438 0.00212507 0)
(-0.016042 0.00209847 0)
(-0.0169269 0.00206309 0)
(-0.0177949 0.00201927 0)
(-0.0186423 0.00196737 0)
(-0.019466 0.00190774 0)
(-0.0202627 0.00184074 0)
(-0.0210293 0.00176674 0)
(-0.0217631 0.00168612 0)
(-0.0224611 0.00159926 0)
(-0.023121 0.00150652 0)
(-0.0237402 0.00140831 0)
(-0.0243165 0.001305 0)
(-0.0248479 0.00119698 0)
(-0.0253324 0.00108466 0)
(-0.0257683 0.000968431 0)
(-0.026154 0.000848695 0)
(-0.0264881 0.000725863 0)
(-0.0267694 0.000600346 0)
(-0.0269968 0.000472563 0)
(-0.0271695 0.000342935 0)
(-0.0272868 0.00021189 0)
(-0.0273482 7.98616e-05 0)
(-0.0273533 -5.27096e-05 0)
(-0.0273021 -0.000185378 0)
(-0.0271946 -0.000317694 0)
(-0.0270311 -0.000449201 0)
(-0.0268121 -0.000579437 0)
(-0.0265381 -0.000707934 0)
(-0.02621 -0.000834221 0)
(-0.0258289 -0.000957823 0)
(-0.0253961 -0.00107826 0)
(-0.0249129 -0.00119505 0)
(-0.0243811 -0.00130771 0)
(-0.0238025 -0.00141576 0)
(-0.0231792 -0.00151871 0)
(-0.0225135 -0.00161608 0)
(-0.0218077 -0.0017074 0)
(-0.0210646 -0.00179218 0)
(-0.0202871 -0.00186997 0)
(-0.0194781 -0.00194031 0)
(-0.018641 -0.00200274 0)
(-0.0177791 -0.00205685 0)
(-0.0168961 -0.00210221 0)
(-0.0159956 -0.00213841 0)
(-0.0150816 -0.0021651 0)
(-0.0141581 -0.0021819 0)
(-0.0132294 -0.00218849 0)
(-0.0122997 -0.00218459 0)
(-0.0113735 -0.00216992 0)
(-0.0104553 -0.00214427 0)
(-0.0095495 -0.00210746 0)
(-0.00866088 -0.00205936 0)
(-0.00779401 -0.00199992 0)
(-0.00695351 -0.00192913 0)
(-0.00614397 -0.00184707 0)
(-0.00536987 -0.00175391 0)
(-0.0046356 -0.00164992 0)
(-0.00394534 -0.00153551 0)
(-0.00330306 -0.00141124 0)
(-0.0027124 -0.00127788 0)
(-0.00217661 -0.00113643 0)
(-0.00169846 -0.000988186 0)
(-0.00128006 -0.000834867 0)
(-0.000922779 -0.000678685 0)
(-0.000627004 -0.000522522 0)
(-0.000391968 -0.000370127 0)
(-0.000215486 -0.000226381 0)
(-9.36683e-05 -9.76369e-05 0)
(-2.06554e-05 7.87161e-06 0)
(1.17394e-05 7.96284e-05 0)
(1.5198e-05 0.000104362 0)
(5.71508e-06 6.43574e-05 0)
(2.1964e-06 -6.44768e-05 0)
(-5.19095e-06 -8.35731e-05 0)
(-4.2936e-05 -2.21784e-05 0)
(-0.000123178 9.82421e-05 0)
(-0.000255764 0.000260778 0)
(-0.000448087 0.000451898 0)
(-0.000705265 0.000660954 0)
(-0.0010305 0.000879668 0)
(-0.00142534 0.00110164 0)
(-0.00188993 0.00132192 0)
(-0.00242324 0.0015367 0)
(-0.00302328 0.00174309 0)
(-0.00368727 0.00193885 0)
(-0.0044118 0.00212231 0)
(-0.00519295 0.00229225 0)
(-0.00602641 0.00244776 0)
(-0.00690758 0.0025882 0)
(-0.00783163 0.00271318 0)
(-0.00879359 0.00282244 0)
(-0.00978838 0.0029159 0)
(-0.0108109 0.00299358 0)
(-0.0118559 0.0030556 0)
(-0.0129184 0.00310215 0)
(-0.0139933 0.00313348 0)
(-0.0150755 0.00314992 0)
(-0.0161602 0.00315183 0)
(-0.0172425 0.00313958 0)
(-0.0183178 0.00311362 0)
(-0.0193815 0.00307438 0)
(-0.0204292 0.00302234 0)
(-0.0214567 0.00295799 0)
(-0.0224597 0.00288182 0)
(-0.0234345 0.00279436 0)
(-0.0243773 0.00269613 0)
(-0.0252844 0.00258766 0)
(-0.0261525 0.00246949 0)
(-0.0269784 0.00234218 0)
(-0.027759 0.00220628 0)
(-0.0284914 0.00206235 0)
(-0.0291731 0.00191096 0)
(-0.0298015 0.00175269 0)
(-0.0303744 0.00158811 0)
(-0.0308898 0.0014178 0)
(-0.0313458 0.00124237 0)
(-0.0317407 0.00106241 0)
(-0.0320731 0.000878519 0)
(-0.0323418 0.000691321 0)
(-0.0325458 0.000501432 0)
(-0.0326842 0.000309481 0)
(-0.0327565 0.000116104 0)
(-0.0327623 -7.80523e-05 0)
(-0.0327014 -0.000272336 0)
(-0.032574 -0.000466086 0)
(-0.0323803 -0.000658633 0)
(-0.0321209 -0.000849301 0)
(-0.0317966 -0.00103741 0)
(-0.0314084 -0.00122226 0)
(-0.0309576 -0.00140316 0)
(-0.0304455 -0.00157942 0)
(-0.029874 -0.00175032 0)
(-0.029245 -0.00191517 0)
(-0.0285607 -0.00207326 0)
(-0.0278235 -0.00222388 0)
(-0.0270362 -0.00236633 0)
(-0.0262016 -0.00249993 0)
(-0.0253228 -0.00262398 0)
(-0.0244033 -0.00273781 0)
(-0.0234465 -0.00284075 0)
(-0.0224564 -0.00293217 0)
(-0.0214369 -0.00301143 0)
(-0.0203923 -0.00307795 0)
(-0.0193269 -0.00313114 0)
(-0.0182453 -0.00317047 0)
(-0.0171522 -0.00319543 0)
(-0.0160526 -0.00320556 0)
(-0.0149515 -0.00320046 0)
(-0.013854 -0.00317975 0)
(-0.0127654 -0.00314314 0)
(-0.0116909 -0.0030904 0)
(-0.0106359 -0.00302137 0)
(-0.00960575 -0.00293599 0)
(-0.00860579 -0.00283429 0)
(-0.00764128 -0.00271643 0)
(-0.00671739 -0.00258268 0)
(-0.0058391 -0.0024335 0)
(-0.00501121 -0.00226953 0)
(-0.00423821 -0.00209164 0)
(-0.00352421 -0.00190096 0)
(-0.00287287 -0.001699 0)
(-0.00228729 -0.00148767 0)
(-0.00176985 -0.00126941 0)
(-0.00132208 -0.00104735 0)
(-0.000944505 -0.000825488 0)
(-0.000636435 -0.000608876 0)
(-0.000395749 -0.000403968 0)
(-0.000218666 -0.000218957 0)
(-9.94967e-05 -6.42299e-05 0)
(-3.03259e-05 4.72008e-05 0)
(-5.94086e-07 9.91149e-05 0)
(2.95597e-06 6.98776e-05 0)
(-9.3219e-07 -5.86208e-05 0)
(-2.36285e-05 -4.90621e-05 0)
(-9.23755e-05 5.4501e-05 0)
(-0.000215559 0.00022767 0)
(-0.000401172 0.000451091 0)
(-0.000655852 0.000709029 0)
(-0.000984149 0.000988867 0)
(-0.00138881 0.0012806 0)
(-0.00187106 0.00157633 0)
(-0.00243076 0.00186982 0)
(-0.00306663 0.0021562 0)
(-0.00377638 0.00243165 0)
(-0.00455694 0.00269321 0)
(-0.00540453 0.00293863 0)
(-0.00631484 0.0031662 0)
(-0.00728314 0.00337463 0)
(-0.00830432 0.00356303 0)
(-0.00937305 0.00373077 0)
(-0.0104838 0.00387748 0)
(-0.0116309 0.00400298 0)
(-0.0128087 0.00410724 0)
(-0.0140113 0.00419038 0)
(-0.0152331 0.00425262 0)
(-0.0164684 0.00429428 0)
(-0.0177114 0.00431575 0)
(-0.0189567 0.0043175 0)
(-0.0201989 0.00430003 0)
(-0.0214325 0.0042639 0)
(-0.0226525 0.0042097 0)
(-0.0238539 0.00413807 0)
(-0.0250319 0.00404964 0)
(-0.0261817 0.00394511 0)
(-0.0272989 0.00382515 0)
(-0.0283793 0.00369049 0)
(-0.0294187 0.00354184 0)
(-0.0304132 0.00337995 0)
(-0.0313593 0.00320555 0)
(-0.0322534 0.00301942 0)
(-0.0330923 0.0028223 0)
(-0.0338729 0.00261498 0)
(-0.0345925 0.00239825 0)
(-0.0352486 0.0021729 0)
(-0.0358386 0.00193972 0)
(-0.0363606 0.00169954 0)
(-0.0368126 0.00145317 0)
(-0.0371931 0.00120144 0)
(-0.0375005 0.000945189 0)
(-0.0377338 0.000685274 0)
(-0.037892 0.000422555 0)
(-0.0379745 0.000157903 0)
(-0.0379809 -0.000107798 0)
(-0.0379109 -0.000373654 0)
(-0.0377647 -0.000638759 0)
(-0.0375428 -0.000902199 0)
(-0.0372456 -0.00116305 0)
(-0.036874 -0.00142037 0)
(-0.0364294 -0.00167323 0)
(-0.035913 -0.00192067 0)
(-0.0353266 -0.00216174 0)
(-0.0346721 -0.00239548 0)
(-0.0339518 -0.00262092 0)
(-0.0331682 -0.00283712 0)
(-0.0323241 -0.0030431 0)
(-0.0314225 -0.00323793 0)
(-0.0304667 -0.00342066 0)
(-0.0294604 -0.00359035 0)
(-0.0284073 -0.0037461 0)
(-0.0273115 -0.003887 0)
(-0.0261774 -0.00401219 0)
(-0.0250095 -0.00412083 0)
(-0.0238125 -0.00421211 0)
(-0.0225915 -0.00428527 0)
(-0.0213517 -0.00433958 0)
(-0.0200984 -0.00437437 0)
(-0.0188372 -0.00438904 0)
(-0.0175736 -0.00438304 0)
(-0.0163136 -0.00435591 0)
(-0.0150631 -0.00430725 0)
(-0.0138279 -0.0042368 0)
(-0.0126141 -0.00414436 0)
(-0.0114277 -0.00402989 0)
(-0.0102747 -0.00389347 0)
(-0.00916098 -0.00373535 0)
(-0.00809222 -0.00355597 0)
(-0.00707401 -0.00335599 0)
(-0.00611167 -0.00313632 0)
(-0.00521015 -0.00289817 0)
(-0.00437402 -0.00264315 0)
(-0.0036073 -0.00237329 0)
(-0.00291343 -0.00209117 0)
(-0.00229508 -0.00180004 0)
(-0.00175402 -0.001504 0)
(-0.00129101 -0.00120815 0)
(-0.000905568 -0.00091887 0)
(-0.000595864 -0.000644143 0)
(-0.000358483 -0.000393899 0)
(-0.000188218 -0.000180495 0)
(-7.77929e-05 -1.91593e-05 0)
(-1.83148e-05 7.13952e-05 0)
(-6.83205e-08 6.65534e-05 0)
(-4.12897e-06 -4.29405e-05 0)
(-4.29378e-05 1.09065e-05 0)
(-0.00014465 0.00016964 0)
(-0.000313502 0.000406792 0)
(-0.000555325 0.000701066 0)
(-0.000875736 0.00103488 0)
(-0.00127846 0.00139391 0)
(-0.0017656 0.00176659 0)
(-0.00233785 0.0021436 0)
(-0.00299466 0.0025175 0)
(-0.00373439 0.00288235 0)
(-0.00455441 0.00323343 0)
(-0.00545128 0.00356702 0)
(-0.00642086 0.00388025 0)
(-0.00745847 0.00417089 0)
(-0.00855893 0.00443726 0)
(-0.00971672 0.00467814 0)
(-0.010926 0.00489269 0)
(-0.0121808 0.00508034 0)
(-0.0134749 0.00524081 0)
(-0.0148021 0.00537403 0)
(-0.016156 0.00548007 0)
(-0.0175303 0.0055592 0)
(-0.0189188 0.00561178 0)
(-0.0203153 0.00563829 0)
(-0.0217136 0.00563928 0)
(-0.0231077 0.00561539 0)
(-0.0244919 0.00556732 0)
(-0.0258603 0.00549582 0)
(-0.0272075 0.00540169 0)
(-0.028528 0.00528575 0)
(-0.0298167 0.00514887 0)
(-0.0310687 0.00499194 0)
(-0.0322792 0.00481588 0)
(-0.0334436 0.00462162 0)
(-0.0345576 0.00441012 0)
(-0.0356172 0.00418234 0)
(-0.0366185 0.00393927 0)
(-0.0375578 0.00368191 0)
(-0.0384319 0.00341125 0)
(-0.0392375 0.00312834 0)
(-0.0399719 0.00283419 0)
(-0.0406324 0.00252986 0)
(-0.0412166 0.0022164 0)
(-0.0417224 0.00189489 0)
(-0.0421481 0.00156641 0)
(-0.0424921 0.00123205 0)
(-0.042753 0.000892937 0)
(-0.0429299 0.000550183 0)
(-0.0430221 0.000204929 0)
(-0.043029 -0.000141671 0)
(-0.0429505 -0.000488451 0)
(-0.0427867 -0.000834232 0)
(-0.0425381 -0.00117782 0)
(-0.0422053 -0.00151801 0)
(-0.0417894 -0.00185358 0)
(-0.0412916 -0.00218332 0)
(-0.0407135 -0.00250598 0)
(-0.0400571 -0.00282032 0)
(-0.0393245 -0.0031251 0)
(-0.0385182 -0.00341906 0)
(-0.037641 -0.00370098 0)
(-0.0366961 -0.0039696 0)
(-0.0356868 -0.00422369 0)
(-0.0346168 -0.00446203 0)
(-0.03349 -0.00468342 0)
(-0.0323108 -0.00488668 0)
(-0.0310837 -0.00507066 0)
(-0.0298134 -0.00523423 0)
(-0.028505 -0.00537632 0)
(-0.0271639 -0.0054959 0)
(-0.0257954 -0.00559197 0)
(-0.0244055 -0.00566362 0)
(-0.023 -0.00571001 0)
(-0.021585 -0.00573036 0)
(-0.0201668 -0.00572399 0)
(-0.0187518 -0.00569033 0)
(-0.0173464 -0.0056289 0)
(-0.0159574 -0.00553937 0)
(-0.0145912 -0.00542155 0)
(-0.0132544 -0.0052754 0)
(-0.0119536 -0.00510109 0)
(-0.0106953 -0.00489897 0)
(-0.0094856 -0.00466967 0)
(-0.00833072 -0.00441408 0)
(-0.0072364 -0.00413342 0)
(-0.00620804 -0.00382932 0)
(-0.00525063 -0.00350383 0)
(-0.00436857 -0.0031596 0)
(-0.00356564 -0.00279991 0)
(-0.00284484 -0.00242884 0)
(-0.00220827 -0.00205144 0)
(-0.00165701 -0.00167394 0)
(-0.00119097 -0.00130401 0)
(-0.000808748 -0.000951055 0)
(-0.000507525 -0.000626594 0)
(-0.000282818 -0.000344732 0)
(-0.000128261 -0.000122579 0)
(-3.69694e-05 1.9158e-05 0)
(-3.16909e-06 5.37488e-05 0)
(-7.29745e-06 -1.72196e-05 0)
(-6.25196e-05 9.73231e-05 0)
(-0.000198178 0.000324972 0)
(-0.000414259 0.000637884 0)
(-0.00071426 0.00101331 0)
(-0.0011026 0.00143218 0)
(-0.001582 0.00187872 0)
(-0.00215374 0.00233999 0)
(-0.00281786 0.00280541 0)
(-0.00357327 0.00326639 0)
(-0.00441784 0.00371597 0)
(-0.00534855 0.00414856 0)
(-0.00636153 0.0045597 0)
(-0.00745228 0.00494586 0)
(-0.0086157 0.0053043 0)
(-0.0098462 0.00563292 0)
(-0.0111378 0.00593015 0)
(-0.0124843 0.00619489 0)
(-0.0138792 0.0064264 0)
(-0.0153159 0.00662427 0)
(-0.0167875 0.00678833 0)
(-0.0182873 0.00691865 0)
(-0.0198085 0.0070155 0)
(-0.0213442 0.00707928 0)
(-0.0228878 0.00711057 0)
(-0.0244326 0.00711001 0)
(-0.0259721 0.00707837 0)
(-0.0274999 0.0070165 0)
(-0.0290098 0.00692531 0)
(-0.0304959 0.00680579 0)
(-0.0319521 0.00665894 0)
(-0.033373 0.00648585 0)
(-0.034753 0.00628762 0)
(-0.0360871 0.00606538 0)
(-0.0373701 0.00582031 0)
(-0.0385975 0.00555358 0)
(-0.0397647 0.00526642 0)
(-0.0408675 0.00496004 0)
(-0.0419021 0.00463572 0)
(-0.0428646 0.0042947 0)
(-0.0437517 0.00393827 0)
(-0.0445602 0.00356774 0)
(-0.0452873 0.00318442 0)
(-0.0459304 0.00278964 0)
(-0.0464873 0.00238474 0)
(-0.0469558 0.0019711 0)
(-0.0473344 0.0015501 0)
(-0.0476215 0.00112312 0)
(-0.0478161 0.000691591 0)
(-0.0479175 0.000256942 0)
(-0.047925 -0.000179378 0)
(-0.0478385 -0.000615901 0)
(-0.0476582 -0.00105114 0)
(-0.0473845 -0.00148361 0)
(-0.0470182 -0.00191178 0)
(-0.0465604 -0.00233412 0)
(-0.0460124 -0.00274911 0)
(-0.0453761 -0.00315519 0)
(-0.0446536 -0.0035508 0)
(-0.0438472 -0.00393438 0)
(-0.0429596 -0.00430438 0)
(-0.041994 -0.00465922 0)
(-0.0409537 -0.00499737 0)
(-0.0398424 -0.00531728 0)
(-0.0386642 -0.00561743 0)
(-0.0374234 -0.00589631 0)
(-0.0361246 -0.00615246 0)
(-0.0347728 -0.00638444 0)
(-0.0333733 -0.00659086 0)
(-0.0319314 -0.00677038 0)
(-0.0304531 -0.00692172 0)
(-0.0289442 -0.00704367 0)
(-0.0274112 -0.00713509 0)
(-0.0258603 -0.00719494 0)
(-0.0242983 -0.00722228 0)
(-0.022732 -0.00721629 0)
(-0.0211683 -0.00717627 0)
(-0.0196143 -0.00710167 0)
(-0.018077 -0.00699211 0)
(-0.0165636 -0.00684738 0)
(-0.0150813 -0.00666748 0)
(-0.0136371 -0.00645265 0)
(-0.0122379 -0.0062034 0)
(-0.0108905 -0.00592054 0)
(-0.00960154 -0.00560523 0)
(-0.00837716 -0.00525902 0)
(-0.00722324 -0.00488397 0)
(-0.00614516 -0.00448265 0)
(-0.00514772 -0.0040583 0)
(-0.00423509 -0.00361492 0)
(-0.00341064 -0.00315743 0)
(-0.00267688 -0.00269184 0)
(-0.00203531 -0.00222545 0)
(-0.00148635 -0.00176713 0)
(-0.00102919 -0.0013276 0)
(-0.000661761 -0.000919808 0)
(-0.000380499 -0.000559362 0)
(-0.000180123 -0.000264907 0)
(-5.59394e-05 -5.86665e-05 0)
(-6.24535e-06 3.12265e-05 0)
(-1.03886e-05 1.85208e-05 0)
(-8.20017e-05 0.000210546 0)
(-0.000251931 0.000521328 0)
(-0.000515954 0.000922195 0)
(-0.00087518 0.00138938 0)
(-0.00133273 0.00190265 0)
(-0.0018902 0.00244505 0)
(-0.00254792 0.00300244 0)
(-0.00330515 0.00356313 0)
(-0.00416016 0.0041175 0)
(-0.00511025 0.00465764 0)
(-0.00615191 0.00517713 0)
(-0.00728083 0.00567078 0)
(-0.00849206 0.00613443 0)
(-0.00978007 0.00656483 0)
(-0.0111389 0.00695942 0)
(-0.0125621 0.00731631 0)
(-0.0140431 0.00763412 0)
(-0.0155749 0.0079119 0)
(-0.0171504 0.00814909 0)
(-0.0187624 0.00834547 0)
(-0.0204036 0.00850106 0)
(-0.0220668 0.00861612 0)
(-0.0237446 0.00869112 0)
(-0.02543 0.00872669 0)
(-0.0271157 0.00872359 0)
(-0.0287948 0.00868273 0)
(-0.0304604 0.0086051 0)
(-0.032106 0.0084918 0)
(-0.0337249 0.00834398 0)
(-0.0353109 0.00816288 0)
(-0.036858 0.00794978 0)
(-0.0383602 0.00770602 0)
(-0.0398121 0.00743298 0)
(-0.0412083 0.00713206 0)
(-0.0425436 0.00680471 0)
(-0.0438133 0.00645241 0)
(-0.0450128 0.00607665 0)
(-0.0461379 0.00567896 0)
(-0.0471845 0.00526088 0)
(-0.0481491 0.00482398 0)
(-0.0490282 0.00436985 0)
(-0.0498186 0.0039001 0)
(-0.0505178 0.00341636 0)
(-0.0511231 0.00292027 0)
(-0.0516324 0.0024135 0)
(-0.0520438 0.00189775 0)
(-0.0523559 0.00137472 0)
(-0.0525675 0.000846147 0)
(-0.0526777 0.000313781 0)
(-0.0526859 -0.000220604 0)
(-0.0525921 -0.000755215 0)
(-0.0523962 -0.00128824 0)
(-0.0520989 -0.00181784 0)
(-0.0517009 -0.00234217 0)
(-0.0512034 -0.00285937 0)
(-0.050608 -0.00336755 0)
(-0.0499166 -0.00386483 0)
(-0.0491315 -0.00434931 0)
(-0.0482551 -0.00481908 0)
(-0.0472905 -0.00527224 0)
(-0.0462409 -0.0057069 0)
(-0.0451101 -0.00612117 0)
(-0.0439019 -0.00651318 0)
(-0.0426209 -0.00688106 0)
(-0.0412715 -0.00722302 0)
(-0.0398589 -0.00753725 0)
(-0.0383883 -0.00782202 0)
(-0.0368655 -0.00807565 0)
(-0.0352962 -0.00829652 0)
(-0.0336867 -0.00848309 0)
(-0.0320435 -0.00863389 0)
(-0.0303733 -0.00874756 0)
(-0.028683 -0.00882287 0)
(-0.0269798 -0.00885868 0)
(-0.0252709 -0.00885403 0)
(-0.0235638 -0.0088081 0)
(-0.0218661 -0.00872025 0)
(-0.0201853 -0.00859005 0)
(-0.0185291 -0.00841728 0)
(-0.0169052 -0.008202 0)
(-0.015321 -0.00794453 0)
(-0.013784 -0.00764553 0)
(-0.0123015 -0.00730603 0)
(-0.0108804 -0.00692746 0)
(-0.0095275 -0.00651174 0)
(-0.00824898 -0.00606134 0)
(-0.00705067 -0.00557937 0)
(-0.00593781 -0.00506969 0)
(-0.00491498 -0.004537 0)
(-0.00398599 -0.00398706 0)
(-0.00315382 -0.00342677 0)
(-0.00242051 -0.00286447 0)
(-0.00178706 -0.00231013 0)
(-0.0012534 -0.00177566 0)
(-0.000818345 -0.00127525 0)
(-0.000479343 -0.000825766 0)
(-0.000232325 -0.000447072 0)
(-7.48481e-05 -0.000162495 0)
(-9.24522e-06 -1.01312e-06 0)
(-1.33773e-05 6.41279e-05 0)
(-0.000101172 0.000350518 0)
(-0.000305258 0.000758913 0)
(-0.000617338 0.00126024 0)
(-0.00103616 0.00183005 0)
(-0.0015635 0.00244725 0)
(-0.00219977 0.00309391 0)
(-0.00294424 0.00375493 0)
(-0.00379531 0.00441764 0)
(-0.0047505 0.0050715 0)
(-0.00580651 0.00570773 0)
(-0.00695923 0.00631915 0)
(-0.00820385 0.00689986 0)
(-0.00953496 0.00744512 0)
(-0.0109466 0.00795116 0)
(-0.0124323 0.00841499 0)
(-0.0139853 0.00883438 0)
(-0.0155985 0.00920767 0)
(-0.0172646 0.0095337 0)
(-0.0189759 0.00981178 0)
(-0.0207248 0.0100416 0)
(-0.0225038 0.0102231 0)
(-0.0243049 0.0103565 0)
(-0.0261206 0.0104425 0)
(-0.0279432 0.0104816 0)
(-0.0297651 0.0104748 0)
(-0.0315789 0.0104231 0)
(-0.0333774 0.0103277 0)
(-0.0351534 0.0101898 0)
(-0.0369001 0.0100107 0)
(-0.0386107 0.00979205 0)
(-0.0402789 0.0095352 0)
(-0.0418983 0.00924178 0)
(-0.0434631 0.00891342 0)
(-0.0449675 0.00855179 0)
(-0.0464061 0.00815861 0)
(-0.0477738 0.00773563 0)
(-0.0490657 0.00728464 0)
(-0.0502773 0.00680745 0)
(-0.0514043 0.00630591 0)
(-0.0524429 0.0057819 0)
(-0.0533893 0.00523729 0)
(-0.0542403 0.00467403 0)
(-0.0549929 0.00409406 0)
(-0.0556445 0.00349934 0)
(-0.0561927 0.00289188 0)
(-0.0566357 0.00227369 0)
(-0.0569718 0.00164682 0)
(-0.0571997 0.00101335 0)
(-0.0573184 0.000375362 0)
(-0.0573275 -0.000265015 0)
(-0.0572268 -0.00090564 0)
(-0.0570163 -0.00154434 0)
(-0.0566967 -0.00217894 0)
(-0.0562687 -0.00280721 0)
(-0.0557337 -0.00342694 0)
(-0.0550934 -0.00403589 0)
(-0.0543497 -0.00463178 0)
(-0.053505 -0.00521237 0)
(-0.0525621 -0.00577538 0)
(-0.0515241 -0.00631856 0)
(-0.0503946 -0.00683963 0)
(-0.0491775 -0.00733635 0)
(-0.047877 -0.00780649 0)
(-0.0464978 -0.00824785 0)