/*--------------------------------*- C++ -*----------------------------------*\
| =========                 |                                                 |
| \\      /  F ield         | OpenFOAM: The Open Source CFD Toolbox           |
|  \\    /   O peration     | Version:  2212                                  |
|   \\  /    A nd           | Website:  www.openfoam.com                      |
|    \\/     M anipulation  |                                                 |
\*---------------------------------------------------------------------------*/
FoamFile
{
    version     2.0;
    format      ascii;
    arch        "LSB;label=32;scalar=64";
    class       volScalarField;
    location    "0.027";
    object      p;
}
// * * * * * * * * * * * * * * * * * * * * * * * * * * * * * * * * * * * * * //

dimensions      [0 2 -2 0 0 0 0];

internalField   nonuniform List<scalar> 
10000
(
1.23232e-07
-6.46348e-05
-0.000433986
-0.0010666
-0.00189416
-0.00287862
-0.00397769
-0.00515099
-0.00636201
-0.00757857
-0.0087729
-0.00992118
-0.011003
-0.012001
-0.0129003
-0.0136884
-0.0143546
-0.0148904
-0.0152889
-0.0155446
-0.015653
-0.0156109
-0.0154159
-0.0150669
-0.0145639
-0.0139074
-0.0130986
-0.0121392
-0.0110319
-0.00978012
-0.00838751
-0.00685813
-0.00519641
-0.00340716
-0.00149556
0.000532739
0.00267154
0.00491446
0.0072551
0.00968685
0.0122027
0.0147956
0.0174586
0.0201843
0.0229653
0.0257934
0.0286612
0.0315608
0.0344844
0.0374237
0.0403706
0.0433167
0.0462542
0.0491749
0.0520705
0.0549325
0.0577525
0.0605227
0.0632352
0.0658819
0.068455
0.0709462
0.0733478
0.0756523
0.0778528
0.0799426
0.0819147
0.0837627
0.0854802
0.0870617
0.088502
0.0897968
0.090942
0.0919342
0.0927705
0.0934486
0.093967
0.0943256
0.094525
0.0945671
0.0944548
0.094192
0.093784
0.0932373
0.0925601
0.0917623
0.0908557
0.0898544
0.0887746
0.0876353
0.0864584
0.0852691
0.084096
0.0829734
0.0819395
0.0810381
0.0803166
0.0798245
0.0796099
0.0796531
-0.000137169
-0.000192959
-0.000512028
-0.001052
-0.00175929
-0.0026011
-0.00354438
-0.00455613
-0.00560545
-0.00666434
-0.0077078
-0.00871389
-0.00966346
-0.0105399
-0.011329
-0.0120183
-0.0125975
-0.0130577
-0.0133918
-0.0135941
-0.0136602
-0.0135864
-0.0133703
-0.0130102
-0.0125055
-0.0118564
-0.0110639
-0.0101294
-0.00905496
-0.00784364
-0.00649869
-0.00502375
-0.00342314
-0.00170141
0.000136886
0.00208659
0.00414182
0.00629644
0.00854444
0.0108796
0.0132952
0.0157845
0.0183408
0.0209572
0.0236265
0.026341
0.0290934
0.0318762
0.0346819
0.0375025
0.0403301
0.0431569
0.0459755
0.0487778
0.0515558
0.0543014
0.0570067
0.059664
0.062266
0.0648051
0.0672735
0.0696635
0.0719677
0.0741794
0.0762918
0.0782986
0.0801935
0.0819702
0.083623
0.0851465
0.0865362
0.0877882
0.0888989
0.0898654
0.0906849
0.0913557
0.0918768
0.0922482
0.0924711
0.0925474
0.0924803
0.0922741
0.0919341
0.0914672
0.0908814
0.0901867
0.0893946
0.0885186
0.0875745
0.0865801
0.0855558
0.0845245
0.0835123
0.0825484
0.0816651
0.0808977
0.0802814
0.0798515
0.0796527
0.0796963
-5.81606e-05
-9.94461e-05
-0.000379759
-0.000861427
-0.00149309
-0.00224396
-0.00308501
-0.00398745
-0.00492437
-0.00587104
-0.00680505
-0.00770632
-0.00855708
-0.00934162
-0.0100464
-0.0106596
-0.0111711
-0.0115723
-0.0118558
-0.012016
-0.0120482
-0.0119489
-0.0117155
-0.0113461
-0.0108398
-0.0101962
-0.0094163
-0.00850133
-0.00745306
-0.00627401
-0.00496723
-0.00353612
-0.00198466
-0.000317097
0.00146221
0.00334839
0.00533592
0.00741902
0.00959194
0.0118487
0.0141829
0.0165879
0.0190575
0.021585
0.0241634
0.0267854
0.0294439
0.0321316
0.0348412
0.0375651
0.0402957
0.0430256
0.0457474
0.0484535
0.0511359
0.053787
0.0563992
0.0589652
0.0614778
0.0639297
0.0663134
0.0686216
0.0708474
0.0729842
0.0750257
0.0769659
0.0787987
0.0805183
0.0821191
0.0835963
0.0849457
0.0861637
0.0872471
0.0881931
0.0889994
0.0896645
0.0901878
0.0905695
0.0908109
0.0909142
0.0908827
0.0907207
0.0904337
0.0900284
0.0895129
0.0888968
0.0881913
0.0874094
0.0865658
0.0856774
0.0847628
0.0838429
0.082941
0.0820826
0.0812955
0.0806088
0.0800513
0.0796517
0.0794535
0.0794826
0.000310995
0.000232581
-5.17939e-05
-0.000512431
-0.00110625
-0.00180543
-0.00258351
-0.00341479
-0.00427537
-0.00514323
-0.00599823
-0.00682214
-0.00759863
-0.00831307
-0.0089526
-0.00950611
-0.00996397
-0.010318
-0.0105611
-0.0106873
-0.0106921
-0.0105719
-0.0103241
-0.00994684
-0.00943882
-0.00879975
-0.0080301
-0.00713095
-0.00610407
-0.00495185
-0.00367696
-0.00228245
-0.000772014
0.000850251
0.00258018
0.00441311
0.00634371
0.0083665
0.010476
0.0126666
0.014932
0.0172659
0.0196622
0.0221144
0.024616
0.0271597
0.0297386
0.0323457
0.034974
0.0376162
0.0402649
0.0429128
0.0455528
0.0481774
0.0507792
0.0533507
0.0558845
0.0583735
0.0608109
0.0631894
0.0655021
0.0677418
0.0699019
0.071976
0.0739583
0.0758428
0.0776239
0.0792959
0.0808536
0.0822924
0.0836085
0.0847983
0.0858591
0.0867882
0.0875836
0.088244
0.088769
0.0891589
0.0894152
0.0895402
0.0895372
0.0894104
0.0891653
0.0888084
0.0883478
0.0877925
0.0871532
0.0864422
0.0856733
0.084862
0.0840255
0.0831826
0.082354
0.0815621
0.080831
0.0801856
0.0796505
0.079251
0.0790238
0.078993
0.00093803
0.000766047
0.000437103
-3.26724e-05
-0.000615956
-0.00128833
-0.00202663
-0.00280851
-0.00361295
-0.00442061
-0.00521346
-0.00597507
-0.00669063
-0.00734678
-0.00793149
-0.00843427
-0.00884609
-0.00915908
-0.00936666
-0.00946323
-0.00944409
-0.00930554
-0.00904502
-0.00866068
-0.00815122
-0.00751617
-0.00675587
-0.00587121
-0.00486378
-0.00373588
-0.00249005
-0.00112902
0.000343769
0.00192449
0.00360912
0.00539314
0.00727141
0.0092387
0.0112899
0.0134194
0.0156214
0.0178896
0.0202181
0.022601
0.0250317
0.027503
0.0300083
0.0325409
0.0350941
0.0376609
0.0402341
0.0428063
0.0453708
0.0479204
0.050448
0.0529462
0.0554079
0.0578261
0.0601943
0.0625056
0.0647531
0.0669301
0.06903
0.0710469
0.072975
0.0748088
0.0765426
0.0781713
0.0796898
0.0810938
0.0823795
0.0835438
0.084584
0.0854976
0.0862831
0.0869391
0.0874654
0.0878624
0.0881317
0.0882754
0.088297
0.0882006
0.0879915
0.0876762
0.0872621
0.0867579
0.0861737
0.085521
0.0848125
0.0840625
0.0832864
0.0825011
0.0817249
0.0809773
0.080279
0.0796511
0.079115
0.0786923
0.0784074
0.0782748
0.00176106
0.00146272
0.00106105
0.000557014
-3.91726e-05
-0.00070693
-0.00142631
-0.00217839
-0.00294511
-0.00370957
-0.00445597
-0.00516955
-0.00583687
-0.00644593
-0.00698584
-0.00744672
-0.00782006
-0.00809859
-0.008276
-0.008347
-0.00830723
-0.00815304
-0.00788169
-0.00749131
-0.0069807
-0.0063494
-0.00559763
-0.00472615
-0.00373639
-0.00263053
-0.00141091
-8.01309e-05
0.00135857
0.00290153
0.00454492
0.00628441
0.00811508
0.0100319
0.0120298
0.0141037
0.0162477
0.0184559
0.0207227
0.0230422
0.025408
0.0278132
0.0302513
0.0327159
0.0352007
0.0376986
0.0402027
0.0427059
0.0452015
0.0476829
0.0501429
0.0525744
0.0549704
0.0573243
0.0596297
0.0618799
0.0640685
0.0661886
0.0682342
0.0701993
0.0720785
0.0738665
0.0755579
0.0771477
0.078631
0.0800036
0.0812621
0.0824034
0.083425
0.0843247
0.085101
0.0857529
0.08628
0.0866829
0.086963
0.0871226
0.0871649
0.0870941
0.0869153
0.0866345
0.0862588
0.0857965
0.0852567
0.0846502
0.0839887
0.083285
0.082553
0.0818078
0.0810653
0.0803426
0.0796569
0.0790261
0.0784686
0.0780028
0.0776379
0.0773753
0.00272973
0.002286
0.00179235
0.00123493
0.000606459
-7.58941e-05
-0.000794911
-0.00153504
-0.00228104
-0.00301822
-0.00373282
-0.00441195
-0.0050435
-0.00561647
-0.00612116
-0.00654873
-0.00689121
-0.00714174
-0.00729446
-0.00734439
-0.00728743
-0.00712015
-0.00683987
-0.00644471
-0.00593344
-0.00530563
-0.00456154
-0.00370189
-0.00272803
-0.00164191
-0.000445706
0.000858119
0.00226639
0.00377558
0.00538203
0.00708161
0.00886956
0.010741
0.0126911
0.014715
0.0168069
0.0189613
0.0211725
0.0234349
0.0257422
0.0280879
0.0304656
0.0328692
0.0352924
0.0377284
0.0401703
0.0426115
0.0450455
0.0474656
0.049865
0.0522368
0.054574
0.0568704
0.0591196
0.0613155
0.0634514
0.065521
0.0675182
0.0694373
0.0712731
0.0730205
0.0746743
0.0762296
0.0776818
0.0790268
0.0802612
0.0813822
0.0823874
0.0832748
0.0840429
0.0846908
0.0852181
0.0856255
0.0859144
0.0860869
0.0861462
0.0860963
0.0859419
0.0856888
0.0853436
0.0849138
0.0844081
0.0838361
0.0832087
0.0825374
0.0818345
0.0811132
0.0803876
0.079672
0.0789812
0.0783298
0.0777339
0.0772088
0.0767479
0.0763384
0.00380103
0.00320165
0.00260341
0.0019785
0.00130267
0.000590245
-0.000143957
-0.000887324
-0.00162715
-0.00235096
-0.00304683
-0.00370348
-0.0043103
-0.0048574
-0.00533591
-0.00573795
-0.0060564
-0.00628496
-0.00641813
-0.00645126
-0.00638048
-0.00620263
-0.00591518
-0.00551638
-0.00500499
-0.00438059
-0.00364349
-0.00279443
-0.00183467
-0.00076607
0.000409338
0.00168921
0.00307048
0.00454972
0.00612339
0.00778748
0.00953737
0.0113684
0.0132759
0.0152552
0.0173007
0.019407
0.0215687
0.0237801
0.0260353
0.0283279
0.0306518
0.0330009
0.0353692
0.03775
0.0401367
0.0425227
0.0449018
0.0472675
0.049613
0.0519317
0.0542168
0.0564623
0.0586619
0.0608097
0.0628992
0.0649241
0.0668787
0.0687573
0.070555
0.0722667
0.0738876
0.0754128
0.0768378
0.0781586
0.079372
0.0804752
0.081466
0.0823425
0.0831033
0.0837474
0.0842745
0.0846852
0.0849808
0.0851635
0.0852362
0.0852027
0.0850674
0.0848356
0.0845134
0.0841077
0.0836266
0.0830789
0.0824742
0.0818228
0.0811357
0.0804244
0.079701
0.0789779
0.0782671
0.0775808
0.0769328
0.0763364
0.0757685
0.0752034
0.00493846
0.0041792
0.00346865
0.00276624
0.00203163
0.00127675
0.000514741
-0.000244536
-0.000990678
-0.00171309
-0.00240154
-0.00304629
-0.00363813
-0.00416833
-0.0046289
-0.00501273
-0.00531349
-0.00552552
-0.0056438
-0.00566405
-0.00558266
-0.00539666
-0.00510374
-0.00470231
-0.00419126
-0.00357022
-0.00283952
-0.00199989
-0.00105256
6.52137e-07
0.00115778
0.00241659
0.00377414
0.00522705
0.00677187
0.00840469
0.010121
0.0119164
0.0137864
0.0157264
0.017731
0.0197949
0.0219127
0.0240792
0.0262884
0.0285342
0.0308105
0.0331116
0.0354314
0.0377636
0.0401016
0.0424391
0.0447699
0.0470877
0.0493859
0.051658
0.0538975
0.0560983
0.0582546
0.0603603
0.0624092
0.0643953
0.0663127
0.0681561
0.0699207
0.0716016
0.0731939
0.0746931
0.0760945
0.0773944
0.0785897
0.0796776
0.080656
0.081523
0.0822773
0.0829178
0.0834442
0.083857
0.0841576
0.0843478
0.0844306
0.0844093
0.0842881
0.0840717
0.0837658
0.0833768
0.0829118
0.0823789
0.0817867
0.0811444
0.0804615
0.0797482
0.0790148
0.0782718
0.077529
0.0767963
0.0760859
0.0754092
0.0747279
0.0740038
0.00611127
0.00519191
0.00436492
0.00357815
0.00277629
0.00196933
0.00116918
0.000383576
-0.000379334
-0.00111065
-0.00180158
-0.00244377
-0.00302924
-0.00355044
-0.00400036
-0.00437264
-0.00466157
-0.00486211
-0.00496979
-0.00498071
-0.0048916
-0.0046997
-0.00440294
-0.00399985
-0.00348953
-0.00287172
-0.00214681
-0.00131552
-0.000379046
0.000660815
0.00180214
0.00304274
0.00437973
0.00580979
0.00732955
0.00893521
0.0106225
0.0123869
0.0142243
0.0161301
0.0180991
0.020126
0.0222057
0.0243331
0.0265023
0.0287074
0.0309424
0.0332017
0.0354794
0.0377693
0.0400651
0.0423605
0.0446494
0.0469257
0.049183
0.0514148
0.0536149
0.0557773
0.0578962
0.0599657
0.0619798
0.0639324
0.065818
0.0676313
0.0693676
0.0710222
0.0725903
0.0740673
0.0754488
0.076731
0.0779108
0.0789858
0.0799536
0.0808126
0.0815611
0.0821982
0.0827236
0.0831375
0.0834413
0.0836368
0.0837265
0.0837136
0.0836019
0.0833956
0.0831
0.0827206
0.0822642
0.0817378
0.0811492
0.0805063
0.0798177
0.079092
0.0783382
0.0775649
0.0767804
0.0759923
0.0752118
0.0744487
0.0736506
0.0727677
0.00729388
0.0062166
0.00527157
0.0043959
0.00352065
0.00265436
0.00180781
0.000987202
0.00019887
-0.000549977
-0.0012519
-0.00189966
-0.00248639
-0.00300565
-0.00345136
-0.00381795
-0.00410032
-0.004294
-0.004395
-0.00439985
-0.00430562
-0.00410987
-0.00381072
-0.0034069
-0.00289766
-0.00228291
-0.00156311
-0.000739025
0.000188141
0.00121663
0.00234454
0.00356968
0.00488918
0.00629979
0.00779822
0.00938076
0.0110432
0.0127813
0.0145909
0.0164674
0.018406
0.0204014
0.0224486
0.0245426
0.0266777
0.0288479
0.0310477
0.0332713
0.0355132
0.0377672
0.0400271
0.0422866
0.0445399
0.046781
0.0490035
0.0512013
0.0533681
0.055498
0.0575854
0.0596245
0.0616092
0.0635338
0.0653927
0.0671809
0.0688937
0.0705263
0.0720743
0.0735329
0.0748978
0.0761654
0.0773326
0.0783968
0.079356
0.0802082
0.0809518
0.0815858
0.0821098
0.082524
0.0828296
0.0830281
0.083122
0.083114
0.0830075
0.0828065
0.0825156
0.0821399
0.0816852
0.0811579
0.0805648
0.0799131
0.07921
0.0784632
0.0776802
0.0768683
0.0760342
0.0751837
0.0743274
0.0734741
0.072558
0.0715187
0.00846497
0.00723334
0.00617033
0.00520304
0.00425003
0.00331895
0.00241966
0.00155695
0.000735931
-3.76602e-05
-0.000757707
-0.00141803
-0.00201275
-0.00253634
-0.00298357
-0.00334964
-0.00363011
-0.00382103
-0.00391891
-0.00392066
-0.00382369
-0.00362586
-0.00332558
-0.00292181
-0.00241397
-0.00180207
-0.00108668
-0.000268652
0.00065078
0.00166985
0.00278665
0.00399899
0.00530401
0.00669851
0.00817926
0.00974262
0.0113845
0.0131006
0.014887
0.0167394
0.0186527
0.0206218
0.022642
0.0247082
0.0268148
0.0289561
0.0311266
0.0333207
0.0355328
0.037757
0.0399871
0.042217
0.0444408
0.0466528
0.0488468
0.0510166
0.053156
0.0552594
0.0573209
0.0593351
0.0612959
0.0631977
0.065035
0.0668029
0.0684967
0.0701118
0.0716436
0.0730875
0.0744392
0.0756952
0.0768524
0.0779082
0.0788605
0.0797073
0.080447
0.0810783
0.0816007
0.0820145
0.0823204
0.0825201
0.0826156
0.0826093
0.0825044
0.0823044
0.0820133
0.0816356
0.0811766
0.0806418
0.0800373
0.0793694
0.0786446
0.0778692
0.0770497
0.0761924
0.0753024
0.0743844
0.0734483
0.0725024
0.0714687
0.0702766
0.00960681
0.00822507
0.0070452
0.00598491
0.00495109
0.00395108
0.00299421
0.00208384
0.00122406
0.000419609
-0.00032457
-0.00100341
-0.0016119
-0.00214529
-0.00259912
-0.00296928
-0.00325197
-0.00344377
-0.00354166
-0.00354293
-0.00344533
-0.00324704
-0.00294675
-0.00254367
-0.00203739
-0.00142806
-0.000716368
9.67736e-05
0.00101004
0.00202163
0.0031296
0.00433176
0.00562526
0.00700694
0.00847357
0.0100216
0.0116469
0.0133455
0.0151134
0.0169463
0.0188393
0.0207874
0.0227859
0.0248297
0.0269136
0.0290318
0.0311787
0.0333492
0.0355376
0.0377381
0.0399444
0.0421507
0.0443512
0.0465402
0.0487116
0.0508593
0.0529773
0.0550597
0.0571011
0.0590958
0.0610381
0.0629223
0.0647431
0.0664955
0.0681748
0.0697766
0.0712962
0.0727291
0.074071
0.0753184
0.0764682
0.0775179
0.0784652
0.079308
0.0800447
0.0806738
0.0811946
0.0816073
0.0819126
0.0821118
0.0822067
0.0821995
0.0820928
0.0818899
0.0815942
0.0812097
0.0807409
0.0801928
0.0795709
0.0788807
0.0781277
0.0773175
0.0764557
0.0755473
0.0745966
0.0736071
0.0725885
0.071549
0.0703989
0.0690584
0.0107047
0.00917714
0.00788215
0.00672841
0.00561183
0.0045398
0.00352149
0.00255911
0.00165569
0.000815224
4.17285e-05
-0.000660695
-0.00128788
-0.00183578
-0.00230063
-0.00267896
-0.00296754
-0.00316344
-0.00326408
-0.00326715
-0.00317079
-0.00297345
-0.00267411
-0.00227221
-0.00176753
-0.00116039
-0.0004516
0.000357826
0.00126648
0.00227251
0.00337393
0.00456852
0.00585343
0.00722548
0.0086815
0.0102179
0.0118308
0.0135162
0.01527
0.0170882
0.0189658
0.020898
0.02288
0.0249069
0.0269735
0.0290742
0.0312035
0.0333562
0.0355268
0.0377094
0.039898
0.0420866
0.0442697
0.0464417
0.0485965
0.0507281
0.0528303
0.0548975
0.0569243
0.058905
0.060834
0.0627058
0.064515
0.0662566
0.0679261
0.0695189
0.0710302
0.0724558
0.0737912
0.0750331
0.0761782
0.0772241
0.0781683
0.0790087
0.0797434
0.0803709
0.0808904
0.0813017
0.0816055
0.0818028
0.0818952
0.0818847
0.0817734
0.0815642
0.08126
0.0808643
0.080381
0.0798148
0.0791703
0.0784524
0.0776659
0.0768159
0.0759067
0.0749429
0.0739276
0.0728637
0.071761
0.0706274
0.0693627
0.0678783
0.0117463
0.010077
0.00866878
0.00742178
0.00622129
0.005075
0.0039922
0.0029743
0.00202335
0.00114257
0.000335316
-0.000395056
-0.00104514
-0.00161161
-0.00209132
-0.00248135
-0.00277901
-0.00298182
-0.0030876
-0.00309447
-0.00300092
-0.00280575
-0.00250814
-0.00210775
-0.00160458
-0.000999139
-0.000292399
0.000514527
0.00142017
0.00242259
0.00351973
0.00470934
0.00598856
0.0073542
0.00880306
0.0103317
0.0119361
0.0136124
0.0153567
0.0171648
0.0190319
0.0209532
0.0229238
0.0249391
0.0269939
0.0290827
0.0312
0.0333406
0.0354992
0.0376698
0.0398465
0.0420234
0.0441951
0.0463559
0.0485
0.0506211
0.0527133
0.054771
0.0567886
0.0587608
0.0606819
0.0625465
0.064349
0.0660847
0.0677488
0.0693367
0.0708439
0.0722659
0.0735983
0.0748377
0.075981
0.0770255
0.0779686
0.0788082
0.0795421
0.0801688
0.0806873
0.0810972
0.0813989
0.0815933
0.0816818
0.0816659
0.0815476
0.0813291
0.081013
0.0806023
0.0801007
0.079512
0.0788405
0.0780905
0.0772662
0.0763718
0.0754114
0.0743885
0.0733057
0.0721653
0.0709772
0.0697497
0.0683723
0.066748
0.0127212
0.0109138
0.00939417
0.00805437
0.00676942
0.00554723
0.00439757
0.00332123
0.00231952
0.00139492
0.000550221
-0.000211826
-0.000888469
-0.00147701
-0.00197488
-0.00237965
-0.0026891
-0.00290122
-0.00301422
-0.00302662
-0.00293723
-0.00274515
-0.0024498
-0.00205108
-0.00154923
-0.000944931
-0.000239278
0.000566484
0.00147076
0.00247155
0.00356676
0.00475402
0.00603043
0.00739282
0.008838
0.0103625
0.0119625
0.013634
0.0153731
0.0171757
0.0190371
0.0209523
0.0229168
0.0249258
0.0269742
0.0290565
0.0311674
0.0333016
0.0354538
0.0376182
0.0397888
0.0419599
0.044126
0.0462815
0.0484205
0.050537
0.0526249
0.0546785
0.0566926
0.0586617
0.0605803
0.0624426
0.0642435
0.065978
0.0676412
0.0692288
0.0707359
0.072158
0.0734911
0.0747313
0.0758756
0.0769212
0.0778654
0.0787058
0.0794404
0.0800672
0.0805852
0.0809938
0.0812932
0.081484
0.0815673
0.0815445
0.081417
0.0811868
0.080856
0.0804273
0.0799038
0.0792891
0.0785869
0.077801
0.0769351
0.0759929
0.0749777
0.0738928
0.0727402
0.0715217
0.0702476
0.0689263
0.0674378
0.0656774
0.0136201
0.0116781
0.0100487
0.00861647
0.00724679
0.0059476
0.0047292
0.00359202
0.00253683
0.00156551
0.000680286
-0.000116592
-0.000822922
-0.00143654
-0.00195538
-0.00237746
-0.00270101
-0.00292447
-0.00304646
-0.00306582
-0.00298165
-0.0027933
-0.00250054
-0.00210349
-0.00160259
-0.000998693
-0.000293061
0.000512945
0.00141763
0.00241889
0.0035145
0.00470206
0.00597863
0.00734101
0.00878603
0.0103102
0.0119097
0.0135806
0.015319
0.0171206
0.018981
0.0208951
0.0228585
0.0248664
0.0269137
0.0289951
0.0311051
0.0332385
0.03539
0.0375538
0.0397241
0.0418951
0.0440614
0.0462174
0.0483571
0.0504746
0.0525638
0.0546191
0.0566352
0.0586066
0.0605278
0.0623932
0.0641974
0.0659354
0.0676024
0.0691939
0.070705
0.0721314
0.0734686
0.074713
0.0758613
0.0769106
0.0778581
0.0787014
0.079438
0.0800661
0.0805843
0.080992
0.081289
0.0814758
0.0815532
0.081522
0.0813837
0.0811396
0.0807918
0.0803425
0.0797943
0.0791506
0.0784145
0.0775895
0.0766789
0.0756857
0.0746131
0.0734638
0.0722394
0.0709414
0.0695806
0.0681659
0.0665679
0.0646744
0.0144346
0.0123612
0.0106237
0.00909934
0.00764457
0.00626764
0.00497904
0.00377904
0.00266807
0.00164756
0.000719231
-0.000115142
-0.000853792
-0.001495
-0.00203715
-0.00247873
-0.00281834
-0.00305484
-0.00318721
-0.00321459
-0.0031364
-0.00295226
-0.00266217
-0.00226656
-0.00176607
-0.0011617
-0.000454827
0.00035301
0.00125997
0.00226384
0.00336232
0.00455292
0.00583267
0.00719836
0.00864679
0.0101745
0.0117775
0.013452
0.015194
0.0169993
0.0188633
0.0207814
0.0227487
0.0247607
0.0268123
0.028898
0.0310126
0.0331508
0.0353072
0.0374761
0.0396518
0.0418285
0.0440007
0.0461629
0.0483091
0.0504332
0.0525294
0.0545919
0.0566155
0.0585947
0.0605239
0.0623974
0.0642099
0.0659562
0.0676316
0.0692314
0.0707509
0.0721854
0.0735305
0.0747825
0.0759378
0.0769935
0.0779467
0.0787947
0.0795351
0.0801658
0.0806853
0.0810926
0.0813874
0.0815699
0.0816406
0.0816002
0.0814497
0.0811903
0.0808236
0.0803514
0.0797762
0.0791009
0.0783283
0.0774614
0.0765033
0.0754566
0.0743242
0.0731083
0.0718104
0.0704317
0.0689836
0.0674755
0.0657692
0.0637454
0.0151572
0.0129552
0.0111111
0.00949495
0.00795468
0.00649919
0.00513925
0.00387484
0.00270615
0.00163435
0.000660734
-0.000213346
-0.000986504
-0.00165739
-0.0022248
-0.00268766
-0.00304494
-0.00329582
-0.00343964
-0.00347581
-0.00340403
-0.00322427
-0.00293679
-0.0025422
-0.00204133
-0.00143536
-0.000725848
8.55215e-05
0.00099675
0.00200552
0.00310944
0.00430592
0.00559198
0.00696439
0.00841988
0.00995489
0.0115655
0.0132478
0.0149978
0.0168114
0.018684
0.0206108
0.0225872
0.0246085
0.0266697
0.0287652
0.0308898
0.0330382
0.0352051
0.0373849
0.0395717
0.0417598
0.0439436
0.0461176
0.0482759
0.0504124
0.0525212
0.0545966
0.0566332
0.0586255
0.0605679
0.0624548
0.0642805
0.06604
0.0677285
0.0693411
0.070873
0.0723197
0.0736765
0.0749395
0.076105
0.0771699
0.0781312
0.0789862
0.0797322
0.0803669
0.0808887
0.0812964
0.0815894
0.0817677
0.0818314
0.0817811
0.0816175
0.0813415
0.0809543
0.0804575
0.0798533
0.0791441
0.0783326
0.0774216
0.0764136
0.0753111
0.0741166
0.0728323
0.0714593
0.0699989
0.0684628
0.0668613
0.0650476
0.0628955
0.0157816
0.0134528
0.0115032
0.0097956
0.00816954
0.00663465
0.0052023
0.00387215
0.00264415
0.00151926
0.000498517
-0.000417081
-0.00122654
-0.00192884
-0.00252311
-0.00300867
-0.00338487
-0.00365115
-0.00380712
-0.00385255
-0.00378743
-0.00361199
-0.00332675
-0.00293248
-0.00243022
-0.00182137
-0.00110764
-0.000290887
0.000626741
0.00164282
0.00275485
0.0039602
0.00525582
0.00663843
0.00810466
0.0096509
0.0112732
0.0129676
0.0147301
0.0165567
0.0184426
0.0203832
0.0223737
0.0244095
0.0264855
0.0285962
0.0307362
0.0329005
0.0350835
0.0372798
0.0394833
0.0416885
0.0438897
0.0460813
0.0482574
0.0504119
0.0525389
0.0546327
0.0566878
0.0586987
0.0606597
0.062565
0.064409
0.0661865
0.0678927
0.0695226
0.0710714
0.0725343
0.0739065
0.075184
0.076363
0.07744
0.0784121
0.0792763
0.0800299
0.0806704
0.0811958
0.0816048
0.0818966
0.0820708
0.0821276
0.0820671
0.0818898
0.0815962
0.0811873
0.0806644
0.0800294
0.0792846
0.0784323
0.077475
0.0764149
0.0752545
0.073996
0.0726415
0.071192
0.0696486
0.0680239
0.0663289
0.0644084
0.0621295
0.0163018
0.0138474
0.011793
0.00999404
0.0082819
0.00666686
0.00516104
0.00376396
0.0024753
0.00129585
0.000226428
-0.000732233
-0.00157944
-0.00231453
-0.00293699
-0.00344637
-0.00384237
-0.00412472
-0.00429331
-0.00434821
-0.00428971
-0.00411828
-0.00383464
-0.00343978
-0.00293495
-0.00232174
-0.00160205
-0.000777925
0.000148361
0.00117429
0.00229726
0.00351458
0.0048231
0.00621944
0.00770016
0.00926157
0.0108997
0.0126106
0.0143902
0.0162343
0.0181384
0.0200977
0.0221075
0.024163
0.026259
0.0283902
0.0305513
0.0327369
0.0349417
0.0371601
0.0393861
0.0416141
0.0438384
0.0460532
0.0482529
0.0504311
0.052582
0.0546998
0.056779
0.0588139
0.0607987
0.0627277
0.064595
0.0663956
0.0681242
0.069776
0.0713459
0.0728291
0.0742207
0.0755163
0.076712
0.0778043
0.07879
0.0796659
0.0804293
0.0810773
0.0816079
0.0820194
0.0823108
0.0824817
0.0825318
0.0824611
0.0822696
0.0819578
0.0815263
0.0809761
0.080309
0.0795269
0.078632
0.0776265
0.0765125
0.0752923
0.0739679
0.0725415
0.071014
0.0693865
0.0676725
0.0658836
0.0638567
0.0614517
0.0167127
0.0141331
0.0119738
0.0100835
0.00828483
0.00658894
0.00500866
0.00354355
0.00219306
0.000957766
-0.000161623
-0.00116461
-0.00205079
-0.00281981
-0.00347143
-0.00400548
-0.00442188
-0.00472069
-0.00490212
-0.00496648
-0.00491431
-0.00474631
-0.00446341
-0.00406685
-0.00355807
-0.00293888
-0.00221136
-0.00137771
-0.000440347
0.00059812
0.001735
0.00296745
0.00429225
0.00570593
0.00720495
0.00878555
0.0104437
0.0121754
0.0139766
0.0158431
0.0177702
0.0197532
0.0217873
0.0238676
0.0259891
0.0281462
0.0303337
0.0325463
0.0347785
0.0370247
0.039279
0.0415354
0.0437885
0.0460325
0.0482614
0.0504691
0.0526496
0.0547971
0.0569059
0.0589703
0.0609844
0.0629423
0.0648382
0.0666666
0.0684226
0.0701009
0.0716965
0.0732042
0.0746191
0.0759365
0.0771525
0.0782634
0.0792657
0.0801562
0.0809317
0.0815894
0.0821269
0.0825424
0.0828348
0.0830031
0.0830471
0.0829663
0.0827606
0.0824302
0.0819753
0.0813969
0.0806965
0.0798758
0.0789367
0.0778814
0.0767118
0.07543
0.0740381
0.0725382
0.0709313
0.0692185
0.0674142
0.0655309
0.0633974
0.0608667
0.0170093
0.0143044
0.0120399
0.0100576
0.00817182
0.00639437
0.00473869
0.00320444
0.00179102
0.000498809
-0.000671667
-0.00172007
-0.00264624
-0.00345008
-0.0041316
-0.00469087
-0.00512808
-0.00544356
-0.00563779
-0.00571135
-0.00566498
-0.00549961
-0.00521641
-0.00481684
-0.00430259
-0.00367564
-0.00293826
-0.0020928
-0.00114179
-8.79656e-05
0.00106586
0.00231669
0.00366123
0.00509592
0.00661711
0.00822096
0.00990343
0.0116604
0.0134878
0.0153813
0.0173363
0.019348
0.0214114
0.0235218
0.025674
0.0278625
0.030082
0.0323271
0.0345923
0.0368721
0.0391602
0.041451
0.0437387
0.0460176
0.0482815
0.0505245
0.0527404
0.0549233
0.0570674
0.0591669
0.0612158
0.063208
0.0651377
0.0669993
0.0687875
0.0704972
0.072123
0.0736596
0.0751019
0.0764453
0.0776853
0.0788182
0.0798404
0.0807484
0.0815388
0.0822086
0.0827552
0.0831765
0.0834712
0.0836383
0.0836769
0.0835865
0.0833668
0.0830175
0.0825389
0.0819317
0.081197
0.0803365
0.079352
0.0782453
0.0770184
0.0756734
0.0742125
0.0726375
0.0709498
0.0691506
0.067255
0.0652765
0.0630357
0.0603788
0.0171867
0.014356
0.0119857
0.00991052
0.00793678
0.00607685
0.00434485
0.00274039
0.00126293
-8.72103e-05
-0.00130975
-0.00240453
-0.00337154
-0.00421091
-0.00492285
-0.00550772
-0.00596593
-0.00629809
-0.00650489
-0.00658714
-0.00654583
-0.0063821
-0.00609739
-0.00569337
-0.00517196
-0.00453533
-0.00378589
-0.00292616
-0.00195881
-0.000886711
0.000287177
0.00155973
0.00292753
0.00438696
0.00593427
0.00756551
0.00927657
0.0110633
0.0129215
0.0148468
0.0168346
0.0188799
0.0209779
0.0231236
0.0253118
0.0275371
0.0297941
0.0320774
0.0343814
0.0367003
0.0390282
0.0413592
0.0436873
0.0460069
0.0483119
0.050596
0.0528531
0.0550772
0.0572623
0.0594026
0.0614919
0.063524
0.0654929
0.0673929
0.0692186
0.0709645
0.0726253
0.0741955
0.0756697
0.0770431
0.0783112
0.0794699
0.0805155
0.0814442
0.0822526
0.0829372
0.0834953
0.0839246
0.0842235
0.0843907
0.0844251
0.0843259
0.0840925
0.0837245
0.083222
0.0825855
0.081816
0.0809147
0.0798835
0.0787242
0.0774386
0.076029
0.0744974
0.072846
0.0710759
0.0691888
0.0672006
0.0651256
0.0627763
0.0599917
0.0172404
0.0142828
0.0118057
0.00963663
0.0075738
0.00563026
0.00382087
0.00214517
0.000602591
-0.00080652
-0.00208204
-0.00322402
-0.00423258
-0.00510802
-0.00585078
-0.00646144
-0.00694068
-0.0072893
-0.00750822
-0.00759847
-0.00756128
-0.00739805
-0.00711045
-0.00670037
-0.00616995
-0.00552153
-0.00475768
-0.00388107
-0.00289457
-0.00180116
-0.000603986
0.000693706
0.00208841
0.00357642
0.00515387
0.00681671
0.00856075
0.0103818
0.0122755
0.0142374
0.0162629
0.0183469
0.0204845
0.0226708
0.0249005
0.0271681
0.0294682
0.0317953
0.0341438
0.0365078
0.0388812
0.0412582
0.0436328
0.045999
0.0483509
0.0506821
0.0529864
0.0552575
0.0574896
0.0596765
0.0618118
0.0638894
0.0659031
0.067847
0.0697154
0.0715028
0.0732036
0.0748122
0.0763229
0.0777308
0.0790312
0.0802199
0.0812927
0.0822457
0.0830752
0.0837777
0.0843501
0.0847898
0.085095
0.0852639
0.0852954
0.0851884
0.0849421
0.0845559
0.0840297
0.0833637
0.0825587
0.081616
0.0805372
0.0793241
0.0779786
0.0765029
0.0748992
0.0731697
0.0713158
0.0693391
0.0672566
0.0650835
0.0626237
0.0597092
0.0171661
0.0140799
0.0114944
0.00923035
0.00707705
0.00504855
0.00316053
0.00141247
-0.0001963
-0.00166544
-0.00299486
-0.00418476
-0.00523545
-0.00614738
-0.0069212
-0.00755772
-0.0080578
-0.00842247
-0.00865286
-0.00875023
-0.00871605
-0.008552
-0.00825996
-0.00784205
-0.00730058
-0.00663808
-0.00585728
-0.00496105
-0.00395243
-0.00283458
-0.00161077
-0.000284382
0.00114099
0.00266153
0.00427326
0.00597199
0.00775349
0.00961341
0.0115474
0.0135508
0.015619
0.0177468
0.0199294
0.0221616
0.0244382
0.0267537
0.0291026
0.0314792
0.0338779
0.0362928
0.0387177
0.0411467
0.0435736
0.0459926
0.0483975
0.0507818
0.0531392
0.0554635
0.0577484
0.0599876
0.0621749
0.0643038
0.0663679
0.0683613
0.070278
0.0721123
0.0738583
0.0755103
0.0770625
0.0785096
0.0798469
0.0810697
0.0821737
0.0831549
0.0840092
0.0847328
0.0853225
0.0857753
0.086089
0.0862617
0.0862919
0.0861785
0.0859203
0.0855165
0.0849669
0.0842714
0.0834307
0.0824461
0.0813189
0.080051
0.0786445
0.0771014
0.075424
0.0736148
0.0716751
0.0696069
0.067428
0.0651544
0.0625815
0.0595341
0.0169596
0.0137424
0.0110467
0.00868591
0.00644062
0.00432564
0.00235754
0.000535831
-0.00114026
-0.00267046
-0.00405465
-0.00529315
-0.00638644
-0.00733517
-0.00814017
-0.00880241
-0.00932297
-0.00970308
-0.0099441
-0.0100475
-0.0100151
-0.00984875
-0.00955053
-0.00912278
-0.00856802
-0.00788897
-0.00708853
-0.00616977
-0.00513596
-0.00399037
-0.00273641
-0.00137761
8.23201e-05
0.00163948
0.00328973
0.0050288
0.00685232
0.00875586
0.0107349
0.0127848
0.0149008
0.0170777
0.0193106
0.0215943
0.0239234
0.0262924
0.0286957
0.0311276
0.0335824
0.0360541
0.0385365
0.0410235
0.043509
0.0459868
0.0484508
0.0508943
0.053311
0.0556944
0.0580381
0.0603358
0.0625809
0.0647669
0.0668873
0.0689359
0.0709066
0.0727933
0.07459
0.0762907
0.0778895
0.0793808
0.0807597
0.0820211
0.0831607
0.0841741
0.085057
0.0858054
0.0864155
0.0868843
0.087209
0.0873877
0.0874187
0.0873003
0.0870314
0.0866111
0.0860385
0.0853138
0.0844374
0.0834104
0.0822342
0.0809107
0.0794419
0.07783
0.0760773
0.0741864
0.0721589
0.0699968
0.0677189
0.065342
0.0626529
0.059469
0.0166164
0.0132652
0.0104569
0.00799738
0.00565832
0.00345516
0.00140536
-0.000491426
-0.00223607
-0.00382831
-0.00526809
-0.0065558
-0.00769209
-0.00867779
-0.0095139
-0.0102016
-0.0107421
-0.0111368
-0.0113875
-0.0114958
-0.0114636
-0.0112932
-0.0109869
-0.0105471
-0.0099766
-0.00927832
-0.00845537
-0.00751104
-0.00644876
-0.00527195
-0.00398417
-0.00258909
-0.00109055
0.000507436
0.0022006
0.00398452
0.00585474
0.00780672
0.00983583
0.0119373
0.0141063
0.0163377
0.0186263
0.020967
0.0233542
0.0257824
0.028246
0.0307392
0.033256
0.0357905
0.0383365
0.0408876
0.0434377
0.0459806
0.0485099
0.0510189
0.0535011
0.0559497
0.0583584
0.0607206
0.0630296
0.0652788
0.0674615
0.0695713
0.0716017
0.0735465
0.0753996
0.0771545
0.0788052
0.080346
0.0817714
0.0830763
0.0842561
0.085306
0.0862215