/*--------------------------------*- C++ -*----------------------------------*\
| =========                 |                                                 |
| \\      /  F ield         | OpenFOAM: The Open Source CFD Toolbox           |
|  \\    /   O peration     | Version:  2212                                  |
|   \\  /    A nd           | Website:  www.openfoam.com                      |
|    \\/     M anipulation  |                                                 |
\*---------------------------------------------------------------------------*/
FoamFile
{
    version     2.0;
    format      ascii;
    arch        "LSB;label=32;scalar=64";
    class       surfaceScalarField;
    location    "0.027";
    object      phi;
}
// * * * * * * * * * * * * * * * * * * * * * * * * * * * * * * * * * * * * * //

dimensions      [0 3 -1 0 0 0 0];

oriented        oriented;

internalField   nonuniform List<scalar> 
19800
(
6.03885e-11
-6.04258e-11
1.92954e-10
-1.32552e-10
3.1986e-10
-1.26912e-10
4.01692e-10
-8.18157e-11
4.15071e-10
-1.33708e-11
3.48916e-10
6.61624e-11
1.98912e-10
1.50006e-10
-3.52023e-11
2.34116e-10
-3.5123e-10
3.16023e-10
-7.45485e-10
3.94251e-10
-1.21336e-09
4.6788e-10
-1.74972e-09
5.36354e-10
-2.34905e-09
5.9934e-10
-3.00573e-09
6.5668e-10
-3.71403e-09
7.08297e-10
-4.46821e-09
7.54189e-10
-5.26262e-09
7.9441e-10
-6.09168e-09
8.29064e-10
-6.95e-09
8.5832e-10
-7.83234e-09
8.82336e-10
-8.73361e-09
9.01265e-10
-9.64888e-09
9.15283e-10
-1.05735e-08
9.24574e-10
-1.15028e-08
9.29324e-10
-1.24325e-08
9.29717e-10
-1.33585e-08
9.25945e-10
-1.42767e-08
9.18184e-10
-1.51832e-08
9.06583e-10
-1.60746e-08
8.91348e-10
-1.69473e-08
8.7271e-10
-1.77981e-08
8.50833e-10
-1.8624e-08
8.25862e-10
-1.9422e-08
7.97997e-10
-2.01894e-08
7.67423e-10
-2.09237e-08
7.34274e-10
-2.16224e-08
6.98704e-10
-2.22833e-08
6.60918e-10
-2.29044e-08
6.21095e-10
-2.34838e-08
5.79367e-10
-2.40196e-08
5.35871e-10
-2.45104e-08
4.90776e-10
-2.49546e-08
4.44239e-10
-2.5351e-08
3.96383e-10
-2.56984e-08
3.47333e-10
-2.59956e-08
2.97234e-10
-2.62419e-08
2.46247e-10
-2.64364e-08
1.94513e-10
-2.65785e-08
1.42148e-10
-2.66678e-08
8.92819e-11
-2.67039e-08
3.60573e-11
-2.66865e-08
-1.73769e-11
-2.66156e-08
-7.08736e-11
-2.64913e-08
-1.243e-10
-2.63138e-08
-1.77521e-10
-2.60834e-08
-2.30375e-10
-2.58007e-08
-2.82691e-10
-2.54664e-08
-3.34308e-10
-2.50814e-08
-3.85071e-10
-2.46465e-08
-4.34833e-10
-2.41631e-08
-4.83438e-10
-2.36324e-08
-5.30701e-10
-2.3056e-08
-5.76429e-10
-2.24355e-08
-6.20428e-10
-2.1773e-08
-6.62506e-10
-2.10706e-08
-7.0248e-10
-2.03304e-08
-7.40168e-10
-1.9555e-08
-7.75374e-10
-1.87472e-08
-8.07884e-10
-1.79097e-08
-8.37493e-10
-1.70457e-08
-8.63997e-10
-1.61585e-08
-8.87191e-10
-1.52516e-08
-9.06874e-10
-1.43287e-08
-9.22854e-10
-1.33938e-08
-9.34926e-10
-1.2451e-08
-9.42876e-10
-1.15044e-08
-9.46502e-10
-1.05588e-08
-9.45611e-10
-9.61883e-09
-9.40019e-10
-8.68927e-09
-9.29557e-10
-7.77519e-09
-9.14076e-10
-6.88175e-09
-8.93435e-10
-6.01426e-09
-8.67489e-10
-5.17816e-09
-8.36105e-10
-4.37898e-09
-7.99171e-10
-3.62238e-09
-7.56603e-10
-2.91404e-09
-7.08344e-10
-2.25965e-09
-6.54383e-10
-1.66486e-09
-5.94783e-10
-1.13517e-09
-5.29692e-10
-6.75804e-10
-4.59368e-10
-2.91584e-10
-3.84221e-10
1.33206e-11
-3.04901e-10
2.35817e-10
-2.22493e-10
3.74277e-10
-1.38457e-10
4.2971e-10
-5.54286e-11
4.07296e-10
2.24168e-11
3.19059e-10
8.82383e-11
1.88547e-10
1.30514e-10
5.93868e-11
1.29158e-10
5.93849e-11
1.2321e-10
-1.83621e-10
3.23551e-10
-3.32922e-10
4.85703e-10
-2.89068e-10
5.29649e-10
-1.25786e-10
4.05955e-10
1.1032e-10
8.51962e-11
3.86907e-10
-4.47182e-10
6.82388e-10
-1.19569e-09
9.82623e-10
-2.15798e-09
1.27833e-09
-3.32712e-09
1.56341e-09
-4.69309e-09
1.83384e-09
-6.24375e-09
2.08702e-09
-7.96564e-09
2.32124e-09
-9.84441e-09
2.53546e-09
-1.18652e-08
2.72912e-09
-1.4013e-08
2.90197e-09
-1.62726e-08
3.05404e-09
-1.86291e-08
3.18554e-09
-2.10676e-08
3.29685e-09
-2.35737e-08
3.38844e-09
-2.61333e-08
3.46085e-09
-2.87327e-08
3.51467e-09
-3.13586e-08
3.55051e-09
-3.39983e-08
3.56903e-09
-3.66395e-08
3.5709e-09
-3.92703e-08
3.55676e-09
-4.18794e-08
3.52731e-09
-4.44561e-08
3.48326e-09
-4.69901e-08
3.42529e-09
-4.94715e-08
3.35411e-09
-5.18911e-08
3.27042e-09
-5.42401e-08
3.1749e-09
-5.65103e-08
3.06818e-09
-5.86938e-08
2.95093e-09
-6.07833e-08
2.82379e-09
-6.2772e-08
2.68738e-09
-6.46534e-08
2.54236e-09
-6.64217e-08
2.38934e-09
-6.80713e-08
2.22892e-09
-6.95971e-08
2.0617e-09
-7.09946e-08
1.88826e-09
-7.22595e-08
1.70915e-09
-7.3388e-08
1.52492e-09
-7.43768e-08
1.33609e-09
-7.52228e-08
1.14323e-09
-7.59234e-08
9.46873e-10
-7.64765e-08
7.47577e-10
-7.68802e-08
5.45863e-10
-7.71332e-08
3.42259e-10
-7.72345e-08
1.37311e-10
-7.71834e-08
-6.8438e-11
-7.69798e-08
-2.74438e-10
-7.6624e-08
-4.80122e-10
-7.61166e-08
-6.84916e-10
-7.54588e-08
-8.88229e-10
-7.4652e-08
-1.08945e-09
-7.36984e-08
-1.28796e-09
-7.26003e-08
-1.48316e-09
-7.13607e-08
-1.67441e-09
-6.99831e-08
-1.86106e-09
-6.84714e-08
-2.04244e-09
-6.683e-08
-2.21783e-09
-6.50639e-08
-2.38654e-09
-6.31785e-08
-2.54784e-09
-6.118e-08
-2.701e-09
-5.90749e-08
-2.84527e-09
-5.68704e-08
-2.97992e-09
-5.45741e-08
-3.10417e-09
-5.21944e-08
-3.21726e-09
-4.97399e-08
-3.31841e-09
-4.72203e-08
-3.40685e-09
-4.46453e-08
-3.48183e-09
-4.20256e-08
-3.54257e-09
-3.93722e-08
-3.58833e-09
-3.66967e-08
-3.61836e-09
-3.40113e-08
-3.6319e-09
-3.13287e-08
-3.62826e-09
-2.86619e-08
-3.60679e-09
-2.60246e-08
-3.56687e-09
-2.34307e-08
-3.50794e-09
-2.08947e-08
-3.42948e-09
-1.84312e-08
-3.33102e-09
-1.60551e-08
-3.21217e-09
-1.37816e-08
-3.07264e-09
-1.1626e-08
-2.91225e-09
-9.60335e-09
-2.73097e-09
-7.72873e-09
-2.529e-09
-6.01671e-09
-2.30681e-09
-4.4812e-09
-2.06521e-09
-3.13501e-09
-1.80555e-09
-1.98941e-09
-1.52982e-09
-1.05334e-09
-1.24098e-09
-3.32453e-10
-9.4338e-10
1.725e-10
-6.43405e-10
4.6769e-10
-3.50617e-10
5.6941e-10
-7.93053e-11
5.08501e-10
1.49151e-10
3.36002e-10
3.03013e-10
1.28999e-10
3.36155e-10
1.88393e-10
1.25903e-10
-3.0953e-10
2.84169e-10
-4.91169e-10
3.45676e-10
-3.50567e-10
2.17618e-10
2.27731e-12
-1.62855e-10
4.90794e-10
-8.35495e-10
1.05955e-09
-1.82207e-09
1.66896e-09
-3.13101e-09
2.29155e-09
-4.76104e-09
2.90836e-09
-6.7039e-09
3.50627e-09
-8.9463e-09
4.07625e-09
-1.14714e-08
4.61214e-09
-1.426e-08
5.10978e-09
-1.72909e-08
5.56643e-09
-2.05422e-08
5.98045e-09
-2.39912e-08
6.35097e-09
-2.76149e-08
6.67773e-09
-3.13903e-08
6.96093e-09
-3.52946e-08
7.20111e-09
-3.93052e-08
7.39906e-09
-4.34001e-08
7.55578e-09
-4.75579e-08
7.67242e-09
-5.17576e-08
7.75022e-09
-5.59791e-08
7.7905e-09
-6.02028e-08
7.79463e-09
-6.44101e-08
7.76403e-09
-6.85829e-08
7.70014e-09
-7.2704e-08
7.60442e-09
-7.67571e-08
7.47837e-09
-8.07265e-08
7.32352e-09
-8.45974e-08
7.14131e-09
-8.83557e-08
6.93319e-09
-9.19881e-08
6.7006e-09
-9.54822e-08
6.44498e-09
-9.88261e-08
6.16771e-09
-1.02009e-07
5.87016e-09
-1.0502e-07
5.5537e-09
-1.07851e-07
5.21969e-09
-1.10491e-07
4.86942e-09
-1.12934e-07
4.50418e-09
-1.15171e-07
4.12524e-09
-1.17195e-07
3.73383e-09
-1.19001e-07
3.33117e-09
-1.20584e-07
2.91845e-09
-1.21937e-07
2.49687e-09
-1.23058e-07
2.06763e-09
-1.23943e-07
1.63191e-09
-1.24588e-07
1.19091e-09
-1.24991e-07
7.45792e-10
-1.25152e-07
2.97755e-10
-1.25068e-07
-1.51992e-10
-1.2474e-07
-6.0223e-10
-1.24169e-07
-1.05171e-09
-1.23354e-07
-1.49917e-09
-1.22299e-07
-1.94331e-09
-1.21006e-07
-2.38282e-09
-1.19478e-07
-2.81634e-09
-1.17718e-07
-3.24252e-09
-1.15733e-07
-3.65996e-09
-1.13527e-07
-4.06723e-09
-1.11106e-07
-4.46285e-09
-1.08479e-07
-4.84531e-09
-1.05652e-07
-5.21308e-09
-1.02635e-07
-5.56457e-09
-9.94382e-08
-5.89822e-09
-9.6071e-08
-6.21242e-09
-9.25454e-08
-6.50552e-09
-8.88737e-08
-6.77589e-09
-8.50691e-08
-7.02187e-09
-8.11457e-08
-7.2418e-09
-7.71186e-08
-7.43401e-09
-7.30035e-08
-7.59687e-09
-6.88173e-08
-7.72875e-09
-6.45776e-08
-7.82804e-09
-6.03029e-08
-7.89315e-09
-5.60122e-08
-7.92255e-09
-5.17257e-08
-7.91478e-09
-4.7464e-08
-7.86846e-09
-4.32486e-08
-7.7823e-09
-3.91014e-08
-7.65515e-09
-3.50449e-08
-7.48597e-09
-3.1102e-08
-7.27389e-09
-2.7296e-08
-7.01819e-09
-2.36502e-08
-6.71844e-09
-2.01879e-08
-6.37449e-09
-1.69323e-08
-5.98657e-09
-1.39059e-08
-5.55538e-09
-1.11305e-08
-5.08227e-09
-8.62622e-09
-4.56944e-09
-6.41159e-09
-4.02018e-09
-4.50215e-09
-3.43925e-09
-2.90967e-09
-2.83345e-09
-1.64059e-09
-2.21244e-09
-6.9411e-10
-1.58988e-09
-5.95717e-11
-9.8516e-10
2.86938e-10
-4.25807e-10
3.86895e-10
4.92076e-11
3.04235e-10
3.8567e-10
1.30713e-10
5.09684e-10
3.1911e-10
8.238e-11
-3.91907e-10
1.27191e-10
-5.35995e-10
1.50815e-12
-2.2488e-10
-3.89114e-10
3.92895e-10
-1.11142e-09
1.21311e-09
-2.20904e-09
2.15716e-09
-3.70703e-09
3.16694e-09
-5.61595e-09
4.20047e-09
-7.93517e-09
5.22759e-09
-1.06556e-08
6.22668e-09
-1.37616e-08
7.18231e-09
-1.72331e-08
8.08358e-09
-2.10462e-08
8.9229e-09
-2.51748e-08
9.69508e-09
-2.95912e-08
1.03968e-08
-3.42662e-08
1.1026e-08
-3.91705e-08
1.1582e-08
-4.42742e-08
1.20646e-08
-4.95475e-08
1.24745e-08
-5.49611e-08
1.28127e-08
-6.0486e-08
1.30807e-08
-6.60937e-08
1.32802e-08
-7.17567e-08
1.34132e-08
-7.74481e-08
1.34819e-08
-8.31419e-08
1.34884e-08
-8.88131e-08
1.34352e-08
-9.44377e-08
1.33247e-08
-9.99926e-08
1.31594e-08
-1.05456e-07
1.29417e-08
-1.10807e-07
1.26741e-08
-1.16025e-07
1.23593e-08
-1.21091e-07
1.19996e-08
-1.25988e-07
1.15976e-08
-1.30698e-07
1.11556e-08
-1.35207e-07
1.0676e-08
-1.39498e-07
1.01614e-08
-1.43558e-07
9.61389e-09
-1.47374e-07
9.0359e-09
-1.50935e-07
8.42967e-09
-1.54228e-07
7.79741e-09
-1.57244e-07
7.14132e-09
-1.59974e-07
6.46354e-09
-1.62409e-07
5.7662e-09
-1.64542e-07
5.05139e-09
-1.66366e-07
4.3212e-09
-1.67876e-07
3.57772e-09
-1.69067e-07
2.823e-09
-1.69935e-07
2.05911e-09
-1.70478e-07
1.28813e-09
-1.70692e-07
5.12143e-10
-1.70577e-07
-2.66751e-10
-1.70133e-07
-1.04641e-09
-1.6936e-07
-1.82469e-09
-1.6826e-07
-2.59936e-09
-1.66835e-07
-3.36819e-09
-1.65089e-07
-4.12888e-09
-1.63026e-07
-4.8791e-09
-1.60652e-07
-5.61648e-09
-1.57974e-07
-6.33858e-09
-1.54998e-07
-7.04293e-09
-1.51734e-07
-7.72698e-09
-1.48191e-07
-8.38812e-09
-1.44381e-07
-9.02372e-09
-1.40314e-07
-9.63107e-09
-1.36005e-07
-1.02074e-08
-1.31467e-07
-1.07501e-08
-1.26717e-07
-1.12561e-08
-1.2177e-07
-1.17229e-08
-1.16644e-07
-1.21474e-08
-1.11359e-07
-1.25269e-08
-1.05934e-07
-1.28585e-08
-1.00392e-07
-1.31395e-08
-9.47535e-08
-1.3367e-08
-8.90431e-08
-1.35384e-08
-8.32852e-08
-1.3651e-08
-7.75055e-08
-1.37023e-08
-7.17305e-08
-1.36898e-08
-6.59878e-08
-1.36111e-08
-6.03058e-08
-1.34644e-08
-5.47134e-08
-1.32476e-08
-4.92403e-08
-1.29591e-08
-4.39166e-08
-1.25976e-08
-3.87727e-08
-1.21621e-08
-3.3839e-08
-1.16521e-08
-2.91457e-08
-1.10678e-08
-2.47225e-08
-1.04097e-08
-2.05982e-08
-9.67968e-09
-1.68001e-08
-8.88033e-09
-1.33537e-08
-8.01589e-09
-1.02814e-08
-7.09247e-09
-7.602e-09
-6.11864e-09
-5.32916e-09
-5.10628e-09
-3.46984e-09
-4.07176e-09
-2.02221e-09
-3.03752e-09
-9.73085e-10
-2.03428e-09
-2.9485e-10
-1.10403e-09
5.83113e-11
-3.03955e-10
1.54614e-10
2.89362e-10
8.9738e-11
5.74564e-10
4.08842e-10
1.72036e-11
-4.0911e-10
-1.00329e-10
-4.18461e-10
-4.73352e-10
1.48141e-10
-1.19087e-09
1.1104e-09
-2.31683e-09
2.33907e-09
-3.89416e-09
3.73449e-09
-5.94803e-09
5.22082e-09
-8.48911e-09
6.74155e-09
-1.15164e-08
8.25485e-09
-1.50196e-08
9.72987e-09
-1.89812e-08
1.1144e-08
-2.33782e-08
1.24806e-08
-2.81834e-08
1.37281e-08
-3.33663e-08
1.4878e-08
-3.88945e-08
1.59249e-08
-4.47337e-08
1.68652e-08
-5.08489e-08
1.76972e-08
-5.72046e-08
1.84203e-08
-6.37652e-08
1.9035e-08
-7.0495e-08
1.95426e-08
-7.73592e-08
1.99448e-08
-8.43232e-08
2.02442e-08
-9.13534e-08
2.04434e-08
-9.84171e-08
2.05455e-08
-1.05482e-07
2.05537e-08
-1.12519e-07
2.04716e-08
-1.19497e-07
2.03025e-08
-1.26387e-07
2.00503e-08
-1.33164e-07
1.97186e-08
-1.39801e-07
1.93111e-08
-1.46274e-07
1.88317e-08
-1.52558e-07
1.8284e-08
-1.58632e-07
1.76717e-08
-1.64475e-07
1.69986e-08
-1.70068e-07
1.62683e-08
-1.75391e-07
1.54843e-08
-1.80427e-07
1.46502e-08
-1.85161e-07
1.37696e-08
-1.89577e-07
1.28457e-08
-1.93661e-07
1.18822e-08
-1.97402e-07
1.08822e-08
-2.00788e-07
9.84902e-09
-2.03807e-07
8.78597e-09
-2.06452e-07
7.69625e-09
-2.08714e-07
6.58305e-09
-2.10586e-07
5.44954e-09
-2.12062e-07
4.29891e-09
-2.13137e-07
3.13431e-09
-2.13808e-07
1.95894e-09
-2.14072e-07
7.75998e-10
-2.13927e-07
-4.11298e-10
-2.13374e-07
-1.59967e-09
-2.12413e-07
-2.78581e-09
-2.11046e-07
-3.96634e-09
-2.09276e-07
-5.13783e-09
-2.07108e-07
-6.29678e-09
-2.04548e-07
-7.43964e-09
-2.01602e-07
-8.56278e-09
-1.98278e-07
-9.66247e-09
-1.94586e-07
-1.07349e-08
-1.90536e-07
-1.17763e-08
-1.86142e-07
-1.27827e-08
-1.81415e-07
-1.375e-08
-1.76372e-07
-1.46741e-08
-1.71029e-07
-1.5551e-08
-1.65403e-07
-1.63764e-08
-1.59513e-07
-1.71462e-08
-1.53379e-07
-1.78559e-08
-1.47025e-07
-1.85015e-08
-1.40474e-07
-1.90786e-08
-1.33749e-07
-1.9583e-08
-1.26878e-07
-2.00104e-08
-1.19889e-07
-2.03568e-08
-1.12809e-07
-2.0618e-08
-1.0567e-07
-2.07903e-08
-9.85023e-08
-2.08698e-08
-9.13392e-08
-2.08529e-08
-8.4214e-08
-2.07363e-08
-7.71613e-08
-2.05171e-08
-7.02164e-08
-2.01925e-08
-6.34152e-08
-1.97602e-08
-5.67941e-08
-1.92186e-08
-5.03897e-08
-1.85665e-08
-4.42384e-08
-1.78034e-08
-3.83763e-08
-1.69299e-08
-3.28386e-08
-1.59474e-08
-2.76592e-08
-1.4859e-08
-2.28703e-08
-1.36692e-08
-1.85013e-08
-1.2385e-08
-1.45779e-08
-1.10158e-08
-1.11217e-08
-9.57489e-09
-8.14786e-09
-8.08009e-09
-5.66427e-09
-6.55535e-09
-3.66917e-09
-5.03262e-09
-2.14898e-09
-3.55446e-09
-1.07567e-09
-2.17734e-09
-4.03706e-10
-9.75932e-10
-6.67904e-11
-4.7554e-11
2.61703e-11
4.81601e-10
4.35008e-10
-5.90087e-11
-3.50098e-10
-3.67733e-10
-1.0975e-10
-1.02733e-09
8.07748e-10
-2.11521e-09
2.19828e-09
-3.68823e-09
3.91208e-09
-5.78493e-09
5.83119e-09
-8.42784e-09
7.86373e-09
-1.16258e-08
9.9395e-09
-1.53762e-08
1.20052e-08
-1.9667e-08
1.40207e-08
-2.44785e-08
1.59555e-08
-2.97853e-08
1.77874e-08
-3.55568e-08
1.94996e-08
-4.17592e-08
2.10804e-08
-4.83558e-08
2.25215e-08
-5.53081e-08
2.38175e-08
-6.25764e-08
2.49655e-08
-7.01201e-08
2.59641e-08
-7.78985e-08
2.68134e-08
-8.58708e-08
2.75149e-08
-9.39967e-08
2.80707e-08
-1.02236e-07
2.84838e-08
-1.10551e-07
2.87578e-08
-1.18902e-07
2.88967e-08
-1.27253e-07
2.89047e-08
-1.35568e-07
2.87866e-08
-1.43812e-07
2.8547e-08
-1.51953e-07
2.81912e-08
-1.59959e-07
2.7724e-08
-1.67798e-07
2.71507e-08
-1.75443e-07
2.64764e-08
-1.82865e-07
2.57063e-08
-1.90039e-07
2.48455e-08
-1.9694e-07
2.38992e-08
-2.03544e-07
2.28725e-08
-2.0983e-07
2.17703e-08
-2.15777e-07
2.05977e-08
-2.21367e-07
1.93595e-08
-2.26582e-07
1.80605e-08
-2.31405e-07
1.67055e-08
-2.35822e-07
1.52992e-08
-2.39819e-07
1.38462e-08
-2.43385e-07
1.23511e-08
-2.46507e-07
1.08185e-08
-2.49177e-07
9.25278e-09
-2.51386e-07
7.65851e-09
-2.53127e-07
6.04017e-09
-2.54395e-07
4.40223e-09
-2.55185e-07
2.74918e-09
-2.55495e-07
1.08556e-09
-2.55322e-07
-5.84082e-10
-2.54666e-07
-2.25513e-09
-2.53529e-07
-3.9229e-09
-2.51913e-07
-5.58263e-09
-2.49821e-07
-7.2295e-09
-2.47259e-07
-8.8586e-09
-2.44234e-07
-1.04649e-08
-2.40754e-07
-1.20433e-08
-2.36828e-07
-1.35886e-08
-2.32467e-07
-1.50954e-08
-2.27685e-07
-1.65584e-08
-2.22496e-07
-1.79719e-08
-2.16915e-07
-1.93305e-08
-2.10961e-07
-2.06284e-08
-2.04652e-07
-2.18597e-08
-1.9801e-07
-2.30187e-08
-1.91057e-07
-2.40994e-08
-1.83817e-07
-2.5096e-08
-1.76316e-07
-2.60025e-08
-1.68581e-07
-2.68129e-08
-1.60643e-07
-2.75215e-08
-1.52531e-07
-2.81223e-08
-1.44278e-07
-2.86097e-08
-1.35918e-07
-2.89782e-08
-1.27486e-07
-2.92223e-08
-1.19019e-07
-2.9337e-08
-1.10554e-07
-2.93174e-08
-1.02131e-07
-2.91591e-08
-9.37903e-08
-2.88581e-08
-8.55719e-08
-2.84109e-08
-7.75177e-08
-2.78145e-08
-6.96694e-08
-2.70669e-08
-6.20691e-08
-2.61668e-08
-5.47585e-08
-2.51141e-08
-4.77787e-08
-2.39097e-08
-4.11696e-08
-2.25565e-08
-3.49697e-08
-2.1059e-08
-2.92148e-08
-1.94241e-08
-2.3938e-08
-1.76618e-08
-1.91682e-08
-1.57857e-08
-1.4929e-08
-1.38141e-08
-1.12378e-08
-1.17713e-08
-8.10385e-09
-9.68926e-09
-5.52685e-09
-7.60962e-09
-3.49476e-09
-5.58655e-09
-1.98187e-09
-3.69024e-09
-9.46535e-10
-2.01127e-09
-3.28947e-10
-6.65135e-10
-4.86519e-11
2.013e-10
3.86362e-10
-1.39895e-10
-2.10203e-10
-6.55211e-10
4.05556e-10
-1.62457e-09
1.77711e-09
-3.11033e-09
3.68404e-09
-5.15902e-09
5.96077e-09
-7.80213e-09
8.4743e-09
-1.10573e-08
1.11189e-08
-1.49298e-08
1.3812e-08
-1.94142e-08
1.64896e-08
-2.44958e-08
1.91024e-08
-3.01527e-08
2.16124e-08
-3.63564e-08
2.39911e-08
-4.30736e-08
2.62168e-08
-5.02671e-08
2.82739e-08
-5.78967e-08
3.01511e-08
-6.592e-08
3.18408e-08
-7.42931e-08
3.33386e-08
-8.29712e-08
3.46422e-08
-9.1909e-08
3.57512e-08
-1.01061e-07
3.66671e-08
-1.10383e-07
3.73922e-08
-1.19829e-07
3.79301e-08
-1.29356e-07
3.82851e-08
-1.38922e-07
3.84622e-08
-1.48484e-07
3.84668e-08
-1.58002e-07
3.8305e-08
-1.67438e-07
3.79827e-08
-1.76753e-07
3.75066e-08
-1.85912e-07
3.68831e-08
-1.94881e-07
3.61189e-08
-2.03625e-07
3.52209e-08
-2.12115e-07
3.41957e-08
-2.20319e-07
3.30502e-08
-2.28211e-07
3.17911e-08
-2.35764e-07
3.0425e-08
-2.42952e-07
2.89587e-08
-2.49753e-07
2.73986e-08
-2.56145e-07
2.57512e-08
-2.62107e-07
2.4023e-08
-2.67622e-07
2.22202e-08
-2.72672e-07
2.03491e-08
-2.77242e-07
1.84159e-08
-2.81317e-07
1.64266e-08
-2.84886e-07
1.43873e-08
-2.87937e-07
1.23041e-08
-2.90462e-07
1.01828e-08
-2.92451e-07
8.02957e-09
-2.93899e-07
5.8503e-09
-2.94801e-07
3.651e-09
-2.95153e-07
1.43773e-09
-2.94954e-07
-7.83443e-10
-2.94202e-07
-3.00635e-09
-2.92901e-07
-5.22475e-09
-2.91051e-07
-7.43231e-09
-2.88658e-07
-9.6226e-09
-2.85727e-07
-1.17891e-08
-2.82267e-07
-1.39251e-08
-2.78287e-07
-1.60237e-08
-2.73797e-07
-1.80782e-08
-2.68811e-07
-2.00814e-08
-2.63343e-07
-2.20261e-08
-2.5741e-07
-2.3905e-08
-2.5103e-07
-2.57107e-08
-2.44223e-07
-2.74356e-08
-2.3701e-07
-2.9072e-08
-2.29417e-07
-3.06123e-08
-2.21468e-07
-3.20487e-08
-2.1319e-07
-3.33733e-08
-2.04614e-07
-3.45784e-08
-1.95771e-07
-3.56561e-08
-1.86694e-07
-3.65989e-08
-1.77417e-07
-3.7399e-08
-1.67978e-07
-3.8049e-08
-1.58414e-07
-3.85418e-08
-1.48766e-07
-3.88704e-08
-1.39075e-07
-3.90281e-08
-1.29383e-07
-3.90089e-08
-1.19736e-07
-3.8807e-08
-1.10176e-07
-3.84174e-08
-1.00751e-07
-3.78357e-08
-9.15073e-08
-3.70586e-08
-8.24907e-08
-3.60834e-08
-7.37484e-08
-3.49091e-08
-6.53268e-08
-3.35357e-08
-5.72712e-08
-3.19653e-08
-4.96258e-08
-3.02018e-08
-4.2433e-08
-2.82518e-08
-3.57322e-08
-2.61249e-08
-2.95595e-08
-2.38344e-08
-2.39468e-08
-2.13983e-08
-1.89204e-08
-1.88405e-08
-1.44999e-08
-1.61918e-08
-1.06971e-08
-1.34921e-08
-7.51409e-09
-1.07926e-08
-4.94227e-09
-8.15836e-09
-2.96047e-09
-5.67204e-09
-1.53363e-09
-3.43811e-09
-6.11605e-10
-1.58716e-09
-1.28197e-10
-2.82108e-10
2.5817e-10
-2.21727e-10
1.1533e-11
-9.50175e-10
1.13399e-09
-2.24106e-09
3.068e-09
-4.14004e-09
5.58303e-09
-6.68143e-09
8.50216e-09
-9.88769e-09
1.16806e-08
-1.37699e-08
1.50011e-08
-1.83282e-08
1.83703e-08
-2.35533e-08
2.17147e-08
-2.94272e-08
2.49763e-08
-3.59248e-08
2.811e-08
-4.30146e-08
3.10809e-08
-5.06603e-08
3.38626e-08
-5.88216e-08
3.64352e-08
-6.74549e-08
3.87843e-08
-7.65143e-08
4.09002e-08
-8.59522e-08
4.27765e-08
-9.57198e-08
4.44098e-08
-1.05768e-07
4.57994e-08
-1.16047e-07
4.69462e-08
-1.26508e-07
4.78531e-08
-1.37102e-07
4.8524e-08
-1.47781e-07
4.8964e-08
-1.58498e-07
4.9179e-08
-1.69207e-07
4.91759e-08
-1.79864e-07
4.89617e-08
-1.90425e-07
4.85441e-08
-2.00849e-07
4.7931e-08
-2.11097e-07
4.71307e-08
-2.21129e-07
4.61515e-08
-2.3091e-07
4.50019e-08
-2.40405e-07
4.36904e-08
-2.4958e-07
4.22255e-08
-2.58405e-07
4.06158e-08
-2.6685e-07
3.88697e-08
-2.74887e-07
3.69956e-08
-2.8249e-07
3.50018e-08
-2.89635e-07
3.28967e-08
-2.963e-07
3.06883e-08
-3.02465e-07
2.83846e-08
-3.08109e-07
2.59937e-08
-3.13217e-07
2.35233e-08
-3.17772e-07
2.09814e-08
-3.2176e-07
1.83757e-08
-3.2517e-07
1.57137e-08
-3.2799e-07
1.30033e-08
-3.30213e-07
1.0252e-08
-3.3183e-07
7.46761e-09
-3.32837e-07
4.65769e-09
-3.33229e-07
1.83002e-09
-3.33005e-07
-1.00761e-09
-3.32164e-07
-3.84731e-09
-3.30707e-07
-6.68111e-09
-3.28639e-07
-9.5009e-09
-3.25963e-07
-1.22985e-08
-3.22687e-07
-1.50654e-08
-3.18818e-07
-1.77933e-08
-3.14369e-07
-2.04734e-08
-3.0935e-07
-2.30969e-08
-3.03777e-07
-2.56547e-08
-2.97665e-07
-2.81378e-08
-2.91033e-07
-3.05367e-08
-2.83902e-07
-3.28421e-08
-2.76293e-07
-3.50443e-08
-2.68232e-07
-3.71337e-08
-2.59744e-07
-3.91005e-08
-2.50858e-07
-4.09347e-08
-2.41604e-07
-4.26266e-08
-2.32016e-07
-4.41662e-08
-2.22129e-07
-4.55438e-08
-2.11978e-07
-4.67497e-08
-2.01603e-07
-4.77742e-08
-1.91044e-07
-4.86082e-08
-1.80343e-07
-4.92425e-08
-1.69545e-07
-4.96686e-08
-1.58695e-07
-4.98782e-08
-1.4784e-07
-4.98637e-08
-1.37029e-07
-4.96182e-08
-1.2631e-07
-4.91356e-08
-1.15736e-07
-4.84107e-08
-1.05355e-07
-4.74394e-08
-9.52189e-08
-4.62191e-08
-8.53793e-08
-4.47487e-08
-7.58863e-08
-4.30287e-08
-6.67894e-08
-4.10622e-08
-5.81365e-08
-3.88547e-08
-4.99734e-08
-3.6415e-08
-4.2343e-08
-3.37553e-08
-3.52845e-08
-3.08928e-08
-2.88328e-08
-2.78501e-08
-2.3017e-08
-2.46563e-08
-1.78598e-08
-2.1349e-08
-1.33759e-08
-1.79759e-08
-9.57157e-09
-1.4597e-08
-6.44274e-09
-1.12872e-08
-3.97455e-09
-8.14023e-09
-2.14044e-09
-5.27221e-09
-9.01899e-10
-2.82571e-09
-2.08697e-10
-9.75305e-10
4.94699e-11
-3.02406e-10
3.13941e-10
-1.24476e-09
2.07634e-09
-2.86097e-09
4.6842e-09
-5.17963e-09
7.90169e-09
-8.22182e-09
1.15444e-08
-1.19999e-08
1.54586e-08
-1.65168e-08
1.95181e-08
-2.17669e-08
2.36204e-08
-2.77357e-08
2.76835e-08
-3.44011e-08
3.16417e-08
-4.17342e-08
3.54431e-08
-4.97005e-08
3.90471e-08
-5.82603e-08
4.24223e-08
-6.73699e-08
4.55448e-08
-7.69826e-08
4.83971e-08
-8.70492e-08
5.09668e-08
-9.75185e-08
5.32458e-08
-1.08338e-07
5.52297e-08
-1.19456e-07
5.69168e-08
-1.30817e-07
5.8308e-08
-1.4237e-07
5.94061e-08
-1.54062e-07
6.02156e-08
-1.65841e-07
6.07425e-08
-1.77655e-07
6.09936e-08
-1.89456e-07
6.09768e-08
-2.01195e-07
6.07008e-08
-2.12826e-07
6.01745e-08
-2.24303e-07
5.94077e-08
-2.35582e-07
5.84103e-08
-2.46623e-07
5.71923e-08
-2.57385e-07
5.5764e-08
-2.67831e-07
5.4136e-08
-2.77924e-07
5.23185e-08
-2.8763e-07
5.03221e-08
-2.96917e-07
4.81571e-08
-3.05756e-07
4.58339e-08
-3.14117e-07
4.33626e-08
-3.21973e-07
4.07536e-08
-3.29302e-07
3.80167e-08
-3.36079e-07
3.51619e-08
-3.42285e-07
3.21991e-08
-3.47899e-07
2.91381e-08
-3.52906e-07
2.59884e-08
-3.5729e-07
2.27596e-08
-3.61038e-07
1.94614e-08
-3.64138e-07
1.61032e-08
-3.6658e-07
1.26945e-08
-3.68357e-07
9.24476e-09
-3.69463e-07
5.76358e-09
-3.69894e-07
2.26054e-09
-3.69647e-07
-1.25469e-09
-3.68722e-07
-4.77235e-09
-3.6712e-07
-8.28255e-09
-3.64846e-07
-1.17753e-08
-3.61904e-07
-1.52403e-08
-3.58302e-07
-1.86673e-08
-3.5405e-07
-2.20457e-08
-3.49159e-07
-2.53648e-08
-3.43642e-07
-2.86137e-08
-3.37515e-07
-3.17812e-08
-3.30797e-07
-3.48561e-08
-3.23507e-07
-3.78269e-08
-3.15667e-07
-4.06819e-08
-3.07302e-07
-4.34092e-08
-2.98439e-07
-4.5997e-08
-2.89106e-07
-4.84332e-08
-2.79335e-07
-5.07056e-08
-2.69159e-07
-5.28023e-08
-2.58614e-07
-5.47111e-08
-2.47738e-07
-5.642e-08
-2.36571e-07
-5.79171e-08
-2.25154e-07
-5.91909e-08
-2.13532e-07
-6.02299e-08
-2.01752e-07
-6.10233e-08
-1.8986e-07
-6.15605e-08
-1.77906e-07
-6.18317e-08
-1.65942e-07
-6.18279e-08
-1.54019e-07
-6.15407e-08
-1.42192e-07
-6.09629e-08
-1.30514e-07
-6.00885e-08
-1.19041e-07
-5.8913e-08
-1.07827e-07
-5.74333e-08
-9.69265e-08
-5.56487e-08
-8.63949e-08
-5.35603e-08
-7.62849e-08
-5.11722e-08
-6.66479e-08
-4.84917e-08
-5.75332e-08
-4.55297e-08
-4.89869e-08
-4.23016e-08
-4.10515e-08
-3.88282e-08
-3.3765e-08
-3.51366e-08
-2.71598e-08
-3.12615e-08
-2.12621e-08
-2.72467e-08
-1.60909e-08
-2.31472e-08
-1.16569e-08
-1.9031e-08
-7.96205e-09
-1.4982e-08
-4.99901e-09
-1.11033e-08
-2.75093e-09
-7.5203e-09
-1.19188e-09
-4.38477e-09
-2.88045e-10
-1.87914e-09
-2.38583e-10
-3.80806e-10
6.94748e-10
-1.53426e-09
3.22979e-09
-3.47421e-09
6.62415e-09
-6.21268e-09
1.06402e-08
-9.75725e-09
1.50889e-08
-1.41094e-08
1.98108e-08
-1.92635e-08
2.46722e-08
-2.52068e-08
2.95636e-08
-3.19189e-08
3.43956e-08
-3.93731e-08
3.90959e-08
-4.75363e-08
4.36063e-08
-5.637e-08
4.78809e-08
-6.58311e-08
5.18835e-08
-7.58727e-08
5.55864e-08
-8.64447e-08
5.8969e-08
-9.74945e-08
6.20165e-08
-1.08968e-07
6.4719e-08
-1.20809e-07
6.70707e-08
-1.32961e-07
6.90692e-08
-1.45368e-07
7.07151e-08
-1.57974e-07
7.20115e-08
-1.70721e-07
7.29631e-08
-1.83555e-07
7.35768e-08
-1.96422e-07
7.38603e-08
-2.09268e-07
7.38229e-08
-2.22042e-07
7.34745e-08
-2.34693e-07
7.28258e-08
-2.47173e-07
7.18881e-08
-2.59436e-07
7.06731e-08
-2.71437e-07
6.91929e-08
-2.83133e-07
6.74596e-08
-2.94482e-07
6.54856e-08
-3.05447e-07
6.32835e-08
-3.15991e-07
6.08657e-08
-3.26078e-07
5.82445e-08
-3.35677e-07
5.54325e-08
-3.44756e-07
5.24419e-08
-3.53287e-07
4.92849e-08
-3.61244e-07
4.59737e-08
-3.68603e-07
4.25201e-08
-3.7534e-07
3.89361e-08
-3.81435e-07
3.52334e-08
-3.8687e-07
3.14237e-08
-3.91629e-07
2.75186e-08
-3.95697e-07
2.35295e-08
-3.99062e-07
1.9468e-08
-4.01713e-07
1.53456e-08
-4.03642e-07
1.11738e-08
-4.04843e-07
6.96402e-09
-4.0531e-07
2.72797e-09
-4.05042e-07
-1.52269e-09
-4.04038e-07
-5.77614e-09
-4.02301e-07
-1.00204e-08
-3.99832e-07
-1.42435e-08
-3.9664e-07
-1.84329e-08
-3.92731e-07
-2.25762e-08
-3.88116e-07
-2.66607e-08
-3.82807e-07
-3.06735e-08
-3.76819e-07
-3.46014e-08
-3.7017e-07
-3.84309e-08
-3.62877e-07
-4.21485e-08
-3.54964e-07
-4.57403e-08
-3.46453e-07
-4.91924e-08
-3.37372e-07
-5.24904e-08
-3.27749e-07
-5.562e-08
-3.17615e-07
-5.85669e-08
-3.07004e-07
-6.13165e-08
-2.95953e-07
-6.38542e-08
-2.84498e-07
-6.61657e-08
-2.72681e-07
-6.82365e-08
-2.60546e-07
-7.00526e-08
-2.48137e-07
-7.16001e-08
-2.35501e-07
-7.28654e-08
-2.22689e-07
-7.38356e-08
-2.09751e-07
-7.44984e-08
-1.9674e-07
-7.48422e-08
-1.83712e-07
-7.48562e-08
-1.70722e-07
-7.45308e-08
-1.57827e-07
-7.38577e-08
-1.45086e-07
-7.28301e-08
-1.32556e-07
-7.14427e-08
-1.20297e-07
-6.96926e-08
-1.08366e-07
-6.7579e-08
-9.68228e-08
-6.51038e-08
-8.57227e-08
-6.22723e-08
-7.51209e-08
-5.90935e-08
-6.507e-08
-5.55806e-08
-5.56194e-08
-5.17521e-08
-4.68152e-08
-4.76324e-08
-3.86987e-08
-4.32531e-08
-3.13061e-08
-3.86541e-08
-2.46677e-08
-3.38851e-08
-1.8807e-08
-2.90078e-08
-1.37406e-08
-2.40974e-08
-9.47704e-09
-1.92456e-08
-6.01731e-09
-1.4563e-08
-3.35492e-09
-1.01827e-08
-1.47681e-09
-6.26287e-09
-3.65126e-10
-2.99083e-09
-6.03706e-10
-4.56363e-10
1.15111e-09
-1.81601e-09
4.58943e-09
-4.0747e-09
8.88285e-09
-7.22883e-09
1.37943e-08
-1.12727e-08
1.91328e-08
-1.61968e-08
2.47348e-08
-2.19862e-08
3.04617e-08
-2.86206e-08
3.6198e-08
-3.60733e-08
4.18483e-08
-4.4312e-08
4.73346e-08
-5.3299e-08
5.25933e-08
-6.29917e-08
5.75735e-08
-7.33431e-08
6.22349e-08
-8.43027e-08
6.65461e-08
-9.58171e-08
7.04834e-08
-1.0783e-07
7.40297e-08
-1.20284e-07
7.71733e-08
-1.33121e-07
7.99072e-08
-1.4628e-07
8.22284e-08
-1.59702e-07
8.4137e-08
-1.73327e-07
8.56362e-08
-1.87095e-07
8.67314e-08
-2.00948e-07
8.743e-08
-2.14829e-07
8.77409e-08
-2.28681e-07
8.76746e-08
-2.42449e-07
8.72424e-08
-2.5608e-07
8.64568e-08
-2.69522e-07
8.53307e-08
-2.82727e-07
8.38778e-08
-2.95646e-07
8.2112e-08
-3.08234e-07
8.00476e-08
-3.20448e-07
7.76991e-08
-3.32245e-07
7.50811e-08
-3.43588e-07
7.22081e-08
-3.54438e-07
6.90949e-08
-3.64761e-07
6.5756e-08
-3.74525e-07
6.22058e-08
-3.83699e-07
5.84589e-08
-3.92255e-07
5.45294e-08
-4.00166e-07
5.04315e-08
-4.07409e-07
4.61792e-08
-4.13962e-07
4.17864e-08
-4.19806e-07
3.72669e-08
-4.24922e-07
3.26345e-08
-4.29295e-07
2.79028e-08
-4.32912e-07
2.30854e-08
-4.35763e-07
1.81959e-08
-4.37837e-07
1.3248e-08
-4.39128e-07
8.25525e-09
-4.39632e-07
3.23148e-09
-4.39345e-07
-1.80948e-09
-4.38267e-07
-6.85363e-09
-4.36401e-07
-1.18868e-08
-4.3375e-07
-1.68947e-08
-4.3032e-07
-2.18626e-08
-4.2612e-07
-2.67759e-08
-4.21162e-07
-3.16194e-08
-4.15457e-07
-3.63779e-08
-4.09023e-07
-4.10358e-08
-4.01877e-07
-4.55772e-08
-3.94039e-07
-4.99861e-08
-3.85533e-07
-5.42461e-08
-3.76385e-07
-5.83408e-08
-3.66622e-07
-6.22532e-08
-3.56276e-07
-6.59667e-08
-3.45378e-07
-6.94641e-08
-3.33967e-07
-7.27283e-08
-3.22078e-07
-7.57424e-08
-3.09755e-07
-7.84893e-08
-2.97039e-07
-8.09522e-08
-2.83977e-07
-8.31146e-08
-2.70617e-07
-8.49602e-08
-2.57009e-07
-8.64734e-08
-2.43206e-07
-8.76389e-08
-2.29262e-07
-8.84424e-08
-2.15233e-07
-8.88706e-08
-2.01178e-07
-8.8911e-08
-1.87157e-07
-8.85527e-08
-1.73228e-07
-8.7786e-08
-1.59455e-07
-8.66034e-08
-1.45899e-07
-8.49991e-08
-1.32621e-07
-8.29698e-08
-1.19685e-07
-8.05151e-08
-1.07151e-07
-7.76377e-08
-9.50799e-08
-7.43439e-08
-8.35289e-08
-7.06445e-08
-7.25546e-08
-6.6555e-08
-6.22098e-08
-6.20969e-08
-5.25442e-08
-5.72981e-08
-4.36028e-08
-5.21944e-08
-3.54262e-08
-4.68307e-08
-2.80492e-08
-4.12621e-08
-2.15007e-08
-3.55563e-08
-1.58032e-08
-2.9795e-08
-1.09727e-08
-2.4076e-08
-7.01906e-09
-1.85166e-08
-3.9463e-09
-1.32555e-08
-1.75403e-09
-8.45513e-09
-4.39381e-10
-4.30549e-09
-1.04308e-09
-5.28882e-10
1.67999e-09
-2.0887e-09
6.14926e-09
-4.65913e-09
1.14533e-08
-8.22206e-09
1.73572e-08
-1.27591e-08
2.36699e-08
-1.82497e-08
3.02254e-08
-2.46697e-08
3.68817e-08
-3.19906e-08
4.35189e-08
-4.01791e-08
5.00368e-08
-4.91969e-08
5.63524e-08
-5.90013e-08
6.23976e-08
-6.95449e-08
6.81171e-08
-8.07768e-08
7.34668e-08
-9.26426e-08
7.84119e-08
-1.05085e-07
8.29261e-08
-1.18045e-07
8.69899e-08
-1.31462e-07
9.05901e-08
-1.45273e-07
9.37185e-08
-1.59416e-07
9.63712e-08
-1.73828e-07
9.85485e-08
-1.88445e-07
1.00253e-07
-2.03205e-07
1.01492e-07
-2.18047e-07
1.02272e-07
-2.3291e-07
1.02604e-07
-2.47734e-07
1.02499e-07
-2.62463e-07
1.01971e-07
-2.77039e-07
1.01033e-07
-2.91409e-07
9.97008e-08
-3.0552e-07
9.79893e-08
-3.19323e-07
9.59147e-08
-3.32769e-07
9.34934e-08
-3.45812e-07
9.07421e-08
-3.58408e-07
8.76776e-08
-3.70517e-07
8.43168e-08
-3.82099e-07
8.06766e-08
-3.93117e-07
7.67739e-08
-4.03536e-07
7.26255e-08
-4.13326e-07
6.82481e-08
-4.22454e-07
6.36581e-08
-4.30895e-07
5.88722e-08
-4.38622e-07
5.39065e-08
-4.45613e-07
4.87773e-08
-4.51847e-07
4.35006e-08
-4.57305e-07
3.80924e-08
-4.61971e-07
3.25686e-08
-4.6583e-07
2.6945e-08
-4.68872e-07
2.12375e-08
-4.71086e-07
1.5462e-08
-4.72465e-07
9.63444e-09
-4.73004e-07
3.77078e-09
-4.72701e-07
-2.11279e-09
-4.71555e-07
-7.99999e-09
-4.69567e-07
-1.38743e-08
-4.66743e-07
-1.9719e-08
-4.63088e-07
-2.55172e-08
-4.58612e-07
-3.12516e-08
-4.53327e-07
-3.69047e-08
-4.47246e-07