/*--------------------------------*- C++ -*----------------------------------*\
| =========                 |                                                 |
| \\      /  F ield         | OpenFOAM: The Open Source CFD Toolbox           |
|  \\    /   O peration     | Version:  2212                                  |
|   \\  /    A nd           | Website:  www.openfoam.com                      |
|    \\/     M anipulation  |                                                 |
\*---------------------------------------------------------------------------*/
FoamFile
{
    version     2.0;
    format      ascii;
    arch        "LSB;label=32;scalar=64";
    class       surfaceScalarField;
    location    "0.1";
    object      phi;
}
// * * * * * * * * * * * * * * * * * * * * * * * * * * * * * * * * * * * * * //

dimensions      [0 3 -1 0 0 0 0];

oriented        oriented;

internalField   nonuniform List<scalar> 
19800
(
7.10483e-11
-7.09109e-11
2.4422e-10
-1.73181e-10
4.35224e-10
-1.90997e-10
5.85395e-10
-1.50174e-10
6.6113e-10
-7.57355e-11
6.43863e-10
1.72625e-11
5.24301e-10
1.19563e-10
2.98972e-10
2.25319e-10
-3.18285e-11
3.30804e-10
-4.6545e-10
4.33609e-10
-9.97627e-10
5.32176e-10
-1.62306e-09
6.25443e-10
-2.33576e-09
7.12704e-10
-3.12926e-09
7.93503e-10
-3.99682e-09
8.6756e-10
-4.93154e-09
9.34715e-10
-5.92643e-09
9.94892e-10
-6.97452e-09
1.04808e-09
-8.06887e-09
1.09435e-09
-9.20262e-09
1.13375e-09
-1.0369e-08
1.16642e-09
-1.15615e-08
1.19248e-09
-1.27736e-08
1.21209e-09
-1.3999e-08
1.22542e-09
-1.52317e-08
1.23266e-09
-1.64657e-08
1.23399e-09
-1.76953e-08
1.22963e-09
-1.89151e-08
1.21975e-09
-2.01196e-08
1.20458e-09
-2.1304e-08
1.18431e-09
-2.24631e-08
1.15917e-09
-2.35925e-08
1.12936e-09
-2.46876e-08
1.09511e-09
-2.57443e-08
1.05663e-09
-2.67584e-08
1.01413e-09
-2.77262e-08
9.67835e-10
-2.86442e-08
9.17955e-10
-2.95089e-08
8.64714e-10
-3.03173e-08
8.08337e-10
-3.10663e-08
7.49052e-10
-3.17534e-08
6.87073e-10
-3.2376e-08
6.22628e-10
-3.29319e-08
5.5594e-10
-3.34192e-08
4.87229e-10
-3.38359e-08
4.16736e-10
-3.41806e-08
3.44693e-10
-3.44519e-08
2.71334e-10
-3.46489e-08
1.96906e-10
-3.47705e-08
1.2165e-10
-3.48163e-08
4.58044e-11
-3.47859e-08
-3.03707e-11
-3.46793e-08
-1.06621e-10
-3.44966e-08
-1.82699e-10
-3.42383e-08
-2.58335e-10
-3.3905e-08
-3.33256e-10
-3.34978e-08
-4.07209e-10
-3.30179e-08
-4.7992e-10
-3.24668e-08
-5.51098e-10
-3.18463e-08
-6.20472e-10
-3.11585e-08
-6.87774e-10
-3.04058e-08
-7.5271e-10
-2.95909e-08
-8.1499e-10
-2.87165e-08
-8.74345e-10
-2.7786e-08
-9.30498e-10
-2.68029e-08
-9.83151e-10
-2.57708e-08
-1.03202e-09
-2.4694e-08
-1.07684e-09
-2.35767e-08
-1.11735e-09
-2.24234e-08
-1.15325e-09
-2.12391e-08
-1.18429e-09
-2.00289e-08
-1.21023e-09
-1.87981e-08
-1.23082e-09
-1.75522e-08
-1.24582e-09
-1.62972e-08
-1.255e-09
-1.50391e-08
-1.25814e-09
-1.3784e-08
-1.25508e-09
-1.25384e-08
-1.24561e-09
-1.13088e-08
-1.22956e-09
-1.0102e-08
-1.20681e-09
-8.92479e-09
-1.17723e-09
-7.78406e-09
-1.14074e-09
-6.68681e-09
-1.09725e-09
-5.64006e-09
-1.04674e-09
-4.65082e-09
-9.89244e-10
-3.72601e-09
-9.24808e-10
-2.87247e-09
-8.53547e-10
-2.09682e-09
-7.75648e-10
-1.40541e-09
-6.91405e-10
-8.04158e-10
-6.01249e-10
-2.98396e-10
-5.05767e-10
1.07389e-10
-4.05787e-10
4.09885e-10
-3.02491e-10
6.07479e-10
-1.97588e-10
7.01085e-10
-9.3604e-11
6.95435e-10
5.64626e-12
6.01166e-10
9.42646e-11
4.38081e-10
1.63087e-10
2.40681e-10
1.974e-10
6.75127e-11
1.73167e-10
6.75102e-11
1.7321e-10
-2.44134e-10
4.76442e-10
-4.76405e-10
7.67762e-10
-4.82331e-10
9.44275e-10
-3.26682e-10
9.3442e-10
-6.58841e-11
6.92333e-10
2.5935e-10
1.91246e-10
6.20662e-10
-5.81909e-10
9.98481e-10
-1.63046e-09
1.37937e-09
-2.95086e-09
1.75401e-09
-4.53464e-09
2.11595e-09
-6.36985e-09
2.46064e-09
-8.44209e-09
2.78492e-09
-1.07352e-08
3.08662e-09
-1.32319e-08
3.36425e-09
-1.59141e-08
3.61688e-09
-1.87631e-08
3.84395e-09
-2.17602e-08
4.0452e-09
-2.48865e-08
4.22062e-09
-2.81231e-08
4.37036e-09
-3.14515e-08
4.49475e-09
-3.48532e-08
4.59417e-09
-3.83102e-08
4.66913e-09
-4.1805e-08
4.7202e-09
-4.53203e-08
4.748e-09
-4.88395e-08
4.75322e-09
-5.23465e-08
4.73657e-09
-5.58255e-08
4.69879e-09
-5.92616e-08
4.64062e-09
-6.26401e-08
4.56286e-09
-6.59472e-08
4.46628e-09
-6.91696e-08
4.35171e-09
-7.22944e-08
4.21996e-09
-7.53097e-08
4.07184e-09
-7.82037e-08
3.90821e-09
-8.09658e-08
3.72987e-09
-8.35855e-08
3.53769e-09
-8.60533e-08
3.3325e-09
-8.83601e-08
3.11516e-09
-9.04976e-08
2.88653e-09
-9.2458e-08
2.64747e-09
-9.42343e-08
2.39886e-09
-9.58199e-08
2.14159e-09
-9.72092e-08
1.87653e-09
-9.83971e-08
1.60459e-09
-9.93791e-08
1.32667e-09
-1.00151e-07
1.04369e-09
-1.00711e-07
7.56591e-10
-1.01056e-07
4.66322e-10
-1.01184e-07
1.73845e-10
-1.01094e-07
-1.19875e-10
-1.00787e-07
-4.13839e-10
-1.00263e-07
-7.07046e-10
-9.95226e-08
-9.98497e-10
-9.85687e-08
-1.28716e-09
-9.74039e-08
-1.57199e-09
-9.60319e-08
-1.85194e-09
-9.4457e-08
-2.12595e-09
-9.26846e-08
-2.39293e-09
-9.07205e-08
-2.65182e-09
-8.85717e-08
-2.90152e-09
-8.62457e-08
-3.14098e-09
-8.3751e-08
-3.36908e-09
-8.10968e-08
-3.58475e-09
-7.8293e-08
-3.78691e-09
-7.53505e-08
-3.9745e-09
-7.22809e-08
-4.14645e-09
-6.90965e-08
-4.30174e-09
-6.58104e-08
-4.43935e-09
-6.24364e-08
-4.55829e-09
-5.8989e-08
-4.65761e-09
-5.54835e-08
-4.73637e-09
-5.19356e-08
-4.79372e-09
-4.83617e-08
-4.82881e-09
-4.4779e-08
-4.84088e-09
-4.12049e-08
-4.82921e-09
-3.76573e-08
-4.79315e-09
-3.41548e-08
-4.73214e-09
-3.07159e-08
-4.64569e-09
-2.73597e-08
-4.53342e-09
-2.41054e-08
-4.39506e-09
-2.09721e-08
-4.23049e-09
-1.79792e-08
-4.0397e-09
-1.51455e-08
-3.8229e-09
-1.24899e-08
-3.58047e-09
-1.00303e-08
-3.31308e-09
-7.78424e-09
-3.02171e-09
-5.76787e-09
-2.70777e-09
-3.99593e-09
-2.37319e-09
-2.48107e-09
-2.02063e-09
-1.23316e-09
-1.65369e-09
-2.58302e-10
-1.27735e-09
4.42589e-10
-8.98482e-10
8.75692e-10
-5.26712e-10
1.05703e-09
-1.75688e-10
1.01623e-09
1.35065e-10
8.01656e-10
3.77671e-10
4.86378e-10
5.12683e-10
1.73089e-10
4.86454e-10
2.40603e-10
1.91631e-10
-4.35762e-10
4.84425e-10
-7.69183e-10
7.03703e-10
-7.0163e-10
7.25541e-10
-3.48523e-10
4.6006e-10
1.99594e-10
-1.54057e-10
8.73473e-10
-1.15525e-09
1.62184e-09
-2.56419e-09
2.40743e-09
-4.38811e-09
3.20329e-09
-6.62408e-09
3.98997e-09
-9.26154e-09
4.75341e-09
-1.22843e-08
5.4834e-09
-1.5672e-08
6.1726e-09
-1.94011e-08
6.81577e-09
-2.34461e-08
7.40924e-09
-2.77798e-08
7.95052e-09
-3.23739e-08
8.43804e-09
-3.71996e-08
8.87091e-09
-4.22277e-08
9.2488e-09
-4.74292e-08
9.5718e-09
-5.27748e-08
9.84034e-09
-5.82357e-08
1.00552e-08
-6.37838e-08
1.02172e-08
-6.93911e-08
1.03275e-08
-7.50305e-08
1.03874e-08
-8.06756e-08
1.03983e-08
-8.63005e-08
1.03615e-08
-9.18804e-08
1.02787e-08
-9.73913e-08
1.01515e-08
-1.0281e-07
9.98142e-09
-1.08114e-07
9.77029e-09
-1.13282e-07
9.5198e-09
-1.18294e-07
9.23169e-09
-1.2313e-07
8.90776e-09
-1.27771e-07
8.54981e-09
-1.32201e-07
8.15965e-09
-1.36402e-07
7.73914e-09
-1.4036e-07
7.29011e-09
-1.44059e-07
6.81445e-09
-1.47487e-07
6.31402e-09
-1.5063e-07
5.79073e-09
-1.53478e-07
5.24651e-09
-1.56019e-07
4.68328e-09
-1.58246e-07
4.10302e-09
-1.60149e-07
3.50769e-09
-1.61722e-07
2.8993e-09
-1.62958e-07
2.27988e-09
-1.63853e-07
1.65149e-09
-1.64403e-07
1.01619e-09
-1.64605e-07
3.76124e-10
-1.64458e-07
-2.66577e-10
-1.63962e-07
-9.09754e-10
-1.63118e-07
-1.55121e-09
-1.61928e-07
-2.18869e-09
-1.60395e-07
-2.81998e-09
-1.58524e-07
-3.44279e-09
-1.56321e-07
-4.05481e-09
-1.53794e-07
-4.65371e-09
-1.50949e-07
-5.23716e-09
-1.47798e-07
-5.80282e-09
-1.44352e-07
-6.3483e-09
-1.40621e-07
-6.87124e-09
-1.36621e-07
-7.3693e-09
-1.32366e-07
-7.84012e-09
-1.27871e-07
-8.28136e-09
-1.23155e-07
-8.69068e-09
-1.18236e-07
-9.06584e-09
-1.13133e-07
-9.40458e-09
-1.07868e-07
-9.70472e-09
-1.02462e-07
-9.96412e-09
-9.69386e-08
-1.01808e-08
-9.13224e-08
-1.03526e-08
-8.56382e-08
-1.04779e-08
-7.99121e-08
-1.05548e-08
-7.41713e-08
-1.05817e-08
-6.84433e-08
-1.05572e-08
-6.27567e-08
-1.04798e-08
-5.71403e-08
-1.03485e-08
-5.16237e-08
-1.01623e-08
-4.62367e-08
-9.92044e-09
-4.10092e-08
-9.62258e-09
-3.59712e-08
-9.26853e-09
-3.11523e-08
-8.85852e-09
-2.65821e-08
-8.39318e-09
-2.22889e-08
-7.87363e-09
-1.83004e-08
-7.30161e-09
-1.46425e-08
-6.67959e-09
-1.13393e-08
-6.011e-09
-8.41201e-09
-5.30044e-09
-5.87853e-09
-4.5541e-09
-3.75198e-09
-3.78024e-09
-2.03945e-09
-2.98987e-09
-7.4012e-10
-2.19781e-09
1.57245e-10
-1.42407e-09
6.77424e-10
-6.95868e-10
8.62715e-10
-5.02352e-11
7.77777e-10
4.62608e-10
5.14697e-10
7.75768e-10
1.97909e-10
8.03243e-10
4.38517e-10
1.52454e-10
-5.88236e-10
3.33728e-10
-9.50438e-10
3.59402e-10
-7.273e-10
9.73026e-11
-8.64331e-11
-5.49671e-10
8.46564e-10
-1.6498e-09
1.9736e-09
-3.24751e-09
3.21954e-09
-5.3679e-09
4.52782e-09
-8.0207e-09
5.8561e-09
-1.12035e-08
7.17277e-09
-1.49043e-08
8.45426e-09
-1.9104e-08
9.68307e-09
-2.37777e-08
1.08462e-08
-2.88962e-08
1.19343e-08
-3.44272e-08
1.29403e-08
-4.03363e-08
1.38596e-08
-4.6587e-08
1.46888e-08
-5.31422e-08
1.54261e-08
-5.99638e-08
1.60704e-08
-6.70137e-08
1.66216e-08
-7.42535e-08
1.70802e-08
-8.16454e-08
1.7447e-08
-8.91517e-08
1.77235e-08
-9.67356e-08
1.79114e-08
-1.04361e-07
1.80127e-08
-1.11992e-07
1.80296e-08
-1.19595e-07
1.79644e-08
-1.27136e-07
1.78199e-08
-1.34583e-07
1.75986e-08
-1.41905e-07
1.73033e-08
-1.49072e-07
1.6937e-08
-1.56055e-07
1.65025e-08
-1.62826e-07
1.60028e-08
-1.69359e-07
1.54411e-08
-1.7563e-07
1.48204e-08
-1.81614e-07
1.41438e-08
-1.87289e-07
1.34146e-08
-1.92635e-07
1.26359e-08
-1.97632e-07
1.1811e-08
-2.02261e-07
1.09431e-08
-2.06506e-07
1.00355e-08
-2.10351e-07
9.09161e-09
-2.13782e-07
8.11478e-09
-2.16788e-07
7.1084e-09
-2.19356e-07
6.07592e-09
-2.21477e-07
5.02085e-09
-2.23144e-07
3.94669e-09
-2.2435e-07
2.85704e-09
-2.25089e-07
1.75553e-09
-2.25359e-07
6.4582e-10
-2.25157e-07
-4.68364e-10
-2.24483e-07
-1.58324e-09
-2.2334e-07
-2.695e-09
-2.21729e-07
-3.79978e-09
-2.19655e-07
-4.89367e-09
-2.17125e-07
-5.9727e-09
-2.14147e-07
-7.0329e-09
-2.1073e-07
-8.07025e-09
-2.06887e-07
-9.08068e-09
-2.0263e-07
-1.00601e-08
-1.97973e-07
-1.10045e-08
-1.92935e-07
-1.19098e-08
-1.87532e-07
-1.27719e-08
-1.81786e-07
-1.35867e-08
-1.75717e-07
-1.43502e-08
-1.69349e-07
-1.50585e-08
-1.62707e-07
-1.57076e-08
-1.55818e-07
-1.62937e-08
-1.4871e-07
-1.68131e-08
-1.41412e-07
-1.72621e-08
-1.33955e-07
-1.76373e-08
-1.26373e-07
-1.79353e-08
-1.18698e-07
-1.81529e-08
-1.10965e-07
-1.82873e-08
-1.03211e-07
-1.83357e-08
-9.54727e-08
-1.82957e-08
-8.77875e-08
-1.8165e-08
-8.01941e-08
-1.79418e-08
-7.27316e-08
-1.76248e-08
-6.54392e-08
-1.72128e-08
-5.83566e-08
-1.67052e-08
-5.15229e-08
-1.61022e-08
-4.49771e-08
-1.54043e-08
-3.87574e-08
-1.46129e-08
-3.29007e-08
-1.37303e-08
-2.74423e-08
-1.276e-08
-2.24154e-08
-1.17065e-08
-1.78502e-08
-1.05762e-08
-1.37732e-08
-9.37746e-09
-1.0206e-08
-8.12134e-09
-7.164e-09
-6.82222e-09
-4.65495e-09
-5.49891e-09
-2.67663e-09
-4.17612e-09
-1.21448e-09
-2.88623e-09
-2.38435e-10
-1.67191e-09
3.00603e-10
-5.89277e-10
4.7508e-10
2.88135e-10
3.85298e-10
8.65562e-10
1.65312e-10
1.02323e-09
6.0383e-10
8.05182e-11
-6.68762e-10
8.01104e-11
-9.5004e-10
-1.76223e-10
-4.70965e-10
-8.17987e-10
5.55323e-10
-1.94169e-09
1.97027e-09
-3.61639e-09
3.64831e-09
-5.88793e-09
5.49109e-09
-8.78276e-09
7.42263e-09
-1.23112e-08
9.38455e-09
-1.64706e-08
1.13321e-08
-2.12474e-08
1.32311e-08
-2.66199e-08
1.50556e-08
-3.25596e-08
1.67859e-08
-3.90326e-08
1.84073e-08
-4.60012e-08
1.99089e-08
-5.34245e-08
2.12829e-08
-6.12597e-08
2.2524e-08
-6.94621e-08
2.36285e-08
-7.79862e-08
2.45945e-08
-8.6786e-08
2.54213e-08
-9.5815e-08
2.61092e-08
-1.05027e-07
2.66593e-08
-1.14377e-07
2.70734e-08
-1.23819e-07
2.73537e-08
-1.3331e-07
2.75031e-08
-1.42805e-07
2.75248e-08
-1.52263e-07
2.74221e-08
-1.61642e-07
2.7199e-08
-1.70903e-07
2.68593e-08
-1.80006e-07
2.64072e-08
-1.88916e-07
2.58468e-08
-1.97597e-07
2.51828e-08
-2.06013e-07
2.44195e-08
-2.14134e-07
2.35616e-08
-2.21927e-07
2.26137e-08
-2.29364e-07
2.15807e-08
-2.36417e-07
2.04673e-08
-2.43059e-07
1.92785e-08
-2.49267e-07
1.8019e-08
-2.55018e-07
1.66941e-08
-2.60292e-07
1.53086e-08
-2.65068e-07
1.38677e-08
-2.69329e-07
1.23765e-08
-2.73061e-07
1.08403e-08
-2.7625e-07
9.26429e-09
-2.78883e-07
7.65388e-09
-2.8095e-07
6.01445e-09
-2.82445e-07
4.35148e-09
-2.8336e-07
2.67051e-09
-2.83691e-07
9.77175e-10
-2.83437e-07
-7.22841e-10
-2.82596e-07
-2.42378e-09
-2.81171e-07
-4.11979e-09
-2.79166e-07
-5.80498e-09
-2.76586e-07
-7.47338e-09
-2.7344e-07
-9.11897e-09
-2.69737e-07
-1.07357e-08
-2.6549e-07
-1.23173e-08
-2.60713e-07
-1.38578e-08
-2.55422e-07
-1.53509e-08
-2.49637e-07
-1.67904e-08
-2.43376e-07
-1.81702e-08
-2.36664e-07
-1.9484e-08
-2.29525e-07
-2.07257e-08
-2.21986e-07
-2.18892e-08
-2.14076e-07
-2.29686e-08
-2.05826e-07
-2.39579e-08
-1.97268e-07
-2.48513e-08
-1.88438e-07
-2.56433e-08
-1.79372e-07
-2.63283e-08
-1.70108e-07
-2.69012e-08
-1.60686e-07
-2.73569e-08
-1.51148e-07
-2.76909e-08
-1.41537e-07
-2.78987e-08
-1.31896e-07
-2.79763e-08
-1.22272e-07
-2.79201e-08
-1.1271e-07
-2.7727e-08
-1.03257e-07
-2.73945e-08
-9.39613e-08
-2.69205e-08
-8.48704e-08
-2.63037e-08
-7.60321e-08
-2.55435e-08
-6.7494e-08
-2.46403e-08
-5.9303e-08
-2.35953e-08
-5.15049e-08
-2.24111e-08
-4.41437e-08
-2.10915e-08
-3.72615e-08
-1.96422e-08
-3.08973e-08
-1.80706e-08
-2.50866e-08
-1.63869e-08
-1.98599e-08
-1.46041e-08
-1.52422e-08
-1.27391e-08
-1.1251e-08
-1.08135e-08
-7.89466e-09
-8.8552e-09
-5.17082e-09
-6.89995e-09
-3.06355e-09
-4.99352e-09
-1.54076e-09
-3.19471e-09
-5.51143e-10
-1.5789e-09
-2.05592e-11
-2.42444e-10
1.5194e-10
6.93075e-10
9.94103e-11
1.07576e-09
7.03239e-10
-9.53894e-12
-6.59226e-10
-2.37054e-10
-7.2253e-10
-8.36792e-10
1.28783e-10
-1.92726e-09
1.64578e-09
-3.5983e-09
3.6413e-09
-5.91502e-09
5.96502e-09
-8.92093e-09
8.49701e-09
-1.2641e-08
1.11427e-08
-1.70843e-08
1.38278e-08
-2.22466e-08
1.64944e-08
-2.81124e-08
1.9097e-08
-3.46573e-08
2.16005e-08
-4.18494e-08
2.39779e-08
-4.96508e-08
2.62086e-08
-5.80189e-08
2.82771e-08
-6.69078e-08
3.01718e-08
-7.62684e-08
3.18846e-08
-8.60501e-08
3.34102e-08
-9.62006e-08
3.4745e-08
-1.06667e-07
3.58878e-08
-1.17396e-07
3.68382e-08
-1.28334e-07
3.75976e-08
-1.39429e-07
3.81678e-08
-1.50627e-07
3.8552e-08
-1.61878e-07
3.87537e-08
-1.7313e-07
3.8777e-08
-1.84334e-07
3.86266e-08
-1.95443e-07
3.83076e-08
-2.06409e-07
3.78254e-08
-2.17187e-07
3.71855e-08
-2.27735e-07
3.6394e-08
-2.38009e-07
3.54568e-08
-2.47969e-07
3.43803e-08
-2.57579e-07
3.31709e-08
-2.668e-07
3.1835e-08
-2.75599e-07
3.03794e-08
-2.83942e-07
2.88108e-08
-2.918e-07
2.7136e-08
-2.99143e-07
2.5362e-08
-3.05945e-07
2.34958e-08
-3.1218e-07
2.15444e-08
-3.17828e-07
1.95151e-08
-3.22866e-07
1.74151e-08
-3.27278e-07
1.52518e-08
-3.31046e-07
1.30326e-08
-3.34157e-07
1.0765e-08
-3.366e-07
8.45679e-09
-3.38364e-07
6.11554e-09
-3.39442e-07
3.74912e-09
-3.39831e-07
1.36545e-09
-3.39526e-07
-1.02744e-09
-3.38528e-07
-3.42142e-09
-3.3684e-07
-5.80829e-09
-3.34465e-07
-8.17974e-09
-3.31411e-07
-1.05274e-08
-3.27687e-07
-1.28427e-08
-3.23306e-07
-1.51172e-08
-3.18281e-07
-1.73422e-08
-3.1263e-07
-1.95091e-08
-3.06371e-07
-2.16093e-08
-2.99528e-07
-2.3634e-08
-2.92123e-07
-2.55745e-08
-2.84185e-07
-2.74223e-08
-2.75742e-07
-2.91688e-08
-2.66826e-07
-3.08053e-08
-2.57471e-07
-3.23237e-08
-2.47713e-07
-3.37156e-08
-2.37591e-07
-3.4973e-08
-2.27147e-07
-3.60881e-08
-2.16422e-07
-3.70534e-08
-2.05461e-07
-3.78616e-08
-1.94312e-07
-3.85059e-08
-1.83023e-07
-3.89799e-08
-1.71644e-07
-3.92775e-08
-1.60227e-07
-3.93934e-08
-1.48825e-07
-3.93227e-08
-1.3749e-07
-3.90613e-08
-1.26279e-07
-3.86057e-08
-1.15246e-07
-3.79534e-08
-1.04447e-07
-3.7103e-08
-9.39368e-08
-3.60538e-08
-8.37703e-08
-3.48068e-08
-7.40013e-08
-3.33642e-08
-6.46823e-08
-3.173e-08
-5.58638e-08
-2.991e-08
-4.75934e-08
-2.79126e-08
-3.99154e-08
-2.57487e-08
-3.28697e-08
-2.34327e-08
-2.64907e-08
-2.09831e-08
-2.08062e-08
-1.84235e-08
-1.58361e-08
-1.57836e-08
-1.15904e-08
-1.31009e-08
-8.0675e-09
-1.04228e-08
-5.25222e-09
-7.8088e-09
-3.1133e-09
-5.33364e-09
-1.60091e-09
-3.09129e-09
-6.43889e-10
-1.19947e-09
-1.46639e-10
1.95832e-10
1.47278e-11
9.14402e-10
7.17965e-10
-1.08956e-10
-5.50265e-10
-5.91143e-10
-2.40342e-10
-1.57464e-09
1.11229e-09
-3.1615e-09
3.23265e-09
-5.43047e-09
5.91027e-09
-8.43895e-09
8.97351e-09
-1.22251e-08
1.22832e-08
-1.681e-08
1.57276e-08
-2.21996e-08
1.92175e-08
-2.83869e-08
2.26816e-08
-3.53536e-08
2.60636e-08
-4.30722e-08
2.93191e-08
-5.15073e-08
3.24131e-08
-6.06172e-08
3.53186e-08
-7.03552e-08
3.8015e-08
-8.06702e-08
4.04868e-08
-9.15083e-08
4.27227e-08
-1.02813e-07
4.47149e-08
-1.14527e-07
4.64585e-08
-1.2659e-07
4.79509e-08
-1.38943e-07
4.91914e-08
-1.51526e-07
5.01811e-08
-1.64281e-07
5.09221e-08
-1.77147e-07
5.14181e-08
-1.90067e-07
5.16734e-08
-2.02983e-07
5.16933e-08
-2.1584e-07
5.14836e-08
-2.28583e-07
5.10508e-08
-2.41159e-07
5.04018e-08
-2.53518e-07
4.9544e-08
-2.65609e-07
4.8485e-08
-2.77385e-07
4.72328e-08
-2.888e-07
4.57956e-08
-2.99811e-07
4.41818e-08
-3.10376e-07
4.24e-08
-3.20456e-07
4.04591e-08
-3.30013e-07
3.8368e-08
-3.39012e-07
3.61357e-08
-3.47422e-07
3.37715e-08
-3.55211e-07
3.12846e-08
-3.62351e-07
2.86845e-08
-3.68816e-07
2.59807e-08
-3.74584e-07
2.3183e-08
-3.79634e-07
2.03012e-08
-3.83946e-07
1.73451e-08
-3.87506e-07
1.43248e-08
-3.903e-07
1.12504e-08
-3.92316e-07
8.13236e-09
-3.93548e-07
4.98099e-09
-3.9399e-07
1.80686e-09
-3.93638e-07
-1.37933e-09
-3.92493e-07
-4.56676e-09
-3.90556e-07
-7.7445e-09
-3.87835e-07
-1.09015e-08
-3.84335e-07
-1.40266e-08
-3.8007e-07
-1.71085e-08
-3.75051e-07
-2.01358e-08
-3.69296e-07
-2.30972e-08
-3.62824e-07
-2.59811e-08
-3.55657e-07
-2.87761e-08
-3.4782e-07
-3.14707e-08
-3.39342e-07
-3.40533e-08
-3.30251e-07
-3.65125e-08
-3.20583e-07
-3.8837e-08
-3.10373e-07
-4.10156e-08
-2.99659e-07
-4.30372e-08
-2.88484e-07
-4.48909e-08
-2.76891e-07
-4.65662e-08
-2.64926e-07
-4.80529e-08
-2.52638e-07
-4.93411e-08
-2.40078e-07
-5.04212e-08
-2.273e-07
-5.12845e-08
-2.14357e-07
-5.19224e-08
-2.01308e-07
-5.23273e-08
-1.88209e-07
-5.24921e-08
-1.75121e-07
-5.24107e-08
-1.62104e-07
-5.20779e-08
-1.49221e-07
-5.14894e-08
-1.36532e-07
-5.06422e-08
-1.241e-07
-4.95346e-08
-1.11988e-07
-4.81664e-08
-1.00255e-07
-4.65391e-08
-8.89635e-08
-4.46561e-08
-7.81704e-08
-4.25231e-08
-6.7932e-08
-4.01485e-08
-5.83011e-08
-3.75435e-08
-4.93266e-08
-3.47231e-08
-4.10527e-08
-3.17066e-08
-3.35174e-08
-2.85184e-08
-2.67517e-08
-2.51892e-08
-2.0778e-08
-2.17572e-08
-1.56089e-08
-1.827e-08
-1.12451e-08
-1.47866e-08
-7.67395e-09
-1.138e-08
-4.86737e-09
-8.14023e-09
-2.78008e-09
-5.17858e-09
-1.34752e-09
-2.63203e-09
-4.83869e-10
-6.67818e-10
-7.9929e-11
5.10462e-10
6.38037e-10
-2.12422e-10
-3.37849e-10
-9.64523e-10
5.11744e-10
-2.3565e-09
2.50426e-09
-4.47091e-09
5.34706e-09
-7.37233e-09
8.81169e-09
-1.11078e-08
1.27089e-08
-1.57076e-08
1.6883e-08
-2.1187e-08
2.12069e-08
-2.7547e-08
2.55775e-08
-3.47766e-08
2.99112e-08
-4.28539e-08
3.41409e-08
-5.17477e-08
3.82129e-08
-6.1419e-08
4.20843e-08
-7.18222e-08
4.57217e-08
-8.29061e-08
4.9099e-08
-9.46156e-08
5.21963e-08
-1.06892e-07
5.49989e-08
-1.19673e-07
5.74965e-08
-1.32897e-07
5.96822e-08
-1.46498e-07
6.15521e-08
-1.60412e-07
6.31049e-08
-1.74572e-07
6.43412e-08
-1.88913e-07
6.52637e-08
-2.03371e-07
6.58762e-08
-2.17882e-07
6.61839e-08
-2.32382e-07
6.61931e-08
-2.46809e-07
6.59111e-08
-2.61104e-07
6.53457e-08
-2.75208e-07
6.45054e-08
-2.89063e-07
6.33996e-08
-3.02616e-07
6.20376e-08
-3.15813e-07
6.04296e-08
-3.28603e-07
5.85859e-08
-3.40938e-07
5.65171e-08
-3.52773e-07
5.42342e-08
-3.64062e-07
5.17482e-08
-3.74764e-07
4.90706e-08
-3.84841e-07
4.62128e-08
-3.94256e-07
4.31867e-08
-4.02976e-07
4.0004e-08
-4.10968e-07
3.66768e-08
-4.18205e-07
3.32174e-08
-4.2466e-07
2.96382e-08
-4.3031e-07
2.59515e-08
-4.35136e-07
2.21702e-08
-4.39118e-07
1.8307e-08
-4.42242e-07
1.4375e-08
-4.44497e-07
1.03873e-08
-4.45874e-07
6.35733e-09
-4.46365e-07
2.29849e-09
-4.45969e-07
-1.7755e-09
-4.44685e-07
-5.85086e-09
-4.42516e-07
-9.91359e-09
-4.39468e-07
-1.39496e-08
-4.3555e-07
-1.79446e-08
-4.30774e-07
-2.18842e-08
-4.25156e-07
-2.5754e-08
-4.18714e-07
-2.95393e-08
-4.11469e-07
-3.32257e-08
-4.03447e-07
-3.67984e-08
-3.94675e-07
-4.02427e-08
-3.85184e-07
-4.35442e-08
-3.75009e-07
-4.66882e-08
-3.64185e-07
-4.96603e-08
-3.52754e-07
-5.24464e-08
-3.40759e-07
-5.50324e-08
-3.28245e-07
-5.74047e-08
-3.15262e-07
-5.95498e-08
-3.0186e-07
-6.14548e-08
-2.88094e-07
-6.31072e-08
-2.7402e-07
-6.44953e-08
-2.59697e-07
-6.56076e-08
-2.45185e-07
-6.64339e-08
-2.30548e-07
-6.69644e-08
-2.1585e-07
-6.71906e-08
-2.01156e-07
-6.71047e-08
-1.86533e-07
-6.67004e-08
-1.7205e-07
-6.59728e-08
-1.57774e-07
-6.49182e-08
-1.43773e-07
-6.35349e-08
-1.30116e-07
-6.18232e-08
-1.1687e-07
-5.97852e-08
-1.04101e-07
-5.74258e-08
-9.1871e-08
-5.47528e-08
-8.02424e-08
-5.1777e-08
-6.92725e-08
-4.85133e-08
-5.90147e-08
-4.49809e-08
-4.95171e-08
-4.12043e-08
-4.08215e-08
-3.7214e-08
-3.29623e-08
-3.30483e-08
-2.59655e-08
-2.87541e-08
-1.98467e-08
-2.43888e-08
-1.46104e-08
-2.0023e-08
-1.0248e-08
-1.57423e-08
-6.73695e-09
-1.16514e-08
-4.03867e-09
-7.87686e-09
-2.09801e-09
-4.57268e-09
-8.41933e-10
-1.92388e-09
-1.79137e-10
-1.52332e-10
4.58903e-10
-3.16775e-10
-2.10592e-11
-1.34574e-09
1.5407e-09
-3.15961e-09
4.31813e-09
-5.82015e-09
8.0076e-09
-9.37596e-09
1.23675e-08
-1.38617e-08
1.71947e-08
-1.92982e-08
2.23195e-08
-2.56929e-08
2.76016e-08
-3.30408e-08
3.29254e-08
-4.13255e-08
3.8196e-08
-5.05207e-08
4.33361e-08
-6.05907e-08
4.82829e-08
-7.14926e-08
5.29862e-08
-8.31766e-08
5.74057e-08
-9.55874e-08
6.15098e-08
-1.08665e-07
6.52743e-08
-1.22348e-07
6.86809e-08
-1.36567e-07
7.17164e-08
-1.51257e-07
7.43718e-08
-1.66347e-07
7.66419e-08
-1.81767e-07
7.85245e-08
-1.97445e-07
8.00199e-08
-2.13312e-07
8.11307e-08
-2.29297e-07
8.18613e-08
-2.45331e-07
8.22176e-08
-2.61345e-07
8.2207e-08
-2.77272e-07
8.18381e-08
-2.93047e-07
8.11202e-08
-3.08605e-07
8.00638e-08
-3.23885e-07
7.86798e-08
-3.38828e-07
7.698e-08
-3.53374e-07
7.49764e-08
-3.6747e-07
7.26817e-08
-3.81062e-07
7.0109e-08
-3.941e-07
6.72717e-08
-4.06535e-07
6.41834e-08
-4.18322e-07
6.08581e-08
-4.2942e-07
5.73102e-08
-4.39787e-07
5.35539e-08
-4.49387e-07
4.96041e-08
-4.58186e-07
4.54756e-08
-4.66152e-07
4.11836e-08
-4.73257e-07
3.67432e-08
-4.79476e-07
3.21702e-08
-4.84786e-07
2.74801e-08
-4.89168e-07
2.26889e-08
-4.92605e-07
1.78127e-08
-4.95086e-07
1.28679e-08
-4.96599e-07
7.8708e-09
-4.97139e-07
2.8383e-09
-4.96702e-07
-2.21273e-09
-4.95288e-07
-7.26518e-09
-4.92899e-07
-1.23018e-08
-4.89544e-07
-1.7305e-08
-4.85231e-07
-2.22572e-08
-4.79975e-07
-2.71407e-08
-4.73791e-07
-3.19376e-08
-4.66701e-07
-3.66299e-08
-4.58727e-07
-4.11995e-08
-4.49897e-07
-4.56283e-08
-4.40241e-07
-4.98984e-08
-4.29794e-07
-5.39916e-08
-4.18592e-07
-5.78902e-08
-4.06676e-07
-6.15764e-08
-3.94089e-07
-6.50327e-08
-3.8088e-07
-6.82418e-08
-3.67098e-07
-7.11871e-08
-3.52795e-07
-7.3852e-08
-3.38029e-07
-7.62208e-08
-3.22858e-07
-7.82782e-08
-3.07344e-07
-8.00097e-08
-2.9155e-07
-8.14017e-08
-2.75542e-07
-8.24414e-08
-2.59389e-07
-8.31172e-08
-2.43161e-07
-8.34187e-08
-2.26929e-07
-8.33368e-08
-2.10766e-07
-8.2864e-08
-1.94744e-07
-8.19943e-08
-1.78938e-07
-8.07239e-08
-1.63422e-07
-7.9051e-08
-1.48269e-07
-7.69761e-08
-1.33552e-07
-7.45026e-08
-1.19341e-07
-7.16369e-08
-1.05705e-07
-6.83887e-08
-9.27098e-08
-6.4772e-08
-8.04178e-08
-6.08053e-08
-6.88867e-08
-5.65121e-08
-5.81685e-08
-5.19224e-08
-4.83092e-08
-4.70733e-08
-3.93471e-08
-4.20104e-08
-3.13121e-08
-3.67891e-08
-2.42242e-08
-3.14767e-08
-1.80925e-08
-2.61546e-08
-1.29143e-08
-2.09206e-08
-8.67366e-09
-1.5892e-08
-5.34097e-09
-1.12095e-08
-2.87224e-09
-7.0414e-09
-1.20913e-09
-3.58698e-09
-2.79622e-10
-1.08184e-09
1.79281e-10
-4.20168e-10
3.99106e-10
-1.72748e-09
2.84802e-09
-3.96868e-09
6.55931e-09
-7.1846e-09
1.12235e-08
-1.1407e-08
1.65899e-08
-1.66571e-08
2.24448e-08
-2.29446e-08
2.86071e-08
-3.02682e-08
3.49252e-08
-3.86154e-08
4.12726e-08
-4.79637e-08
4.75443e-08
-5.82812e-08
5.36536e-08
-6.95276e-08
5.95293e-08
-8.1655e-08
6.51136e-08
-9.46094e-08
7.03601e-08
-1.08331e-07
7.52317e-08
-1.22757e-07
7.96997e-08
-1.37818e-07
8.37421e-08
-1.53444e-07
8.73428e-08
-1.69563e-07
9.04908e-08
-1.86101e-07
9.31792e-08
-2.02981e-07
9.5405e-08
-2.20129e-07
9.71679e-08
-2.37469e-07
9.84706e-08
-2.54926e-07
9.93179e-08
-2.72425e-07
9.97166e-08
-2.89893e-07
9.96751e-08
-3.07258e-07
9.92033e-08
-3.2445e-07
9.83122e-08
-3.414e-07
9.7014e-08
-3.58042e-07
9.53218e-08
-3.74312e-07
9.32493e-08
-3.90146e-07
9.0811e-08
-4.05486e-07
8.8022e-08
-4.20275e-07
8.4898e-08
-4.34459e-07
8.14549e-08
-4.47984e-07
7.77092e-08
-4.60804e-07
7.36776e-08
-4.72871e-07
6.93774e-08
-4.84143e-07
6.4826e-08
-4.9458e-07
6.0041e-08
-5.04145e-07
5.50404e-08
-5.12804e-07
4.98424e-08
-5.20526e-07
4.44657e-08
-5.27285e-07
3.89288e-08
-5.33055e-07
3.32507e-08
-5.37817e-07
2.74508e-08
-5.41553e-07
2.15484e-08
-5.44248e-07
1.55633e-08
-5.45893e-07
9.51543e-09
-5.4648e-07
3.425e-09
-5.46005e-07
-2.68755e-09
-5.44468e-07
-8.80156e-09
-5.41874e-07
-1.48962e-08
-5.38229e-07
-2.09502e-08
-5.33543e-07
-2.69426e-08
-5.27832e-07
-3.28517e-08
-5.21114e-07
-3.8656e-08
-5.1341e-07
-4.43339e-08
-5.04746e-07
-4.98636e-08
-4.95151e-07
-5.52234e-08
-4.84658e-07
-6.03915e-08
-4.73303e-07
-6.53463e-08
-4.61127e-07
-7.00663e-08
-4.48173e-07
-7.45301e-08
-4.34489e-07
-7.87169e-08
-4.20125e-07
-8.26059e-08
-4.05135e-07
-8.6177e-08
-3.89577e-07
-8.94105e-08
-3.7351e-07
-9.22876e-08
-3.56998e-07
-9.47901e-08
-3.40107e-07
-9.69007e-08
-3.22906e-07
-9.8603e-08
-3.05465e-07
-9.98821e-08
-2.87858e-07
-1.00724e-07
-2.7016e-07
-1.01117e-07
-2.52447e-07
-1.0105e-07
-2.34797e-07
-1.00514e-07
-2.17289e-07
-9.95025e-08
-2.00001e-07
-9.80114e-08
-1.83014e-07
-9.60388e-08
-1.66404e-07
-9.35857e-08
-1.5025e-07
-9.06566e-08
-1.34627e-07
-8.72595e-08
-1.19609e-07
-8.34066e-08
-1.05267e-07
-7.91146e-08
-9.16661e-08
-7.4406e-08
-7.88694e-08
-6.93088e-08
-6.69332e-08
-6.38586e-08
-5.59077e-08
-5.80988e-08
-4.58358e-08
-5.20823e-08
-3.67519e-08
-4.5873e-08
-2.86812e-08
-3.95474e-08
-2.16388e-08
-3.31971e-08
-1.56285e-08
-2.69309e-08
-1.06427e-08
-2.08777e-08
-6.66195e-09
-1.51903e-08
-3.65459e-09
-1.00488e-08
-1.57792e-09
-5.66364e-09
-3.79442e-10
-2.28031e-09
-2.00161e-10
-5.21548e-10
9.2065e-10
-2.1052e-09
4.43167e-09
-4.77367e-09
9.22777e-09
-8.5475e-09
1.49973e-08
-1.34414e-08
2.14838e-08
-1.94624e-08
2.84657e-08
-2.66085e-08
3.57532e-08
-3.48685e-08
4.31851e-08
-4.42216e-08
5.06257e-08
-5.46381e-08
5.79609e-08
-6.608e-08
6.50955e-08
-7.85014e-08
7.19506e-08
-9.18494e-08
7.84617e-08
-1.06065e-07
8.4576e-08
-1.21085e-07
9.02514e-08
-1.3684e-07
9.54547e-08
-1.53258e-07
1.0016e-07
-1.70265e-07
1.04349e-07
-1.87782e-07
1.08008e-07
-2.05732e-07
1.11129e-07
-2.24035e-07
1.13708e-07
-2.42611e-07
1.15744e-07
-2.61379e-07
1.17239e-07
-2.8026e-07
1.18199e-07
-2.99175e-07
1.18632e-07
-3.18047e-07
1.18546e-07
-3.36797e-07
1.17954e-07
-3.55353e-07
1.16868e-07
-3.73641e-07
1.15302e-07
-3.9159e-07
1.13271e-07
-4.09132e-07
1.10791e-07
-4.262e-07
1.07879e-07
-4.42732e-07
1.04554e-07
-4.58666e-07
1.00832e-07
-4.73944e-07
9.67333e-08
-4.88512e-07
9.22769e-08
-5.02317e-07
8.74826e-08
-5.1531e-07
8.23706e-08
-5.27445e-07
7.69614e-08
-5.3868e-07
7.12761e-08
-5.48976e-07
6.53358e-08
-5.58296e-07
5.91621e-08
-5.66607e-07
5.27769e-08
-5.7388e-07
4.62024e-08
-5.80091e-07
3.9461e-08
-5.85215e-07
3.25755e-08
-5.89236e-07
2.5569e-08
-5.92137e-07
1.84648e-08
-5.93909e-07
1.12865e-08
-5.94542e-07
4.05808e-09
-5.94033e-07
-3.19628e-09
-5.92382e-07
-1.04521e-08
-5.89594e-07
-1.76848e-08
-5.85675e-07
-2.48693e-08
-5.80637e-07
-3.19804e-08
-5.74496e-07
-3.8993e-08
-5.6727e-07
-4.58814e-08
-5.58984e-07
-5.26201e-08
-5.49664e-07
-5.91833e-08
-5.39342e-07
-6.55455e-08
-5.28053e-07
-7.1681e-08
-5.15835e-07
-7.75642e-08
-5.02731e-07
-8.31699e-08
-4.88788e-07
-8.84728e-08
-4.74057e-07
-9.34483e-08
-4.58591e-07
-9.80722e-08
-4.42447e-07
-1.02321e-07
-4.25687e-07
-1.06171e-07
-4.08374e-07
-1.096e-07
-3.90577e-07
-1.12588e-07
-3.72364e-07
-1.15113e-07
-3.53811e-07
-1.17157e-07
-3.3499e-07
-1.18702e-07
-3.15982e-07
-1.19733e-07
-2.96864e-07
-1.20235e-07
-2.77719e-07
-1.20195e-07
-2.58629e-07
-1.19604e-07
-2.39677e-07
-1.18454e-07
-2.20947e-07
-1.16741e-07
-2.02524e-07
-1.14462e-07
-1.8449e-07
-1.1162e-07
-1.66928e-07
-1.08219e-07
-1.49917e-07
-1.0427e-07
-1.33537e-07
-9.97869e-08
-1.17862e-07
-9.47899e-08
-1.02963e-07
-8.93049e-08
-8.89067e-08
-8.33649e-08
-7.57547e-08
-7.70106e-08
-6.35617e-08
-7.02918e-08
-5.23754e-08
-6.32686e-08
-4.22356e-08
-5.60127e-08
-3.31735e-08
-4.86095e-08
-2.52107e-08
-4.11599e-08
-1.8359e-08
-3.37826e-08
-1.26198e-08
-2.66169e-08
-7.9845e-09
-1.98256e-08
-4.43474e-09
-1.35985e-08
-1.94357e-09
-8.15481e-09
-4.77477e-10
-3.7464e-09
-6.77639e-10
-6.20348e-10
1.54099e-09
-2.47617e-09
6.28749e-09
-5.56823e-09
1.23198e-08
-9.89776e-09
1.93269e-08
-1.54628e-08
2.70488e-08
-2.22558e-08
3.52588e-08
-3.02628e-08
4.37601e-08
-3.94617e-08
5.23841e-08
-4.98231e-08
6.0987e-08
-6.13092e-08
6.94471e-08
-7.38753e-08
7.76615e-08
-8.74692e-08
8.55446e-08
-1.02033e-07
9.30252e-08
-1.17502e-07
1.00045e-07
-1.33808e-07
1.06557e-07
-1.50877e-07
1.12524e-07
-1.68634e-07
1.17917e-07
-1.86998e-07
1.22714e-07
-2.05889e-07
1.26899e-07
-2.25223e-07
1.30463e-07
-2.44917e-07
1.33401e-07
-2.64885e-07
1.35712e-07
-2.85044e-07
1.37398e-07
-3.05309e-07
1.38465e-07
-3.25598e-07
1.38921e-07
-3.45829e-07
1.38777e-07
-3.6592e-07
1.38045e-07
-3.85793e-07
1.36741e-07
-4.05372e-07
1.3488e-07
-4.24581e-07
1.3248e-07
-4.43348e-07
1.29558e-07
-4.61603e-07
1.26135e-07
-4.7928e-07
1.2223e-07
-4.96314e-07
1.17866e-07
-5.12643e-07
1.13063e-07
-5.28211e-07
1.07844e-07
-5.42961e-07
1.02232e-07
-5.56841e-07
9.62512e-08
-5.69804e-07
8.99243e-08
-5.81804e-07
8.3276e-08
-5.92799e-07
7.63312e-08
-6.02752e-07
6.91148e-08
-6.11627e-07
6.16523e-08
-6.19395e-07
5.39697e-08
-6.26027e-07
4.60929e-08
-6.315e-07
3.80486e-08
-6.35794e-07
2.98636e-08
-6.38895e-07
2.1565e-08
-6.40789e-07
1.31805e-08
-6.41468e-07
4.73773e-09
-6.4093e-07
-3.735e-09
-6.39172e-07
-1.22093e-08
-6.36201e-07
-2.06563e-08
-6.32023e-07
-2.90471e-08
-6.26651e-07
-3.73524e-08
-6.20101e-07
-4.55428e-08
-6.12394e-07
-5.35886e-08
-6.03554e-07
-6.14601e-08
-5.9361e-07
-6.91274e-08
-5.82595e-07
-7.65607e-08