/*--------------------------------*- C++ -*----------------------------------*\
| =========                 |                                                 |
| \\      /  F ield         | OpenFOAM: The Open Source CFD Toolbox           |
|  \\    /   O peration     | Version:  2212                                  |
|   \\  /    A nd           | Website:  www.openfoam.com                      |
|    \\/     M anipulation  |                                                 |
\*---------------------------------------------------------------------------*/
FoamFile
{
    version     2.0;
    format      ascii;
    arch        "LSB;label=32;scalar=64";
    class       surfaceScalarField;
    location    "0.082";
    object      phi_0;
}
// * * * * * * * * * * * * * * * * * * * * * * * * * * * * * * * * * * * * * //

dimensions      [0 3 -1 0 0 0 0];

oriented        oriented;

internalField   nonuniform List<scalar> 
19800
(
7.00696e-11
-7.00771e-11
2.40543e-10
-1.70482e-10
4.28199e-10
-1.87658e-10
5.75363e-10
-1.47169e-10
6.49037e-10
-7.3675e-11
6.31002e-10
1.8037e-11
5.12136e-10
1.1886e-10
2.89092e-10
2.23042e-10
-3.78293e-11
3.26916e-10
-4.65963e-10
4.28129e-10
-9.91114e-10
5.25142e-10
-1.60804e-09
6.16925e-10
-2.31082e-09
7.0279e-10
-3.09311e-09
7.82286e-10
-3.94825e-09
8.55139e-10
-4.86945e-09
9.21195e-10
-5.84985e-09
9.80388e-10
-6.88256e-09
1.03271e-09
-7.96075e-09
1.07819e-09
-9.07768e-09
1.11692e-09
-1.02267e-08
1.14902e-09
-1.14013e-08
1.17462e-09
-1.25952e-08
1.19387e-09
-1.38022e-08
1.20696e-09
-1.50162e-08
1.21404e-09
-1.62315e-08
1.21532e-09
-1.74425e-08
1.21098e-09
-1.86437e-08
1.20122e-09
-1.98299e-08
1.18625e-09
-2.09962e-08
1.16627e-09
-2.21377e-08
1.14149e-09
-2.32498e-08
1.11212e-09
-2.43282e-08
1.07839e-09
-2.53687e-08
1.04049e-09
-2.63673e-08
9.98656e-10
-2.73204e-08
9.53087e-10
-2.82244e-08
9.04005e-10
-2.90761e-08
8.51623e-10
-2.98722e-08
7.96159e-10
-3.06101e-08
7.37828e-10
-3.12869e-08
6.76845e-10
-3.19003e-08
6.13433e-10
-3.24481e-08
5.47813e-10
-3.29284e-08
4.80212e-10
-3.33392e-08
4.10861e-10
-3.36792e-08
3.39985e-10
-3.3947e-08
2.67819e-10
-3.41416e-08
1.94599e-10
-3.42622e-08
1.20555e-10
-3.43081e-08
4.59289e-11
-3.42791e-08
-2.90272e-11
-3.4175e-08
-1.04069e-10
-3.3996e-08
-1.78945e-10
-3.37427e-08
-2.53384e-10
-3.34155e-08
-3.27126e-10
-3.30156e-08
-3.99918e-10
-3.25441e-08
-4.7149e-10
-3.20026e-08
-5.4157e-10
-3.13927e-08
-6.09895e-10
-3.07165e-08
-6.76188e-10
-2.99763e-08
-7.40161e-10
-2.91748e-08
-8.01537e-10
-2.83147e-08
-8.60045e-10
-2.73993e-08
-9.15405e-10
-2.6432e-08
-9.67339e-10
-2.54164e-08
-1.01558e-09
-2.43566e-08
-1.05984e-09
-2.32567e-08
-1.09986e-09
-2.21214e-08
-1.13536e-09
-2.09553e-08
-1.16609e-09
-1.97635e-08
-1.19181e-09
-1.85512e-08
-1.21225e-09
-1.7324e-08
-1.22719e-09
-1.60876e-08
-1.23641e-09
-1.48479e-08
-1.2397e-09
-1.36111e-08
-1.23685e-09
-1.23834e-08
-1.22768e-09
-1.11713e-08
-1.21205e-09
-9.98152e-09
-1.18982e-09
-8.82067e-09
-1.16086e-09
-7.69561e-09
-1.12506e-09
-6.61322e-09
-1.08238e-09
-5.58045e-09
-1.03277e-09
-4.6042e-09
-9.76254e-10
-3.69132e-09
-9.12878e-10
-2.84856e-09
-8.42762e-10
-2.08246e-09
-7.661e-10
-1.39929e-09
-6.83174e-10
-8.04918e-10
-5.94386e-10
-3.04605e-10
-5.00315e-10
9.71757e-11
-4.01778e-10
3.97115e-10
-2.9994e-10
5.93583e-10
-1.96473e-10
6.87433e-10
-9.38517e-11
6.83264e-10
4.17271e-12
5.91489e-10
9.1781e-11
4.31552e-10
1.59941e-10
2.37405e-10
1.94141e-10
6.67435e-11
1.70654e-10
6.67448e-11
1.70525e-10
-2.40599e-10
4.68524e-10
-4.68469e-10
7.54121e-10
-4.7325e-10
9.26076e-10
-3.19127e-10
9.14093e-10
-6.16929e-11
6.73131e-10
2.59004e-10
1.76929e-10
6.15065e-10
-5.87276e-10
9.87251e-10
-1.62269e-09
1.36234e-09
-2.92575e-09
1.73119e-09
-4.48805e-09
2.08745e-09
-6.29782e-09
2.42668e-09
-8.3408e-09
2.74578e-09
-1.06011e-08
3.04261e-09
-1.30617e-08
3.31573e-09
-1.57047e-08
3.56421e-09
-1.85118e-08
3.78752e-09
-2.14646e-08
3.98542e-09
-2.45443e-08
4.15789e-09
-2.77324e-08
4.30508e-09
-3.10107e-08
4.4273e-09
-3.43611e-08
4.52495e-09
-3.77657e-08
4.59854e-09
-4.12074e-08
4.64863e-09
-4.46692e-08
4.67583e-09
-4.81347e-08
4.68081e-09
-5.1588e-08
4.66427e-09
-5.50137e-08
4.62694e-09
-5.8397e-08
4.56956e-09
-6.17236e-08
4.49291e-09
-6.49799e-08
4.39776e-09
-6.81527e-08
4.28491e-09
-7.12295e-08
4.15517e-09
-7.41984e-08
4.00936e-09
-7.7048e-08
3.8483e-09
-7.97677e-08
3.67279e-09
-8.23474e-08
3.48367e-09
-8.47775e-08
3.28178e-09
-8.70493e-08
3.06794e-09
-8.91545e-08
2.84301e-09
-9.10855e-08
2.60783e-09
-9.28353e-08
2.36326e-09
-9.43977e-08
2.11017e-09
-9.57668e-08
1.84942e-09
-9.69379e-08
1.58189e-09
-9.79064e-08
1.3085e-09
-9.86687e-08
1.03012e-09
-9.92218e-08
7.47693e-10
-9.95634e-08
4.62134e-10
-9.96918e-08
1.74379e-10
-9.96062e-08
-1.14617e-10
-9.93064e-08
-4.03875e-10
-9.87929e-08
-6.92417e-10
-9.80671e-08
-9.79248e-10
-9.71309e-08
-1.26335e-09
-9.59871e-08
-1.54371e-09
-9.46392e-08
-1.8193e-09
-9.30917e-08
-2.08909e-09
-9.13496e-08
-2.352e-09
-8.94188e-08
-2.60699e-09
-8.7306e-08
-2.85301e-09
-8.50185e-08
-3.08896e-09
-8.25648e-08
-3.31379e-09
-7.99538e-08
-3.52643e-09
-7.71953e-08
-3.72583e-09
-7.42999e-08
-3.91094e-09
-7.12791e-08
-4.0807e-09
-6.81448e-08
-4.23411e-09
-6.491e-08
-4.37016e-09
-6.15883e-08
-4.48785e-09
-5.81938e-08
-4.58624e-09
-5.47416e-08
-4.66444e-09
-5.12473e-08
-4.72156e-09
-4.77269e-08
-4.75678e-09
-4.41973e-08
-4.76933e-09
-4.06756e-08
-4.7585e-09
-3.71796e-08
-4.72365e-09
-3.37275e-08
-4.66422e-09
-3.03376e-08
-4.57972e-09
-2.70286e-08
-4.46978e-09
-2.38196e-08
-4.33412e-09
-2.07294e-08
-4.1726e-09
-1.77769e-08
-3.9852e-09
-1.49811e-08
-3.77211e-09
-1.23602e-08
-3.53372e-09
-9.93234e-09
-3.27066e-09
-7.71452e-09
-2.98392e-09
-5.72284e-09
-2.67485e-09
-3.97188e-09
-2.34535e-09
-2.47418e-09
-1.99801e-09
-1.23958e-09
-1.63639e-09
-2.74174e-10
-1.26536e-09
4.21011e-10
-8.91668e-10
8.51951e-10
-5.24793e-10
1.0343e-09
-1.78173e-10
9.97128e-10
1.28958e-10
7.87944e-10
3.6912e-10
4.78687e-10
5.03394e-10
1.70568e-10
4.78775e-10
2.37319e-10
1.88354e-10
-4.28955e-10
4.75452e-10
-7.55573e-10
6.89326e-10
-6.87122e-10
7.08043e-10
-3.37847e-10
4.43295e-10
2.03055e-10
-1.65156e-10
8.67451e-10
-1.155e-09
1.6049e-09
-2.54651e-09
2.37875e-09
-4.34666e-09
3.16249e-09
-6.55249e-09
3.93702e-09
-9.15352e-09
4.68848e-09
-1.21338e-08
5.40691e-09
-1.54731e-08
6.08508e-09
-1.91483e-08
6.71788e-09
-2.31343e-08
7.3017e-09
-2.74042e-08
7.83411e-09
-3.19303e-08
8.31356e-09
-3.6684e-08
8.73919e-09
-4.16368e-08
9.11069e-09
-4.67599e-08
9.42816e-09
-5.20246e-08
9.69204e-09
-5.74027e-08
9.90304e-09
-6.28663e-08
1.00621e-08
-6.83879e-08
1.01703e-08
-7.39409e-08
1.02289e-08
-7.94993e-08
1.02392e-08
-8.50377e-08
1.02027e-08
-9.05317e-08
1.01209e-08
-9.59575e-08
9.9954e-09
-1.01292e-07
9.82782e-09
-1.06515e-07
9.61983e-09
-1.11603e-07
9.37314e-09
-1.16537e-07
9.08948e-09
-1.21298e-07
8.77061e-09
-1.25868e-07
8.41831e-09
-1.3023e-07
8.03438e-09
-1.34367e-07
7.6206e-09
-1.38264e-07
7.17881e-09
-1.41907e-07
6.71083e-09
-1.45282e-07
6.21852e-09
-1.48378e-07
5.70375e-09
-1.51183e-07
5.1684e-09
-1.53688e-07
4.61437e-09
-1.55882e-07
4.04358e-09
-1.57758e-07
3.45798e-09
-1.59309e-07
2.85953e-09
-1.60529e-07
2.25022e-09
-1.61413e-07
1.63206e-09
-1.61958e-07
1.0071e-09
-1.62161e-07
3.77403e-10
-1.62021e-07
-2.54935e-10
-1.61537e-07
-8.87784e-10
-1.6071e-07
-1.51897e-09
-1.59543e-07
-2.14632e-09
-1.58039e-07
-2.76763e-09
-1.56202e-07
-3.38066e-09
-1.54038e-07
-3.98314e-09
-1.51555e-07
-4.57281e-09
-1.48759e-07
-5.14737e-09
-1.45662e-07
-5.7045e-09
-1.42273e-07
-6.24187e-09
-1.38605e-07
-6.75718e-09
-1.3467e-07
-7.24808e-09
-1.30485e-07
-7.71227e-09
-1.26063e-07
-8.14744e-09
-1.21422e-07
-8.55133e-09
-1.16582e-07
-8.92167e-09
-1.11559e-07
-9.25626e-09
-1.06377e-07
-9.55292e-09
-1.01055e-07
-9.80957e-09
-9.5617e-08
-1.00242e-08
-9.00866e-08
-1.01948e-08
-8.44887e-08
-1.03195e-08
-7.88488e-08
-1.03966e-08
-7.31936e-08
-1.04246e-08
-6.75502e-08
-1.04018e-08
-6.19468e-08
-1.03271e-08
-5.64119e-08
-1.01992e-08
-5.09744e-08
-1.00172e-08
-4.56638e-08
-9.78037e-09
-4.05097e-08
-9.48831e-09
-3.55414e-08
-9.14082e-09
-3.07885e-08
-8.73811e-09
-2.62798e-08
-8.28078e-09
-2.20436e-08
-7.76991e-09
-1.81071e-08
-7.2072e-09
-1.4496e-08
-6.59506e-09
-1.1234e-08
-5.93684e-09
-8.34225e-09
-5.23708e-09
-5.83843e-09
-4.50183e-09
-3.73564e-09
-3.73918e-09
-2.04101e-09
-2.95998e-09
-7.53895e-10
-2.17878e-09
1.36617e-10
-1.41531e-09
6.54771e-10
-6.96322e-10
8.4207e-10
-5.83365e-11
7.62059e-10
4.49132e-10
5.05378e-10
7.60075e-10
1.94635e-10
7.89522e-10
4.31956e-10
1.49532e-10
-5.78489e-10
3.26302e-10
-9.32342e-10
3.48878e-10
-7.0969e-10
8.72804e-11
-7.62561e-11
-5.53917e-10
8.44247e-10
-1.64176e-09
1.95531e-09
-3.21985e-09
3.18299e-09
-5.31277e-09
4.47167e-09
-7.92996e-09
5.77969e-09
-1.10689e-08
7.07599e-09
-1.47179e-08
8.33742e-09
-1.88577e-08
9.54677e-09
-2.3464e-08
1.06913e-08
-2.85079e-08
1.17618e-08
-3.39577e-08
1.27515e-08
-3.97792e-08
1.36556e-08
-4.59368e-08
1.44711e-08
-5.23937e-08
1.51961e-08
-5.91125e-08
1.58295e-08
-6.60557e-08
1.63713e-08
-7.31855e-08
1.68219e-08
-8.04647e-08
1.71822e-08
-8.78562e-08
1.74536e-08
-9.53238e-08
1.76379e-08
-1.02832e-07
1.77369e-08
-1.10346e-07
1.77529e-08
-1.17831e-07
1.76883e-08
-1.25256e-07
1.75455e-08
-1.32588e-07
1.73273e-08
-1.39796e-07
1.70363e-08
-1.46852e-07
1.66754e-08
-1.53726e-07
1.62476e-08
-1.60392e-07
1.57557e-08
-1.66825e-07
1.52028e-08
-1.72998e-07
1.45919e-08
-1.7889e-07
1.39262e-08
-1.84478e-07
1.32087e-08
-1.89742e-07
1.24426e-08
-1.94662e-07
1.1631e-08
-1.99221e-07
1.07772e-08
-2.03401e-07
9.88448e-09
-2.07189e-07
8.95603e-09
-2.1057e-07
7.99518e-09
-2.13532e-07
7.00529e-09
-2.16063e-07
5.98973e-09
-2.18156e-07
4.95192e-09
-2.19801e-07
3.89534e-09
-2.20992e-07
2.82349e-09
-2.21725e-07
1.73991e-09
-2.21996e-07
6.48215e-10
-2.21803e-07
-4.47946e-10
-2.21146e-07
-1.54488e-09
-2.20026e-07
-2.63883e-09
-2.18446e-07
-3.72601e-09
-2.16411e-07
-4.80257e-09
-2.13927e-07
-5.86465e-09
-2.11002e-07
-6.90833e-09
-2.07645e-07
-7.92966e-09
-2.03868e-07
-8.92467e-09
-1.99683e-07
-9.88936e-09
-1.95105e-07
-1.08197e-08
-1.90151e-07
-1.17117e-08
-1.84837e-07
-1.25614e-08
-1.79185e-07
-1.33647e-08
-1.73215e-07
-1.41177e-08
-1.6695e-07
-1.48165e-08
-1.60414e-07
-1.54572e-08
-1.53634e-07
-1.60361e-08
-1.46638e-07
-1.65494e-08
-1.39454e-07
-1.69936e-08
-1.32113e-07
-1.73652e-08
-1.24646e-07
-1.76609e-08
-1.17088e-07
-1.78776e-08
-1.09473e-07
-1.80124e-08
-1.01835e-07
-1.80625e-08
-9.42111e-08
-1.80255e-08
-8.66389e-08
-1.78993e-08
-7.91562e-08
-1.76819e-08
-7.18012e-08
-1.73721e-08
-6.4613e-08
-1.69686e-08
-5.76303e-08
-1.6471e-08
-5.0892e-08
-1.58791e-08
-4.44364e-08
-1.51937e-08
-3.83012e-08
-1.44159e-08
-3.2523e-08
-1.35481e-08
-2.71366e-08
-1.25936e-08
-2.21748e-08
-1.15568e-08
-1.76675e-08
-1.04441e-08
-1.3641e-08
-9.26364e-09
-1.01166e-08
-8.02619e-09
-7.10988e-09
-6.74593e-09
-4.62848e-09
-5.44137e-09
-2.67047e-09
-4.1368e-09
-1.22168e-09
-2.8641e-09
-2.527e-10
-1.66529e-09
2.84648e-10
-5.95675e-10
4.6155e-10
2.7223e-10
3.76709e-10
8.44915e-10
1.62146e-10
1.00409e-09
5.941e-10
7.85099e-11
-6.56994e-10
7.60216e-11
-9.29864e-10
-1.79557e-10
-4.54098e-10
-8.15516e-10
5.59704e-10
-1.92668e-09
1.95541e-09
-3.58087e-09
3.6095e-09
-5.82306e-09
5.42518e-09
-8.67912e-09
7.32771e-09
-1.21591e-08
9.25968e-09
-1.62602e-08
1.11771e-08
-2.09692e-08
1.30464e-08
-2.62643e-08
1.48419e-08
-3.21176e-08
1.65446e-08
-3.84956e-08
1.81398e-08
-4.53611e-08
1.9617e-08
-5.2674e-08
2.09685e-08
-6.03918e-08
2.2189e-08
-6.84708e-08
2.3275e-08
-7.6866e-08
2.42247e-08
-8.5532e-08
2.50374e-08
-9.44235e-08
2.57133e-08
-1.03495e-07
2.62536e-08
-1.12701e-07
2.666e-08
-1.21998e-07
2.69349e-08
-1.31343e-07
2.7081e-08
-1.40691e-07
2.71014e-08
-1.50002e-07
2.69996e-08
-1.59236e-07
2.67793e-08
-1.68353e-07
2.64443e-08
-1.77316e-07
2.59988e-08
-1.86087e-07
2.5447e-08
-1.94633e-07
2.47931e-08
-2.02919e-07
2.40417e-08
-2.10914e-07
2.31974e-08
-2.18586e-07
2.22646e-08
-2.25908e-07
2.12481e-08
-2.32852e-07
2.01527e-08
-2.39393e-07
1.89831e-08
-2.45506e-07
1.77441e-08
-2.51169e-07
1.64408e-08
-2.56363e-07
1.5078e-08
-2.61068e-07
1.36607e-08
-2.65266e-07
1.21939e-08
-2.68944e-07
1.06829e-08
-2.72087e-07
9.13282e-09
-2.74684e-07
7.54883e-09
-2.76725e-07
5.93625e-09
-2.78202e-07
4.30047e-09
-2.79109e-07
2.64693e-09
-2.79442e-07
9.81118e-10
-2.79198e-07
-6.91372e-10
-2.78378e-07
-2.36488e-09
-2.76983e-07
-4.03369e-09
-2.75017e-07
-5.69201e-09
-2.72486e-07
-7.33398e-09
-2.69397e-07
-8.95368e-09
-2.6576e-07
-1.05452e-08
-2.61587e-07
-1.21024e-08
-2.56893e-07
-1.36193e-08
-2.51692e-07
-1.50899e-08
-2.46004e-07
-1.6508e-08
-2.39848e-07
-1.78675e-08
-2.33247e-07
-1.91623e-08
-2.26225e-07
-2.03865e-08
-2.18809e-07
-2.1534e-08
-2.11027e-07
-2.25989e-08
-2.02909e-07
-2.35754e-08
-1.94487e-07
-2.44578e-08
-1.85796e-07
-2.52404e-08
-1.76872e-07
-2.5918e-08
-1.67751e-07
-2.64854e-08
-1.58475e-07
-2.69375e-08
-1.49082e-07
-2.72699e-08
-1.39617e-07
-2.74781e-08
-1.30121e-07
-2.75582e-08
-1.2064e-07
-2.75067e-08
-1.11219e-07
-2.73203e-08
-1.01904e-07
-2.69965e-08
-9.27429e-08
-2.65333e-08
-8.37823e-08
-2.59293e-08
-7.50694e-08
-2.51839e-08
-6.6651e-08
-2.42975e-08
-5.85736e-08
-2.32711e-08
-5.08822e-08
-2.21073e-08
-4.36205e-08
-2.08099e-08
-3.68298e-08
-1.93842e-08
-3.0549e-08
-1.78377e-08
-2.48129e-08
-1.61802e-08
-1.9652e-08
-1.44245e-08
-1.5091e-08
-1.25872e-08
-1.11473e-08
-1.06897e-08
-7.82949e-09
-8.75918e-09
-5.13534e-09
-6.83094e-09
-3.0494e-09
-4.95004e-09
-1.5403e-09
-3.17439e-09
-5.57698e-10
-1.57827e-09
-2.87681e-11
-2.56705e-10
1.45778e-10
6.70367e-10
9.69067e-11
1.05296e-09
6.91004e-10
-1.02802e-11
-6.4671e-10
-2.36622e-10
-7.03533e-10
-8.30628e-10
1.39913e-10
-1.90873e-09
1.6378e-09
-3.55919e-09
3.60587e-09
-5.84591e-09
5.89622e-09
-8.81157e-09
8.39084e-09
-1.24806e-08
1.09967e-08
-1.68618e-08
1.36409e-08
-2.19508e-08
1.62661e-08
-2.77323e-08
1.88279e-08
-3.41822e-08
2.12918e-08
-4.1269e-08
2.36313e-08
-4.89552e-08
2.58261e-08
-5.7199e-08
2.78609e-08
-6.5955e-08
2.97245e-08
-7.5175e-08
3.1409e-08
-8.4809e-08
3.2909e-08
-9.48057e-08
3.42214e-08
-1.05113e-07
3.53445e-08
-1.15678e-07
3.62785e-08
-1.26449e-07
3.70243e-08
-1.37373e-07
3.75841e-08
-1.48399e-07
3.79608e-08
-1.59475e-07
3.81579e-08
-1.70554e-07
3.81797e-08
-1.81585e-07
3.80306e-08
-1.92521e-07
3.77157e-08
-2.03317e-07
3.72402e-08
-2.13928e-07
3.66098e-08
-2.24311e-07
3.58303e-08
-2.34426e-07
3.49076e-08
-2.44232e-07
3.38479e-08
-2.53692e-07
3.26576e-08
-2.62771e-07
3.13431e-08
-2.71433e-07
2.99109e-08
-2.79648e-07
2.83676e-08
-2.87385e-07
2.672e-08
-2.94616e-07
2.49749e-08
-3.01314e-07
2.31391e-08
-3.07456e-07
2.12197e-08
-3.13019e-07
1.92237e-08
-3.17983e-07
1.71582e-08
-3.22331e-07
1.50305e-08
-3.26046e-07
1.28477e-08
-3.29114e-07
1.06174e-08
-3.31525e-07
8.34701e-09
-3.33269e-07
6.04407e-09
-3.34338e-07
3.71628e-09
-3.34728e-07
1.37139e-09
-3.34437e-07
-9.8271e-10
-3.33464e-07
-3.33807e-09
-3.31811e-07
-5.68663e-09
-3.29482e-07
-8.02023e-09
-3.26486e-07
-1.03306e-08
-3.2283e-07
-1.26095e-08
-3.18527e-07
-1.48485e-08
-3.1359e-07
-1.70392e-08
-3.08036e-07
-1.9173e-08
-3.01884e-07
-2.12414e-08
-2.95156e-07
-2.3236e-08
-2.87876e-07
-2.51481e-08
-2.80069e-07
-2.69692e-08
-2.71765e-07
-2.86909e-08
-2.62994e-07
-3.03049e-08
-2.5379e-07
-3.18029e-08
-2.44188e-07
-3.31767e-08
-2.34228e-07
-3.44185e-08
-2.23948e-07
-3.55204e-08
-2.13391e-07
-3.64752e-08
-2.026e-07
-3.72755e-08
-1.91623e-07
-3.79147e-08
-1.80507e-07
-3.83863e-08
-1.693e-07
-3.86845e-08
-1.58055e-07
-3.88037e-08
-1.46822e-07
-3.87393e-08
-1.35656e-07
-3.8487e-08
-1.24609e-07
-3.80434e-08
-1.13736e-07
-3.74061e-08
-1.03092e-07
-3.65734e-08
-9.27309e-08
-3.55447e-08
-8.27075e-08
-3.43209e-08
-7.30745e-08
-3.29041e-08
-6.38838e-08
-3.12981e-08
-5.51851e-08
-2.95086e-08
-4.70255e-08
-2.75438e-08
-3.94489e-08
-2.54143e-08
-3.24947e-08
-2.31344e-08
-2.61971e-08
-2.07222e-08
-2.05836e-08
-1.82007e-08
-1.5674e-08
-1.55992e-08
-1.14785e-08
-1.29547e-08
-7.99567e-09
-1.03137e-08
-5.21084e-09
-7.73487e-09
-3.09344e-09
-5.29178e-09
-1.59465e-09
-3.07707e-09
-6.44563e-10
-1.20679e-09
-1.49221e-10
1.75021e-10
1.3233e-11
8.90499e-10
7.04238e-10
-1.08215e-10
-5.38487e-10
-5.85432e-10
-2.2633e-10
-1.55745e-09
1.11194e-09
-3.12451e-09
3.20487e-09
-5.3639e-09
5.84527e-09
-8.33198e-09
8.8643e-09
-1.20662e-08
1.2125e-08
-1.6587e-08
1.55176e-08
-2.19002e-08
1.89541e-08
-2.79987e-08
2.23646e-08
-3.48645e-08
2.56937e-08
-4.24703e-08
2.88977e-08
-5.07813e-08
3.19423e-08
-5.97562e-08
3.4801e-08
-6.9349e-08
3.74536e-08
-7.95095e-08
3.98849e-08
-9.01844e-08
4.20839e-08
-1.01318e-07
4.40429e-08
-1.12854e-07
4.57571e-08
-1.24733e-07
4.72239e-08
-1.36898e-07
4.84429e-08
-1.49288e-07
4.94149e-08
-1.61847e-07
5.01424e-08
-1.74515e-07
5.06287e-08
-1.87235e-07
5.08783e-08
-1.99952e-07
5.08963e-08
-2.1261e-07
5.06885e-08
-2.25155e-07
5.02613e-08
-2.37537e-07
4.96216e-08
-2.49703e-07
4.87764e-08
-2.61607e-07
4.77336e-08
-2.732e-07
4.65007e-08
-2.84438e-07
4.50861e-08
-2.95278e-07
4.34979e-08
-3.0568e-07
4.17446e-08
-3.15604e-07
3.9835e-08
-3.25014e-07
3.77777e-08
-3.33876e-07
3.55817e-08
-3.42157e-07
3.3256e-08
-3.49827e-07
3.08098e-08
-3.5686e-07
2.82523e-08
-3.63229e-07
2.5593e-08
-3.68912e-07
2.28413e-08
-3.73889e-07
2.00068e-08
-3.7814e-07
1.70993e-08
-3.81651e-07
1.41286e-08
-3.84409e-07
1.11047e-08
-3.86403e-07
8.03769e-09
-3.87624e-07
4.93776e-09
-3.88068e-07
1.81529e-09
-3.87732e-07
-1.31925e-09
-3.86614e-07
-4.45525e-09
-3.84719e-07
-7.58198e-09
-3.82051e-07
-1.06886e-08
-3.78617e-07
-1.37641e-08
-3.74429e-07
-1.67975e-08
-3.695e-07
-1.97777e-08
-3.63846e-07
-2.26933e-08
-3.57486e-07
-2.55332e-08
-3.50441e-07
-2.8286e-08
-3.42737e-07
-3.09404e-08
-3.344e-07
-3.34851e-08
-3.2546e-07
-3.59089e-08
-3.1595e-07
-3.82005e-08
-3.05906e-07
-4.0349e-08
-2.95366e-07
-4.23434e-08
-2.84369e-07
-4.4173e-08
-2.7296e-07
-4.58275e-08
-2.61184e-07
-4.72966e-08
-2.49089e-07
-4.85706e-08
-2.36724e-07
-4.96402e-08
-2.24142e-07
-5.04965e-08
-2.11398e-07
-5.11311e-08
-1.98546e-07
-5.15364e-08
-1.85644e-07
-5.17055e-08
-1.72751e-07
-5.16322e-08
-1.59927e-07
-5.13112e-08
-1.47232e-07
-5.07384e-08
-1.34727e-07
-4.99106e-08
-1.22475e-07
-4.88261e-08
-1.10535e-07
-4.74847e-08
-9.89679e-08
-4.58877e-08
-8.78337e-08
-4.40383e-08
-7.71896e-08
-4.19422e-08
-6.70908e-08
-3.96074e-08
-5.75897e-08
-3.70449e-08
-4.87345e-08
-3.42695e-08
-4.05689e-08
-3.13e-08
-3.31307e-08
-2.81604e-08
-2.64506e-08
-2.48808e-08
-2.0551e-08
-2.14988e-08
-1.54444e-08
-1.80613e-08
-1.11319e-08
-1.46263e-08
-7.60113e-09
-1.12656e-08
-4.82483e-09
-8.06808e-09
-2.75862e-09
-5.14327e-09
-1.33915e-09
-2.62626e-09
-4.8212e-10
-6.82017e-10
-8.02019e-11
4.88579e-10
6.24039e-10
-2.10094e-10
-3.28384e-10
-9.53093e-10
5.16658e-10
-2.32735e-09
2.4862e-09
-4.41392e-09
5.29143e-09
-7.27616e-09
8.7075e-09
-1.09602e-08
1.25483e-08
-1.54957e-08
1.66605e-08
-2.08974e-08
2.09193e-08
-2.71663e-08
2.5223e-08
-3.42915e-08
2.94897e-08
-4.22511e-08
3.36533e-08
-5.10144e-08
3.7661e-08
-6.05428e-08
4.14707e-08
-7.07915e-08
4.50497e-08
-8.171e-08
4.83722e-08
-9.32438e-08
5.14188e-08
-1.05335e-07
5.41752e-08
-1.17923e-07
5.66311e-08
-1.30946e-07
5.878e-08
-1.4434e-07
6.0618e-08
-1.58041e-07
6.21439e-08
-1.71985e-07
6.33583e-08
-1.86106e-07
6.42639e-08
-2.00342e-07
6.48644e-08
-2.14629e-07
6.51652e-08
-2.28905e-07
6.51724e-08
-2.43109e-07
6.4893e-08
-2.57183e-07
6.4335e-08
-2.71068e-07
6.35068e-08
-2.84709e-07
6.24174e-08
-2.98052e-07
6.10762e-08
-3.11044e-07
5.94932e-08
-3.23637e-07
5.76785e-08
-3.35781e-07
5.56425e-08
-3.47433e-07
5.33961e-08
-3.58548e-07
5.09502e-08
-3.69086e-07
4.8316e-08
-3.79009e-07
4.55047e-08
-3.88281e-07
4.25279e-08
-3.96869e-07
3.93973e-08
-4.04741e-07
3.61248e-08
-4.11871e-07
3.27222e-08
-4.18231e-07
2.92018e-08
-4.238e-07
2.55757e-08
-4.28557e-07
2.18566e-08
-4.32486e-07
1.80569e-08
-4.3557e-07
1.41894e-08
-4.37799e-07
1.02669e-08
-4.39164e-07
6.30273e-09
-4.39659e-07
2.30993e-09
-4.3928e-07
-1.69806e-09
-4.38028e-07
-5.70768e-09
-4.35905e-07
-9.70522e-09
-4.32916e-07
-1.36768e-08
-4.29072e-07
-1.76086e-08
-4.24383e-07
-2.14863e-08
-4.18865e-07
-2.52957e-08
-4.12536e-07
-2.90227e-08
-4.05416e-07
-3.26527e-08
-3.97531e-07
-3.61715e-08
-3.88907e-07
-3.95646e-08
-3.79574e-07
-4.28176e-08
-3.69567e-07
-4.59163e-08
-3.58921e-07
-4.88465e-08
-3.47676e-07
-5.15941e-08
-3.35874e-07
-5.41453e-08
-3.2356e-07
-5.64867e-08
-3.10782e-07
-5.8605e-08
-2.97592e-07
-6.04875e-08
-2.84041e-07
-6.21217e-08
-2.70185e-07
-6.34961e-08
-2.56082e-07
-6.45994e-08
-2.41792e-07
-6.54212e-08
-2.27376e-07
-6.5952e-08
-2.12898e-07
-6.61833e-08
-1.98423e-07
-6.61073e-08
-1.84016e-07
-6.57178e-08
-1.69745e-07
-6.50097e-08
-1.55676e-07
-6.39794e-08
-1.41877e-07
-6.26251e-08
-1.28415e-07
-6.09469e-08
-1.15356e-07
-5.89468e-08
-1.02765e-07
-5.66296e-08
-9.0704e-08
-5.40028e-08
-7.92345e-08
-5.10769e-08
-6.84129e-08
-4.78665e-08
-5.8292e-08
-4.43904e-08
-4.89195e-08
-4.06725e-08
-4.03368e-08
-3.67431e-08
-3.25781e-08
-3.26395e-08
-2.56691e-08
-2.84078e-08
-1.96256e-08
-2.41048e-08
-1.44523e-08
-1.97997e-08
-1.01409e-08
-1.55769e-08
-6.66952e-09
-1.15395e-08
-4.00046e-09
-7.81232e-09
-2.07964e-09
-4.54709e-09
-8.35401e-10
-1.92626e-09
-1.78069e-10
-1.68749e-10
4.45973e-10
-3.12824e-10
-1.55518e-11
-1.32839e-09
1.53222e-09
-3.11804e-09
4.27585e-09
-5.74235e-09
7.91575e-09
-9.24897e-09
1.22141e-08
-1.36719e-08
1.69712e-08
-1.90313e-08
2.202e-08
-2.53345e-08
2.72225e-08
-3.25764e-08
3.24649e-08
-4.07408e-08
3.76541e-08
-4.98015e-08
4.2714e-08
-5.97234e-08
4.75829e-08
-7.0464e-08
5.22114e-08
-8.19744e-08
5.656e-08
-9.41999e-08
6.05977e-08
-1.07082e-07
6.43008e-08
-1.20558e-07
6.76513e-08
-1.34563e-07
7.06363e-08
-1.4903e-07
7.32471e-08
-1.63891e-07
7.54786e-08
-1.79076e-07
7.73286e-08
-1.94515e-07
7.87975e-08
-2.10139e-07
7.9888e-08
-2.25879e-07
8.06043e-08
-2.41666e-07
8.09525e-08
-2.57434e-07
8.09398e-08
-2.73115e-07
8.05746e-08
-2.88646e-07
7.98663e-08
-3.03965e-07
7.8825e-08
-3.19009e-07
7.74617e-08
-3.3372e-07
7.57878e-08
-3.48043e-07
7.38154e-08
-3.61921e-07
7.15569e-08
-3.75304e-07
6.90251e-08
-3.88141e-07
6.62332e-08
-4.00385e-07
6.31947e-08
-4.11993e-07
5.99233e-08
-4.22921e-07
5.6433e-08
-4.33131e-07
5.27381e-08
-4.42587e-07
4.88529e-08
-4.51254e-07
4.47921e-08
-4.59102e-07
4.05706e-08
-4.66104e-07
3.62032e-08
-4.72234e-07
3.17054e-08
-4.77469e-07
2.70924e-08
-4.81792e-07
2.23798e-08
-4.85186e-07
1.75835e-08
-4.87639e-07
1.27195e-08
-4.8914e-07
7.80397e-09
-4.89684e-07
2.85326e-09
-4.89266e-07
-2.116e-09
-4.87886e-07
-7.08703e-09
-4.85549e-07
-1.20429e-08
-4.82259e-07
-1.69664e-08
-4.78027e-07
-2.18403e-08
-4.72866e-07
-2.66472e-08
-4.66793e-07
-3.13694e-08
-4.59826e-07
-3.59893e-08
-4.5199e-07
-4.04892e-08
-4.4331e-07
-4.48513e-08
-4.33816e-07
-4.90579e-08
-4.23543e-07
-5.30912e-08
-4.12525e-07
-5.69337e-08
-4.00804e-07
-6.05678e-08
-3.88422e-07
-6.39764e-08
-3.75425e-07
-6.71425e-08
-3.61862e-07
-7.00494e-08
-3.47786e-07
-7.26811e-08
-3.33251e-07
-7.50218e-08
-3.18317e-07
-7.70565e-08
-3.03042e-07
-7.87708e-08
-2.8749e-07
-8.01512e-08
-2.71726e-07
-8.11852e-08
-2.55817e-07
-8.1861e-08
-2.39832e-07
-8.21685e-08
-2.23841e-07
-8.20984e-08
-2.07915e-07
-8.16433e-08
-1.92128e-07
-8.07972e-08
-1.76551e-07
-7.95563e-08
-1.61258e-07
-7.79184e-08
-1.4632e-07
-7.58843e-08
-1.3181e-07
-7.34568e-08
-1.17798e-07
-7.06423e-08
-1.0435e-07
-6.74502e-08
-9.15331e-08
-6.38941e-08
-7.94075e-08
-5.99921e-08
-6.80306e-08
-5.57672e-08
-5.74541e-08
-5.1249e-08
-4.77235e-08
-4.64737e-08
-3.88768e-08
-4.14862e-08
-3.09436e-08
-3.6341e-08
-2.3944e-08
-3.11044e-08
-1.78874e-08
-2.58563e-08
-1.27712e-08
-2.06932e-08
-8.58003e-09
-1.57306e-08
-5.2851e-09
-1.11073e-08
-2.84335e-09
-6.98885e-09
-1.19758e-09
-3.57204e-09
-2.77164e-10
-1.08916e-09
1.68809e-10
-4.14589e-10
3.99033e-10
-1.70417e-09
2.82181e-09
-3.91454e-09
6.4862e-09
-7.08569e-09
1.10869e-08
-1.12487e-08
1.63772e-08
-1.64243e-08
2.21467e-08
-2.26219e-08
2.82176e-08
-2.98401e-08
3.44406e-08
-3.80664e-08
4.06912e-08
-4.72785e-08
4.68662e-08
-5.74449e-08
5.28803e-08
-6.85257e-08
5.86637e-08
-8.04738e-08
6.41595e-08
-9.32359e-08
6.93221e-08
-1.06753e-07
7.41152e-08
-1.20963e-07
7.85104e-08
-1.35798e-07
8.24864e-08
-1.51189e-07
8.60274e-08
-1.67065e-07
8.91226e-08
-1.83351e-07
9.17654e-08
-1.99976e-07
9.39527e-08
-2.16863e-07
9.56845e-08
-2.33938e-07
9.69634e-08
-2.51128e-07
9.77943e-08
-2.68359e-07
9.81837e-08
-2.8556e-07
9.81402e-08
-3.02659e-07
9.76734e-08
-3.19587e-07
9.67942e-08
-3.36276e-07
9.55148e-08
-3.52662e-07
9.38479e-08
-3.68682e-07
9.18071e-08
-3.84273e-07
8.94068e-08
-3.99378e-07
8.66617e-08
-4.1394e-07
8.35874e-08
-4.27906e-07
8.01994e-08
-4.41226e-07
7.6514e-08
-4.5385e-07
7.25478e-08
-4.65735e-07
6.83175e-08
-4.76837e-07
6.38403e-08
-4.87118e-07
5.91336e-08
-4.9654e-07
5.42149e-08
-5.05072e-07
4.91023e-08
-5.12683e-07
4.38138e-08
-5.19345e-07
3.83678e-08
-5.25036e-07
3.2783e-08
-5.29734e-07
2.70781e-08
-5.33423e-07
2.12723e-08
-5.36088e-07
1.5385e-08
-5.3772e-07
9.43562e-09
-5.38311e-07
3.44405e-09
-5.37857e-07
-2.5697e-09
-5.36359e-07
-8.58536e-09
-5.33819e-07
-1.45824e-08
-5.30245e-07
-2.05403e-08
-5.25648e-07
-2.64379e-08
-5.2004e-07
-3.22545e-08
-5.13441e-07
-3.79686e-08
-5.05871e-07
-4.35592e-08
-4.97356e-07
-4.90047e-08
-4.87923e-07
-5.42839e-08
-4.77606e-07
-5.93753e-08
-4.66439e-07
-6.42576e-08
-4.54463e-07
-6.89098e-08
-4.4172e-07
-7.33108e-08
-4.28257e-07
-7.74398e-08
-4.14123e-07
-8.12767e-08
-3.99371e-07
-8.48014e-08
-3.84057e-07
-8.79946e-08
-3.68242e-07
-9.08376e-08
-3.51986e-07
-9.33124e-08
-3.35355e-07
-9.54019e-08
-3.18416e-07
-9.709e-08
-3.01239e-07
-9.83617e-08
-2.83897e-07
-9.92034e-08
-2.66463e-07
-9.96028e-08
-2.49012e-07
-9.95493e-08
-2.31621e-07
-9.90342e-08
-2.14367e-07
-9.80506e-08
-1.97329e-07
-9.65943e-08
-1.80585e-07
-9.46632e-08
-1.64211e-07
-9.22583e-08
-1.48284e-07
-8.93838e-08
-1.32879e-07
-8.60473e-08
-1.18068e-07
-8.22608e-08
-1.03921e-07
-7.80407e-08
-9.05046e-08
-7.34088e-08
-7.78791e-08
-6.83927e-08
-6.6101e-08
-6.30272e-08
-5.52198e-08
-5.73549e-08
-4.5278e-08
-5.14279e-08
-3.631e-08
-4.5309e-08
-2.83409e-08
-3.90735e-08
-2.13856e-08
-3.28116e-08
-1.54485e-08
-2.66303e-08
-1.05223e-08
-2.06568e-08
-6.58802e-09
-1.50415e-08
-3.61494e-09
-9.96193e-09
-1.56126e-09
-5.62572e-09
-3.75587e-10
-2.27483e-09
-2.0678e-10
-5.14371e-10
9.13402e-10
-2.076e-09
4.38344e-09
-4.70705e-09
9.11725e-09
-8.42758e-09
1.48074e-08
-1.32519e-08
2.12015e-08
-1.91869e-08
2.80817e-08
-2.62303e-08
3.5261e-08
-3.43709e-08
4.25812e-08
-4.35882e-08
4.99086e-08
-5.38529e-08
5.71309e-08
-6.51273e-08
6.41547e-08
-7.7366e-08
7.09025e-08
-9.05171e-08
7.73106e-08
-1.04523e-07
8.33275e-08
-1.19319e-07
8.89116e-08
-1.34839e-07
9.40305e-08
-1.51012e-07
9.86591e-08
-1.67763e-07
1.02779e-07
-1.85018e-07
1.06377e-07
-2.02697e-07
1.09445e-07
-2.20724e-07
1.11979e-07
-2.39018e-07
1.13979e-07
-2.57502e-07
1.15447e-07
-2.76096e-07
1.16388e-07
-2.94723e-07
1.16811e-07
-3.13307e-07
1.16724e-07
-3.31771e-07
1.16138e-07
-3.50044e-07
1.15067e-07
-3.68052e-07
1.13523e-07
-3.85727e-07
1.11523e-07
-4.03001e-07
1.09081e-07
-4.19808e-07
1.06215e-07
-4.36088e-07
1.02941e-07
-4.51779e-07
9.92787e-08
-4.66825e-07
9.52456e-08
-4.81172e-07
9.08609e-08
-4.94769e-07
8.61442e-08
-5.07566e-07
8.11152e-08
-5.1952e-07
7.57942e-08
-5.30589e-07
7.02017e-08
-5.40732e-07
6.43586e-08
-5.49916e-07
5.82861e-08
-5.58108e-07
5.20056e-08
-5.65279e-07
4.55388e-08
-5.71404e-07
3.89079e-08
-5.76461e-07
3.21351e-08
-5.80432e-07
2.52431e-08
-5.83301e-07
1.82547e-08
-5.85059e-07
1.11931e-08
-5.85696e-07
4.08175e-09
-5.8521e-07
-3.0556e-09
-5.83601e-07
-1.0195e-08
-5.80871e-07
-1.73122e-08
-5.77029e-07
-2.43826e-08
-5.72085e-07
-3.13818e-08
-5.66055e-07
-3.82847e-08
-5.58957e-07
-4.50664e-08
-5.50814e-07
-5.17016e-08
-5.41654e-07
-5.81652e-08
-5.31506e-07
-6.4432e-08
-5.20404e-07
-7.04767e-08
-5.08388e-07
-7.62741e-08
-4.95498e-07
-8.17994e-08
-4.81781e-07
-8.70278e-08
-4.67286e-07
-9.19349e-08
-4.52066e-07
-9.64969e-08
-4.36177e-07
-1.0069e-07
-4.19679e-07
-1.04492e-07
-4.02636e-07
-1.07881e-07
-3.85113e-07
-1.10836e-07
-3.67179e-07
-1.13336e-07
-3.48907e-07
-1.15362e-07
-3.3037e-07
-1.16899e-07
-3.11645e-07
-1.17928e-07
-2.92811e-07
-1.18437e-07
-2.73947e-07
-1.18413e-07
-2.55136e-07
-1.17846e-07
-2.36458e-07
-1.16728e-07
-2.17998e-07
-1.15055e-07
-1.99837e-07
-1.12824e-07
-1.82057e-07
-1.10038e-07
-1.6474e-07
-1.067e-07
-1.47966e-07
-1.02822e-07
-1.31811e-07
-9.8416e-08
-1.16349e-07
-9.35024e-08
-1.01651e-07
-8.81067e-08
-8.77831e-08
-8.22609e-08
-7.48051e-08
-7.60052e-08
-6.27717e-08
-6.93883e-08
-5.17302e-08
-6.24694e-08
-4.17202e-08
-5.5319e-08
-3.27727e-08
-4.8021e-08
-2.49093e-08
-4.06749e-08
-1.8142e-08
-3.33976e-08
-1.24724e-08
-2.63263e-08
-7.89248e-09
-1.96215e-08
-4.38435e-09
-1.34701e-08
-1.92183e-09
-8.08824e-09
-4.72249e-10
-3.72441e-09
-6.7903e-10
-6.11629e-10
1.52503e-09
-2.44122e-09
6.21304e-09
-5.4894e-09
1.21654e-08
-9.75725e-09
1.90753e-08
-1.52427e-08
2.66869e-08
-2.19382e-08
3.47772e-08
-2.98298e-08
4.31526e-08
-3.88958e-08
5.16472e-08
-4.91067e-08
6.01196e-08
-6.04257e-08
6.84499e-08
-7.28082e-08
7.65372e-08
-8.62029e-08
8.42972e-08
-1.00552e-07
9.16601e-08
-1.15793e-07
9.85685e-08
-1.31858e-07
1.04976e-07
-1.48675e-07
1.10847e-07
-1.66167e-07
1.16152e-07
-1.84258e-07
1.2087e-07
-2.02866e-07
1.24985e-07
-2.21911e-07
1.28489e-07
-2.41309e-07
1.31377e-07
-2.60977e-07
1.33647e-07
-2.80832e-07
1.35302e-07
-3.00792e-07
1.36348e-07
-3.20774e-07
1.36793e-07
-3.40698e-07
1.36648e-07
-3.60485e-07
1.35925e-07
-3.80057e-07
1.34639e-07
-3.99339e-07
1.32805e-07
-4.18256e-07
1.3044e-07
-4.36739e-07
1.27563e-07
-4.54718e-07
1.24193e-07
-4.72127e-07
1.2035e-07
-4.88903e-07
1.16055e-07
-5.04987e-07
1.11329e-07
-5.2032e-07
1.06194e-07
-5.34849e-07
1.00673e-07
-5.48523e-07
9.47887e-08
-5.61293e-07
8.85647e-08
-5.73116e-07
8.20248e-08
-5.83951e-07
7.51934e-08
-5.9376e-07
6.8095e-08
-6.02509e-07
6.07547e-08
-6.10168e-07
5.31977e-08
-6.16709e-07
4.54497e-08
-6.22111e-07
3.75367e-08
-6.26353e-07
2.94851e-08
-6.2942e-07
2.13215e-08
-6.313e-07
1.30729e-08
-6.31984e-07
4.76654e-09
-6.3147e-07
-3.56988e-09
-6.29757e-07
-1.19085e-08
-6.26848e-07
-2.0221e-08
-6.22751e-07
-2.84791e-08
-6.17479e-07
-3.66539e-08
-6.11047e-07
-4.47167e-08
-6.03475e-07
-5.26381e-08
-5.94788e-07
-6.03892e-08