/*--------------------------------*- C++ -*----------------------------------*\
| =========                 |                                                 |
| \\      /  F ield         | OpenFOAM: The Open Source CFD Toolbox           |
|  \\    /   O peration     | Version:  2212                                  |
|   \\  /    A nd           | Website:  www.openfoam.com                      |
|    \\/     M anipulation  |                                                 |
\*---------------------------------------------------------------------------*/
FoamFile
{
    version     2.0;
    format      ascii;
    arch        "LSB;label=32;scalar=64";
    class       volVectorField;
    location    "0.082";
    object      U;
}
// * * * * * * * * * * * * * * * * * * * * * * * * * * * * * * * * * * * * * //

dimensions      [0 1 -1 0 0 0 0];

internalField   nonuniform List<vector> 
10000
(
(2.99002e-06 -2.98261e-06 0)
(1.48469e-05 -7.67495e-06 0)
(3.37278e-05 -8.86097e-06 0)
(5.14839e-05 -7.64219e-06 0)
(6.31246e-05 -5.14988e-06 0)
(6.62313e-05 -2.03841e-06 0)
(5.9549e-05 1.33039e-06 0)
(4.25057e-05 4.7501e-06 0)
(1.49807e-05 8.10402e-06 0)
(-2.28553e-05 1.13249e-05 0)
(-7.06439e-05 1.4374e-05 0)
(-0.000127902 1.72278e-05 0)
(-0.000194064 1.98735e-05 0)
(-0.000268511 2.23047e-05 0)
(-0.000350588 2.45181e-05 0)
(-0.000439619 2.65128e-05 0)
(-0.00053492 2.82905e-05 0)
(-0.000635799 2.98542e-05 0)
(-0.000741571 3.1208e-05 0)
(-0.000851554 3.23566e-05 0)
(-0.000965079 3.33049e-05 0)
(-0.00108149 3.4059e-05 0)
(-0.00120014 3.46239e-05 0)
(-0.0013204 3.50059e-05 0)
(-0.00144167 3.52112e-05 0)
(-0.00156335 3.52462e-05 0)
(-0.00168487 3.51171e-05 0)
(-0.00180568 3.48301e-05 0)
(-0.00192525 3.43916e-05 0)
(-0.00204307 3.38078e-05 0)
(-0.00215865 3.30851e-05 0)
(-0.00227151 3.22302e-05 0)
(-0.00238121 3.12494e-05 0)
(-0.00248732 3.01488e-05 0)
(-0.00258943 2.89345e-05 0)
(-0.00268717 2.76125e-05 0)
(-0.00278017 2.61892e-05 0)
(-0.00286808 2.46714e-05 0)
(-0.00295059 2.30652e-05 0)
(-0.00302741 2.13771e-05 0)
(-0.00309824 1.96134e-05 0)
(-0.00316285 1.77792e-05 0)
(-0.003221 1.58814e-05 0)
(-0.00327248 1.39268e-05 0)
(-0.0033171 1.19214e-05 0)
(-0.0033547 9.87214e-06 0)
(-0.00338513 7.78551e-06 0)
(-0.00340829 5.66725e-06 0)
(-0.00342407 3.525e-06 0)
(-0.00343241 1.36623e-06 0)
(-0.00343326 -8.03093e-07 0)
(-0.0034266 -2.97582e-06 0)
(-0.00341243 -5.14409e-06 0)
(-0.00339078 -7.30093e-06 0)
(-0.00336172 -9.43896e-06 0)
(-0.00332531 -1.15503e-05 0)
(-0.00328168 -1.36276e-05 0)
(-0.00323095 -1.56631e-05 0)
(-0.00317328 -1.76483e-05 0)
(-0.00310888 -1.95749e-05 0)
(-0.00303795 -2.14354e-05 0)
(-0.00296074 -2.32215e-05 0)
(-0.00287752 -2.49249e-05 0)
(-0.00278861 -2.6538e-05 0)
(-0.00269432 -2.8053e-05 0)
(-0.00259501 -2.94611e-05 0)
(-0.00249106 -3.07539e-05 0)
(-0.00238289 -3.19239e-05 0)
(-0.00227094 -3.29634e-05 0)
(-0.00215568 -3.38641e-05 0)
(-0.00203758 -3.46179e-05 0)
(-0.00191717 -3.52179e-05 0)
(-0.00179498 -3.56569e-05 0)
(-0.00167159 -3.59277e-05 0)
(-0.00154756 -3.60236e-05 0)
(-0.00142351 -3.59392e-05 0)
(-0.00130006 -3.56689e-05 0)
(-0.00117784 -3.5207e-05 0)
(-0.00105752 -3.45477e-05 0)
(-0.000939757 -3.36864e-05 0)
(-0.000825233 -3.26197e-05 0)
(-0.000714636 -3.13446e-05 0)
(-0.000608657 -2.98584e-05 0)
(-0.000507988 -2.81588e-05 0)
(-0.000413321 -2.62457e-05 0)
(-0.000325338 -2.41196e-05 0)
(-0.000244705 -2.17828e-05 0)
(-0.000172067 -1.92393e-05 0)
(-0.000108035 -1.64965e-05 0)
(-5.3171e-05 -1.35661e-05 0)
(-7.97052e-06 -1.04658e-05 0)
(2.71679e-05 -7.22325e-06 0)
(5.19828e-05 -3.88297e-06 0)
(6.64127e-05 -5.17693e-07 0)
(7.06986e-05 2.75035e-06 0)
(6.55443e-05 5.71155e-06 0)
(5.23369e-05 8.00305e-06 0)
(3.36098e-05 8.98031e-06 0)
(1.44062e-05 7.55391e-06 0)
(2.76878e-06 2.76878e-06 0)
(7.67353e-06 -1.4829e-05 0)
(3.11194e-05 -3.11028e-05 0)
(6.25678e-05 -3.32256e-05 0)
(8.77298e-05 -2.53612e-05 0)
(9.71434e-05 -1.13419e-05 0)
(8.53323e-05 6.2354e-06 0)
(4.89323e-05 2.56776e-05 0)
(-1.39138e-05 4.58748e-05 0)
(-0.000103935 6.61025e-05 0)
(-0.000221056 8.58805e-05 0)
(-0.00036464 0.000104888 0)
(-0.000533648 0.000122908 0)
(-0.000726759 0.000139796 0)
(-0.00094245 0.000155455 0)
(-0.00117906 0.000169824 0)
(-0.00143483 0.000182865 0)
(-0.00170795 0.00019456 0)
(-0.00199657 0.000204905 0)
(-0.00229883 0.000213905 0)
(-0.00261287 0.000221575 0)
(-0.00293684 0.000227936 0)
(-0.00326892 0.000233013 0)
(-0.00360731 0.000236835 0)
(-0.00395026 0.000239434 0)
(-0.00429606 0.000240846 0)
(-0.00464304 0.000241106 0)
(-0.00498958 0.000240254 0)
(-0.00533412 0.000238327 0)
(-0.00567515 0.000235365 0)
(-0.0060112 0.00023141 0)
(-0.00634088 0.000226503 0)
(-0.00666286 0.000220684 0)
(-0.00697584 0.000213996 0)
(-0.0072786 0.000206482 0)
(-0.00756998 0.000198183 0)
(-0.00784888 0.000189142 0)
(-0.00811426 0.000179402 0)
(-0.00836513 0.000169006 0)
(-0.00860059 0.000157997 0)
(-0.00881977 0.000146418 0)
(-0.00902188 0.000134315 0)
(-0.0092062 0.000121728 0)
(-0.00937206 0.000108703 0)
(-0.00951885 9.52848e-05 0)
(-0.00964606 8.15179e-05 0)
(-0.0097532 6.74481e-05 0)
(-0.00983987 5.31221e-05 0)
(-0.00990574 3.85863e-05 0)
(-0.00995054 2.38878e-05 0)
(-0.00997408 9.0756e-06 0)
(-0.00997623 -5.8017e-06 0)
(-0.00995694 -2.06949e-05 0)
(-0.00991622 -3.55537e-05 0)
(-0.00985416 -5.03272e-05 0)
(-0.00977094 -6.49632e-05 0)
(-0.00966678 -7.94089e-05 0)
(-0.00954201 -9.36119e-05 0)
(-0.00939702 -0.000107519 0)
(-0.00923229 -0.000121074 0)
(-0.00904836 -0.000134223 0)
(-0.00884585 -0.000146911 0)
(-0.00862549 -0.000159084 0)
(-0.00838805 -0.000170685 0)
(-0.00813441 -0.000181659 0)
(-0.00786549 -0.000191954 0)
(-0.00758234 -0.000201513 0)
(-0.00728604 -0.000210282 0)
(-0.00697777 -0.000218208 0)
(-0.00665878 -0.000225238 0)
(-0.00633039 -0.000231321 0)
(-0.00599401 -0.000236408 0)
(-0.00565108 -0.000240449 0)
(-0.00530314 -0.0002434 0)
(-0.00495178 -0.000245216 0)
(-0.00459865 -0.000245857 0)
(-0.00424544 -0.000245285 0)
(-0.00389391 -0.000243464 0)
(-0.00354584 -0.000240365 0)
(-0.00320308 -0.000235959 0)
(-0.00286749 -0.000230222 0)
(-0.00254094 -0.000223138 0)
(-0.00222533 -0.000214696 0)
(-0.00192257 -0.000204891 0)
(-0.00163454 -0.000193728 0)
(-0.00136312 -0.000181218 0)
(-0.00111012 -0.00016739 0)
(-0.000877307 -0.000152283 0)
(-0.000666356 -0.000135959 0)
(-0.000478807 -0.000118505 0)
(-0.000316033 -0.000100043 0)
(-0.000179172 -8.07433e-05 0)
(-6.90492e-05 -6.08483e-05 0)
(1.39398e-05 -4.07027e-05 0)
(6.99908e-05 -2.08079e-05 0)
(0.000100118 -1.90591e-06 0)
(0.00010647 1.48901e-05 0)
(9.26846e-05 2.79035e-05 0)
(6.44512e-05 3.46049e-05 0)
(3.13389e-05 3.1336e-05 0)
(7.54595e-06 1.43946e-05 0)
(8.88084e-06 -3.3726e-05 0)
(3.33649e-05 -6.25839e-05 0)
(6.1395e-05 -6.11288e-05 0)
(7.5894e-05 -3.81332e-05 0)
(6.54404e-05 -7.5993e-07 0)
(2.29358e-05 4.56466e-05 0)
(-5.63128e-05 9.72422e-05 0)
(-0.000175105 0.00015131 0)
(-0.000334721 0.00020594 0)
(-0.000535292 0.000259786 0)
(-0.000776093 0.000311898 0)
(-0.00105576 0.000361603 0)
(-0.00137245 0.000408425 0)
(-0.00172398 0.000452033 0)
(-0.00210791 0.0004922 0)
(-0.00252162 0.000528778 0)
(-0.00296237 0.000561676 0)
(-0.00342735 0.00059085 0)
(-0.00391368 0.000616291 0)
(-0.00441849 0.000638016 0)
(-0.00493891 0.000656064 0)
(-0.00547208 0.000670491 0)
(-0.00601518 0.000681367 0)
(-0.00656545 0.000688771 0)
(-0.00712019 0.000692794 0)
(-0.00767675 0.000693531 0)
(-0.00823255 0.000691085 0)
(-0.00878512 0.000685561 0)
(-0.00933203 0.000677069 0)
(-0.00987097 0.000665723 0)
(-0.0103997 0.000651636 0)
(-0.010916 0.000634926 0)
(-0.011418 0.00061571 0)
(-0.0119035 0.000594111 0)
(-0.0123708 0.000570247 0)
(-0.0128181 0.000544241 0)
(-0.0132437 0.000516217 0)
(-0.013646 0.000486297 0)
(-0.0140236 0.000454605 0)
(-0.014375 0.000421268 0)
(-0.0146991 0.000386411 0)
(-0.0149946 0.000350161 0)
(-0.0152605 0.000312647 0)
(-0.0154957 0.000273999 0)
(-0.0156996 0.000234346 0)
(-0.0158712 0.000193822 0)
(-0.0160099 0.000152562 0)
(-0.0161153 0.000110701 0)
(-0.0161869 6.83769e-05 0)
(-0.0162244 2.57297e-05 0)
(-0.0162275 -1.70991e-05 0)
(-0.0161963 -5.99657e-05 0)
(-0.0161306 -0.000102724 0)
(-0.0160308 -0.000145228 0)
(-0.015897 -0.000187326 0)
(-0.0157297 -0.000228868 0)
(-0.0155294 -0.0002697 0)
(-0.0152966 -0.000309668 0)
(-0.0150323 -0.000348615 0)
(-0.0147372 -0.000386385 0)
(-0.0144123 -0.000422819 0)
(-0.0140589 -0.000457761 0)
(-0.0136782 -0.000491053 0)
(-0.0132715 -0.000522536 0)
(-0.0128405 -0.000552054 0)
(-0.0123866 -0.000579452 0)
(-0.0119118 -0.000604577 0)
(-0.0114178 -0.000627276 0)
(-0.0109067 -0.000647401 0)
(-0.0103806 -0.000664811 0)
(-0.00984169 -0.000679363 0)
(-0.00929233 -0.000690925 0)
(-0.00873494 -0.000699368 0)
(-0.00817205 -0.000704573 0)
(-0.00760627 -0.000706427 0)
(-0.00704031 -0.000704827 0)
(-0.00647693 -0.000699681 0)
(-0.00591897 -0.000690906 0)
(-0.0053693 -0.000678433 0)
(-0.00483085 -0.000662209 0)
(-0.00430658 -0.000642197 0)
(-0.00379944 -0.000618379 0)
(-0.00331239 -0.000590761 0)
(-0.00284835 -0.000559374 0)
(-0.00241018 -0.000524281 0)
(-0.00200068 -0.000485586 0)
(-0.00162249 -0.000443439 0)
(-0.0012781 -0.000398055 0)
(-0.000969785 -0.000349724 0)
(-0.0006995 -0.000298845 0)
(-0.000468814 -0.000245958 0)
(-0.000278781 -0.000191798 0)
(-0.000129775 -0.000137369 0)
(-2.12832e-05 -8.40636e-05 0)
(4.83737e-05 -3.38165e-05 0)
(8.23932e-05 1.06614e-05 0)
(8.58302e-05 4.55923e-05 0)
(6.60665e-05 6.57999e-05 0)
(3.47258e-05 6.44738e-05 0)
(8.98957e-06 3.35987e-05 0)
(7.73005e-06 -5.16133e-05 0)
(2.58079e-05 -8.80163e-05 0)
(3.908e-05 -7.57691e-05 0)
(3.01425e-05 -2.89467e-05 0)
(-1.29833e-05 4.17567e-05 0)
(-9.8134e-05 0.000128085 0)
(-0.000230664 0.000223819 0)
(-0.000413893 0.000324359 0)
(-0.000649444 0.000426327 0)
(-0.000937591 0.000527247 0)
(-0.00127756 0.000625306 0)
(-0.00166776 0.000719174 0)
(-0.00210598 0.000807888 0)
(-0.00258952 0.000890751 0)
(-0.00311534 0.000967269 0)
(-0.00368011 0.0010371 0)
(-0.00428032 0.00110004 0)
(-0.00491235 0.00115594 0)
(-0.00557247 0.00120475 0)
(-0.00625693 0.00124649 0)
(-0.00696195 0.00128119 0)
(-0.00768377 0.00130894 0)
(-0.00841867 0.00132986 0)
(-0.00916299 0.00134408 0)
(-0.00991311 0.00135177 0)
(-0.0106655 0.0013531 0)
(-0.0114168 0.00134826 0)
(-0.0121636 0.00133744 0)
(-0.0129027 0.00132085 0)
(-0.0136309 0.00129871 0)
(-0.0143453 0.00127122 0)
(-0.0150429 0.00123863 0)
(-0.015721 0.00120115 0)
(-0.016377 0.00115901 0)
(-0.0170083 0.00111245 0)
(-0.0176125 0.00106171 0)
(-0.0181874 0.00100703 0)
(-0.0187308 0.000948637 0)
(-0.0192408 0.000886784 0)
(-0.0197155 0.000821713 0)
(-0.0201531 0.000753673 0)
(-0.0205521 0.000682911 0)
(-0.0209111 0.000609679 0)
(-0.0212287 0.000534233 0)
(-0.0215038 0.000456829 0)
(-0.0217354 0.000377727 0)
(-0.0219225 0.000297191 0)
(-0.0220646 0.000215488 0)
(-0.0221609 0.000132888 0)
(-0.0222112 4.96647e-05 0)
(-0.0222151 -3.39038e-05 0)
(-0.0221725 -0.000117536 0)
(-0.0220835 -0.000200947 0)
(-0.0219483 -0.000283847 0)
(-0.0217673 -0.000365944 0)
(-0.021541 -0.000446944 0)
(-0.0212702 -0.000526546 0)
(-0.0209556 -0.000604449 0)
(-0.0205983 -0.000680349 0)
(-0.0201996 -0.000753942 0)
(-0.0197608 -0.00082492 0)
(-0.0192834 -0.000892977 0)
(-0.0187692 -0.000957806 0)
(-0.01822 -0.0010191 0)
(-0.0176379 -0.00107656 0)
(-0.0170252 -0.00112989 0)
(-0.0163841 -0.00117878 0)
(-0.0157172 -0.00122295 0)
(-0.0150272 -0.00126211 0)
(-0.014317 -0.00129598 0)
(-0.0135895 -0.00132431 0)
(-0.0128479 -0.00134683 0)
(-0.0120954 -0.0013633 0)
(-0.0113353 -0.0013735 0)
(-0.0105713 -0.00137721 0)
(-0.00980681 -0.00137425 0)
(-0.00904562 -0.00136444 0)
(-0.00829147 -0.00134764 0)
(-0.00754819 -0.00132372 0)
(-0.00681963 -0.0012926 0)
(-0.0061097 -0.00125423 0)
(-0.0054223 -0.00120858 0)
(-0.00476129 -0.00115571 0)
(-0.00413048 -0.00109568 0)
(-0.00353359 -0.00102866 0)
(-0.00297422 -0.000954893 0)
(-0.00245576 -0.000874698 0)
(-0.00198136 -0.000788537 0)
(-0.00155386 -0.000697023 0)
(-0.00117567 -0.000600971 0)
(-0.000848665 -0.000501462 0)
(-0.000574055 -0.000399929 0)
(-0.000352182 -0.000298278 0)
(-0.000182305 -0.000199055 0)
(-6.23204e-05 -0.000105671 0)
(1.15696e-05 -2.26997e-05 0)
(4.51601e-05 4.37603e-05 0)
(4.66467e-05 8.57226e-05 0)
(2.83528e-05 9.2991e-05 0)
(8.07517e-06 5.24348e-05 0)
(5.34411e-06 -6.35971e-05 0)
(1.22444e-05 -9.81165e-05 0)
(2.68247e-06 -6.59438e-05 0)
(-3.9046e-05 1.3927e-05 0)
(-0.000124413 0.000127383 0)
(-0.000261369 0.000263354 0)
(-0.000455421 0.000413266 0)
(-0.000710032 0.000570584 0)
(-0.00102693 0.000730354 0)
(-0.0014064 0.000888835 0)
(-0.00184759 0.00104321 0)
(-0.00234871 0.00119135 0)
(-0.00290722 0.00133169 0)
(-0.00352002 0.00146306 0)
(-0.00418356 0.0015846 0)
(-0.00489394 0.00169572 0)
(-0.005647 0.001796 0)
(-0.00643843 0.00188519 0)
(-0.00726377 0.00196315 0)
(-0.00811849 0.00202984 0)
(-0.00899804 0.00208532 0)
(-0.00989787 0.00212969 0)
(-0.0108135 0.0021631 0)
(-0.0117403 0.00218575 0)
(-0.012674 0.00219788 0)
(-0.0136103 0.00219977 0)
(-0.0145449 0.00219168 0)
(-0.0154738 0.00217393 0)
(-0.0163928 0.00214685 0)
(-0.0172983 0.00211077 0)
(-0.0181865 0.00206604 0)
(-0.0190538 0.00201301 0)
(-0.0198967 0.00195206 0)
(-0.020712 0.00188354 0)
(-0.0214966 0.00180784 0)
(-0.0222475 0.00172534 0)
(-0.0229619 0.00163643 0)
(-0.0236372 0.00154149 0)
(-0.0242709 0.00144092 0)
(-0.0248606 0.00133512 0)
(-0.0254043 0.00122449 0)
(-0.0259 0.00110944 0)
(-0.0263458 0.000990369 0)
(-0.0267402 0.000867701 0)
(-0.0270818 0.000741855 0)
(-0.0273692 0.000613254 0)
(-0.0276015 0.000482328 0)
(-0.0277776 0.000349513 0)
(-0.027897 0.00021525 0)
(-0.0279591 7.99858e-05 0)
(-0.0279636 -5.58275e-05 0)
(-0.0279103 -0.00019173 0)
(-0.0277994 -0.000327259 0)
(-0.0276311 -0.000461942 0)
(-0.0274059 -0.000595306 0)
(-0.0271244 -0.000726868 0)
(-0.0267876 -0.000856145 0)
(-0.0263965 -0.000982646 0)
(-0.0259525 -0.00110588 0)
(-0.0254569 -0.00122535 0)
(-0.0249117 -0.00134056 0)
(-0.0243185 -0.00145102 0)
(-0.0236797 -0.00155623 0)
(-0.0229974 -0.00165569 0)
(-0.0222743 -0.00174892 0)
(-0.0215132 -0.00183543 0)
(-0.0207168 -0.00191476 0)
(-0.0198885 -0.00198642 0)
(-0.0190314 -0.00204998 0)
(-0.0181492 -0.00210498 0)
(-0.0172454 -0.002151 0)
(-0.016324 -0.00218763 0)
(-0.0153889 -0.0022145 0)
(-0.0144443 -0.00223125 0)
(-0.0134946 -0.00223754 0)
(-0.012544 -0.00223307 0)
(-0.0115972 -0.0022176 0)
(-0.0106587 -0.00219089 0)
(-0.00973316 -0.00215278 0)
(-0.00882536 -0.00210313 0)
(-0.00793998 -0.0020419 0)
(-0.00708177 -0.00196908 0)
(-0.00625537 -0.00188477 0)
(-0.00546537 -0.00178914 0)
(-0.00471624 -0.00168248 0)
(-0.00401224 -0.00156521 0)
(-0.00335739 -0.00143793 0)
(-0.00275541 -0.00130141 0)
(-0.0022096 -0.00115669 0)
(-0.00172273 -0.00100512 0)
(-0.00129695 -0.00084844 0)
(-0.000933618 -0.000688934 0)
(-0.000633095 -0.00052955 0)
(-0.000394559 -0.000374129 0)
(-0.000215737 -0.000227662 0)
(-9.26148e-05 -9.66433e-05 0)
(-1.91669e-05 1.052e-05 0)
(1.3006e-05 8.31e-05 0)
(1.58888e-05 0.000107578 0)
(5.89588e-06 6.59842e-05 0)
(2.36276e-06 -6.73286e-05 0)
(-4.80381e-06 -8.75116e-05 0)
(-4.2645e-05 -2.4638e-05 0)
(-0.000123791 9.82815e-05 0)
(-0.000258398 0.000264075 0)
(-0.000454042 0.000459077 0)
(-0.000715979 0.000672489 0)
(-0.00104749 0.000895887 0)
(-0.00145018 0.00112273 0)
(-0.00192421 0.00134796 0)
(-0.00246855 0.00156766 0)
(-0.00308118 0.00177886 0)
(-0.00375927 0.00197926 0)
(-0.00449935 0.00216715 0)
(-0.00529743 0.00234124 0)
(-0.0061491 0.00250061 0)
(-0.00704968 0.00264459 0)
(-0.00799422 0.00277276 0)
(-0.00897765 0.00288487 0)
(-0.00999477 0.00298082 0)
(-0.0110403 0.00306063 0)
(-0.0121091 0.0031244 0)
(-0.0131958 0.00317234 0)
(-0.0142953 0.00320471 0)
(-0.0154024 0.00322182 0)
(-0.0165121 0.00322404 0)
(-0.0176194 0.00321176 0)
(-0.0187197 0.00318542 0)
(-0.0198081 0.00314547 0)
(-0.0208802 0.00309239 0)
(-0.0219316 0.00302669 0)
(-0.0229582 0.00294886 0)
(-0.0239558 0.00285945 0)
(-0.0249207 0.00275898 0)
(-0.0258491 0.002648 0)
(-0.0267375 0.00252707 0)
(-0.0275827 0.00239674 0)
(-0.0283816 0.0022576 0)
(-0.0291311 0.00211021 0)
(-0.0298286 0.00195516 0)
(-0.0304716 0.00179304 0)
(-0.0310577 0.00162444 0)
(-0.0315849 0.00144997 0)
(-0.0320512 0.00127023 0)
(-0.0324549 0.00108583 0)
(-0.0327946 0.000897418 0)
(-0.033069 0.000705607 0)
(-0.033277 0.00051104 0)
(-0.0334179 0.000314366 0)
(-0.033491 0.00011624 0)
(-0.0334959 -8.26729e-05 0)
(-0.0334326 -0.000281701 0)
(-0.0333011 -0.000480162 0)
(-0.0331017 -0.000677368 0)
(-0.0328351 -0.000872621 0)
(-0.0325019 -0.00106522 0)
(-0.0321034 -0.00125445 0)
(-0.0316406 -0.00143961 0)
(-0.0311153 -0.00161996 0)
(-0.0305291 -0.00179479 0)
(-0.0298841 -0.00196338 0)
(-0.0291826 -0.002125 0)
(-0.028427 -0.00227892 0)
(-0.0276201 -0.00242445 0)
(-0.026765 -0.00256085 0)
(-0.0258648 -0.00268744 0)
(-0.024923 -0.00280351 0)
(-0.0239433 -0.00290841 0)
(-0.0229296 -0.00300146 0)
(-0.0218859 -0.00308204 0)
(-0.0208168 -0.00314954 0)
(-0.0197265 -0.00320337 0)
(-0.0186199 -0.00324299 0)
(-0.0175019 -0.00326788 0)
(-0.0163773 -0.00327759 0)
(-0.0152514 -0.00327169 0)
(-0.0141294 -0.00324983 0)
(-0.0130167 -0.00321171 0)
(-0.0119187 -0.00315709 0)
(-0.0108408 -0.00308583 0)
(-0.0097886 -0.00299787 0)
(-0.00876746 -0.00289326 0)
(-0.00778276 -0.00277216 0)
(-0.00683978 -0.00263487 0)
(-0.00594359 -0.00248186 0)
(-0.00509908 -0.0023138 0)
(-0.0043108 -0.00213158 0)
(-0.00358295 -0.00193639 0)
(-0.00291923 -0.00172976 0)
(-0.00232277 -0.00151366 0)
(-0.00179598 -0.00129061 0)
(-0.00134038 -0.00106381 0)
(-0.000956471 -0.000837353 0)
(-0.000643501 -0.000616414 0)
(-0.00039926 -0.000407592 0)
(-0.000219844 -0.000219262 0)
(-9.93955e-05 -6.20289e-05 0)
(-2.97887e-05 5.08262e-05 0)
(-1.73276e-07 0.000102772 0)
(3.09013e-06 7.18298e-05 0)
(-8.68227e-07 -6.15746e-05 0)
(-2.37348e-05 -5.28256e-05 0)
(-9.33073e-05 5.29288e-05 0)
(-0.000218338 0.000229662 0)
(-0.000407114 0.000457644 0)
(-0.000666455 0.000720931 0)
(-0.00100104 0.0010067 0)
(-0.00141371 0.00130477 0)
(-0.00190572 0.00160705 0)
(-0.00247695 0.00190717 0)
(-0.00312612 0.00220013 0)
(-0.00385091 0.00248202 0)
(-0.00464817 0.0027498 0)
(-0.00551408 0.00300114 0)
(-0.00644424 0.00323426 0)
(-0.00743379 0.00344786 0)
(-0.00847756 0.003641 0)
(-0.00957008 0.00381304 0)
(-0.0107057 0.00396357 0)
(-0.0118786 0.00409241 0)
(-0.0130831 0.00419952 0)
(-0.014313 0.00428501 0)
(-0.0155627 0.00434912 0)
(-0.0168263 0.00439215 0)
(-0.0180979 0.00441451 0)
(-0.019372 0.00441665 0)
(-0.0206429 0.00439911 0)
(-0.0219052 0.00436244 0)
(-0.0231536 0.00430724 0)
(-0.024383 0.00423417 0)
(-0.0255885 0.00414387 0)
(-0.0267652 0.00403705 0)
(-0.0279086 0.0039144 0)
(-0.0290143 0.00377666 0)
(-0.030078 0.00362456 0)
(-0.0310959 0.00345886 0)
(-0.0320641 0.00328033 0)
(-0.0329791 0.00308974 0)
(-0.0338376 0.00288787 0)
(-0.0346364 0.00267553 0)
(-0.0353727 0.00245352 0)
(-0.0360438 0.00222265 0)
(-0.0366473 0.00198375 0)
(-0.0371811 0.00173766 0)
(-0.0376432 0.00148522 0)
(-0.0380319 0.00122728 0)
(-0.0383458 0.000964704 0)
(-0.0385837 0.000698378 0)
(-0.0387447 0.000429186 0)
(-0.0388281 0.000158026 0)
(-0.0388335 -0.000114192 0)
(-0.0387607 -0.000386546 0)
(-0.0386098 -0.000658104 0)
(-0.0383813 -0.000927923 0)
(-0.0380757 -0.00119505 0)
(-0.0376941 -0.00145853 0)
(-0.0372375 -0.00171738 0)
(-0.0367075 -0.00197064 0)
(-0.0361059 -0.00221731 0)
(-0.0354346 -0.00245643 0)
(-0.034696 -0.00268699 0)
(-0.0338926 -0.00290802 0)
(-0.0330274 -0.00311854 0)
(-0.0321035 -0.00331756 0)
(-0.0311242 -0.00350414 0)
(-0.0300933 -0.0036773 0)
(-0.0290147 -0.00383613 0)
(-0.0278926 -0.00397971 0)
(-0.0267314 -0.00410716 0)
(-0.0255358 -0.00421761 0)
(-0.0243108 -0.00431024 0)
(-0.0230613 -0.00438429 0)
(-0.0217928 -0.00443902 0)
(-0.0205108 -0.00447374 0)
(-0.0192208 -0.00448786 0)
(-0.0179288 -0.00448081 0)
(-0.0166407 -0.00445214 0)
(-0.0153624 -0.00440145 0)
(-0.0141002 -0.00432848 0)
(-0.01286 -0.00423305 0)
(-0.0116482 -0.00411512 0)
(-0.0104707 -0.00397479 0)
(-0.00933349 -0.00381233 0)
(-0.00824254 -0.00362819 0)
(-0.00720347 -0.00342307 0)
(-0.00622167 -0.00319791 0)
(-0.0053022 -0.00295398 0)
(-0.00444968 -0.00269291 0)
(-0.00366822 -0.00241681 0)
(-0.00296126 -0.00212833 0)
(-0.00233151 -0.0018308 0)
(-0.00178075 -0.00152842 0)
(-0.00130969 -0.00122641 0)
(-0.000917824 -0.000931328 0)
(-0.000603211 -0.000651312 0)
(-0.000362325 -0.000396519 0)
(-0.000189798 -0.000179568 0)
(-7.81505e-05 -1.60061e-05 0)
(-1.82273e-05 7.50841e-05 0)
(8.70847e-09 6.86707e-05 0)
(-4.16138e-06 -4.57309e-05 0)
(-4.35457e-05 7.94203e-06 0)
(-0.000146865 0.000169846 0)
(-0.000318609 0.000411843 0)
(-0.000564852 0.000712183 0)
(-0.00089138 0.00105301 0)
(-0.00130204 0.00141974 0)
(-0.001799 0.00180057 0)
(-0.00238301 0.00218599 0)
(-0.00305352 0.00256838 0)
(-0.00380887 0.00294164 0)
(-0.00464638 0.00330094 0)
(-0.00556257 0.00364247 0)
(-0.00655322 0.00396324 0)
(-0.00761353 0.00426098 0)
(-0.00873824 0.00453396 0)
(-0.0099217 0.0047809 0)
(-0.011158 0.00500093 0)
(-0.0124409 0.00519346 0)
(-0.0137642 0.0053582 0)
(-0.0151214 0.00549505 0)
(-0.0165061 0.00560411 0)
(-0.0179118 0.00568561 0)
(-0.0193322 0.00573992 0)
(-0.0207607 0.00576753 0)
(-0.0221913 0.005769 0)
(-0.0236178 0.00574497 0)
(-0.025034 0.00569616 0)
(-0.0264343 0.00562333 0)
(-0.0278129 0.00552729 0)
(-0.0291642 0.00540888 0)
(-0.0304831 0.00526899 0)
(-0.0317644 0.00510853 0)
(-0.0330032 0.00492843 0)
(-0.0341949 0.00472965 0)
(-0.035335 0.00451316 0)
(-0.0364193 0.00427997 0)
(-0.037444 0.00403107 0)
(-0.0384052 0.00376749 0)
(-0.0392995 0.00349027 0)
(-0.0401238 0.00320044 0)
(-0.040875 0.00289909 0)
(-0.0415505 0.00258728 0)
(-0.0421479 0.0022661 0)
(-0.042665 0.00193666 0)
(-0.0430999 0.00160006 0)
(-0.0434511 0.00125745 0)
(-0.0437172 0.000909962 0)
(-0.0438971 0.000558757 0)
(-0.0439902 0.000205008 0)
(-0.043996 -0.000150098 0)
(-0.0439143 -0.000505358 0)
(-0.0437453 -0.000859558 0)
(-0.0434893 -0.00121147 0)
(-0.0431472 -0.00155985 0)
(-0.0427199 -0.00190345 0)
(-0.0422087 -0.002241 0)
(-0.0416154 -0.00257125 0)
(-0.040942 -0.0028929 0)
(-0.0401905 -0.00320469 0)
(-0.0393637 -0.00350534 0)
(-0.0384645 -0.00379356 0)
(-0.037496 -0.00406808 0)
(-0.0364616 -0.00432765 0)
(-0.0353653 -0.00457102 0)
(-0.0342111 -0.00479695 0)
(-0.0330034 -0.00500424 0)
(-0.0317468 -0.00519172 0)
(-0.0304462 -0.00535824 0)
(-0.0291069 -0.00550271 0)
(-0.0277342 -0.00562407 0)
(-0.0263339 -0.00572133 0)
(-0.0249119 -0.00579355 0)
(-0.0234741 -0.00583989 0)
(-0.0220269 -0.00585955 0)
(-0.0205768 -0.00585187 0)
(-0.0191301 -0.00581625 0)
(-0.0176937 -0.00575224 0)
(-0.0162742 -0.0056595 0)
(-0.0148783 -0.00553786 0)
(-0.0135127 -0.00538729 0)
(-0.0121842 -0.00520797 0)
(-0.0108994 -0.0050003 0)
(-0.00966453 -0.00476492 0)
(-0.00848589 -0.00450276 0)
(-0.00736934 -0.00421509 0)
(-0.00632038 -0.00390359 0)
(-0.00534406 -0.00357039 0)
(-0.00444487 -0.0032182 0)
(-0.00362661 -0.00285038 0)
(-0.00289232 -0.00247114 0)
(-0.0022441 -0.00208565 0)
(-0.00168301 -0.00170028 0)
(-0.00120891 -0.00132289 0)
(-0.00082033 -0.000963092 0)
(-0.000514325 -0.000632665 0)
(-0.000286273 -0.000346018 0)
(-0.000129618 -0.000120619 0)
(-3.72523e-05 2.24033e-05 0)
(-3.15411e-06 5.58468e-05 0)
(-7.41789e-06 -1.95916e-05 0)
(-6.36184e-05 9.58057e-05 0)
(-0.000201698 0.000327898 0)
(-0.00042177 0.000647181 0)
(-0.000727517 0.00103039 0)
(-0.0011235 0.00145814 0)
(-0.00161256 0.00191432 0)
(-0.00219602 0.00238574 0)
(-0.00287395 0.00286158 0)
(-0.00364526 0.00333305 0)
(-0.00450779 0.00379302 0)
(-0.00545846 0.00423575 0)
(-0.00649337 0.00465666 0)
(-0.00760789 0.00505213 0)
(-0.00879682 0.00541932 0)
(-0.0100545 0.00575608 0)
(-0.0113748 0.00606078 0)
(-0.0127514 0.00633228 0)
(-0.0141776 0.00656981 0)
(-0.0156466 0.00677292 0)
(-0.0171515 0.00694146 0)
(-0.0186854 0.00707547 0)
(-0.0202413 0.00717522 0)
(-0.0218122 0.00724112 0)
(-0.0233913 0.00727372 0)
(-0.0249717 0.0072737 0)
(-0.0265468 0.00724184 0)
(-0.02811 0.00717899 0)
(-0.029655 0.00708609 0)
(-0.0311756 0.00696412 0)
(-0.0326658 0.00681414 0)
(-0.0341198 0.00663722 0)
(-0.035532 0.00643451 0)
(-0.0368972 0.00620716 0)
(-0.0382103 0.00595637 0)
(-0.0394663 0.00568335 0)
(-0.0406607 0.00538934 0)
(-0.0417892 0.00507562 0)
(-0.0428478 0.00474345 0)
(-0.0438325 0.00439414 0)
(-0.0447401 0.00402901 0)
(-0.0455671 0.00364939 0)
(-0.0463107 0.00325664 0)
(-0.0469682 0.00285213 0)
(-0.0475374 0.00243724 0)
(-0.048016 0.00201338 0)
(-0.0484024 0.00158197 0)
(-0.0486952 0.00114445 0)
(-0.0488932 0.000702284 0)
(-0.0489956 0.000256939 0)
(-0.0490018 -0.000190086 0)
(-0.0489118 -0.000637282 0)
(-0.0487257 -0.00108312 0)
(-0.0484439 -0.00152606 0)
(-0.0480672 -0.00196453 0)
(-0.0475969 -0.00239698 0)
(-0.0470343 -0.00282181 0)
(-0.0463813 -0.00323743 0)
(-0.04564 -0.00364224 0)
(-0.0448129 -0.00403464 0)
(-0.0439028 -0.00441304 0)
(-0.0429129 -0.00477582 0)
(-0.0418466 -0.0051214 0)
(-0.0407079 -0.00544821 0)
(-0.0395008 -0.00575468 0)
(-0.0382298 -0.00603928 0)
(-0.0368996 -0.00630052 0)
(-0.0355154 -0.00653692 0)
(-0.0340826 -0.00674707 0)
(-0.0326067 -0.0069296 0)
(-0.0310937 -0.00708322 0)
(-0.0295498 -0.00720669 0)
(-0.0279814 -0.00729887 0)
(-0.026395 -0.0073587 0)
(-0.0247976 -0.00738524 0)
(-0.023196 -0.00737765 0)
(-0.0215974 -0.00733525 0)
(-0.020009 -0.00725748 0)
(-0.018438 -0.00714397 0)
(-0.0168918 -0.00699452 0)
(-0.0153775 -0.00680917 0)
(-0.0139025 -0.00658818 0)
(-0.0124738 -0.00633208 0)
(-0.0110984 -0.00604171 0)
(-0.00978283 -0.0057183 0)
(-0.00853351 -0.00536346 0)
(-0.00735637 -0.00497929 0)
(-0.00625688 -0.00456846 0)
(-0.00523993 -0.00413429 0)
(-0.00430971 -0.00368089 0)
(-0.00346965 -0.00321332 0)
(-0.00272225 -0.00273773 0)
(-0.00206901 -0.0022616 0)
(-0.0015103 -0.001794 0)
(-0.00104525 -0.00134591 0)
(-0.000671702 -0.000930553 0)
(-0.000385945 -0.000563874 0)
(-0.00018254 -0.000264923 0)
(-5.66119e-05 -5.63809e-05 0)
(-6.29398e-06 3.31075e-05 0)
(-1.05882e-05 1.68165e-05 0)
(-8.35798e-05 0.000211123 0)
(-0.00025675 0.000527941 0)
(-0.000525885 0.000936975 0)
(-0.000892221 0.00141389 0)
(-0.00135899 0.00193809 0)
(-0.00192789 0.00249225 0)
(-0.00259925 0.00306195 0)
(-0.00337237 0.00363523 0)
(-0.00424549 0.00420223 0)
(-0.0052159 0.00475487 0)
(-0.00627999 0.00528653 0)
(-0.00743339 0.00579191 0)
(-0.00867106 0.00626672 0)
(-0.00998736 0.00670761 0)
(-0.0113762 0.00711196 0)
(-0.012831 0.00747781 0)
(-0.014345 0.00780371 0)
(-0.0159111 0.0080887 0)
(-0.0175221 0.00833219 0)
(-0.0191705 0.00853392 0)
(-0.020849 0.0086939 0)
(-0.0225501 0.00881241 0)
(-0.0242662 0.0088899 0)
(-0.0259902 0.008927 0)
(-0.0277147 0.00892449 0)
(-0.0294325 0.00888329 0)
(-0.0311366 0.0088044 0)
(-0.0328202 0.00868894 0)
(-0.0344767 0.00853808 0)
(-0.0360995 0.00835309 0)
(-0.0376826 0.00813527 0)
(-0.0392198 0.00788599 0)
(-0.0407055 0.00760665 0)
(-0.0421341 0.00729871 0)
(-0.0435005 0.00696363 0)
(-0.0447997 0.00660292 0)
(-0.046027 0.00621813 0)
(-0.0471781 0.00581082 0)
(-0.0482488 0.00538258 0)
(-0.0492355 0.004935 0)
(-0.0501345 0.00446974 0)
(-0.0509429 0.00398844 0)
(-0.0516576 0.00349277 0)
(-0.0522761 0.00298443 0)
(-0.0527963 0.00246515 0)
(-0.0532163 0.00193666 0)
(-0.0535345 0.00140072 0)
(-0.0537497 0.000859116 0)
(-0.0538609 0.000313657 0)
(-0.0538678 -0.000233833 0)
(-0.05377 -0.000781506 0)
(-0.0535678 -0.00132749 0)
(-0.0532617 -0.00186991 0)
(-0.0528525 -0.00240686 0)
(-0.0523415 -0.0029364 0)
(-0.0517302 -0.00345663 0)
(-0.0510206 -0.00396558 0)
(-0.0502151 -0.00446132 0)
(-0.0493163 -0.00494188 0)
(-0.0483273 -0.00540532 0)
(-0.0472514 -0.00584969 0)
(-0.0460925 -0.00627306 0)
(-0.0448546 -0.00667351 0)
(-0.0435422 -0.00704915 0)
(-0.0421601 -0.00739811 0)
(-0.0407135 -0.00771858 0)
(-0.0392078 -0.00800878 0)
(-0.0376488 -0.008267 0)
(-0.0360426 -0.00849159 0)
(-0.0343955 -0.00868098 0)
(-0.0327142 -0.00883369 0)
(-0.0310056 -0.00894835 0)
(-0.0292768 -0.00902369 0)
(-0.027535 -0.00905859 0)
(-0.0257878 -0.00905207 0)
(-0.0240427 -0.0090033 0)
(-0.0223075 -0.00891167 0)
(-0.0205899 -0.00877675 0)
(-0.0188978 -0.00859835 0)
(-0.017239 -0.00837654 0)
(-0.0156211 -0.00811167 0)
(-0.0140518 -0.00780446 0)
(-0.0125383 -0.00745596 0)
(-0.011088 -0.00706767 0)
(-0.00970742 -0.00664158 0)
(-0.00840312 -0.00618024 0)
(-0.00718094 -0.00568686 0)
(-0.0060462 -0.00516539 0)
(-0.00500353 -0.00462068 0)
(-0.00405679 -0.00405861 0)
(-0.00320898 -0.00348628 0)
(-0.00246212 -0.00291222 0)
(-0.0018172 -0.00234664 0)
(-0.00127409 -0.00180171 0)
(-0.000831521 -0.00129194 0)
(-0.000486839 -0.000834568 0)
(-0.00023583 -0.000449884 0)
(-7.59171e-05 -0.000161707 0)
(-9.35727e-06 4.47988e-07 0)
(-1.36506e-05 6.33312e-05 0)
(-0.000103212 0.000353829 0)
(-0.00031135 0.00077019 0)
(-0.000629667 0.00128175 0)
(-0.00105697 0.00186346 0)
(-0.00159512 0.00249384 0)
(-0.00224459 0.00315457 0)
(-0.00300464 0.00383021 0)
(-0.00387369 0.00450782 0)
(-0.00484921 0.00517658 0)
(-0.00592786 0.00582752 0)
(-0.00710544 0.00645326 0)
(-0.00837709 0.00704775 0)
(-0.00973726 0.00760612 0)
(-0.0111799 0.00812447 0)
(-0.0126984 0.00859975 0)
(-0.0142858 0.00902964 0)
(-0.0159349 0.00941242 0)
(-0.0176382 0.0097469 0)
(-0.0193879 0.0100323 0)
(-0.0211763 0.0102684 0)
(-0.0229954 0.010455 0)
(-0.0248374 0.0105925 0)
(-0.0266944 0.0106813 0)
(-0.0285586 0.0107222 0)
(-0.0304222 0.010716 0)
(-0.0322777 0.0106638 0)
(-0.0341175 0.0105668 0)
(-0.0359345 0.0104262 0)
(-0.0377214 0.0102435 0)
(-0.0394716 0.01002 0)
(-0.0411784 0.00975749 0)
(-0.0428353 0.00945742 0)
(-0.0444363 0.00912148 0)
(-0.0459756 0.0087514 0)
(-0.0474475 0.00834892 0)
(-0.0488468 0.00791585 0)
(-0.0501685 0.00745402 0)
(-0.0514079 0.00696529 0)
(-0.0525607 0.00645156 0)
(-0.0536229 0.00591474 0)
(-0.0545907 0.00535679 0)
(-0.0554608 0.00477968 0)
(-0.0562301 0.00418542 0)
(-0.0568959 0.00357603 0)
(-0.0574558 0.00295357 0)
(-0.0579078 0.00232013 0)
(-0.0582503 0.0016778 0)
(-0.058482 0.00102873 0)
(-0.058602 0.000375073 0)
(-0.0586095 -0.00028099 0)
(-0.0585046 -0.000937248 0)
(-0.0582873 -0.00159147 0)
(-0.0579582 -0.0022414 0)
(-0.0575182 -0.00288476 0)
(-0.0569687 -0.00351927 0)
(-0.0563113 -0.00414262 0)
(-0.0555481 -0.00475249 0)
(-0.0546816 -0.00534655 0)
(-0.0537147 -0.00592248 0)
(-0.0526506 -0.00647795 0)
(-0.0514929 -0.00701064 0)
(-0.0502456 -0.00751826 0)
(-0.0489132 -0.00799851 0)