/*--------------------------------*- C++ -*----------------------------------*\
| =========                 |                                                 |
| \\      /  F ield         | OpenFOAM: The Open Source CFD Toolbox           |
|  \\    /   O peration     | Version:  2212                                  |
|   \\  /    A nd           | Website:  www.openfoam.com                      |
|    \\/     M anipulation  |                                                 |
\*---------------------------------------------------------------------------*/
FoamFile
{
    version     2.0;
    format      ascii;
    arch        "LSB;label=32;scalar=64";
    class       volVectorField;
    location    "0.0475";
    object      U_0;
}
// * * * * * * * * * * * * * * * * * * * * * * * * * * * * * * * * * * * * * //

dimensions      [0 1 -1 0 0 0 0];

internalField   nonuniform List<vector> 
10000
(
(2.8275e-06 -2.77258e-06 0)
(1.34945e-05 -6.84028e-06 0)
(3.00718e-05 -7.737e-06 0)
(4.5241e-05 -6.53681e-06 0)
(5.46617e-05 -4.23088e-06 0)
(5.62345e-05 -1.39053e-06 0)
(4.88839e-05 1.66702e-06 0)
(3.21408e-05 4.75768e-06 0)
(5.93483e-06 7.77707e-06 0)
(-2.95448e-05 1.06693e-05 0)
(-7.39482e-05 1.33996e-05 0)
(-0.000126819 1.59489e-05 0)
(-0.000187628 1.8306e-05 0)
(-0.000255801 2.04636e-05 0)
(-0.00033074 2.24222e-05 0)
(-0.000411826 2.41833e-05 0)
(-0.000498436 2.57473e-05 0)
(-0.000589945 2.7117e-05 0)
(-0.000685731 2.82973e-05 0)
(-0.000785183 2.92949e-05 0)
(-0.000887699 3.01134e-05 0)
(-0.000992687 3.07578e-05 0)
(-0.00109957 3.12332e-05 0)
(-0.0012078 3.15453e-05 0)
(-0.00131683 3.16998e-05 0)
(-0.00142612 3.17031e-05 0)
(-0.00153519 3.15608e-05 0)
(-0.00164353 3.12785e-05 0)
(-0.00175068 3.0862e-05 0)
(-0.00185618 3.03172e-05 0)
(-0.0019596 2.96504e-05 0)
(-0.00206054 2.88678e-05 0)
(-0.0021586 2.79744e-05 0)
(-0.0022534 2.69756e-05 0)
(-0.00234459 2.5877e-05 0)
(-0.00243183 2.46845e-05 0)
(-0.00251481 2.34041e-05 0)
(-0.00259323 2.20411e-05 0)
(-0.00266682 2.06016e-05 0)
(-0.00273531 1.9091e-05 0)
(-0.00279847 1.75145e-05 0)
(-0.00285608 1.58776e-05 0)
(-0.00290794 1.41858e-05 0)
(-0.00295387 1.24446e-05 0)
(-0.0029937 1.066e-05 0)
(-0.0030273 8.83707e-06 0)
(-0.00305453 6.98114e-06 0)
(-0.00307531 5.09862e-06 0)
(-0.00308955 3.19533e-06 0)
(-0.00309719 1.2772e-06 0)
(-0.00309819 -6.49474e-07 0)
(-0.00309253 -2.57907e-06 0)
(-0.0030802 -4.50579e-06 0)
(-0.00306125 -6.42325e-06 0)
(-0.0030357 -8.32522e-06 0)
(-0.00300363 -1.02052e-05 0)
(-0.00296514 -1.20561e-05 0)
(-0.00292033 -1.3871e-05 0)
(-0.00286934 -1.56431e-05 0)
(-0.00281234 -1.73656e-05 0)
(-0.0027495 -1.90321e-05 0)
(-0.00268105 -2.06354e-05 0)
(-0.00260721 -2.21678e-05 0)
(-0.00252824 -2.36221e-05 0)
(-0.00244443 -2.49913e-05 0)
(-0.00235608 -2.62681e-05 0)
(-0.00226353 -2.74449e-05 0)
(-0.00216713 -2.85152e-05 0)
(-0.00206726 -2.9472e-05 0)
(-0.00196433 -3.03078e-05 0)
(-0.00185876 -3.10151e-05 0)
(-0.00175101 -3.15873e-05 0)
(-0.00164155 -3.20179e-05 0)
(-0.00153088 -3.23005e-05 0)
(-0.0014195 -3.24295e-05 0)
(-0.00130796 -3.23991e-05 0)
(-0.00119679 -3.22033e-05 0)
(-0.00108658 -3.18361e-05 0)
(-0.000977912 -3.12919e-05 0)
(-0.000871377 -3.05665e-05 0)
(-0.000767588 -2.96559e-05 0)
(-0.000667166 -2.8557e-05 0)
(-0.000570735 -2.7267e-05 0)
(-0.000478925 -2.57838e-05 0)
(-0.000392365 -2.41056e-05 0)
(-0.000311681 -2.22315e-05 0)
(-0.000237488 -2.01623e-05 0)
(-0.000170386 -1.79006e-05 0)
(-0.000110947 -1.54515e-05 0)
(-5.97044e-05 -1.28237e-05 0)
(-1.71345e-05 -1.0032e-05 0)
(1.63655e-05 -7.10135e-06 0)
(4.05179e-05 -4.06751e-06 0)
(5.52201e-05 -9.93085e-07 0)
(6.06324e-05 2.01589e-06 0)
(5.73226e-05 4.77474e-06 0)
(4.64668e-05 6.96033e-06 0)
(3.02734e-05 7.9918e-06 0)
(1.32303e-05 6.86997e-06 0)
(2.63368e-06 2.63388e-06 0)
(7.02449e-06 -1.35412e-05 0)
(2.78067e-05 -2.75529e-05 0)
(5.48955e-05 -2.8687e-05 0)
(7.55162e-05 -2.10283e-05 0)
(8.13502e-05 -8.00768e-06 0)
(6.76381e-05 8.09291e-06 0)
(3.14937e-05 2.57699e-05 0)
(-2.86361e-05 4.40425e-05 0)
(-0.000113297 6.22709e-05 0)
(-0.000222333 8.0033e-05 0)
(-0.000355097 9.70515e-05 0)
(-0.000510587 0.000113141 0)
(-0.000687563 0.000128178 0)
(-0.00088461 0.000142081 0)
(-0.0011002 0.000154801 0)
(-0.00133273 0.000166312 0)
(-0.00158054 0.0001766 0)
(-0.00184197 0.000185666 0)
(-0.00211532 0.000193518 0)
(-0.00239892 0.000200175 0)
(-0.00269112 0.000205657 0)
(-0.00299027 0.000209991 0)
(-0.00329478 0.000213204 0)
(-0.00360308 0.000215328 0)
(-0.00391364 0.000216395 0)
(-0.00422498 0.000216439 0)
(-0.00453568 0.000215498 0)
(-0.00484434 0.000213606 0)
(-0.00514962 0.000210801 0)
(-0.00545025 0.00020712 0)
(-0.00574499 0.0002026 0)
(-0.00603267 0.000197281 0)
(-0.00631216 0.000191201 0)
(-0.00658239 0.000184398 0)
(-0.00684235 0.00017691 0)
(-0.00709108 0.000168775 0)
(-0.00732766 0.000160033 0)
(-0.00755126 0.00015072 0)
(-0.00776107 0.000140875 0)
(-0.00795635 0.000130538 0)
(-0.00813642 0.000119746 0)
(-0.00830065 0.000108537 0)
(-0.00844846 9.69495e-05 0)
(-0.00857934 8.50221e-05 0)
(-0.00869282 7.27943e-05 0)
(-0.00878851 6.03053e-05 0)
(-0.00886604 4.75942e-05 0)
(-0.00892514 3.47019e-05 0)
(-0.00896557 2.1669e-05 0)
(-0.00898716 8.53589e-06 0)
(-0.0089898 -4.65563e-06 0)
(-0.00897344 -1.78633e-05 0)
(-0.00893809 -3.10445e-05 0)
(-0.00888381 -4.41554e-05 0)
(-0.00881076 -5.71524e-05 0)
(-0.00871912 -6.99909e-05 0)
(-0.00860917 -8.26246e-05 0)
(-0.00848125 -9.50064e-05 0)
(-0.00833573 -0.00010709 0)
(-0.00817311 -0.000118829 0)
(-0.0079939 -0.000130176 0)
(-0.00779871 -0.000141081 0)
(-0.00758823 -0.000151498 0)
(-0.00736318 -0.000161376 0)
(-0.00712438 -0.000170667 0)
(-0.00687272 -0.000179323 0)
(-0.00660914 -0.000187294 0)
(-0.00633465 -0.000194535 0)
(-0.00605036 -0.000200997 0)
(-0.0057574 -0.000206634 0)
(-0.005457 -0.000211399 0)
(-0.00515044 -0.000215248 0)
(-0.00483904 -0.000218139 0)
(-0.00452422 -0.000220032 0)
(-0.00420742 -0.000220887 0)
(-0.00389016 -0.000220669 0)
(-0.00357398 -0.000219342 0)
(-0.00326047 -0.000216874 0)
(-0.00295128 -0.000213236 0)
(-0.00264807 -0.000208405 0)
(-0.00235253 -0.000202362 0)
(-0.00206637 -0.000195091 0)
(-0.00179133 -0.000186585 0)
(-0.0015291 -0.000176843 0)
(-0.0012814 -0.00016587 0)
(-0.00104991 -0.000153683 0)
(-0.000836239 -0.000140313 0)
(-0.000641955 -0.000125806 0)
(-0.000468505 -0.000110231 0)
(-0.000317197 -9.36916e-05 0)
(-0.00018914 -7.63316e-05 0)
(-8.5173e-05 -5.83604e-05 0)
(-5.75945e-06 -4.00745e-05 0)
(4.9153e-05 -2.19133e-05 0)
(8.0341e-05 -4.53101e-06 0)
(8.95932e-05 1.10821e-05 0)
(8.0038e-05 2.34208e-05 0)
(5.66688e-05 3.01879e-05 0)
(2.80067e-05 2.80029e-05 0)
(6.8626e-06 1.322e-05 0)
(7.98085e-06 -3.03649e-05 0)
(2.92637e-05 -5.48263e-05 0)
(5.253e-05 -5.17175e-05 0)
(6.25409e-05 -2.95952e-05 0)
(4.92579e-05 5.09746e-06 0)
(6.50732e-06 4.76125e-05 0)
(-6.97492e-05 9.45323e-05 0)
(-0.00018185 0.00014345 0)
(-0.000330796 0.000192677 0)
(-0.000516569 0.000241031 0)
(-0.000738399 0.000287684 0)
(-0.000994966 0.000332055 0)
(-0.00128453 0.000373737 0)
(-0.00160506 0.00041245 0)
(-0.00195431 0.000448007 0)
(-0.00232988 0.000480289 0)
(-0.00272928 0.000509231 0)
(-0.00314994 0.000534799 0)
(-0.00358928 0.000556999 0)
(-0.00404471 0.000575856 0)
(-0.00451364 0.000591412 0)
(-0.00499351 0.000603728 0)
(-0.00548181 0.000612872 0)
(-0.00597606 0.000618923 0)
(-0.00647387 0.000621965 0)
(-0.00697287 0.000622092 0)
(-0.0074708 0.000619397 0)
(-0.00796545 0.000613983 0)
(-0.00845468 0.000605949 0)
(-0.00893646 0.0005954 0)
(-0.00940881 0.000582443 0)
(-0.00986984 0.000567184 0)
(-0.0103178 0.000549732 0)
(-0.0107509 0.000530196 0)
(-0.0111675 0.000508686 0)
(-0.0115661 0.000485311 0)
(-0.0119453 0.000460179 0)
(-0.0123037 0.000433402 0)
(-0.0126399 0.00040509 0)
(-0.0129529 0.000375352 0)
(-0.0132415 0.0003443 0)
(-0.0135046 0.000312045 0)
(-0.0137414 0.000278698 0)
(-0.0139511 0.000244372 0)
(-0.0141329 0.00020918 0)
(-0.0142861 0.000173235 0)
(-0.0144102 0.000136655 0)
(-0.0145048 9.95534e-05 0)
(-0.0145694 6.20493e-05 0)
(-0.0146038 2.42612e-05 0)
(-0.0146078 -1.36901e-05 0)
(-0.0145813 -5.1682e-05 0)
(-0.0145244 -8.95908e-05 0)
(-0.0144372 -0.000127291 0)
(-0.0143199 -0.000164653 0)
(-0.0141728 -0.000201549 0)
(-0.0139964 -0.000237848 0)
(-0.0137912 -0.000273415 0)
(-0.0135578 -0.000308116 0)
(-0.0132971 -0.000341816 0)
(-0.0130098 -0.000374379 0)
(-0.012697 -0.000405666 0)
(-0.0123597 -0.000435538 0)
(-0.0119991 -0.000463856 0)
(-0.0116166 -0.000490482 0)
(-0.0112135 -0.000515276 0)
(-0.0107914 -0.000538104 0)
(-0.0103518 -0.000558828 0)
(-0.00989661 -0.000577316 0)
(-0.00942757 -0.000593435 0)
(-0.00894664 -0.000607057 0)
(-0.00845586 -0.000618059 0)
(-0.00795737 -0.000626321 0)
(-0.00745338 -0.000631732 0)
(-0.00694621 -0.000634184 0)
(-0.00643823 -0.000633577 0)
(-0.00593192 -0.000629819 0)
(-0.00542978 -0.000622826 0)
(-0.00493439 -0.000612526 0)
(-0.00444837 -0.00059886 0)
(-0.00397437 -0.000581785 0)
(-0.00351507 -0.000561271 0)
(-0.00307313 -0.000537311 0)
(-0.00265122 -0.000509918 0)
(-0.00225195 -0.000479133 0)
(-0.00187788 -0.000445032 0)
(-0.00153146 -0.000407732 0)
(-0.00121502 -0.000367403 0)
(-0.000930678 -0.000324288 0)
(-0.000680316 -0.000278723 0)
(-0.000465468 -0.000231171 0)
(-0.000287224 -0.000182267 0)
(-0.000146079 -0.000132889 0)
(-4.17489e-05 -8.42617e-05 0)
(2.709e-05 -3.81033e-05 0)
(6.31214e-05 3.16303e-06 0)
(7.07068e-05 3.6128e-05 0)
(5.63297e-05 5.6072e-05 0)
(3.03065e-05 5.66904e-05 0)
(8.00184e-06 3.02658e-05 0)
(6.79777e-06 -4.59569e-05 0)
(2.18682e-05 -7.59876e-05 0)
(3.11305e-05 -6.19463e-05 0)
(1.91832e-05 -1.73461e-05 0)
(-2.44812e-05 4.81556e-05 0)
(-0.000106687 0.000127188 0)
(-0.00023203 0.000214216 0)
(-0.000403293 0.000305154 0)
(-0.000621748 0.000397018 0)
(-0.000887477 0.00048763 0)
(-0.00119964 0.000575402 0)
(-0.00155669 0.000659186 0)
(-0.00195652 0.000738152 0)
(-0.00239664 0.000811706 0)
(-0.00287421 0.000879437 0)
(-0.00338621 0.000941066 0)
(-0.00392944 0.000996424 0)
(-0.0045006 0.00104542 0)
(-0.00509633 0.00108801 0)
(-0.00571325 0.00112424 0)
(-0.00634795 0.00115415 0)
(-0.00699708 0.00117785 0)
(-0.0076573 0.00119544 0)
(-0.00832534 0.00120706 0)
(-0.008998 0.00121287 0)
(-0.00967215 0.00121304 0)
(-0.0103447 0.00120774 0)
(-0.0110128 0.00119716 0)
(-0.0116735 0.00118149 0)
(-0.0123241 0.00116092 0)
(-0.012962 0.00113567 0)
(-0.0135845 0.00110593 0)
(-0.0141893 0.00107192 0)
(-0.0147741 0.00103384 0)
(-0.0153367 0.000991904 0)
(-0.0158749 0.000946327 0)
(-0.0163869 0.000897321 0)
(-0.0168707 0.000845098 0)
(-0.0173247 0.000789875 0)
(-0.0177472 0.000731867 0)
(-0.0181367 0.00067129 0)
(-0.018492 0.000608363 0)
(-0.0188116 0.000543303 0)
(-0.0190946 0.00047633 0)
(-0.0193398 0.000407668 0)
(-0.0195465 0.00033754 0)
(-0.0197139 0.000266171 0)
(-0.0198413 0.00019379 0)
(-0.0199283 0.000120628 0)
(-0.0199745 4.69187e-05 0)
(-0.0199797 -2.71025e-05 0)
(-0.0199437 -0.000101196 0)
(-0.0198666 -0.000175117 0)
(-0.0197486 -0.00024862 0)
(-0.01959 -0.000321456 0)
(-0.0193912 -0.00039337 0)
(-0.0191528 -0.000464108 0)
(-0.0188756 -0.000533408 0)
(-0.0185604 -0.00060101 0)
(-0.0182083 -0.000666649 0)
(-0.0178204 -0.000730058 0)
(-0.0173981 -0.000790972 0)
(-0.0169428 -0.000849119 0)
(-0.0164561 -0.000904231 0)
(-0.0159398 -0.000956038 0)
(-0.0153958 -0.00100428 0)
(-0.0148262 -0.00104868 0)
(-0.0142331 -0.00108898 0)
(-0.0136189 -0.00112493 0)
(-0.0129861 -0.00115628 0)
(-0.0123372 -0.00118278 0)
(-0.011675 -0.00120418 0)
(-0.0110024 -0.00122028 0)
(-0.0103223 -0.00123085 0)
(-0.00963785 -0.00123569 0)
(-0.00895217 -0.00123462 0)
(-0.00826855 -0.00122746 0)
(-0.00759035 -0.00121407 0)
(-0.00692099 -0.00119432 0)
(-0.00626393 -0.00116811 0)
(-0.00562267 -0.00113536 0)
(-0.00500072 -0.00109605 0)
(-0.00440159 -0.00105018 0)
(-0.00382874 -0.000997789 0)
(-0.00328557 -0.000939 0)
(-0.00277539 -0.000873989 0)
(-0.00230132 -0.000803021 0)
(-0.00186632 -0.00072647 0)
(-0.00147304 -0.000644851 0)
(-0.00112381 -0.000558857 0)
(-0.00082046 -0.000469418 0)
(-0.000564256 -0.000377779 0)
(-0.000355704 -0.000285613 0)
(-0.000194347 -0.00019517 0)
(-7.85154e-05 -0.000109484 0)
(-5.01894e-06 -3.26558e-05 0)
(3.11373e-05 2.98004e-05 0)
(3.71385e-05 7.06013e-05 0)
(2.38558e-05 8.0333e-05 0)
(7.03172e-06 4.65677e-05 0)
(4.53187e-06 -5.5918e-05 0)
(9.16396e-06 -8.27648e-05 0)
(-2.72307e-06 -4.94466e-05 0)
(-4.48744e-05 2.60184e-05 0)
(-0.000127302 0.000130871 0)
(-0.000256908 0.000255218 0)
(-0.000438416 0.000391411 0)
(-0.000674714 0.000533643 0)
(-0.00096715 0.000677538 0)
(-0.0013158 0.000819797 0)
(-0.00171974 0.000957952 0)
(-0.0021772 0.00109016 0)
(-0.0026858 0.00121507 0)
(-0.00324264 0.00133167 0)
(-0.00384443 0.00143924 0)
(-0.00448762 0.0015373 0)
(-0.00516841 0.00162551 0)
(-0.00588289 0.00170367 0)
(-0.00662702 0.0017717 0)
(-0.00739673 0.0018296 0)
(-0.00818793 0.00187743 0)
(-0.00899653 0.0019153 0)
(-0.00981849 0.0019434 0)
(-0.0106498 0.0019619 0)
(-0.0114866 0.00197106 0)
(-0.012325 0.00197111 0)
(-0.0131612 0.00196234 0)
(-0.0139917 0.00194503 0)
(-0.0148129 0.00191949 0)
(-0.0156215 0.00188603 0)
(-0.0164141 0.00184497 0)
(-0.0171876 0.00179663 0)
(-0.0179391 0.00174136 0)
(-0.0186657 0.00167949 0)
(-0.0193646 0.00161135 0)
(-0.0200332 0.00153729 0)
(-0.0206692 0.00145766 0)
(-0.0212702 0.0013728 0)
(-0.0218341 0.00128305 0)
(-0.0223588 0.00118879 0)
(-0.0228427 0.00109034 0)
(-0.0232838 0.000988068 0)
(-0.0236807 0.000882333 0)
(-0.024032 0.00077349 0)
(-0.0243365 0.000661902 0)
(-0.024593 0.000547934 0)
(-0.0248007 0.000431954 0)
(-0.0249588 0.000314335 0)
(-0.0250666 0.000195452 0)
(-0.0251237 7.56884e-05 0)
(-0.0251298 -4.45714e-05 0)
(-0.0250848 -0.000164936 0)
(-0.0249888 -0.00028501 0)
(-0.024842 -0.000404393 0)
(-0.0246448 -0.000522677 0)
(-0.0243976 -0.000639452 0)
(-0.0241014 -0.0007543 0)
(-0.0237569 -0.0008668 0)
(-0.0233653 -0.000976528 0)
(-0.0229279 -0.00108306 0)
(-0.0224461 -0.00118595 0)
(-0.0219216 -0.00128478 0)
(-0.0213562 -0.00137911 0)
(-0.0207518 -0.00146851 0)
(-0.0201107 -0.00155254 0)
(-0.0194353 -0.00163078 0)
(-0.018728 -0.00170279 0)
(-0.0179916 -0.00176816 0)
(-0.017229 -0.00182647 0)
(-0.0164432 -0.00187733 0)
(-0.0156375 -0.00192034 0)
(-0.0148151 -0.00195513 0)
(-0.0139798 -0.00198134 0)
(-0.013135 -0.00199863 0)
(-0.0122846 -0.00200668 0)
(-0.0114325 -0.00200521 0)
(-0.0105826 -0.00199395 0)
(-0.00973919 -0.00197268 0)
(-0.0089063 -0.00194121 0)
(-0.0080882 -0.0018994 0)
(-0.00728911 -0.00184715 0)
(-0.00651331 -0.00178443 0)
(-0.00576501 -0.00171128 0)
(-0.00504839 -0.00162782 0)
(-0.00436752 -0.00153426 0)
(-0.00372632 -0.00143093 0)
(-0.00312852 -0.0013183 0)
(-0.00257757 -0.00119703 0)
(-0.00207658 -0.00106799 0)
(-0.00162822 -0.000932322 0)
(-0.00123459 -0.000791548 0)
(-0.000897123 -0.000647651 0)
(-0.000616361 -0.000503226 0)
(-0.000391801 -0.000361672 0)
(-0.000221645 -0.000227439 0)
(-0.000102536 -0.000106357 0)
(-2.92992e-05 -6.02552e-06 0)
(5.39987e-06 6.37885e-05 0)
(1.20427e-05 9.06536e-05 0)
(4.95455e-06 5.77551e-05 0)
(1.76877e-06 -5.82156e-05 0)
(-6.52835e-06 -7.04424e-05 0)
(-4.43091e-05 -8.04967e-06 0)
(-0.000122435 0.000107324 0)
(-0.000249693 0.000260179 0)
(-0.000432638 0.000438292 0)
(-0.00067575 0.000632032 0)
(-0.000981742 0.000833911 0)
(-0.00135184 0.00103814 0)
(-0.00178599 0.00124026 0)
(-0.0022831 0.00143685 0)
(-0.00284119 0.0016253 0)
(-0.00345759 0.00180364 0)
(-0.00412907 0.00197039 0)
(-0.00485193 0.00212447 0)
(-0.00562215 0.0022651 0)
(-0.00643546 0.00239175 0)
(-0.00728737 0.00250408 0)
(-0.00817329 0.00260191 0)
(-0.00908854 0.0026852 0)
(-0.0100284 0.002754 0)
(-0.0109882 0.00280845 0)
(-0.0119632 0.00284876 0)
(-0.0129488 0.00287519 0)
(-0.0139404 0.00288806 0)
(-0.0149335 0.00288771 0)
(-0.0159238 0.00287452 0)
(-0.0169071 0.00284891 0)
(-0.0178792 0.0028113 0)
(-0.0188362 0.00276214 0)
(-0.0197742 0.00270188 0)
(-0.0206895 0.00263101 0)
(-0.0215786 0.00254999 0)
(-0.0224381 0.00245932 0)
(-0.0232648 0.00235948 0)
(-0.0240557 0.00225098 0)
(-0.0248079 0.00213432 0)
(-0.0255187 0.00201001 0)
(-0.0261856 0.00187855 0)
(-0.0268061 0.00174046 0)
(-0.0273782 0.00159625 0)
(-0.0278997 0.00144644 0)
(-0.028369 0.00129156 0)
(-0.0287843 0.00113214 0)
(-0.0291441 0.00096869 0)
(-0.0294473 0.000801764 0)
(-0.0296927 0.000631899 0)
(-0.0298793 0.000459641 0)
(-0.0300066 0.000285544 0)
(-0.0300739 0.000110167 0)
(-0.0300809 -6.59245e-05 0)
(-0.0300275 -0.000242155 0)
(-0.0299137 -0.000417946 0)
(-0.0297399 -0.000592709 0)
(-0.0295065 -0.000765847 0)
(-0.0292141 -0.000936759 0)
(-0.0288636 -0.00110484 0)
(-0.0284562 -0.00126946 0)
(-0.0279931 -0.00143001 0)
(-0.0274759 -0.00158587 0)
(-0.0269062 -0.0017364 0)
(-0.026286 -0.00188097 0)
(-0.0256174 -0.00201895 0)
(-0.0249029 -0.00214971 0)
(-0.0241449 -0.00227262 0)
(-0.0233463 -0.00238705 0)
(-0.0225101 -0.00249238 0)
(-0.0216394 -0.00258802 0)
(-0.0207377 -0.00267337 0)
(-0.0198086 -0.00274783 0)
(-0.0188557 -0.00281086 0)
(-0.0178831 -0.00286192 0)
(-0.0168949 -0.00290049 0)
(-0.0158953 -0.00292608 0)
(-0.0148888 -0.00293826 0)
(-0.01388 -0.00293661 0)
(-0.0128735 -0.00292078 0)
(-0.011874 -0.00289045 0)
(-0.0108865 -0.00284537 0)
(-0.00991577 -0.00278535 0)
(-0.00896678 -0.00271031 0)
(-0.00804443 -0.00262021 0)
(-0.00715358 -0.00251515 0)
(-0.00629903 -0.00239533 0)
(-0.00548541 -0.00226112 0)
(-0.00471721 -0.00211304 0)
(-0.00399865 -0.00195182 0)
(-0.00333363 -0.00177846 0)
(-0.00272565 -0.00159425 0)
(-0.0021777 -0.00140089 0)
(-0.00169213 -0.00120055 0)
(-0.00127056 -0.000996038 0)
(-0.000913653 -0.000790951 0)
(-0.000621005 -0.000589887 0)
(-0.00039089 -0.00039873 0)
(-0.00022007 -0.000224996 0)
(-0.000103549 -7.82628e-05 0)
(-3.42778e-05 2.94055e-05 0)
(-2.87433e-06 8.28708e-05 0)
(2.34458e-06 6.17296e-05 0)
(-1.18387e-06 -5.18285e-05 0)
(-2.37756e-05 -3.61347e-05 0)
(-9.03909e-05 6.63592e-05 0)
(-0.000208321 0.00023136 0)
(-0.000384636 0.000441078 0)
(-0.000625196 0.00068127 0)
(-0.000933952 0.000940504 0)
(-0.00131321 0.00120972 0)
(-0.00176387 0.00148176 0)
(-0.00228565 0.00175103 0)
(-0.00287717 0.00201311 0)
(-0.00353621 0.00226461 0)
(-0.00425981 0.00250288 0)
(-0.00504438 0.00272593 0)
(-0.00588588 0.00293225 0)
(-0.00677988 0.00312074 0)
(-0.00772163 0.00329062 0)
(-0.0087062 0.0034414 0)
(-0.00972846 0.00357276 0)
(-0.0107832 0.0036846 0)
(-0.0118652 0.00377694 0)
(-0.0129692 0.00384994 0)
(-0.0140898 0.00390382 0)
(-0.0152219 0.00393894 0)
(-0.0163604 0.00395566 0)
(-0.0175002 0.00395446 0)
(-0.0186363 0.00393583 0)
(-0.0197641 0.00390029 0)
(-0.0208787 0.00384843 0)
(-0.0219757 0.00378083 0)
(-0.0230508 0.00369811 0)
(-0.0240997 0.0036009 0)
(-0.0251185 0.00348984 0)
(-0.0261032 0.00336561 0)
(-0.0270503 0.00322886 0)
(-0.0279562 0.00308027 0)
(-0.0288178 0.00292053 0)
(-0.0296318 0.00275032 0)
(-0.0303955 0.00257034 0)
(-0.031106 0.0023813 0)
(-0.031761 0.00218389 0)
(-0.0323582 0.00197882 0)
(-0.0328954 0.00176682 0)
(-0.0333708 0.00154859 0)
(-0.0337827 0.00132489 0)
(-0.0341296 0.00109642 0)
(-0.0344104 0.000863949 0)
(-0.0346239 0.000628212 0)
(-0.0347694 0.000389971 0)
(-0.0348463 0.000149993 0)
(-0.0348541 -9.0946e-05 0)
(-0.0347928 -0.000332062 0)
(-0.0346624 -0.000572558 0)
(-0.0344633 -0.000811629 0)
(-0.0341959 -0.00104846 0)
(-0.033861 -0.00128223 0)
(-0.0334597 -0.00151211 0)
(-0.0329932 -0.00173725 0)
(-0.0324629 -0.00195681 0)
(-0.0318707 -0.00216993 0)
(-0.0312184 -0.00237576 0)
(-0.0305084 -0.00257344 0)
(-0.029743 -0.0027621 0)
(-0.0289249 -0.0029409 0)
(-0.0280571 -0.00310896 0)
(-0.0271428 -0.00326546 0)
(-0.0261853 -0.00340955 0)
(-0.0251883 -0.0035404 0)
(-0.0241557 -0.00365723 0)
(-0.0230915 -0.00375923 0)
(-0.022 -0.00384567 0)
(-0.0208856 -0.00391581 0)
(-0.0197531 -0.00396898 0)
(-0.0186074 -0.00400452 0)
(-0.0174533 -0.00402185 0)
(-0.0162961 -0.00402043 0)
(-0.015141 -0.00399978 0)
(-0.0139933 -0.00395952 0)
(-0.0128586 -0.00389932 0)
(-0.0117424 -0.00381897 0)
(-0.0106501 -0.00371837 0)
(-0.0095872 -0.00359751 0)
(-0.00855921 -0.00345658 0)
(-0.00757142 -0.00329589 0)
(-0.00662901 -0.00311598 0)
(-0.00573694 -0.0029176 0)
(-0.00489987 -0.00270181 0)
(-0.00412213 -0.00246997 0)
(-0.00340756 -0.00222387 0)
(-0.00275948 -0.0019658 0)
(-0.00218051 -0.00169866 0)
(-0.0016725 -0.0014261 0)
(-0.00123634 -0.00115276 0)
(-0.000871854 -0.000884422 0)
(-0.000577573 -0.000628369 0)
(-0.000350619 -0.000393706 0)
(-0.000186463 -0.000191814 0)
(-7.86736e-05 -3.67794e-05 0)
(-1.94592e-05 5.39914e-05 0)
(-4.87416e-07 5.73945e-05 0)
(-4.16737e-06 -3.62844e-05 0)
(-4.16975e-05 2.18139e-05 0)
(-0.000138811 0.000176392 0)
(-0.000298915 0.000401322 0)
(-0.000527068 0.000677044 0)
(-0.000828184 0.000987617 0)
(-0.00120546 0.00132004 0)
(-0.0016606 0.00166384 0)
(-0.00219404 0.00201059 0)
(-0.00280508 0.00235357 0)
(-0.00349205 0.00268744 0)
(-0.00425236 0.00300796 0)
(-0.00508274 0.00331183 0)
(-0.00597927 0.00359649 0)
(-0.00693754 0.00385999 0)
(-0.00795272 0.00410088 0)
(-0.00901967 0.00431809 0)
(-0.010133 0.00451093 0)
(-0.0112871 0.00467896 0)
(-0.0124764 0.00482197 0)
(-0.0136951 0.00493996 0)
(-0.0149373 0.00503305 0)
(-0.0161973 0.00510154 0)
(-0.0174695 0.00514581 0)
(-0.018748 0.00516633 0)
(-0.0200275 0.00516367 0)
(-0.0213023 0.00513843 0)
(-0.0225673 0.0050913 0)
(-0.0238173 0.00502299 0)
(-0.0250471 0.00493426 0)
(-0.0262521 0.00482589 0)
(-0.0274276 0.00469869 0)
(-0.028569 0.00455349 0)
(-0.0296722 0.00439114 0)
(-0.030733 0.00421251 0)
(-0.0317477 0.00401847 0)
(-0.0327125 0.0038099 0)
(-0.033624 0.0035877 0)
(-0.0344791 0.00335278 0)
(-0.0352746 0.00310604 0)
(-0.0360079 0.00284841 0)
(-0.0366763 0.00258081 0)
(-0.0372776 0.00230417 0)
(-0.0378097 0.00201943 0)
(-0.0382707 0.00172755 0)
(-0.0386589 0.00142948 0)
(-0.0389731 0.00112619 0)
(-0.039212 0.000818669 0)
(-0.0393747 0.000507894 0)
(-0.0394606 0.00019487 0)
(-0.0394693 -0.00011939 0)
(-0.0394006 -0.000433862 0)
(-0.0392546 -0.000747508 0)
(-0.0390316 -0.00105928 0)
(-0.0387322 -0.00136811 0)
(-0.0383574 -0.00167294 0)
(-0.0379082 -0.00197267 0)
(-0.037386 -0.00226622 0)
(-0.0367926 -0.00255248 0)
(-0.0361297 -0.00283035 0)
(-0.0353997 -0.0030987 0)
(-0.034605 -0.00335643 0)
(-0.0337483 -0.00360242 0)
(-0.0328326 -0.00383556 0)
(-0.0318612 -0.00405474 0)
(-0.0308376 -0.00425887 0)
(-0.0297656 -0.00444686 0)
(-0.0286492 -0.00461767 0)
(-0.0274928 -0.00477024 0)
(-0.0263008 -0.00490359 0)
(-0.025078 -0.00501673 0)
(-0.0238293 -0.00510874 0)
(-0.02256 -0.00517876 0)
(-0.0212753 -0.00522596 0)
(-0.0199809 -0.00524959 0)
(-0.0186823 -0.00524898 0)
(-0.0173855 -0.00522354 0)
(-0.0160963 -0.00517278 0)
(-0.0148207 -0.00509633 0)
(-0.0135648 -0.00499395 0)
(-0.0123346 -0.00486551 0)
(-0.0111362 -0.0047111 0)
(-0.00997539 -0.00453096 0)
(-0.00885814 -0.00432556 0)
(-0.00779006 -0.00409563 0)
(-0.00677654 -0.0038422 0)
(-0.00582268 -0.00356666 0)
(-0.00493317 -0.0032708 0)
(-0.00411223 -0.00295693 0)
(-0.0033635 -0.00262796 0)
(-0.00268991 -0.00228754 0)
(-0.00209362 -0.00194021 0)
(-0.00157584 -0.0015916 0)
(-0.00113673 -0.00124866 0)
(-0.000775254 -0.00091997 0)
(-0.000489091 -0.000616096 0)
(-0.000274398 -0.000350004 0)
(-0.000125605 -0.000137488 0)
(-3.6811e-05 2.25328e-06 0)
(-3.372e-06 4.42187e-05 0)
(-7.10116e-06 -1.14532e-05 0)
(-5.97627e-05 0.0001042 0)
(-0.000188161 0.000323498 0)
(-0.000391744 0.000619166 0)
(-0.000673407 0.000970328 0)
(-0.00103696 0.00135968 0)
(-0.00148469 0.00177292 0)
(-0.00201753 0.00219829 0)
(-0.00263531 0.00262626 0)
(-0.00333685 0.00304905 0)
(-0.00412002 0.00346041 0)
(-0.00498187 0.00385533 0)
(-0.00591874 0.00422982 0)
(-0.00692635 0.00458076 0)
(-0.00799992 0.00490573 0)
(-0.00913424 0.0052029 0)
(-0.0103238 0.00547094 0)
(-0.0115627 0.00570891 0)
(-0.0128451 0.00591621 0)
(-0.0141648 0.00609255 0)
(-0.0155156 0.00623785 0)
(-0.0168912 0.00635225 0)
(-0.0182854 0.00643604 0)
(-0.0196921 0.00648967 0)
(-0.021105 0.0065137 0)
(-0.0225181 0.00650879 0)
(-0.0239256 0.0064757 0)
(-0.0253217 0.00641522 0)
(-0.0267006 0.00632825 0)
(-0.0280571 0.00621571 0)
(-0.0293858 0.00607856 0)
(-0.0306816 0.00591781 0)
(-0.0319397 0.00573449 0)
(-0.0331554 0.00552965 0)
(-0.0343243 0.00530438 0)
(-0.0354421 0.00505975 0)
(-0.0365049 0.00479689 0)
(-0.0375089 0.00451691 0)
(-0.0384506 0.00422094 0)
(-0.0393267 0.00391013 0)
(-0.0401341 0.00358562 0)
(-0.0408701 0.00324859 0)
(-0.0415322 0.00290021 0)
(-0.042118 0.00254166 0)
(-0.0426254 0.00217413 0)
(-0.0430528 0.00179884 0)
(-0.0433987 0.001417 0)
(-0.0436616 0.00102984 0)
(-0.0438407 0.000638616 0)
(-0.0439353 0.00024458 0)
(-0.0439448 -0.000150993 0)
(-0.0438692 -0.000546813 0)
(-0.0437085 -0.000941576 0)
(-0.0434631 -0.00133396 0)
(-0.0431336 -0.00172264 0)
(-0.0427211 -0.00210626 0)
(-0.0422267 -0.00248346 0)
(-0.041652 -0.00285288 0)
(-0.0409988 -0.00321312 0)
(-0.0402693 -0.0035628 0)
(-0.0394657 -0.00390053 0)
(-0.0385909 -0.0042249 0)
(-0.0376477 -0.00453453 0)
(-0.0366396 -0.00482801 0)
(-0.03557 -0.00510398 0)
(-0.0344428 -0.00536107 0)
(-0.0332622 -0.00559792 0)
(-0.0320325 -0.00581323 0)
(-0.0307585 -0.00600569 0)
(-0.029445 -0.00617407 0)
(-0.0280972 -0.00631717 0)
(-0.0267206 -0.00643384 0)
(-0.0253207 -0.006523 0)
(-0.0239034 -0.00658364 0)
(-0.0224748 -0.00661486 0)
(-0.0210409 -0.00661584 0)
(-0.0196081 -0.00658585 0)
(-0.0181828 -0.00652434 0)
(-0.0167715 -0.00643085 0)
(-0.0153808 -0.00630512 0)
(-0.0140172 -0.00614705 0)
(-0.0126871 -0.00595677 0)
(-0.0113971 -0.00573462 0)
(-0.0101534 -0.00548125 0)
(-0.00896207 -0.00519761 0)
(-0.00782897 -0.00488502 0)
(-0.00675959 -0.00454521 0)
(-0.005759 -0.00418045 0)
(-0.00483178 -0.00379358 0)
(-0.00398194 -0.00338814 0)
(-0.00321278 -0.00296854 0)
(-0.00252682 -0.00254018 0)
(-0.00192568 -0.00210965 0)
(-0.00140997 -0.001685 0)
(-0.000979238 -0.00127602 0)
(-0.000631856 -0.000894542 0)
(-0.000364834 -0.000554902 0)
(-0.000173629 -0.000274278 0)
(-5.43768e-05 -7.3224e-05 0)
(-6.22027e-06 2.2027e-05 0)
(-9.94331e-06 2.25989e-05 0)
(-7.76619e-05 0.000211249 0)
(-0.000237542 0.000508327 0)
(-0.000485145 0.000885922 0)
(-0.000821171 0.00132224 0)
(-0.00124824 0.00179893 0)
(-0.00176758 0.0023006 0)
(-0.00237928 0.00281445 0)
(-0.00308245 0.00332991 0)
(-0.0038753 0.00383829 0)
(-0.00475521 0.00433247 0)
(-0.00571876 0.00480669 0)
(-0.00676187 0.00525633 0)
(-0.00787988 0.0056777 0)
(-0.00906761 0.00606791 0)
(-0.0103195 0.00642476 0)
(-0.0116295 0.00674661 0)
(-0.0129916 0.00703229 0)
(-0.0143992 0.00728104 0)
(-0.015846 0.00749244 0)
(-0.0173252 0.00766636 0)
(-0.0188301 0.00780292 0)
(-0.0203541 0.00790242 0)
(-0.0218907 0.00796537 0)
(-0.0234331 0.00799242 0)
(-0.0249749 0.00798433 0)
(-0.0265099 0.00794198 0)
(-0.0280317 0.00786634 0)
(-0.0295344 0.00775845 0)
(-0.0310121 0.00761941 0)
(-0.0324592 0.0074504 0)
(-0.0338701 0.00725262 0)
(-0.0352396 0.00702731 0)
(-0.0365627 0.00677575 0)
(-0.0378347 0.00649924 0)
(-0.0390509 0.00619911 0)
(-0.0402071 0.0058767 0)
(-0.0412992 0.00553339 0)
(-0.0423234 0.00517055 0)
(-0.0432762 0.00478958 0)
(-0.0441542 0.00439187 0)
(-0.0449545 0.00397887 0)
(-0.0456744 0.00355199 0)
(-0.0463113 0.0031127 0)
(-0.046863 0.00266244 0)
(-0.0473277 0.0022027 0)
(-0.0477037 0.00173497 0)
(-0.0479897 0.00126075 0)
(-0.0481845 0.000781577 0)
(-0.0482874 0.000298982 0)
(-0.0482979 -0.000185473 0)
(-0.0482158 -0.000670212 0)
(-0.0480413 -0.00115364 0)
(-0.0477748 -0.00163415 0)
(-0.0474169 -0.0021101 0)
(-0.0469687 -0.00257985 0)
(-0.0464315 -0.00304175 0)
(-0.045807 -0.00349411 0)
(-0.0450972 -0.00393526 0)
(-0.0443044 -0.00436349 0)
(-0.043431 -0.00477711 0)
(-0.0424801 -0.00517441 0)
(-0.0414548 -0.00555371 0)
(-0.0403588 -0.0059133 0)
(-0.0391958 -0.00625151 0)
(-0.03797 -0.00656668 0)
(-0.0366858 -0.00685718 0)
(-0.0353481 -0.00712141 0)
(-0.0339617 -0.00735781 0)
(-0.0325321 -0.00756487 0)
(-0.0310648 -0.00774114 0)
(-0.0295657 -0.00788526 0)
(-0.0280406 -0.00799591 0)
(-0.026496 -0.00807191 0)
(-0.0249383 -0.00811215 0)
(-0.0233741 -0.00811567 0)
(-0.0218101 -0.00808163 0)
(-0.0202533 -0.00800936 0)
(-0.0187106 -0.00789836 0)
(-0.017189 -0.00774833 0)
(-0.0156955 -0.00755921 0)
(-0.0142371 -0.00733118 0)
(-0.0128206 -0.00706471 0)
(-0.0114528 -0.00676061 0)
(-0.0101401 -0.00642007 0)
(-0.00888882 -0.00604471 0)
(-0.00770485 -0.00563665 0)
(-0.00659365 -0.00519862 0)
(-0.0055602 -0.004734 0)
(-0.00460889 -0.00424697 0)
(-0.00374344 -0.00374267 0)
(-0.0029668 -0.00322732 0)
(-0.00228108 -0.00270844 0)
(-0.00168747 -0.00219509 0)
(-0.00118617 -0.00169811 0)
(-0.000776381 -0.00123047 0)
(-0.00045607 -0.000807642 0)
(-0.00022181 -0.00044789 0)
(-7.18255e-05 -0.000172738 0)
(-8.98771e-06 -9.14442e-06 0)
(-1.26778e-05 6.56938e-05 0)
(-9.5216e-05 0.000342831 0)
(-0.000286397 0.000730978 0)
(-0.000578045 0.00120196 0)
(-0.000968689 0.00173338 0)
(-0.00145971 0.00230613 0)
(-0.00205127 0.00290395 0)
(-0.00274246 0.00351315 0)
(-0.00353162 0.00412228 0)
(-0.00441629 0.00472181 0)
(-0.00539324 0.00530388 0)
(-0.00645856 0.00586201 0)
(-0.0076077 0.00639095 0)
(-0.00883555 0.00688651 0)
(-0.0101365 0.00734533 0)
(-0.0115046 0.00776483 0)
(-0.0129336 0.00814307 0)
(-0.0144167 0.00847865 0)
(-0.0159473 0.00877063 0)
(-0.0175184 0.00901848 0)
(-0.0191229 0.00922199 0)
(-0.0207538 0.00938126 0)
(-0.0224041 0.00949662 0)
(-0.0240667 0.00956862 0)
(-0.0257346 0.00959799 0)
(-0.0274009 0.00958562 0)
(-0.029059 0.00953251 0)
(-0.0307022 0.00943978 0)
(-0.0323241 0.00930866 0)
(-0.0339185 0.00914045 0)
(-0.0354793 0.00893651 0)
(-0.0370008 0.00869825 0)
(-0.0384773 0.00842717 0)
(-0.0399034 0.00812475 0)
(-0.0412742 0.00779256 0)
(-0.0425847 0.00743217 0)
(-0.0438303 0.00704517 0)
(-0.0450067 0.00663321 0)
(-0.0461099 0.00619791 0)
(-0.047136 0.00574095 0)
(-0.0480816 0.005264 0)
(-0.0489434 0.00476877 0)
(-0.0497185 0.00425697 0)
(-0.0504044 0.00373033 0)
(-0.0509985 0.00319059 0)
(-0.0514989 0.00263953 0)
(-0.0519038 0.00207893 0)
(-0.0522118 0.00151059 0)
(-0.0524218 0.000936333 0)
(-0.0525328 0.000358006 0)
(-0.0525444 -0.000222528 0)
(-0.0524564 -0.000803385 0)
(-0.052269 -0.00138266 0)
(-0.0519824 -0.00195842 0)
(-0.0515976 -0.00252873 0)
(-0.0511156 -0.00309161 0)
(-0.0505378 -0.00364509 0)
(-0.049866 -0.00418716 0)
(-0.0491024 -0.00471582 0)
(-0.0482492 -0.00522904 0)
(-0.0473094 -0.0057248 0)
(-0.0462859 -0.00620107 0)
(-0.0451823 -0.00665583 0)