/*--------------------------------*- C++ -*----------------------------------*\
| =========                 |                                                 |
| \\      /  F ield         | OpenFOAM: The Open Source CFD Toolbox           |
|  \\    /   O peration     | Version:  2212                                  |
|   \\  /    A nd           | Website:  www.openfoam.com                      |
|    \\/     M anipulation  |                                                 |
\*---------------------------------------------------------------------------*/
FoamFile
{
    version     2.0;
    format      ascii;
    arch        "LSB;label=32;scalar=64";
    class       volScalarField;
    location    "0.008";
    object      p;
}
// * * * * * * * * * * * * * * * * * * * * * * * * * * * * * * * * * * * * * //

dimensions      [0 2 -2 0 0 0 0];

internalField   nonuniform List<scalar> 
10000
(
-2.07324e-07
-4.89521e-05
-0.000378682
-0.000974668
-0.00174361
-0.00259805
-0.00347362
-0.004321
-0.00510533
-0.00580219
-0.0063933
-0.00686301
-0.00719801
-0.00738887
-0.00743098
-0.00732232
-0.00706068
-0.00664431
-0.0060728
-0.0053482
-0.00447443
-0.00345474
-0.0022899
-0.000980319
0.000471872
0.00206184
0.00378287
0.00562803
0.00759173
0.00966972
0.0118581
0.0141527
0.0165486
0.0190404
0.021623
0.0242907
0.0270383
0.0298611
0.0327544
0.0357146
0.0387375
0.0418188
0.044954
0.0481375
0.0513637
0.054627
0.057921
0.0612397
0.0645777
0.0679288
0.071287
0.074646
0.0779995
0.0813414
0.0846659
0.0879668
0.0912384
0.0944753
0.0976717
0.100821
0.103919
0.106958
0.109934
0.112841
0.115675
0.11843
0.121102
0.123686
0.126175
0.128565
0.130849
0.133021
0.135074
0.137003
0.138801
0.140464
0.141988
0.143369
0.144604
0.14569
0.146623
0.1474
0.148018
0.148477
0.148778
0.148923
0.148915
0.148759
0.148464
0.148036
0.147488
0.146833
0.146093
0.145296
0.144476
0.143675
0.142949
0.142369
0.142018
0.141943
0.000118602
4.39843e-05
-0.000251602
-0.000749406
-0.00137686
-0.00207197
-0.00278654
-0.00348174
-0.00412643
-0.00469697
-0.00517589
-0.0055492
-0.00580408
-0.00593029
-0.00592078
-0.00577154
-0.00548077
-0.00504662
-0.0044672
-0.00374251
-0.00287422
-0.00186509
-0.000717722
0.000566479
0.00198632
0.00353919
0.00522059
0.0070247
0.00894546
0.0109776
0.0131167
0.0153587
0.0176995
0.0201345
0.0226589
0.0252673
0.0279543
0.0307149
0.0335446
0.0364396
0.0393966
0.0424119
0.0454806
0.0485973
0.0517561
0.0549508
0.058176
0.061426
0.0646948
0.0679769
0.0712661
0.0745557
0.07784
0.0811131
0.0843685
0.0875998
0.090802
0.0939694
0.0970961
0.100177
0.103206
0.106177
0.109086
0.111928
0.114699
0.117392
0.120003
0.122528
0.124961
0.127297
0.12953
0.131653
0.13366
0.135546
0.137306
0.138934
0.140429
0.141786
0.143
0.144072
0.144997
0.145775
0.146402
0.146879
0.14721
0.147397
0.147443
0.147355
0.14714
0.146808
0.146369
0.145838
0.145236
0.144587
0.143923
0.143279
0.142697
0.142229
0.141936
0.141861
0.000509571
0.000354924
3.71552e-05
-0.000426856
-0.000982564
-0.00158406
-0.00219626
-0.00278982
-0.0033384
-0.00382
-0.0042177
-0.00451849
-0.00471178
-0.00478752
-0.00473716
-0.00455557
-0.00424026
-0.00378979
-0.00320287
-0.00247778
-0.00161413
-0.000613263
0.000522078
0.00178928
0.00318644
0.00471173
0.00636218
0.00813327
0.0100195
0.0120152
0.0141158
0.0163167
0.0186143
0.0210047
0.023483
0.0260445
0.0286836
0.0313951
0.0341749
0.0370188
0.0399237
0.0428865
0.0459022
0.0489651
0.0520696
0.0552094
0.058379
0.0615739
0.064788
0.068015
0.0712494
0.0744846
0.0777139
0.0809316
0.0841317
0.0873072
0.0904526
0.0935634
0.0966338
0.0996581
0.102632
0.105549
0.108406
0.111197
0.113917
0.116562
0.119126
0.121605
0.123993
0.126286
0.128478
0.130563
0.132535
0.134389
0.13612
0.137723
0.139195
0.140533
0.141733
0.142794
0.143714
0.144492
0.145129
0.145624
0.145981
0.146203
0.146293
0.146256
0.146102
0.145838
0.145477
0.145033
0.144524
0.143974
0.143406
0.142852
0.142345
0.141923
0.14163
0.141496
0.00109707
0.000820316
0.00044351
-2.46127e-05
-0.000553582
-0.0011078
-0.00166071
-0.00218941
-0.00267383
-0.00309483
-0.00343563
-0.00368388
-0.00382997
-0.0038653
-0.00378247
-0.0035753
-0.00323995
-0.00277496
-0.00217969
-0.00145294
-0.0005935
0.000399146
0.00152404
0.00277873
0.00416047
0.00566661
0.0072939
0.00903846
0.0108959
0.0128613
0.0149302
0.0170983
0.0193617
0.0217164
0.0241578
0.0266809
0.0292808
0.0319524
0.0346914
0.0374943
0.0403573
0.043277
0.0462491
0.0492673
0.0523263
0.0554208
0.058545
0.0616943
0.0648635
0.0680463
0.071236
0.0744267
0.0776116
0.0807841
0.0839375
0.0870663
0.0901649
0.093228
0.0962509
0.0992287
0.102157
0.10503
0.107844
0.110594
0.113274
0.11588
0.118405
0.120846
0.123199
0.125457
0.127616
0.12967
0.131615
0.133444
0.135153
0.136737
0.138192
0.139515
0.140704
0.141757
0.142675
0.143457
0.144103
0.144615
0.144995
0.145245
0.145369
0.145372
0.145262
0.145048
0.144742
0.144356
0.143908
0.143417
0.142903
0.142391
0.141908
0.141484
0.141142
0.140896
0.00180683
0.00138816
0.000935095
0.000442859
-8.29267e-05
-0.000616641
-0.00113581
-0.00162253
-0.0020612
-0.0024366
-0.00273456
-0.00294262
-0.00305105
-0.0030527
-0.0029416
-0.00271241
-0.00236073
-0.00188377
-0.00128023
-0.000549949
0.000307855
0.00129409
0.002409
0.00365158
0.00501963
0.00650987
0.00811831
0.00984082
0.0116734
0.0136119
0.0156525
0.0177914
0.0200247
0.0223483
0.0247575
0.027247
0.029812
0.0324479
0.0351504
0.0379167
0.0407428
0.0436243
0.046557
0.0495353
0.0525536
0.055607
0.0586911
0.0618005
0.0649294
0.0680725
0.0712232
0.0743744
0.0775192
0.0806512
0.0837633
0.0868496
0.0899053
0.092926
0.0959067
0.0988425
0.10173
0.104564
0.107341
0.110054
0.112698
0.115269
0.117762
0.12017
0.122491
0.124719
0.12685
0.128878
0.130799
0.132607
0.134297
0.135864
0.137304
0.138615
0.139795
0.140843
0.14176
0.142546
0.143202
0.14373
0.14413
0.144404
0.144556
0.14459
0.144515
0.144341
0.144076
0.143734
0.143328
0.142874
0.142389
0.141892
0.141405
0.140953
0.140535
0.140145
0.00259119
0.00202201
0.0014809
0.000948362
0.000406543
-0.000126163
-0.000632515
-0.0010972
-0.00150719
-0.0018509
-0.00211709
-0.00229502
-0.00237537
-0.00235088
-0.00221646
-0.00196831
-0.0016028
-0.00111667
-0.000507407
0.000226033
0.00108403
0.00206697
0.00317498
0.00440764
0.00576337
0.00723923
0.00883136
0.0105354
0.0123472
0.0142631
0.0162795
0.0183931
0.0206004
0.0228968
0.025278
0.0277386
0.0302733
0.032878
0.035549
0.0382828
0.0410762
0.0439248
0.046823
0.049766
0.0527492
0.0557674
0.0588161
0.0618908
0.0649855
0.0680938
0.0712097
0.0743265
0.0774364
0.080532
0.0836075
0.0866571
0.0896757
0.0926588
0.0956024
0.0985023
0.101354
0.104155
0.106898
0.109579
0.112193
0.114734
0.117198
0.119579
0.121873
0.124077
0.126183
0.128189
0.130089
0.131879
0.133552
0.135104
0.136531
0.137832
0.139005
0.140051
0.140969
0.14176
0.142425
0.142966
0.143381
0.143674
0.143847
0.143906
0.143859
0.143714
0.14348
0.143168
0.142787
0.142352
0.141876
0.141374
0.140864
0.140365
0.139853
0.139307
0.00340513
0.00268596
0.00204988
0.00146317
0.000889809
0.000342358
-0.000166158
-0.000624279
-0.00102103
-0.0013462
-0.00159102
-0.0017472
-0.00180697
-0.00176361
-0.0016119
-0.00134842
-0.00097082
-0.000476456
0.000137234
0.000872497
0.0017304
0.00271134
0.00381519
0.00504116
0.00638748
0.00785133
0.00942937
0.0111176
0.012912
0.0148092
0.0168059
0.0188988
0.0210845
0.0233583
0.0257154
0.0281512
0.0306603
0.0332385
0.0358828
0.0385896
0.041355
0.0441751
0.0470447
0.0499582
0.0529116
0.0559006
0.0589202
0.0619652
0.0650305
0.0681098
0.0711963
0.0742828
0.0773621
0.080427
0.0834712
0.0864894
0.0894766
0.0924286
0.0953414
0.0982108
0.101033
0.103804
0.10652
0.109173
0.11176
0.114277
0.116717
0.119076
0.121349
0.123532
0.12562
0.127607
0.129489
0.131262
0.13292
0.134459
0.135876
0.13717
0.13834
0.139386
0.140306
0.141101
0.141773
0.142322
0.142749
0.143055
0.143245
0.143323
0.143296
0.143172
0.142958
0.142662
0.142293
0.141862
0.141379
0.140857
0.14031
0.13975
0.139138
0.138434
0.00420849
0.00334465
0.00261201
0.00196354
0.00134672
0.000772279
0.000250298
-0.00021217
-0.000606649
-0.000924374
-0.00115749
-0.00129948
-0.00134472
-0.00128788
-0.00112415
-0.000849932
-0.000462946
3.8823e-05
0.000657322
0.00139465
0.00225253
0.00323192
0.00433278
0.005554
0.00689347
0.00834822
0.00991491
0.0115902
0.0133703
0.0152522
0.0172332
0.0193097
0.0214778
0.0237334
0.0260709
0.0284855
0.0309732
0.0335297
0.0361518
0.0388365
0.0415795
0.0443762
0.047222
0.0501122
0.0530422
0.0560073
0.0590031
0.0620243
0.0650652
0.0681198
0.0711813
0.0742426
0.0772962
0.0803351
0.0833535
0.0863462
0.0893083
0.0922351
0.095123
0.0979679
0.100766
0.103513
0.106204
0.108835
0.111401
0.113897
0.11632
0.118662
0.120919
0.123086
0.125159
0.12713
0.128997
0.130756
0.132401
0.13393
0.13534
0.136631
0.1378
0.138846
0.139768
0.140567
0.141243
0.141797
0.142232
0.142548
0.142749
0.142841
0.142829
0.142718
0.142514
0.142223
0.141854
0.141415
0.140914
0.140361
0.139767
0.13914
0.138424
0.137568
0.00496826
0.00396743
0.00314006
0.0024267
0.00176003
0.00114983
0.000605016
0.000130028
-0.000269899
-0.000587956
-0.000817364
-0.000952512
-0.00098885
-0.000922676
-0.000750575
-0.000469248
-7.59153e-05
0.000431301
0.00105424
0.00179447
0.00265359
0.00363261
0.00473159
0.0059493
0.00728359
0.00873154
0.0102896
0.0119547
0.013724
0.0155943
0.0175631
0.019627
0.0217816
0.0240225
0.0263446
0.0287425
0.0312126
0.0337518
0.0363568
0.0390238
0.041749
0.044528
0.0473558
0.0502279
0.0531401
0.0560875
0.0590648
0.0620667
0.0650883
0.0681233
0.0711646
0.0742051
0.077238
0.0802564
0.0832548
0.086228
0.0891708
0.0920787
0.0949478
0.0977739
0.100553
0.10328
0.105953
0.108566
0.111116
0.113598
0.116008
0.118338
0.120583
0.122739
0.124799
0.126759
0.128614
0.130361
0.131997
0.133519
0.134926
0.136216
0.137385
0.138431
0.139354
0.140154
0.140834
0.141392
0.141831
0.142154
0.142365
0.142466
0.142461
0.142355
0.142152
0.141859
0.141481
0.141026
0.140499
0.139907
0.139259
0.138562
0.137744
0.136746
0.0056606
0.00453081
0.00361142
0.00283265
0.002114
0.00146298
0.000888643
0.000394106
-1.73446e-05
-0.000341243
-0.000572784
-0.000707115
-0.000740147
-0.000669081
-0.000491575
-0.000205238
0.000192404
0.000703485
0.00132985
0.00207308
0.00293448
0.00391464
0.00501325
0.00622902
0.00755973
0.00900272
0.0105547
0.0122125
0.0139741
0.0158366
0.0177967
0.0198514
0.0219963
0.024226
0.0265358
0.0289214
0.0313788
0.0339049
0.0364971
0.0391516
0.041864
0.0446302
0.0474456
0.0503055
0.0532052
0.0561397
0.0591037
0.0620919
0.0650992
0.0681194
0.0711453
0.0741702
0.0771877
0.0801913
0.0831755
0.0861351
0.0890646
0.0919595
0.0948158
0.0976288
0.100394
0.103108
0.105768
0.108369
0.110907
0.11338
0.115781
0.118103
0.120341
0.122488
0.124541
0.126492
0.128338
0.130078
0.131708
0.133227
0.134633
0.135922
0.137091
0.138137
0.13906
0.139862
0.140543
0.141105
0.141548
0.141875
0.14209
0.142195
0.142192
0.142085
0.141877
0.141575
0.141183
0.140706
0.140147
0.139511
0.138807
0.138038
0.137124
0.135993
0.00626729
0.00501759
0.00400953
0.00316579
0.00239418
0.00170058
0.00109297
0.000573754
0.00014538
-0.000189313
-0.000427147
-0.000564859
-0.000599227
-0.000527594
-0.000347946
-5.85678e-05
0.00034218
0.00085644
0.00148591
0.00223216
0.00309636
0.00407868
0.00517827
0.00639379
0.00772287
0.00916275
0.0107109
0.0123646
0.0141213
0.0159791
0.0179345
0.0199833
0.0221214
0.0243437
0.0266453
0.0290222
0.0314713
0.0339895
0.0365736
0.03922
0.0419246
0.0446834
0.0474918
0.0503446
0.0532369
0.0561636
0.0591195
0.0620992
0.0650973
0.0681079
0.0711237
0.0741384
0.077146
0.0801403
0.0831158
0.0860673
0.0889892
0.0918767
0.0947257
0.0975313
0.100289
0.102995
0.105647
0.108241
0.110774
0.113241
0.115637
0.117954
0.120187
0.122331
0.124378
0.126325
0.128167
0.129904
0.131533
0.13305
0.134455
0.135743
0.136911
0.137957
0.13888
0.139683
0.140367
0.140931
0.141377
0.141707
0.141922
0.142026
0.14202
0.141906
0.14169
0.141376
0.140965
0.140462
0.139868
0.139186
0.138425
0.137587
0.136582
0.13533
0.00677281
0.00541356
0.00432227
0.00341432
0.00258924
0.0018522
0.00120976
0.000663003
0.000213472
-0.000136482
-0.000384586
-0.000529051
-0.000567891
-0.000498832
-0.000319967
-2.97898e-05
0.000372979
0.000889939
0.00152274
0.00227254
0.00314001
0.00412522
0.00522697
0.00644356
0.00777285
0.00921195
0.0107586
0.0124108
0.0141663
0.0160222
0.0179756
0.0200222
0.022157
0.0243752
0.0266726
0.0290456
0.0314911
0.034006
0.0365869
0.0392303
0.0419323
0.0446888
0.0474951
0.0503458
0.0532357
0.0561596
0.0591126
0.0620889
0.0650832
0.0680893
0.0711003
0.0741104
0.0771136
0.0801038
0.0830755
0.0860239
0.0889433
0.0918286
0.0946756
0.0974793
0.100235
0.102939
0.105589
0.108182
0.110712
0.113177
0.115571
0.117887
0.120118
0.122261
0.124308
0.126255
0.128098
0.129835
0.131465
0.132983
0.134387
0.135674
0.136842
0.137888
0.138813
0.139618
0.140304
0.140871
0.141318
0.141646
0.141859
0.141958
0.141947
0.141826
0.141599
0.141268
0.140836
0.140303
0.139672
0.138944
0.138126
0.137223
0.136132
0.13477
0.00716476
0.00570664
0.00453836
0.0035689
0.00269077
0.00190937
0.00123099
0.000655089
0.000182061
-0.000186503
-0.000448763
-0.000603283
-0.000649033
-0.000584657
-0.000408546
-0.000119296
0.000284479
0.00080374
0.00143991
0.00219378
0.00306522
0.00405401
0.00515909
0.00637815
0.00770901
0.00914962
0.0106977
0.0123511
0.0141081
0.0159655
0.01792
0.0199671
0.0221022
0.0243205
0.0266183
0.0289922
0.0314389
0.0339553
0.036538
0.0391837
0.0418882
0.0446475
0.0474565
0.0503099
0.0532021
0.0561285
0.0590837
0.062062
0.0650577
0.0680648
0.0710766
0.0740874
0.0770914
0.0800823
0.083055
0.0860049
0.0889265
0.0918145
0.0946648
0.0974719
0.100231
0.102939
0.105592
0.108188
0.110721
0.113187
0.115582
0.1179
0.120134
0.12228
0.124331
0.126282
0.128129
0.129871
0.131503
0.133023
0.134428
0.135716
0.136885
0.137934
0.138862
0.13967
0.140359
0.140926
0.141372
0.141697
0.141906
0.142001
0.141982
0.141851
0.141611
0.141262
0.140806
0.140242
0.139573
0.138798
0.137925
0.136958
0.135789
0.134327
0.00743516
0.00588682
0.00464755
0.00362068
0.00269119
0.00186537
0.00114982
0.000543348
4.53976e-05
-0.000343786
-0.000622904
-0.000790386
-0.000845451
-0.000787478
-0.000615382
-0.00032796
7.60883e-05
0.000597582
0.00123705
0.00199504
0.00287126
0.00386456
0.00497369
0.00619673
0.00753124
0.00897533
0.0105273
0.0121851
0.0139464
0.0158082
0.0177668
0.0198178
0.0219567
0.0241796
0.0264824
0.0288621
0.0313151
0.0338381
0.0364278
0.0390808
0.0417931
0.0445599
0.0473764
0.0502372
0.0531369
0.0560708
0.0590336
0.0620191
0.0650217
0.0680355
0.0710536
0.0740705
0.0770803
0.0800768
0.0830553
0.0860115
0.0889401
0.0918358
0.0946944
0.0975103
0.100278
0.102995
0.105657
0.10826
0.110799
0.113271
0.115672
0.117995
0.120236
0.122389
0.124449
0.126408
0.128263
0.130011
0.131649
0.133173
0.134582
0.135873
0.137046
0.138099
0.139031
0.139843
0.140533
0.1411
0.141543
0.141866
0.142071
0.14216
0.142134
0.141992
0.141735
0.141366
0.140884
0.140289
0.139581
0.13876
0.137834
0.136807
0.135564
0.134011
0.007579
0.00594739
0.00464201
0.00356098
0.00258275
0.00171357
0.000960376
0.000321925
-0.00020256
-0.000613618
-0.000910951
-0.00109326
-0.00115958
-0.00110949
-0.000942315
-0.000657078
-0.00025311
0.000270491
0.000913616
0.00167593
0.00255717
0.00355602
0.00467047
0.00589871
0.0072389
0.00868911
0.0102476
0.0119123
0.0136807
0.0155497
0.0175155
0.0195738
0.0217207
0.0239523
0.026265
0.0286552
0.0311193
0.033654
0.0362559
0.0389214
0.0416462
0.0444254
0.0472542
0.0501273
0.0530397
0.0559865
0.0589621
0.0619603
0.0649755
0.0680016
0.0710318
0.0740602
0.0770811
0.0800885
0.0830779
0.0860455
0.0889862
0.0918947
0.0947666
0.0975963
0.100378
0.103109
0.105784
0.108399
0.110949
0.113431
0.115842
0.118176
0.120427
0.122592
0.124663
0.126633
0.128499
0.130256
0.131902
0.133433
0.134849
0.136147
0.137326
0.138385
0.139321
0.140135
0.140826
0.141392
0.141833
0.142154
0.142356
0.14244
0.142405
0.142249
0.141975
0.141584
0.141075
0.140448
0.139702
0.138836
0.137859
0.136774
0.135464
0.133827
0.00759204
0.00588372
0.00451583
0.00338303
0.0023581
0.00144695
0.000656632
-1.4572e-05
-0.000567053
-0.00100114
-0.00131751
-0.00151557
-0.00159412
-0.00155274
-0.00139109
-0.00110833
-0.000704138
-0.000178542
0.00046831
0.00123575
0.0021227
0.00312769
0.00424877
0.00548413
0.00683212
0.00829088
0.00985842
0.0115326
0.0133109
0.0151899
0.0171659
0.0192352
0.0213941
0.023639
0.025966
0.0283713
0.0308513
0.0334027
0.0360217
0.0387045
0.0414465
0.0442428
0.0470889
0.0499797
0.0529101
0.055875
0.0588689
0.0618852
0.0649187
0.0679629
0.0710106
0.074056
0.0770936
0.0801175
0.0831235
0.086108
0.089066
0.0919922
0.0948821
0.0977302
0.100531
0.10328
0.105972
0.108603
0.111169
0.113667
0.116093
0.118442
0.120708
0.122887
0.124971
0.126955
0.128833
0.130602
0.132259
0.133801
0.135227
0.136535
0.137722
0.138787
0.139727
0.140543
0.141235
0.141801
0.142242
0.142562
0.142761
0.142839
0.142793
0.142623
0.14233
0.141917
0.141381
0.140722
0.139938
0.139029
0.138003
0.136865
0.135491
0.133779
0.00746974
0.00569055
0.00426409
0.00308168
0.00201108
0.0010588
0.000232144
-0.000471473
-0.00105263
-0.00151087
-0.00184686
-0.00206095
-0.00215224
-0.00211976
-0.0019634
-0.00168322
-0.00127883
-0.000750743
-9.9681e-05
0.000673367
0.00156687
0.00257911
0.00370836
0.00495289
0.00631094
0.00778059
0.00935982
0.0110462
0.0128369
0.0147288
0.0167184
0.0188026
0.0209777
0.0232399
0.0255854
0.0280103
0.0305109
0.0330838
0.0357246
0.0384293
0.0411932
0.0440117
0.0468802
0.0497939
0.0527475
0.0557358
0.0587532
0.0617931
0.0648501
0.0679178
0.0709886
0.0740567
0.0771166
0.0801629
0.0831915
0.0861985
0.0891788
0.0921273
0.0950397
0.0979104
0.100733
0.103505
0.106219
0.108872
0.111459
0.113978
0.116425
0.118793
0.121077
0.123272
0.125373
0.127371
0.129265
0.131049
0.132721
0.134277
0.135716
0.137036
0.138233
0.139305
0.14025
0.141069
0.141763
0.142331
0.142774
0.143093
0.143289
0.143359
0.143302
0.143116
0.142806
0.14237
0.141807
0.141116
0.140294
0.139343
0.13827
0.137081
0.135648
0.133866
0.00720745
0.00536272
0.00388142
0.00265149
0.00153654
0.000543517
-0.000319171
-0.00105444
-0.00166378
-0.0021466
-0.00250281
-0.00273281
-0.00283646
-0.00281292
-0.00266179
-0.00238361
-0.00197876
-0.00144777
-0.000791832
-1.25561e-05
0.00088843
0.00190943
0.0030487
0.00430448
0.00567491
0.00715796
0.00875139
0.0104526
0.0122586
0.0141666
0.0161736
0.0182766
0.0204718
0.0227555
0.0251238
0.0275728
0.0300986
0.0326974
0.0353646
0.0380957
0.0408864
0.0437321
0.0466283
0.0495701
0.0525518
0.0555686
0.0586145
0.0616831
0.0647687
0.0678649
0.0709641
0.0740605
0.0771488
0.0802237
0.0832807
0.0863158
0.0893234
0.092299
0.0952385
0.0981361
0.100986
0.103784
0.106526
0.109206
0.11182
0.114365
0.116837
0.119228
0.121534
0.123749
0.125868
0.127886
0.129798
0.131601
0.133291
0.134865
0.136319
0.137652
0.138861
0.139941
0.140893
0.141718
0.142418
0.14299
0.143435
0.143753
0.143944
0.144005
0.143936
0.143736
0.143406
0.142948
0.142358
0.141634
0.140775
0.139782
0.138664
0.137427
0.13594
0.134091
0.00680228
0.00489615
0.00336247
0.00208702
0.000929455
-0.000103555
-0.00100202
-0.00176843
-0.0024052
-0.00291198
-0.00328827
-0.00353414
-0.00364962
-0.00363443
-0.00348845
-0.00321194
-0.00280599
-0.00227159
-0.00161026
-0.000823909
8.5788e-05
0.0011172
0.00226847
0.0035377
0.00492294
0.00642194
0.0080322
0.00975096
0.0115756
0.0135034
0.0155318
0.0176576
0.019877
0.0221863
0.0245817
0.0270593
0.0296148
0.0322438
0.0349417
0.037704
0.0405265
0.0434045
0.0463336
0.0493084
0.0523233
0.0553732
0.0584526
0.0615547
0.0646738
0.0678034
0.0709364
0.074067
0.07719
0.0802995
0.0833909
0.0864595
0.0895
0.0925078
0.0954792
0.0984086
0.10129
0.10412
0.106894
0.109607
0.112254
0.114831
0.117332
0.11975
0.122081
0.12432
0.126463
0.128503
0.130437
0.132262
0.133974
0.135567
0.137039
0.138387
0.139608
0.1407
0.141662
0.142497
0.143204
0.143781
0.144228
0.144543
0.144728
0.144781
0.1447
0.144485
0.144137
0.143655
0.143037
0.14228
0.141385
0.140351
0.13919
0.137907
0.136367
0.134457
0.00625264
0.00428783
0.00270336
0.00138359
0.000185204
-0.000886262
-0.00182009
-0.00261723
-0.00328055
-0.00381047
-0.00420622
-0.00446753
-0.00459447
-0.00458717
-0.00444577
-0.00417073
-0.00376323
-0.00322491
-0.00255759
-0.00176309
-0.000843172
0.000200404
0.00136569
0.00265067
0.00405318
0.00557073
0.00720061
0.00894016
0.010787
0.0127388
0.0147925
0.0169451
0.0191928
0.021532
0.023959
0.0264695
0.0290589
0.0317225
0.0344556
0.037254
0.0401133
0.0430289
0.0459957
0.0490085
0.0520615
0.0551497
0.0582674
0.0614078
0.0645652
0.0677335
0.070906
0.074077
0.0772408
0.0803909
0.0835223
0.0866304
0.0897095
0.0927553
0.0957642
0.0987307
0.101649
0.104517
0.107328
0.110079
0.112764
0.115377
0.117912
0.120362
0.122722
0.12499
0.127161
0.129228
0.131188
0.133037
0.134771
0.136385
0.137876
0.139241
0.140478
0.141584
0.14256
0.143406
0.144121
0.144703
0.14515
0.145463
0.145643
0.145687
0.145595
0.145365
0.144997
0.144491
0.143844
0.143055
0.142123
0.141051
0.139847
0.138521
0.136931
0.134961
0.00555644
0.00353532
0.00190181
0.000538008
-0.000700325
-0.00180818
-0.00277613
-0.00360373
-0.00429297
-0.00484505
-0.00525957
-0.00553591
-0.00567404
-0.00567427
-0.00553692
-0.00526294
-0.00485365
-0.00431092
-0.00363668
-0.00283276
-0.00190102
-0.000843406
0.000338007
0.00164106
0.00306332
0.00460204
0.00625456
0.00801847
0.00989148
0.011871
0.0139541
0.0161374
0.0184177
0.0207913
0.0232542
0.0258019
0.0284293
0.0311319
0.0339051
0.0367446
0.0396459
0.0426039
0.0456136
0.0486695
0.0517659
0.0548974
0.0580584
0.0612421
0.0644432
0.0676559
0.0708738
0.0740911
0.0773015
0.080498
0.0836752
0.0868286
0.0899526
0.0930427
0.0960951
0.0991046
0.102066
0.104977
0.107831
0.110625
0.113351
0.116004
0.118577
0.121063
0.123459
0.125761
0.127964
0.130062
0.13205
0.133925
0.135683
0.137319
0.138831
0.140217
0.141472
0.142596
0.143587
0.144446
0.14517
0.145756
0.146204
0.146516
0.146691
0.146728
0.146623
0.146377
0.145988
0.145457
0.144781
0.14396
0.142993
0.141883
0.140638
0.139269
0.137631
0.135605
0.00471205
0.00263635
0.000955509
-0.000451443
-0.0017296
-0.00287273
-0.00387307
-0.00473043
-0.00544536
-0.00601896
-0.00645158
-0.00674265
-0.00689174
-0.00689912
-0.00676556
-0.00649225
-0.00608071
-0.0055328
-0.00485045
-0.00403566
-0.00309045
-0.00201685
-0.000817105
0.000506337
0.00195079
0.0035135
0.005192
0.00698395
0.00888685
0.0108979
0.013014
0.0152323
0.0175496
0.0199619
0.022465
0.025054
0.0277238
0.0304701
0.0332884
0.036174
0.0391223
0.0421278
0.0451855
0.04829
0.0514351
0.0546152
0.0578246
0.0610571
0.0643075
0.0675705
0.0708397
0.0741088
0.0773712
0.0806196
0.0838485
0.0870534
0.0902286
0.0933695
0.0964718
0.0995306
0.102541
0.1055
0.108403
0.111243
0.114015
0.116712
0.119327
0.121855
0.124292
0.126633
0.128873
0.131005
0.133025
0.134928
0.136712
0.138374
0.13991
0.141319
0.142596
0.143739
0.144747
0.145619
0.146352
0.146944
0.147395
0.147707
0.147878
0.147907
0.147789
0.147526
0.147116
0.14656
0.145855
0.145002
0.144
0.142852
0.141568
0.140157
0.138472
0.13639
0.00371935
0.00158917
-0.000137575
-0.00158616
-0.00290408
-0.00408251
-0.00511412
-0.00600025
-0.0067408
-0.00733601
-0.00778638
-0.00809169
-0.00825147
-0.00826576
-0.00813573
-0.00786261
-0.007448
-0.00689374
-0.0062019
-0.00537466
-0.00441413
-0.0033225
-0.00210229
-0.000756177
0.000713107
0.00230295
0.00401092
0.00583444
0.00777072
0.00981691
0.0119702
0.0142278
0.0165865
0.0190418
0.0215893
0.0242239
0.0269409
0.0297358
0.0326039
0.0355405
0.0385407
0.0415989
0.04471
0.0478683
0.0510675
0.0543016
0.0575649
0.0608518
0.0641576
0.0674768
0.0708027
0.0741289
0.0774485
0.0807542
0.0840408
0.0873034
0.0905362
0.0937344
0.0968933
0.100008
0.103073
0.106086
0.109042
0.111933
0.114755
0.1175
0.120164
0.12274
0.125222
0.127608
0.129888
0.132058
0.134112
0.136048
0.137863
0.139554
0.141118
0.142552
0.143853
0.145017
0.146043
0.146928
0.147673
0.148273
0.148729
0.149042
0.149209
0.149229
0.149098
0.148817
0.148386
0.147805
0.147072
0.146187
0.145151
0.143966
0.142643
0.14119
0.139458
0.13732
0.00257954
0.000393047
-0.00137943
-0.00286818
-0.00422539
-0.00543972
-0.0065027
-0.00741706
-0.00818317
-0.00880032
-0.00926851
-0.00958773
-0.00975778
-0.00977881
-0.00965174
-0.00937798
-0.00895915
-0.00839718
-0.00769431
-0.00685281
-0.00587495
-0.00476323
-0.00352038
-0.0021491
-0.000651987
0.000968352
0.00270922
0.0045677
0.00654092
0.00862627
0.0108211
0.0131226
0.0155269
0.0180295
0.0206257
0.0233106
0.0260797
0.0289281
0.0318509
0.0348432
0.0379002
0.0410163
0.0441862
0.0474037
0.0506622
0.0539559
0.0572791
0.0606265
0.0639936
0.0673747
0.0707626
0.074151
0.077533
0.0809018
0.0842519
0.0875784
0.0908751
0.0941369
0.097359
0.100536
0.103662
0.106735
0.109748
0.112696
0.115572
0.118372
0.121089
0.123717
0.126251
0.128685
0.13101
0.133222
0.135315
0.137288
0.139138
0.140862
0.142457
0.14392
0.145246
0.146431
0.147475
0.148377
0.149135
0.149746
0.150208
0.150522
0.150685
0.150696
0.150551
0.150253
0.149801
0.149195
0.148434
0.147518
0.146448
0.145226
0.143864
0.14237
0.14059
0.138396
0.00129367
-0.000951986
-0.00277184
-0.00430026
-0.00569605
-0.00694705
-0.00804258
-0.00898554
-0.00977714
-0.0104164
-0.0109026
-0.0112358
-0.0114157
-0.0114429
-0.011318
-0.0110424
-0.010618
-0.0100468
-0.00933119
-0.0084735
-0.00747631
-0.00634234
-0.00507437
-0.00367497
-0.00214672
-0.000492516
0.00128458
0.00318153
0.00519569
0.00732463
0.0095656
0.0119153
0.0143696
0.016924
0.0195738
0.0223142
0.0251402
0.0280469
0.0310291
0.034082
0.037201
0.0403804
0.0436143
0.0468963
0.0502197
0.0535788
0.056968
0.0603821
0.0638164
0.0672649
0.0707204
0.0741764
0.0776264
0.0810638
0.0844835
0.0878797
0.0912462
0.0945777
0.097869
0.101114
0.104307
0.107445
0.110522
0.113531
0.116469
0.119328
0.122104
0.124789
0.127378
0.129864
0.132239
0.134497
0.136635
0.138651
0.140541
0.142302
0.14393
0.145422
0.146774
0.147983
0.149048
0.149969
0.150743
0.151365
0.151834
0.152148
0.152307
0.152309
0.152152
0.151837
0.151364
0.150733
0.149944
0.148997
0.147893
0.146635
0.145233
0.143696
0.141868
0.139618
-0.000138928
-0.00244618
-0.0043161
-0.00588548
-0.00731988
-0.00860818
-0.00973774
-0.0107104
-0.0115277
-0.0121891
-0.0126935
-0.0130406
-0.0132302
-0.0132627
-0.0131388
-0.0128603
-0.0124288
-0.0118467
-0.0111164
-0.0102406
-0.00922203
-0.00806338
-0.00676734
-0.00533655
-0.00377384
-0.00208247
-0.000265645
0.00167377
0.00373328
0.00591039
0.00820196
0.0106043
0.0131133
0.0157245
0.0184331
0.021234
0.0241219
0.0270917
0.0301383
0.0332572
0.0364435
0.0396916
0.042995
0.046347
0.0497411
0.0531717
0.0566333
0.0601202
0.0636276
0.0671491
0.0706778
0.0742074
0.0777312
0.0812431
0.0847378
0.0882094
0.0916514
0.0950582
0.0984244
0.101744
0.10501
0.108219
0.111365
0.114442
0.117446
0.120371
0.12321
0.125957
0.128604
0.131147
0.133576
0.135886
0.138075
0.140139
0.142073
0.143874
0.145538
0.147062
0.148442
0.149678
0.150768
0.151711
0.152501
0.153135
0.15361
0.153926
0.154081
0.154076
0.153907
0.153575
0.153081
0.152425
0.151608
0.150629
0.149492
0.148196
0.146754
0.145175
0.143297
0.140989
-0.00172126
-0.00409135
-0.00601385
-0.00762716
-0.00910159
-0.0104277
-0.0115924
-0.0125959
-0.0134398
-0.0141234
-0.014646
-0.0150067
-0.0152054
-0.0152423
-0.0151185
-0.0148356
-0.0143955
-0.0138008
-0.0130541
-0.0121583
-0.011116
-0.00992985
-0.0086026
-0.00713718
-0.0055368
-0.00380485
-0.00194442
4.18221e-05
0.00215124
0.00438096
0.00672754
0.00918719
0.0117559
0.0144292
0.0172018
0.0200683
0.0230231
0.0260613
0.0291779
0.0323683
0.0356275
0.0389495
0.042328
0.0457559
0.0492268
0.0527352
0.0562753
0.0598413
0.0634276
0.0670281
0.0706363
0.0742458
0.0778497
0.0814418
0.085017
0.0885694
0.0920923
0.0955798
0.0990264
0.102425
0.10577
0.109057
0.112279
0.115431
0.118508
0.121503
0.124409
0.127221
0.129932
0.132535
0.135025
0.137394
0.139638
0.141754
0.143737
0.145581
0.147284
0.148843
0.150256
0.151522
0.15264
0.153606
0.154414
0.15506
0.155542
0.155861
0.156016
0.156004
0.155824
0.155475
0.15496
0.154279
0.153433
0.152423
0.151251
0.149917
0.148434
0.14681
0.144882
0.142513
-0.00345793
-0.00589147
-0.00786823
-0.00952869
-0.0110457
-0.0124107
-0.013611
-0.0146465
-0.0155175
-0.0162238
-0.0167643
-0.0171383
-0.0173454
-0.017386
-0.0172611
-0.0169726
-0.0165225
-0.0159135
-0.0151486
-0.0142305
-0.0131619
-0.0119453
-0.0105838
-0.00908073
-0.00743943
-0.00566318
-0.00375493
-0.00171746
0.000446201
0.00273282
0.00513894
0.00766089
0.0102946
0.0130351
0.015877
0.0188143
0.0218413
0.0249534
0.0281457
0.0314133
0.0347511
0.0381527
0.0416119
0.0451219
0.0486759
0.0522682
0.0558929
0.0595439
0.0632156
0.0669017
0.0705959
0.0742917
0.0779821
0.0816605
0.0853218
0.0889603
0.0925696
0.0961434
0.0996757
0.10316
0.10659
0.10996
0.113265
0.116497
0.119652
0.122722
0.125701
0.128583
0.131362
0.134033
0.136588
0.139021
0.141326
0.143498
0.145532
0.147423
0.149169
0.150769
0.15222
0.153521
0.154668
0.155657
0.156484
0.157143
0.157635
0.157959
0.158114
0.158097
0.157905
0.15754
0.157003
0.156298
0.155423
0.154382
0.153174
0.151801
0.150275
0.148606
0.146625
0.144191
-0.00535348
-0.00785187
-0.00988406
-0.0115939
-0.0131563
-0.0145618
-0.0157985
-0.0168663
-0.0177651
-0.0184941
-0.0190525
-0.0194394
-0.0196543
-0.0196977
-0.0195707
-0.0192753
-0.0188139
-0.0181891
-0.017404
-0.0164612
-0.0153634
-0.0141136
-0.012715
-0.0111712
-0.00948534
-0.00766072
-0.00570038
-0.0036075
-0.00138548
0.0009624
0.00343284
0.00602218
0.00872601
0.0115389
0.0144551
0.0174684
0.0205734
0.0237653
0.027039
0.0303896
0.0338115
0.0372986
0.0408445
0.0444426
0.0480859
0.0517682
0.0554834
0.0592258
0.0629893
0.0667678
0.0705548
0.0743436
0.0781268
0.0818977
0.0856511
0.0893815
0.0930826
0.0967484
0.100372
0.103947
0.107468
0.110928
0.114321
0.11764
0.120878
0.124029
0.127085
0.130043
0.132896
0.13564
0.138266
0.140767
0.143136
0.145368
0.147458
0.149402
0.151198
0.152843
0.154336
0.155673
0.156851
0.157865
0.158711
0.159387
0.159892
0.160224
0.160381
0.160358
0.160154
0.159772
0.159216
0.158485
0.157582
0.156507
0.155263
0.153849
0.152278
0.150562
0.148525
0.146024
-0.00741108
-0.00997759
-0.0120669
-0.0138274
-0.0154372
-0.0168851
-0.0181591
-0.0192597
-0.0201865
-0.0209385
-0.0215147
-0.0219142
-0.0221365
-0.0221819
-0.0220519
-0.0217484
-0.0212742