/*--------------------------------*- C++ -*----------------------------------*\
| =========                 |                                                 |
| \\      /  F ield         | OpenFOAM: The Open Source CFD Toolbox           |
|  \\    /   O peration     | Version:  2212                                  |
|   \\  /    A nd           | Website:  www.openfoam.com                      |
|    \\/     M anipulation  |                                                 |
\*---------------------------------------------------------------------------*/
FoamFile
{
    version     2.0;
    format      ascii;
    arch        "LSB;label=32;scalar=64";
    class       volScalarField;
    location    "0.071";
    object      p;
}
// * * * * * * * * * * * * * * * * * * * * * * * * * * * * * * * * * * * * * //

dimensions      [0 2 -2 0 0 0 0];

internalField   nonuniform List<scalar> 
10000
(
-3.03174e-10
9.048e-05
-0.000124582
-0.000687529
-0.00155093
-0.00266115
-0.00396344
-0.00540522
-0.00693893
-0.00852241
-0.0101189
-0.0116961
-0.013226
-0.0146844
-0.0160501
-0.017305
-0.0184337
-0.019423
-0.0202618
-0.0209407
-0.0214524
-0.0217911
-0.0219523
-0.021933
-0.0217311
-0.0213457
-0.020777
-0.0200261
-0.0190947
-0.0179857
-0.0167025
-0.015249
-0.0136301
-0.011851
-0.00991768
-0.00783653
-0.00561446
-0.00325882
-0.000777403
0.00182171
0.00453002
0.00733872
0.0102387
0.0132205
0.0162745
0.0193907
0.022559
0.025769
0.0290101
0.0322716
0.0355427
0.0388124
0.0420699
0.0453042
0.0485042
0.0516591
0.054758
0.0577898
0.0607441
0.0636102
0.0663779
0.0690372
0.0715785
0.0739924
0.0762698
0.0784022
0.0803818
0.0822009
0.0838528
0.0853312
0.0866307
0.0877466
0.0886751
0.0894135
0.0899598
0.0903133
0.0904741
0.0904438
0.0902253
0.0898225
0.0892414
0.088489
0.0875745
0.0865086
0.0853041
0.0839758
0.0825411
0.0810196
0.079434
0.07781
0.0761768
0.0745674
0.0730194
0.0715747
0.0702803
0.0691871
0.0683473
0.0678106
0.067619
0.0677231
-8.89566e-05
2.72414e-06
-0.000205201
-0.000707281
-0.0014548
-0.00241008
-0.00353295
-0.00478178
-0.00611716
-0.00750282
-0.00890613
-0.0102979
-0.0116523
-0.0129465
-0.0141605
-0.0152769
-0.0162807
-0.0171591
-0.017901
-0.0184971
-0.01894
-0.0192235
-0.019343
-0.0192951
-0.0190776
-0.0186892
-0.0181297
-0.0173997
-0.0165007
-0.015435
-0.0142056
-0.012816
-0.0112705
-0.00957405
-0.00773205
-0.00575044
-0.00363568
-0.00139463
0.000965374
0.00343673
0.00601145
0.00868121
0.0114374
0.0142711
0.0171732
0.0201341
0.0231443
0.0261938
0.0292727
0.0323708
0.0354778
0.0385833
0.041677
0.0447484
0.0477873
0.0507831
0.0537255
0.0566043
0.0594094
0.0621309
0.0647591
0.0672846
0.0696985
0.0719918
0.0741562
0.0761838
0.0780672
0.0797995
0.0813744
0.0827861
0.0840298
0.0851014
0.0859976
0.086716
0.0872551
0.0876145
0.0877949
0.0877979
0.0876267
0.0872855
0.0867803
0.0861184
0.0853085
0.0843615
0.0832897
0.0821075
0.0808315
0.0794806
0.0780761
0.0766418
0.0752046
0.0737945
0.0724444
0.0711904
0.0700712
0.069127
0.0683958
0.0679125
0.0677225
0.0678271
0.000128676
0.000214929
7.3633e-06
-0.000463685
-0.00114558
-0.00200693
-0.00301512
-0.0041355
-0.00533449
-0.00658058
-0.00784474
-0.00910061
-0.0103245
-0.0114952
-0.012594
-0.0136043
-0.0145117
-0.0153038
-0.0159699
-0.016501
-0.0168895
-0.0171293
-0.0172157
-0.0171451
-0.0169152
-0.0165245
-0.0159724
-0.0152594
-0.0143866
-0.013356
-0.0121701
-0.0108324
-0.00934662
-0.00771742
-0.00594978
-0.0040493
-0.00202205
0.000125486
0.00238638
0.00475342
0.00721901
0.00977523
0.0124139
0.0151265
0.0179044
0.0207384
0.0236194
0.0265378
0.0294842
0.0324488
0.0354218
0.0383933
0.0413533
0.044292
0.0471994
0.0500657
0.0528808
0.0556351
0.0583189
0.0609229
0.0634379
0.065855
0.0681655
0.0703613
0.0724343
0.0743771
0.0761829
0.0778451
0.0793578
0.0807159
0.0819147
0.0829507
0.0838208
0.0845231
0.0850563
0.0854203
0.0856158
0.085645
0.0855109
0.085218
0.0847721
0.0841805
0.0834518
0.0825964
0.0816263
0.0805553
0.0793994
0.0781763
0.0769059
0.0756103
0.0743142
0.0730446
0.0718308
0.070704
0.0696973
0.0688442
0.0681756
0.067721
0.0675318
0.0676364
0.000695231
0.000722383
0.000483637
1.15758e-05
-0.000645375
-0.00145865
-0.00239982
-0.00343899
-0.00454701
-0.00569627
-0.00686096
-0.00801731
-0.00914369
-0.0102207
-0.0112308
-0.0121585
-0.0129903
-0.013714
-0.0143197
-0.0147985
-0.0151431
-0.0153476
-0.0154072
-0.0153183
-0.0150784
-0.0146861
-0.0141405
-0.013442
-0.0125914
-0.0115905
-0.0104416
-0.00914779
-0.00771268
-0.00614051
-0.00443602
-0.00260447
-0.000651634
0.00141632
0.00359286
0.00587107
0.00824373
0.0107033
0.0132418
0.0158513
0.0185233
0.0212492
0.0240201
0.0268269
0.0296605
0.0325115
0.0353705
0.038228
0.0410745
0.0439005
0.0466964
0.0494527
0.05216
0.0548088
0.05739
0.0598947
0.062314
0.0646395
0.066863
0.0689765
0.0709726
0.0728442
0.0745847
0.076188
0.0776487
0.0789616
0.0801229
0.0811289
0.0819771
0.0826656
0.0831935
0.0835607
0.0837683
0.0838183
0.0837139
0.0834596
0.0830609
0.0825251
0.0818604
0.0810769
0.080186
0.079201
0.0781368
0.0770101
0.0758394
0.0746452
0.0734498
0.0722777
0.0711549
0.0701089
0.0691685
0.0683629
0.0677192
0.0672646
0.0670479
0.0671021
0.00156398
0.00147724
0.00117195
0.000671347
1.1679e-05
-0.000781668
-0.00168366
-0.00266858
-0.00371125
-0.00478752
-0.00587468
-0.00695149
-0.0079984
-0.00899772
-0.00993338
-0.010791
-0.0115579
-0.0122228
-0.012776
-0.0132092
-0.0135155
-0.0136889
-0.013725
-0.0136202
-0.013372
-0.0129787
-0.0124396
-0.0117548
-0.0109251
-0.00995184
-0.00883736
-0.0075844
-0.00619636
-0.00467719
-0.00303138
-0.00126392
0.00061972
0.00261366
0.0047117
0.00690726
0.0091934
0.0115629
0.0140084
0.0165218
0.0190954
0.0217206
0.0243891
0.0270921
0.0298207
0.0325661
0.0353192
0.0380708
0.0408119
0.0435333
0.0462258
0.0488802
0.0514875
0.0540387
0.0565249
0.0589378
0.0612688
0.0635097
0.0656529
0.0676906
0.0696158
0.0714217
0.0731022
0.0746513
0.076064
0.0773355
0.078462
0.0794404
0.0802682
0.0809438
0.0814663
0.0818358
0.0820535
0.0821214
0.0820427
0.0818218
0.0814641
0.0809764
0.0803667
0.0796447
0.0788211
0.0779085
0.0769209
0.0758737
0.0747839
0.0736704
0.0725533
0.0714546
0.0703972
0.0694055
0.0685043
0.0677191
0.0670738
0.0665931
0.066315
0.0662647
0.00268346
0.00244361
0.00204253
0.00148888
0.000801889
3.78712e-06
-0.000883496
-0.00183808
-0.00283835
-0.0038634
-0.00489326
-0.00590917
-0.00689366
-0.00783071
-0.00870569
-0.00950542
-0.0102182
-0.0108335
-0.0113423
-0.0117368
-0.0120103
-0.0121572
-0.0121734
-0.0120552
-0.0118002
-0.0114068
-0.0108743
-0.0102025
-0.0093922
-0.00844471
-0.00736206
-0.00614684
-0.00480224
-0.00333196
-0.00174029
-3.19673e-05
0.00178784
0.00371354
0.00573916
0.00785845
0.0100648
0.0123513
0.0147107
0.0171356
0.0196183
0.0221507
0.0247247
0.0273319
0.0299639
0.032612
0.0352675
0.0379217
0.0405658
0.043191
0.0457884
0.0483493
0.0508648
0.0533264
0.0557257
0.0580544
0.0603045
0.0624681
0.0645378
0.0665063
0.0683668
0.0701128
0.0717384
0.0732382
0.074607
0.0758407
0.0769355
0.0778885
0.0786974
0.0793607
0.0798777
0.0802484
0.0804742
0.0805571
0.0805001
0.0803074
0.0799842
0.0795371
0.0789736
0.0783028
0.077535
0.0766817
0.0757559
0.0747719
0.0737454
0.0726933
0.0716339
0.0705866
0.0695717
0.0686104
0.0677243
0.0669353
0.0662646
0.0657339
0.0653658
0.0651715
0.00400283
0.00358468
0.00306577
0.00243834
0.00170275
0.000878079
-1.63022e-05
-0.000962084
-0.00194098
-0.00293487
-0.00392639
-0.00489904
-0.00583735
-0.00672696
-0.0075547
-0.00830857
-0.00897783
-0.0095529
-0.0100253
-0.0103879
-0.0106344
-0.0107596
-0.0107593
-0.0106304
-0.0103704
-0.0099779
-0.00945198
-0.00879259
-0.00800037
-0.00707661
-0.00602315
-0.00484243
-0.00353747
-0.00211183
-0.00056952
0.0010849
0.0028465
0.00470996
0.00666956
0.00871933
0.0108529
0.0130637
0.0153448
0.017689
0.0200889
0.0225368
0.0250247
0.0275448
0.0300887
0.0326483
0.0352151
0.0377808
0.0403368
0.0428747
0.0453859
0.0478619
0.0502943
0.0526748
0.0549954
0.0572481
0.0594251
0.061519
0.0635224
0.0654285
0.0672307
0.0689228
0.0704991
0.0719543
0.0732837
0.0744832
0.0755494
0.0764794
0.077271
0.0779227
0.0784339
0.0788049
0.0790368
0.0791316
0.0790921
0.0789224
0.0786274
0.0782132
0.0776871
0.0770575
0.0763338
0.0755269
0.0746488
0.0737125
0.0727323
0.0717234
0.0707022
0.0696859
0.0686924
0.06774
0.0668475
0.0660332
0.0653162
0.0647152
0.0642348
0.0638707
0.00547419
0.00486261
0.00421028
0.00349291
0.00269132
0.00182201
0.000902107
-5.3285e-05
-0.00102879
-0.00200896
-0.00297879
-0.00392386
-0.00483055
-0.00568612
-0.00647886
-0.00719789
-0.00783348
-0.00837696
-0.00882057
-0.00915768
-0.00938252
-0.0094903
-0.00947715
-0.00934009
-0.00907688
-0.00868606
-0.00816691
-0.00751936
-0.00674401
-0.00584208
-0.00481534
-0.00366611
-0.00239724
-0.00101215
0.000485291
0.00209076
0.00379953
0.00560651
0.00750621
0.00949289
0.0115605
0.0137027
0.0159127
0.0181837
0.0205085
0.0228797
0.0252897
0.0277308
0.0301951
0.0326746
0.0351612
0.0376468
0.0401233
0.0425824
0.0450158
0.0474153
0.0497729
0.0520804
0.0543303
0.0565147
0.0586261
0.0606574
0.0626014
0.0644516
0.0662017
0.0678455
0.0693777
0.0707931
0.0720872
0.0732562
0.0742966
0.0752057
0.0759814
0.0766222
0.0771276
0.0774979
0.077734
0.0778378
0.077812
0.0776603
0.0773875
0.0769994
0.0765025
0.0759046
0.0752146
0.0744424
0.073599
0.0726963
0.0717471
0.0707653
0.0697653
0.0687622
0.0677717
0.0668098
0.0658924
0.0650349
0.0642542
0.0635666
0.0629579
0.0624081
0.00705524
0.00624213
0.00544588
0.00462633
0.00374518
0.00281657
0.00185587
0.000875391
-0.00011212
-0.00109362
-0.00205623
-0.00298748
-0.00387548
-0.00470901
-0.0054777
-0.00617189
-0.0067828
-0.00730262
-0.00772439
-0.008042
-0.00825024
-0.00834476
-0.00832199
-0.00817918
-0.00791435
-0.00752616
-0.00701395
-0.00637771
-0.0056181
-0.00473626
-0.00373389
-0.00261325
-0.00137711
-2.87578e-05
0.00142812
0.00298937
0.00465046
0.00640642
0.00825204
0.0101818
0.0121899
0.0142702
0.0164162
0.0186212
0.0208784
0.0231805
0.0255203
0.0278903
0.0302829
0.0326904
0.0351049
0.0375187
0.0399238
0.0423122
0.0446759
0.0470069
0.0492975
0.0515399
0.0537266
0.0558501
0.0579031
0.0598786
0.0617699
0.0635705
0.0652741
0.0668751
0.0683681
0.0697482
0.0710111
0.0721528
0.0731702
0.0740606
0.0748217
0.0754524
0.0759519
0.0763205
0.0765591
0.0766693
0.0766536
0.0765155
0.0762595
0.0758909
0.0754157
0.074841
0.0741751
0.0734269
0.0726066
0.0717249
0.0707934
0.0698243
0.0688305
0.0678252
0.0668222
0.0658352
0.0648774
0.0639618
0.0631036
0.0623169
0.0615692
0.0608248
0.00870964
0.0076914
0.00674468
0.00581406
0.00484276
0.00384314
0.00282911
0.00181059
0.000798011
-0.000197717
-0.00116567
-0.00209516
-0.00297591
-0.00379811
-0.00455262
-0.00523096
-0.00582536
-0.00632881
-0.00673511
-0.00703876
-0.00723509
-0.00732016
-0.00729078
-0.00714453
-0.00687959
-0.00649479
-0.00598967
-0.00536429
-0.00461928
-0.00375581
-0.00277558
-0.00168079
-0.000474157
0.000841189
0.00226167
0.00378325
0.00540154
0.00711181
0.00890902
0.0107879
0.0127427
0.0147676
0.0168563
0.0190023
0.021199
0.0234394
0.0257165
0.0280231
0.0303517
0.0326949
0.0350453
0.0373952
0.0397368
0.0420623
0.0443641
0.0466344
0.0488657
0.0510505
0.0531813
0.055251
0.0572524
0.0591788
0.0610237
0.0627806
0.0644436
0.0660069
0.0674656
0.0688148
0.0700502
0.071168
0.0721651
0.0730387
0.0737868
0.0744081
0.0749018
0.0752679
0.0755074
0.0756215
0.0756128
0.0754843
0.07524
0.074885
0.0744246
0.0738654
0.0732148
0.0724812
0.0716736
0.0708017
0.0698759
0.0689069
0.0679062
0.0668855
0.0658565
0.0648311
0.0638202
0.0628345
0.0618879
0.0609929
0.0600991
0.0591562
0.0104054
0.00918208
0.00808125
0.00703335
0.0059639
0.00488401
0.00380654
0.00273925
0.00169053
0.000669502
-0.000314667
-0.00125292
-0.00213645
-0.00295679
-0.00370595
-0.00437654
-0.00496174
-0.00545542
-0.00585204
-0.00614674
-0.00633541
-0.00641458
-0.00638139
-0.00623371
-0.00597004
-0.00558939
-0.00509144
-0.00447635
-0.00374481
-0.00289806
-0.00193781
-0.000866214
0.000314102
0.00160003
0.00298811
0.00447442
0.00605472
0.00772445
0.00947873
0.0113124
0.01322
0.0151958
0.0172337
0.0193275
0.0214707
0.0236566
0.0258782
0.0281287
0.0304008
0.0326875
0.0349813
0.0372749
0.0395606
0.0418309
0.0440784
0.0462956
0.0484749
0.0506093
0.0526913
0.0547141
0.0566708
0.0585546
0.0603591
0.0620782
0.0637059
0.0652368
0.0666658
0.0679883
0.0692
0.0702971
0.0712765
0.0721354
0.072872
0.0734847
0.0739727
0.0743359
0.0745748
0.0746909
0.0746862
0.0745636
0.0743266
0.0739798
0.073528
0.0729773
0.0723343
0.0716066
0.0708024
0.0699303
0.0689996
0.0680198
0.067001
0.0659533
0.064887
0.063812
0.0627375
0.0616721
0.0606288
0.0596189
0.0585751
0.0574329
0.0121157
0.010689
0.00943257
0.00826319
0.00708969
0.00592233
0.00477326
0.00364841
0.00255437
0.00149867
0.000488967
-0.000467153
-0.00136223
-0.00218899
-0.00294059
-0.00361069
-0.00419329
-0.00468306
-0.00507522
-0.00536555
-0.0055504
-0.00562678
-0.00559227
-0.00544503
-0.00518382
-0.00480792
-0.00431712
-0.00371172
-0.00299256
-0.00216088
-0.00121844
-0.00016739
0.000989664
0.00224968
0.00360927
0.00506461
0.00661157
0.00824575
0.00996243
0.0117566
0.0136228
0.0155556
0.0175492
0.0195973
0.0216937
0.0238319
0.0260051
0.0282067
0.0304297
0.0326671
0.0349118
0.0371565
0.0393938
0.0416163
0.0438169
0.0459882
0.0481228
0.0502138
0.052254
0.0542367
0.056155
0.0580024
0.0597727
0.0614596
0.0630574
0.0645608
0.0659648
0.0672648
0.0684564
0.069536
0.0705003
0.0713469
0.0720734
0.0726784
0.073161
0.0735207
0.0737582
0.0738745
0.0738714
0.0737513
0.0735176
0.0731742
0.0727255
0.072177
0.0715346
0.0708053
0.0699962
0.0691152
0.0681704
0.0671702
0.0661235
0.0650391
0.0639257
0.0627919
0.0616451
0.0604924
0.0593461
0.0582169
0.057021
0.055681
0.0138168
0.0121899
0.0107777
0.00948436
0.00820261
0.00694224
0.00571508
0.00452551
0.00337856
0.0022803
0.0012371
0.000255315
-0.000658851
-0.00149933
-0.00226023
-0.00293612
-0.00352195
-0.00401309
-0.00440545
-0.00469543
-0.00487989
-0.00495631
-0.00492266
-0.00477745
-0.00451971
-0.00414898
-0.00366522
-0.00306887
-0.00236088
-0.0015426
-0.000615847
0.00041724
0.00155408
0.00279163
0.00412654
0.00555509
0.00707331
0.00867686
0.0103611
0.0121211
0.0139518
0.0158476
0.0178029
0.0198117
0.0218679
0.0239652
0.0260969
0.0282567
0.0304377
0.032633
0.0348357
0.0370387
0.0392348
0.0414168
0.0435776
0.0457101
0.047807
0.0498615
0.0518667
0.0538158
0.0557022
0.0575194
0.0592611
0.0609214
0.0624947
0.0639756
0.0653591
0.0666405
0.0678158
0.068881
0.0698331
0.0706694
0.0713876
0.071986
0.0724635
0.0728198
0.073055
0.07317
0.0731663
0.073046
0.072812
0.0724678
0.0720174
0.0714655
0.0708177
0.07008
0.0692589
0.0683612
0.0673942
0.0663653
0.0652823
0.0641527
0.0629842
0.0617839
0.060558
0.059312
0.0580581
0.0568065
0.055458
0.0539228
0.0154885
0.0136652
0.0120981
0.0106793
0.00928638
0.0079289
0.00661854
0.00535843
0.00415226
0.00300493
0.00192157
0.000907376
-3.24207e-05
-0.000892859
-0.00166901
-0.00235625
-0.0029504
-0.0034475
-0.00384415
-0.00413731
-0.0043244
-0.00440332
-0.00437241
-0.00423058
-0.00397714
-0.00361185
-0.00313483
-0.00254676
-0.00184874
-0.00104218
-0.000128915
0.00088883
0.00200842
0.00322686
0.00454088
0.00594683
0.00744076
0.00901842
0.0106753
0.0124066
0.0142072
0.0160719
0.017995
0.0199708
0.0219932
0.0240561
0.0261531
0.0282778
0.0304237
0.0325839
0.0347517
0.0369201
0.0390821
0.0412306
0.0433587
0.0454593
0.0475254
0.0495502
0.0515269
0.0534489
0.0553096
0.0571024
0.0588215
0.0604608
0.0620146
0.0634778
0.0648453
0.0661124
0.0672749
0.0683292
0.0692718
0.0701001
0.0708116
0.0714046
0.0718778
0.0722307
0.0724632
0.0725758
0.0725697
0.0724467
0.0722094
0.0718608
0.0714044
0.0708445
0.0701858
0.0694338
0.0685943
0.0676733
0.0666771
0.0656124
0.0644858
0.063304
0.0620735
0.0608004
0.0594898
0.058146
0.0567811
0.0554052
0.0539046
0.0521773
0.0171132
0.0150973
0.0133768
0.011832
0.010326
0.00886837
0.00747082
0.00613553
0.00486504
0.00366316
0.00253405
0.00148185
0.000510808
-0.00037499
-0.00117152
-0.00187495
-0.00248181
-0.0029889
-0.0033934
-0.00369284
-0.0038851
-0.00396856
-0.00394203
-0.00380468
-0.00355609
-0.00319627
-0.00272564
-0.00214503
-0.00145562
-0.00065896
0.000242988
0.00124795
0.0023533
0.00355604
0.00485292
0.00624032
0.00771435
0.00927082
0.0109053
0.0126131
0.0143892
0.0162284
0.0181253
0.0200741
0.022069
0.024104
0.0261728
0.0282692
0.0303868
0.0325188
0.0346585
0.0367993
0.0389341
0.0410561
0.0431583
0.0452338
0.0472758
0.0492775
0.0512323
0.0531335
0.0549745
0.056749
0.0584511
0.0600748
0.0616144
0.0630647
0.0644206
0.0656775
0.0668311
0.0678776
0.0688136
0.0696362
0.0703431
0.0709321
0.0714019
0.0717517
0.0719811
0.0720905
0.0720807
0.0719531
0.07171
0.0713539
0.0708879
0.0703157
0.0696415
0.0688702
0.0680068
0.0670566
0.0660253
0.0649186
0.0637423
0.0625023
0.0612042
0.0598532
0.0584533
0.057008
0.0555298
0.0540286
0.0523767
0.050461
0.0186753
0.0164709
0.0145987
0.0129278
0.0113076
0.00974763
0.0082599
0.00684568
0.00550668
0.00424578
0.00306622
0.00197128
0.000964274
4.85284e-05
-0.000772734
-0.00149645
-0.00211985
-0.00264039
-0.00305575
-0.00336404
-0.00356371
-0.00365349
-0.00363256
-0.00350045
-0.00325706
-0.00290265
-0.00243785
-0.00186365
-0.00118144
-0.000392879
0.00049999
0.00149482
0.00258893
0.00377934
0.0050628
0.00643569
0.00789417
0.00943409
0.0110511
0.0127405
0.0144975
0.0163169
0.0181933
0.0201212
0.0220948
0.0241082
0.0261553
0.02823
0.0303258
0.0324363
0.0345548
0.0366747
0.0387891
0.0408913
0.0429744
0.0450316
0.0470561
0.0490413
0.0509805
0.052867
0.0546945
0.0564566
0.0581474
0.0597608
0.0612914
0.0627335
0.0640824
0.0653333
0.0664818
0.0675239
0.0684562
0.0692758
0.06998
0.0705667
0.0710342
0.0713814
0.0716079
0.0717136
0.071699
0.0715654
0.0713144
0.0709482
0.0704696
0.0698816
0.0691879
0.0683929
0.0675009
0.0665166
0.065445
0.064291
0.0630599
0.0617567
0.0603862
0.058953
0.0574603
0.0559109
0.0543175
0.0526904
0.0508887
0.048788
0.0201609
0.0177718
0.01575
0.0139533
0.0122182
0.0105543
0.00897418
0.00747818
0.00606733
0.00474377
0.00350987
0.00236818
0.0013213
0.000371758
-0.000477977
-0.00122549
-0.00186862
-0.00240543
-0.00283423
-0.00315361
-0.00336242
-0.00345988
-0.00344553
-0.00331923
-0.00308113
-0.00273179
-0.0022721
-0.0017032
-0.00102665
-0.000244239
0.000641857
0.00162921
0.00271512
0.00389658
0.00517032
0.00653273
0.00797996
0.00950792
0.0111123
0.0127885
0.0145316
0.0163367
0.0181984
0.0201113
0.0220696
0.0240677
0.0260994
0.0281588
0.0302395
0.032335
0.034439
0.0365447
0.0386454
0.0407345
0.0428051
0.0448507
0.0468643
0.0488393
0.0507692
0.0526473
0.0544673
0.0562229
0.0579079
0.0595166
0.0610431
0.0624821
0.0638285
0.0650776
0.0662248
0.067266
0.0681979
0.0690171
0.069721
0.0703071
0.0707736
0.0711191
0.071343
0.0714448
0.071425
0.0712841
0.0710237
0.0706455
0.0701516
0.0695449
0.0688284
0.0680059
0.0670813
0.0660588
0.0649425
0.0637369
0.0624466
0.0610759
0.0596292
0.0581103
0.0565219
0.0548662
0.0531563
0.0514032
0.0494529
0.0471705
0.0215579
0.0189876
0.016818
0.0148963
0.0130458
0.011277
0.00960273
0.00802276
0.00653738
0.00514813
0.00385678
0.00266513
0.00157507
0.000588474
-0.000292789
-0.00106697
-0.00173253
-0.00228805
-0.00273235
-0.00306452
-0.0032839
-0.00339009
-0.00338295
-0.00326267
-0.00302975
-0.00268501
-0.00222952
-0.00166463
-0.000992058
-0.000213795
0.000667892
0.00165052
0.00273132
0.00390724
0.00517497
0.00653088
0.00797115
0.00949171
0.0110883
0.0127562
0.0144908
0.0162871
0.0181397
0.0200434
0.0219925
0.0239813
0.026004
0.0280544
0.0301264
0.0322136
0.0343095
0.0364076
0.0385012
0.0405838
0.0426487
0.0446891
0.0466982
0.0486695
0.0505964
0.0524723
0.0542908
0.0560456
0.0577306
0.0593398
0.0608676
0.0623083
0.0636569
0.0649085
0.0660584
0.0671024
0.068037
0.0688588
0.0695648
0.0701523
0.0706194
0.0709645
0.0711864
0.0712847
0.0712593
0.0711106
0.0708396
0.0704477
0.0699367
0.0693088
0.0685667
0.0677137
0.0667532
0.0656888
0.0645242
0.0632633
0.0619101
0.0604685
0.0589423
0.0573349
0.0556484
0.0538846
0.0520573
0.0501782
0.0480806
0.0456195
0.0228551
0.0201068
0.0177912
0.0157451
0.0137794
0.011905
0.0101352
0.00846951
0.00690751
0.00545022
0.00409882
0.00285452
0.00171863
0.000692394
-0.000222952
-0.0010262
-0.00171631
-0.00229244
-0.00275392
-0.00310027
-0.00333126
-0.00344683
-0.00344721
-0.00333297
-0.0031049
-0.00276401
-0.00231161
-0.00174927
-0.00107893
-0.000302705
0.000577052
0.00155777
0.0026366
0.00381041
0.00507584
0.00642927
0.00786688
0.00938459
0.0109781
0.0126428
0.0143741
0.0161669
0.0180161
0.0199163
0.0218621
0.0238479
0.0258676
0.0279154
0.029985
0.0320702
0.0341646
0.0362616
0.0383549
0.0404376
0.0425031
0.0445448
0.0465559
0.0485299
0.05046
0.0523399
0.0541629
0.0559227
0.0576133
0.0592286
0.0607628
0.0622103
0.0635658
0.0648243
0.065981
0.0670317
0.0679725
0.0687999
0.0695107
0.070102
0.0705715
0.0709175
0.0711386
0.071234
0.0712032
0.0710464
0.0707641
0.0703574
0.0698276
0.0691766
0.0684068
0.0675208
0.0665217
0.0654125
0.0641965
0.0628772
0.061458
0.0599426
0.0583341
0.0566357
0.0548492
0.052976
0.0510307
0.0490255
0.0467817
0.0441443
0.0240424
0.0211188
0.0186589
0.0164892
0.0144084
0.0124279
0.0105617
0.00880895
0.00716866
0.00564143
0.00422795
0.00292889
0.00174497
0.000676939
-0.000274489
-0.00110866
-0.00182502
-0.00242327
-0.00290317
-0.00326467
-0.0035079
-0.00363321
-0.0036412
-0.00353275
-0.0033089
-0.0029709
-0.00252031
-0.00195896
-0.00128893
-0.000512465
0.000367958
0.00134966
0.00242969
0.00360485
0.00487176
0.00622676
0.007666
0.00918537
0.0107806
0.0124471
0.0141802
0.0159749
0.0178262
0.0197288
0.0216772
0.0236658
0.0256888
0.0277401
0.0298137
0.0319033
0.0340026
0.0361052
0.0382044
0.0402937
0.0423665
0.044416
0.0464355
0.0484184
0.0503581
0.052248
0.0540816
0.0558524
0.0575543
0.0591812
0.0607272
0.0621865
0.0635537
0.0648237
0.0659915
0.0670529
0.0680035
0.0688398
0.0695583
0.0701559
0.07063
0.0709787
0.0712003
0.0712936
0.071258
0.0710931
0.0707992
0.070377
0.0698275
0.0691521
0.0683528
0.0674319
0.0663919
0.0652355
0.0639657
0.0625853
0.0610977
0.0595058
0.0578129
0.0560216
0.0541334
0.0521496
0.0500856
0.0479543
0.0455652
0.0427535
0.0251104
0.0220139
0.019411
0.0171184
0.0149226
0.0128358
0.0108726
0.00903173
0.00731193
0.00571331
0.00423614
0.00288063
0.00164701
0.000535544
-0.000453534
-0.00132007
-0.00206401
-0.00268546
-0.00318463
-0.00356184
-0.00381763
-0.00395276
-0.00396816
-0.00386494
-0.00364443
-0.00330818
-0.00285798
-0.00229586
-0.00162406
-0.000844952
3.88299e-05
0.00102448
0.00210897
0.00328903
0.00456123
0.00592187
0.00736704
0.00889262
0.0104943
0.0121675
0.0139076
0.0157097
0.0175686
0.0194792
0.0214361
0.0234335
0.0254658
0.0275269
0.0296107
0.0317111
0.0338218
0.0359363
0.038048
0.0401504
0.0422369
0.0443007
0.046335
0.0483333
0.0502888
0.0521949
0.0540451
0.0558328
0.0575519
0.059196
0.0607591
0.0622354
0.0636193
0.0649055
0.0660889
0.067165
0.0681293
0.068978
0.0697073
0.070314
0.0707952
0.0711486
0.0713724
0.071465
0.0714254
0.071253
0.0709476
0.0705097
0.0699398
0.0692391
0.0684091
0.0674517
0.0663691
0.0651637
0.0638379
0.0623944
0.0608361
0.0591659
0.0573866
0.0555007
0.0535094
0.051414
0.0492307
0.0469732
0.0444395
0.0414548
0.0260501
0.0227827
0.0200381
0.0176232
0.0153127
0.0131194
0.0110587
0.00912896
0.00732866
0.00565751
0.00411542
0.00270217
0.00141758
0.000261457
-0.000766437
-0.00166639
-0.0024388
-0.00308415
-0.00360305
-0.00399625
-0.00426466
-0.00440938
-0.00443165
-0.00433285
-0.00411462
-0.00377876
-0.00332733
-0.0027625
-0.00208667
-0.0013024
-0.000412461
0.000580214
0.00167251
0.00286109
0.00414246
0.00551285
0.00696829
0.00850463
0.0101175
0.0118024
0.0135547
0.0153694
0.0172416
0.019166
0.0211371
0.0231493
0.0251968
0.0272738
0.0293742
0.0314918
0.0336202
0.035753
0.0378838
0.0400058
0.0421124
0.0441969
0.0462525
0.0482725
0.0502502
0.0521787
0.0540516
0.0558623
0.0576044
0.0592714
0.0608572
0.0623558
0.0637615
0.0650687
0.0662724
0.0673675
0.0683496
0.0692144
0.069958
0.0705769
0.0710679
0.0714285
0.0716564
0.0717499
0.0717076
0.0715285
0.0712122
0.0707586
0.0701682
0.0694417
0.0685802
0.0675854
0.0664589
0.0652029
0.0638195
0.0623112
0.0606805
0.0589302
0.0570629
0.0550809
0.0529854
0.0507773
0.048474
0.0460901
0.0434121
0.0402553
0.0268534
0.0234165
0.0205311
0.0179943
0.0155693
0.0132695
0.0111109
0.00909183
0.0072103
0.0054658
0.00385788
0.00238597
0.00104948
-0.00015221
-0.00121973
-0.00215379
-0.00295518
-0.00362475
-0.00416355
-0.0045727
-0.00485346
-0.00500725
-0.00503558
-0.00494018
-0.00472293
-0.00438594
-0.00393141
-0.00336173
-0.00267948
-0.00188739
-0.000988382
1.45014e-05
0.00111805
0.00231885
0.00361332
0.00499761
0.00646771
0.00801939
0.0096483
0.0113499
0.0131195
0.0149524
0.0168433
0.018787
0.0207781
0.0228111
0.02488
0.0269791
0.0291022
0.0312432
0.0333957
0.0355534
0.0377096
0.0398577
0.041991
0.0441028
0.0461861
0.0482342
0.0502404
0.0521977
0.0540996
0.0559393
0.0577103
0.059406
0.0610202
0.0625466
0.0639793
0.0653127
0.0665414
0.0676602
0.0686642
0.0695492
0.0703107
0.0709452
0.071449
0.0718195
0.072054
0.0721504
0.0721069
0.0719224
0.071596
0.0711275
0.0705169
0.0697645
0.0688712
0.0678382
0.066667
0.0653592
0.063917
0.0623425
0.0606381
0.0588063
0.0568495
0.0547701
0.052569
0.0502474
0.0478234
0.0453128
0.0424903
0.0391618
0.027512
0.0239068
0.0208814
0.0182231
0.0156837
0.0132772
0.0110206
0.00891167
0.00694841
0.00512999
0.00345561
0.0019244
0.000535393
-0.000712423
-0.00182004
-0.00278856
-0.0036191
-0.00431295
-0.00487151
-0.00529627
-0.00558881
-0.00575084
-0.0057842
-0.00569093
-0.0054732
-0.00513329
-0.00467362
-0.00409678
-0.00340556
-0.00260285
-0.00169172
-0.000675324
0.000443046
0.00165986
0.00297142
0.00437382
0.00586297
0.00743462
0.00908439
0.0108078
0.0126
0.0144562
0.0163714
0.0183402
0.0203571
0.0224167
0.0245131
0.0266404
0.0287926
0.0309633
0.0331464
0.0353353
0.0375234
0.0397041
0.0418707
0.0440162
0.0461337
0.0482165
0.0502576
0.0522502
0.0541873
0.0560622
0.0578682
0.0595987
0.0612469
0.0628067
0.064272
0.0656368
0.0668955
0.0680427
0.0690733
0.0699826
0.0707662
0.0714199
0.07194
0.0723233
0.072567
0.0726686
0.072626
0.0724378
0.0721027
0.0716202
0.07099
0.070212
0.0692869
0.0682154
0.0669989
0.0656388
0.0641368
0.0624951
0.0607158
0.0588013
0.0567538
0.0545758
0.0522681
0.0498319
0.0472864
0.0446483
0.0416808
0.0381803
0.0280183
0.0242455
0.0210804
0.0183008
0.015647
0.0131339
0.0107789
0.00857999
0.00653464
0.00464188
0.00290065
0.00130975
-0.000132133
-0.00142633
-0.00257421
-0.00357719
-0.0044368
-0.00515468
-0.00573258
-0.00617231
-0.00647577
-0.00664498
-0.00668212
-0.00658951
-0.00636954
-0.00602471
-0.00555764
-0.00497117
-0.00426828
-0.00345202
-0.00252558
-0.00149222
-0.000355367
0.000881326
0.00221406
0.00363883
0.00515152
0.00674784
0.00842338
0.0101736
0.0119936
0.0138787
0.0158236
0.0178231
0.0198718
0.021964
0.0240938
0.0262555
0.0284429
0.0306498
0.0328698
0.0350964
0.0373231
0.0395429
0.0417493
0.0439351
0.0460935
0.0482175
0.0503001
0.0523343
0.0543131
0.0562296
0.0580768
0.059848
0.0615364
0.0631355
0.0646389
0.0660406
0.0673346
0.0685152
0.0695772
0.0705154
0.0713252
0.0720021
0.0725421
0.0729417
0.0731977
0.0733072
0.0732679
0.0730779
0.0727359
0.0722408
0.071592
0.0707891
0.0698325
0.0687228
0.0674608
0.0660479
0.0644857
0.0627759
0.0609208
0.0589225
0.0567833
0.0545054
0.05209
0.0495381
0.0468702
0.0441036
0.0409904
0.0373169
0.0283647
0.0244245
0.0211198
0.018219
0.0154508
0.0128309
0.0103775
0.00808827
0.00596062
0.0039933
0.00218501
0.000534237
-0.000960616
-0.0023012
-0.00348922
-0.00452643
-0.00541474
-0.00615613
-0.00675264
-0.00720642
-0.00751969
-0.00769481
-0.00773425
-0.00764057
-0.00741637
-0.00706439
-0.00658751
-0.00598878
-0.00527135
-0.00443842
-0.00349329
-0.0024394
-0.00128031
-1.97893e-05
0.00133826
0.00278978
0.00433058
0.00595635
0.0076626
0.00944471
0.0112979
0.0132172
0.0151975
0.0172334
0.0193196
0.0214504
0.0236198
0.0258221
0.028051
0.0303003
0.0325637
0.0348346
0.0371062
0.0393719
0.0416246
0.0438575
0.0460634
0.0482352
0.0503659
0.0524484
0.0544754
0.0564398
0.0583347
0.0601529
0.0618876
0.063532
0.0650795
0.0665237
0.0678585
0.0690778
0.0701762
0.0711482
0.0719888
0.0726932
0.0732572
0.0736768
0.0739484
0.0740689
0.0740356
0.0738464
0.0734994
0.0729934
0.0723274
0.0715008
0.0705135
0.0693659
0.0680587
0.066593
0.0649702
0.063192
0.0612603
0.0591773
0.0569453
0.0545665
0.0520422
0.0493735
0.0465819
0.0436857
0.0404254
0.0365777
0.0285436
0.0244357
0.0209914
0.0179693
0.0150866
0.0123597
0.00980765
0.00742802
0.00521794
0.00317598
0.00130058
-0.000410031
-0.00195771
-0.00334444
-0.00457224
-0.00564322
-0.00655962
-0.0073237
-0.00793784
-0.0084045
-0.00872626
-0.00890577
-0.00894575
-0.008849
-0.00861836
-0.00825684
-0.00776757
-0.00715375
-0.00641871
-0.0055658
-0.00459849
-0.00352038
-0.00233519
-0.00104679
0.000340847
0.00182359
0.00339718
0.00505722
0.00679919
0.00861838
0.01051
0.012469
0.0144903
0.0165684
0.018698
0.0208733
0.0230884
0.0253375
0.0276142
0.0299125
0.0322257
0.0345474
0.0368707
0.0391887
0.0414946
0.0437812
0.0460413
0.0482677
0.0504533
0.0525907
0.0546726
0.0566916
0.0586406
0.0605124
0.0622997
0.0639956
0.0655932
0.0670859
0.0684672
0.0697309
0.070871
0.0718819
0.0727582
0.0734949
0.0740871
0.0745307
0.0748217
0.0749567
0.0749326
0.0747469
0.0743975
0.0738828
0.0732013
0.0723523
0.0713354
0.0701508
0.0687989
0.0672807
0.0655973
0.0637503
0.0617416
0.0595731
0.0572473
0.0547666
0.0521322
0.0493454
0.0464286
0.0434015
0.0399925
0.0359685
0.0285473
0.0242713
0.020687
0.0175432
0.0145458
0.0117117
0.00906088
0.00659073
0.00429815
0.00218155
0.000239154
-0.00153107
-0.00313126
-0.00456368
-0.0058307
-0.00693475
-0.00787832
-0.00866404
-0.00929457
-0.00977275
-0.0101014
-0.0102835
-0.010322
-0.01022
-0.00998052
-0.00960688
-0.0091024
-0.00847046
-0.00771455
-0.0068382
-0.00584509
-0.00473898
-0.00352369
-0.00220321
-0.000781585
0.000736956
0.00234808
0.0040473
0.00583004
0.00769154
0.00962693
0.0116312
0.0136991
0.0158253
0.0180042
0.02023
0.022497
0.0247991
0.0271301
0.0294836
0.0318533
0.0342323
0.0366139
0.0389911
0.0413569
0.043704
0.0460252
0.0483131
0.0505604
0.0527595
0.0549031
0.0569835
0.0589934
0.0609253
0.0627719
0.0645258
0.0661799
0.0677273
0.0691612
0.070475
0.0716625
0.0727178
0.0736351
0.0744088
0.0750341
0.0755061