/*--------------------------------*- C++ -*----------------------------------*\
| =========                 |                                                 |
| \\      /  F ield         | OpenFOAM: The Open Source CFD Toolbox           |
|  \\    /   O peration     | Version:  2212                                  |
|   \\  /    A nd           | Website:  www.openfoam.com                      |
|    \\/     M anipulation  |                                                 |
\*---------------------------------------------------------------------------*/
FoamFile
{
    version     2.0;
    format      ascii;
    arch        "LSB;label=32;scalar=64";
    class       volScalarField;
    location    "0.0145";
    object      p;
}
// * * * * * * * * * * * * * * * * * * * * * * * * * * * * * * * * * * * * * //

dimensions      [0 2 -2 0 0 0 0];

internalField   nonuniform List<scalar> 
10000
(
-4.67084e-08
-1.3949e-05
-0.000257112
-0.000694911
-0.00129773
-0.00203429
-0.00285949
-0.00373017
-0.00460841
-0.00546189
-0.00626463
-0.00699551
-0.00763738
-0.00817593
-0.00859882
-0.00889699
-0.00906451
-0.00909624
-0.0089871
-0.00873316
-0.00833167
-0.00778215
-0.0070866
-0.00624816
-0.00526922
-0.00415178
-0.00289844
-0.00151236
3.16657e-06
0.0016445
0.00340707
0.00528584
0.00727579
0.00937184
0.0115687
0.0138611
0.0162442
0.0187132
0.0212628
0.0238874
0.0265812
0.0293382
0.0321522
0.0350167
0.0379256
0.040873
0.0438525
0.0468573
0.0498803
0.0529146
0.0559538
0.0589912
0.0620203
0.0650347
0.0680282
0.0709948
0.0739279
0.0768206
0.0796657
0.0824569
0.0851879
0.0878529
0.0904458
0.0929604
0.0953911
0.0977326
0.0999791
0.102125
0.104164
0.106091
0.1079
0.109586
0.111143
0.112566
0.11385
0.114992
0.115988
0.116837
0.117537
0.118086
0.118483
0.118726
0.118819
0.118763
0.118562
0.118223
0.117754
0.117163
0.116463
0.115666
0.11479
0.113854
0.112886
0.111915
0.11098
0.110124
0.109398
0.10886
0.108575
0.108554
3.03847e-05
8.06089e-05
-9.90832e-05
-0.000456197
-0.000955697
-0.00157095
-0.00226347
-0.00299661
-0.00373818
-0.00446077
-0.00514016
-0.00575675
-0.00629526
-0.00674183
-0.00708489
-0.00731534
-0.0074254
-0.00740938
-0.0072633
-0.00698329
-0.00656607
-0.00601022
-0.00531629
-0.0044861
-0.00352194
-0.00242609
-0.00120115
0.000150227
0.00162533
0.00322093
0.00493301
0.00675704
0.00868845
0.0107223
0.0128533
0.0150769
0.0173884
0.0197837
0.0222575
0.0248041
0.0274177
0.0300926
0.0328226
0.035602
0.0384251
0.0412859
0.0441778
0.0470939
0.0500274
0.0529722
0.0559218
0.0588698
0.0618095
0.0647345
0.067639
0.070517
0.0733621
0.0761675
0.0789266
0.0816331
0.084281
0.0868646
0.089378
0.0918155
0.0941718
0.0964419
0.0986202
0.100701
0.102678
0.104547
0.106304
0.107942
0.109457
0.110843
0.112097
0.113215
0.114195
0.115035
0.115734
0.11629
0.116703
0.116973
0.117104
0.117096
0.116956
0.116689
0.116303
0.115807
0.115214
0.114536
0.11379
0.112994
0.112173
0.111354
0.110571
0.109858
0.109254
0.108802
0.108553
0.108534
0.000355377
0.000398835
0.00023174
-9.34881e-05
-0.000540902
-0.00108641
-0.00169662
-0.00233944
-0.00298856
-0.00361982
-0.00421141
-0.00474578
-0.00520778
-0.00558513
-0.00586792
-0.00604647
-0.0061125
-0.0060598
-0.00588394
-0.00558155
-0.00515026
-0.0045881
-0.00389475
-0.00307114
-0.00211891
-0.00104023
0.000162362
0.00148655
0.00293
0.00448959
0.0061616
0.00794201
0.00982656
0.0118104
0.0138885
0.0160566
0.0183108
0.0206467
0.0230593
0.025543
0.0280918
0.0307
0.0333619
0.0360722
0.0388256
0.0416161
0.0444369
0.0472811
0.0501424
0.0530147
0.0558921
0.0587679
0.0616355
0.0644887
0.0673216
0.0701284
0.0729025
0.0756373
0.078327
0.0809654
0.0835466
0.086065
0.088515
0.0908912
0.0931885
0.095402
0.097526
0.0995545
0.101483
0.103306
0.105021
0.106621
0.108102
0.10946
0.11069
0.11179
0.112758
0.113592
0.11429
0.114852
0.115278
0.115569
0.115729
0.115761
0.115668
0.115457
0.115135
0.114711
0.114197
0.113606
0.112953
0.112256
0.111536
0.110818
0.110131
0.109502
0.108965
0.108551
0.108302
0.108249
0.000986755
0.000942107
0.000731991
0.000393143
-4.58573e-05
-0.000562676
-0.00112876
-0.00171826
-0.00230776
-0.00287672
-0.00340743
-0.00388289
-0.004289
-0.00461497
-0.00485105
-0.00498884
-0.00502071
-0.00493962
-0.00474037
-0.0044197
-0.00397558
-0.00340675
-0.00271284
-0.00189418
-0.000951861
0.000112288
0.0012963
0.00259828
0.00401589
0.00554602
0.00718523
0.00892977
0.0107754
0.0127175
0.0147516
0.0168739
0.0190805
0.0213668
0.0237281
0.0261589
0.0286533
0.0312056
0.0338104
0.0364625
0.0391571
0.0418881
0.0446488
0.0474325
0.0502335
0.0530457
0.0558627
0.058678
0.0614853
0.0642787
0.0670521
0.0697995
0.0725143
0.0751903
0.077822
0.0804039
0.0829299
0.0853945
0.0877924
0.0901185
0.0923677
0.0945348
0.096614
0.0985997
0.100487
0.102274
0.103954
0.105523
0.106977
0.108311
0.109523
0.110608
0.111566
0.112395
0.113093
0.113659
0.114096
0.114405
0.11459
0.114653
0.114598
0.114431
0.114158
0.113788
0.113333
0.112805
0.112218
0.111589
0.110936
0.110282
0.109649
0.109063
0.108549
0.108134
0.107849
0.107712
0.00182515
0.00164214
0.00135311
0.000974427
0.000520477
1.05507e-05
-0.000533515
-0.00109003
-0.00163865
-0.00216273
-0.00264655
-0.00307575
-0.00343825
-0.00372303
-0.00392068
-0.0040239
-0.00402584
-0.00391998
-0.00370093
-0.00336518
-0.00291034
-0.00233558
-0.00164073
-0.000825986
0.000107667
0.00115882
0.00232618
0.00360811
0.00500229
0.00650581
0.0081155
0.00982768
0.0116379
0.013542
0.0155363
0.0176171
0.0197804
0.0220218
0.0243362
0.0267184
0.0291628
0.0316636
0.0342161
0.0368156
0.0394563
0.0421324
0.0448377
0.0475661
0.0503122
0.0530696
0.0558318
0.0585919
0.0613444
0.0640833
0.0668026
0.0694959
0.0721567
0.0747795
0.0773591
0.0798897
0.0823656
0.0847818
0.0871331
0.0894143
0.0916202
0.0937456
0.0957847
0.0977321
0.0995836
0.101336
0.102986
0.104527
0.105957
0.107271
0.108466
0.109538
0.110487
0.11131
0.112007
0.112578
0.113025
0.113351
0.113558
0.113648
0.113625
0.113493
0.113261
0.112936
0.112529
0.112051
0.111515
0.110936
0.110331
0.109719
0.109118
0.108549
0.108034
0.107594
0.107243
0.106987
0.00278825
0.00244418
0.00205647
0.00162106
0.0011354
0.000614017
7.49048e-05
-0.000465098
-0.000989964
-0.0014843
-0.00193464
-0.00232955
-0.00265849
-0.00291137
-0.00307936
-0.00315495
-0.00313182
-0.00300448
-0.00276819
-0.00241953
-0.00195622
-0.00137704
-0.000681709
0.00012936
0.00105529
0.00209518
0.00324803
0.00451215
0.0058854
0.00736532
0.00894872
0.0106318
0.0124104
0.0142807
0.0162394
0.0182831
0.0204075
0.0226085
0.024881
0.0272192
0.029618
0.0320725
0.0345779
0.0371295
0.0397218
0.0423484
0.0450037
0.0476824
0.050379
0.053087
0.0557993
0.0585101
0.0612136
0.0639035
0.0665739
0.0692185
0.0718313
0.0744066
0.0769396
0.0794248
0.0818563
0.0842291
0.0865388
0.0887801
0.0909477
0.093036
0.0950395
0.0969531
0.0987732
0.100497
0.102119
0.103636
0.105044
0.10634
0.107519
0.10858
0.109521
0.11034
0.111036
0.111612
0.112068
0.112408
0.112633
0.112745
0.112747
0.112645
0.112445
0.112156
0.111786
0.111346
0.110847
0.110304
0.10973
0.10914
0.108551
0.10798
0.107444
0.106961
0.106525
0.106128
0.0038232
0.0033115
0.00281482
0.00231167
0.00177989
0.00123202
0.000683051
0.000144637
-0.000370257
-0.000848492
-0.0012788
-0.001651
-0.00195582
-0.00218506
-0.00233077
-0.00238549
-0.00234309
-0.00219853
-0.00194802
-0.00158849
-0.00111808
-0.00053552
0.000159601
0.000966891
0.00188586
0.0029159
0.00405606
0.00530471
0.00665987
0.00811928
0.00967963
0.011337
0.0130879
0.0149288
0.0168564
0.0188675
0.0209578
0.0231229
0.0253581
0.0276577
0.0300163
0.0324298
0.0348938
0.0374032
0.039952
0.0425349
0.0451466
0.0477815
0.0504341
0.053098
0.0557663
0.0584332
0.0610932
0.0637402
0.0663676
0.0689693
0.0715398
0.0740739
0.0765664
0.0790117
0.081404
0.083739
0.0860124
0.0882188
0.0903527
0.0924086
0.0943815
0.0962664
0.0980596
0.0997581
0.101357
0.102853
0.104242
0.105521
0.106687
0.107738
0.108671
0.109487
0.110184
0.110763
0.111228
0.111578
0.111817
0.111946
0.111968
0.111889
0.111714
0.111452
0.11111
0.110696
0.110222
0.109699
0.109141
0.108558
0.107965
0.107375
0.106803
0.106262
0.10573
0.105182
0.00488973
0.00421234
0.00360296
0.00302395
0.00243655
0.00185083
0.00127891
0.000730027
0.000213994
-0.000259519
-0.000680835
-0.00104059
-0.00133062
-0.00154382
-0.00167324
-0.00171231
-0.00165551
-0.00149809
-0.00123667
-0.000868837
-0.0003929
0.000192164
0.000886558
0.00169014
0.00260291
0.00362434
0.00475334
0.00598867
0.0073285
0.00877024
0.0103106
0.0119457
0.0136726
0.0154882
0.0173893
0.019372
0.0214328
0.0235669
0.0257691
0.0280346
0.0303586
0.0327369
0.0351648
0.0376372
0.0401484
0.0426932
0.0452667
0.0478637
0.0504779
0.0531028
0.0557323
0.0583611
0.0609834
0.0635926
0.0661825
0.0687475
0.0712819
0.0737805
0.076238
0.0786487
0.0810073
0.0833097
0.0855517
0.0877279
0.0898326
0.091861
0.0938081
0.095669
0.0974399
0.0991173
0.100697
0.102174
0.103546
0.104811
0.105966
0.107008
0.107935
0.108749
0.109447
0.11003
0.110501
0.11086
0.111109
0.11125
0.111287
0.111225
0.111069
0.110826
0.110502
0.110105
0.109644
0.10913
0.108574
0.107986
0.107376
0.106755
0.106135
0.105526
0.104891
0.104192
0.0059564
0.00511949
0.00439634
0.00373731
0.00308837
0.00245603
0.0018516
0.00128223
0.000754732
0.000276651
-0.000144093
-0.000499838
-0.000783261
-0.000987483
-0.00110637
-0.0011345
-0.00106714
-0.000900419
-0.000631154
-0.000257379
0.000222326
0.000808631
0.0015018
0.00230201
0.00320929
0.0042232
0.00534272
0.00656687
0.00789383
0.00932048
0.0108436
0.0124601
0.0141668
0.0159609
0.0178394
0.0197984
0.0218338
0.0239411
0.0261153
0.0283515
0.0306458
0.0329943
0.0353916
0.0378322
0.040311
0.0428236
0.0453647
0.0479287
0.0505095
0.0531011
0.0556976
0.0582935
0.0608832
0.0634602
0.0660184
0.0685524
0.0710566
0.0735254
0.0759533
0.0783349
0.080665
0.0829399
0.0851554
0.0873061
0.0893865
0.0913919
0.0933178
0.0951592
0.0969119
0.0985719
0.100135
0.101597
0.102955
0.104208
0.105353
0.106389
0.107312
0.108124
0.108824
0.10941
0.109885
0.11025
0.110507
0.110657
0.110705
0.110655
0.110512
0.110281
0.109968
0.109578
0.10912
0.108605
0.108041
0.107437
0.1068
0.106138
0.105462
0.10478
0.10404
0.103191
0.00699763
0.0060089
0.00517415
0.00443326
0.00371785
0.00303369
0.00239015
0.00179188
0.00124424
0.000753591
0.000326029
-3.24519e-05
-0.000315394
-0.000516514
-0.000630276
-0.000652011
-0.000577854
-0.000404819
-0.000130355
0.000247283
0.000729076
0.0013155
0.00200709
0.0028042
0.00370664
0.0047142
0.00582621
0.00704126
0.00835736
0.00977154
0.0112805
0.0128815
0.0145719
0.0163484
0.0182079
0.0201472
0.0221616
0.0242462
0.0263966
0.0286089
0.030879
0.0332023
0.0355736
0.0379879
0.0404401
0.0429258
0.0454398
0.047976
0.0505287
0.0530924
0.0556612
0.0582298
0.0607924
0.0633427
0.0658749
0.0683837
0.0708633
0.0733076
0.0757114
0.0780692
0.0803763
0.0826289
0.0848229
0.0869529
0.0890135
0.0910006
0.0929097
0.0947356
0.0964736
0.0981198
0.0996697
0.10112
0.102467
0.103711
0.10485
0.10588
0.106801
0.107611
0.108311
0.1089
0.109378
0.109747
0.110008
0.110165
0.11022
0.110178
0.110043
0.109818
0.109507
0.109116
0.108654
0.10813
0.107551
0.106922
0.106249
0.10554
0.104802
0.104044
0.103199
0.102207
0.00799173
0.00686048
0.00591819
0.00509433
0.00431012
0.00357028
0.00288238
0.00224942
0.00167539
0.00116527
0.000724198
0.000357388
7.00873e-05
-0.000132536
-0.000245573
-0.000264926
-0.000187627
-1.11572e-05
0.000266193
0.00064569
0.00112808
0.00171393
0.00240377
0.00319799
0.00409647
0.00509901
0.00620525
0.00741336
0.00872061
0.0101246
0.0116226
0.0132114
0.0148886
0.0166514
0.0184964
0.0204195
0.0224165
0.0244828
0.0266145
0.0288077
0.0310582
0.0333612
0.0357115
0.0381045
0.0405353
0.0429995
0.0454914
0.0480051
0.0505352
0.0530764
0.0556231
0.0581698
0.0607106
0.0632397
0.0657515
0.0682407
0.0707009
0.0731261
0.075511
0.0778506
0.0801402
0.0823758
0.0845531
0.086667
0.0887124
0.0906855
0.0925816
0.0943954
0.0961221
0.0977577
0.0992981
0.10074
0.10208
0.103318
0.104451
0.105478
0.106396
0.107206
0.107906
0.108496
0.108976
0.109347
0.109613
0.109774
0.109833
0.109794
0.10966
0.109434
0.109119
0.108723
0.108251
0.107711
0.107109
0.106449
0.105735
0.104973
0.104171
0.103335
0.102387
0.101258
0.00892177
0.00765688
0.00661113
0.00570603
0.00485206
0.00405318
0.00331701
0.00264527
0.00204025
0.00150555
0.00104586
0.000665905
0.000369915
0.00016205
4.62362e-05
2.58279e-05
0.000103268
0.000280416
0.000558431
0.000937986
0.00141978
0.00200463
0.00269275
0.00348437
0.00437998
0.00537925
0.00648109
0.00768383
0.00898482
0.0103813
0.0118708
0.0134509
0.0151186
0.0168712
0.0187051
0.0206161
0.0225997
0.0246521
0.0267697
0.0289485
0.0311841
0.0334714
0.0358056
0.0381824
0.0405971
0.0430447
0.0455195
0.0480159
0.0505289
0.0530533
0.0555833
0.0581133
0.0606379
0.0631513
0.0656481
0.0681227
0.0705686
0.0729797
0.0753511
0.077678
0.0799553
0.082179
0.0843446
0.086447
0.0884816
0.0904446
0.0923313
0.0941362
0.0958548
0.0974833
0.0990176
0.100454
0.101791
0.103025
0.104156
0.10518
0.106097
0.106905
0.107605
0.108196
0.108677
0.10905
0.109318
0.10948
0.10954
0.1095
0.109363
0.109131
0.108809
0.108401
0.107914
0.107353
0.106723
0.106026
0.105266
0.104449
0.103581
0.102668
0.10162
0.100361
0.00977429
0.0083832
0.00723887
0.00625478
0.00533086
0.00447157
0.00368453
0.00297056
0.00233093
0.00176834
0.00128648
0.000889485
0.00058111
0.000364668
0.000243029
0.000218687
0.000293784
0.000469211
0.000745743
0.001124
0.00160444
0.00218773
0.00287432
0.0036643
0.00455805
0.00555543
0.00665472
0.00785368
0.00915029
0.0105421
0.0120264
0.0136007
0.0152625
0.0170086
0.018835
0.0207375
0.022712
0.0247551
0.0268633
0.0290323
0.0312572
0.0335334
0.0358565
0.0382222
0.0406256
0.0430615
0.0455243
0.0480089
0.0505104
0.0530234
0.055542
0.0580607
0.0605744
0.0630775
0.0655645
0.0680295
0.070466
0.0728683
0.0752315
0.0775509
0.0798212
0.082038
0.0841966
0.0862921
0.0883201
0.0902768
0.0921575
0.0939569
0.0956708
0.0972956
0.0988277
0.100263
0.101599
0.102832
0.103961
0.104984
0.1059
0.106708
0.107409
0.108
0.108482
0.108856
0.109124
0.109286
0.109343
0.109298
0.109154
0.108914
0.10858
0.108157
0.107651
0.107064
0.1064
0.105663
0.104855
0.10398
0.103046
0.102056
0.100913
0.0995309
0.010538
0.00902833
0.00778966
0.00672799
0.00573523
0.00481554
0.00397617
0.00321752
0.00254073
0.00194778
0.00144122
0.00102442
0.000700699
0.000472678
0.000342513
0.000311845
0.000382115
0.000553865
0.000827275
0.00120306
0.00168176
0.00226338
0.0029485
0.00373792
0.00463138
0.00562787
0.00672586
0.00792328
0.0092179
0.0106075
0.0120895
0.0136616
0.0153208
0.0170637
0.0188861
0.020784
0.0227539
0.0247925
0.0268957
0.029059
0.0312778
0.0335476
0.0358645
0.0382241
0.0406209
0.04305
0.0455062
0.0479845
0.05048
0.0529871
0.0554997
0.0580125
0.0605208
0.0630189
0.0655011
0.0679614
0.0703936
0.0727922
0.0751527
0.0774699
0.0797382
0.0819528
0.0841093
0.0862025
0.0882282
0.0901826
0.0920609
0.0938584
0.0955711
0.0971962
0.0987295
0.100167
0.101504
0.102738
0.103868
0.104891
0.105808
0.106617
0.107318
0.10791
0.108393
0.108767
0.109034
0.109192
0.109244
0.109192
0.109038
0.108786
0.108438
0.107997
0.107466
0.10685
0.10615
0.10537
0.104512
0.103579
0.102578
0.101513
0.100278
0.09878
0.0112039
0.00958264
0.00825331
0.00711638
0.00605583
0.00507587
0.00418381
0.0033795
0.0026638
0.00203841
0.00150524
0.00106666
0.000725242
0.000483148
0.000342106
0.000303047
0.000366205
0.000532407
0.000801828
0.00117441
0.00165063
0.00223094
0.0029157
0.00370529
0.00459932
0.00559635
0.00669468
0.00789246
0.00918746
0.0105775
0.0120603
0.0136334
0.0152934
0.0170363
0.0188584
0.0207559
0.0227257
0.024764
0.0268664
0.0290283
0.0312454
0.0335139
0.0358295
0.0381875
0.0405826
0.04301
0.045465
0.0479426
0.0504375
0.052944
0.0554561
0.0579687
0.0604771
0.0629756
0.0654581
0.0679189
0.070352
0.0727524
0.0751153
0.0774353
0.0797064
0.0819236
0.0840827
0.0861785
0.0882065
0.0901626
0.0920425
0.0938419
0.0955574
0.0971862
0.0987238
0.100165
0.101506
0.102744
0.103876
0.104902
0.105821
0.106632
0.107334
0.107927
0.10841
0.108782
0.109046
0.109199
0.109244
0.109183
0.109018
0.108752
0.108386
0.107923
0.107365
0.106717
0.105979
0.105154
0.104245
0.103253
0.102186
0.101048
0.0997244
0.0981174
0.011764
0.0100372
0.00862175
0.00741212
0.00628484
0.00524507
0.00430051
0.0034503
0.0026947
0.00203538
0.00147385
0.00101166
0.000650786
0.000392819
0.000238663
0.000188973
0.000243745
0.000403122
0.000667374
0.0010364
0.00151026
0.00208968
0.00277501
0.00356583
0.00446131
0.00546015
0.00656063
0.0077608
0.00905861
0.010452
0.0119387
0.0135157
0.0151794
0.0169258
0.0187514
0.0206528
0.0226266
0.0246686
0.0267742
0.0289392
0.0311596
0.0334315
0.0357505
0.0381117
0.04051
0.0429411
0.0454005
0.0478827
0.0503824
0.0528937
0.0554108
0.0579289
0.0604429
0.062947
0.0654351
0.0679016
0.0703412
0.0727486
0.0751191
0.0774465
0.0797249
0.0819496
0.084116
0.0862192
0.0882541
0.0902165
0.0921023
0.0939078
0.0956299
0.0972655
0.0988097
0.100257
0.101604
0.102847
0.103985
0.105016
0.105939
0.106753
0.107458
0.108051
0.108532
0.108902
0.109161
0.109308
0.109345
0.109273
0.109096
0.108813
0.108427
0.107939
0.107352
0.106669
0.105892
0.105022
0.104061
0.10301
0.101878
0.100669
0.0992606
0.0975502
0.0122121
0.0103855
0.0088879
0.00760803
0.00641586
0.00531711
0.00432023
0.00342416
0.00262826
0.00193384
0.00134246
0.000855154
0.000473086
0.000197428
2.85511e-05
-3.35578e-05
1.15179e-05
0.000163458
0.00042195
0.000787084
0.00125919
0.0018386
0.00252515
0.00331804
0.00421622
0.00521839
0.00632285
0.00752763
0.00883085
0.0102305
0.011724
0.0133078
0.0149781
0.0167315
0.0185646
0.0204741
0.0224558
0.0245053
0.0266184
0.028791
0.0310195
0.0332996
0.0356266
0.0379959
0.0404027
0.042843
0.0453119
0.047804
0.0503136
0.0528351
0.0553629
0.057892
0.0604172
0.0629321
0.0654311
0.067909
0.0703603
0.0727799
0.0751624
0.0775017
0.0797921
0.0820289
0.0842077
0.0863229
0.0883694
0.0903428
0.0922392
0.0940549
0.0957872
0.0974326
0.098986
0.100442
0.101797
0.103049
0.104194
0.105233
0.106162
0.10698
0.107687
0.10828
0.10876
0.109127
0.109381
0.109521
0.109549
0.109467
0.109274
0.108973
0.108564
0.108049
0.107432
0.106714
0.105896
0.104979
0.103966
0.102858
0.101661
0.100383
0.0988938
0.0970849
0.0125445
0.0106228
0.009046
0.00769825
0.00644326
0.00528675
0.00423775
0.00329551
0.00245911
0.00172894
0.00110633
0.000592487
0.00018781
-0.000107345
-0.000292523
-0.000367838
-0.000333465
-0.000189747
6.29581e-05
0.00042469
0.00089573
0.00147586
0.00216431
0.00296022
0.00386255
0.00486981
0.00598022
0.00719206
0.00850354
0.00991232
0.0114152
0.0130086
0.0146889
0.016453
0.0182977
0.0202189
0.0222122
0.0242733
0.0263983
0.0285835
0.0308249
0.0331178
0.0354576
0.03784
0.0402607
0.0427154
0.0451991
0.0477059
0.0502307
0.0527678
0.0553119
0.0578574
0.0603988
0.0629298
0.0654452
0.0679399
0.0704083
0.0728447
0.0752437
0.0775994
0.0799064
0.0821602
0.0843561
0.0864883
0.0885512
0.0905404
0.092452
0.0942823
0.0960284
0.0976866
0.0992519
0.10072
0.102086
0.103349
0.104505
0.105553
0.10649
0.107313
0.108022
0.108616
0.109095
0.10946
0.10971
0.109844
0.109862
0.109766
0.109557
0.109235
0.108803
0.108261
0.107612
0.106858
0.105998
0.105035
0.10397
0.102804
0.101545
0.100199
0.0986312
0.0967279
0.0127585
0.0107452
0.00909196
0.00767822
0.00636182
0.00514876
0.00404817
0.00305947
0.00218187
0.00141544
0.000760798
0.000218823
-0.000210023
-0.000525728
-0.000728268
-0.000817622
-0.000794502
-0.00065925
-0.000411989
-5.28913e-05
0.000417686
0.000999078
0.00169037
0.00249061
0.00339862
0.00441283
0.00553157
0.00675322
0.00807573
0.00949621
0.0110112
0.0126172
0.0143112
0.01609
0.0179499
0.0198864
0.0218951
0.0239722
0.026114
0.0283165
0.0305753
0.0328858
0.0352435
0.0376445
0.0400844
0.0425585
0.0450618
0.0475887
0.0501339
0.0526922
0.0552577
0.0578248
0.0603876
0.0629402
0.0654775
0.0679944
0.0704847
0.0729426
0.0753626
0.0777394
0.0800679
0.0823434
0.0845612
0.086715
0.0887992
0.0908091
0.0927405
0.0945898
0.0963535
0.098028
0.0996087
0.101091
0.102472
0.103749
0.104919
0.105978
0.106923
0.107753
0.108466
0.109063
0.109542
0.109906
0.110152
0.110278
0.110286
0.110175
0.109948
0.109606
0.10915
0.10858
0.107898
0.107106
0.106205
0.105195
0.104078
0.102855
0.101534
0.100121
0.0984773
0.0964832
0.0128507
0.0107496
0.0090224
0.00754391
0.006167
0.0048982
0.00374644
0.00271113
0.00179166
0.000988084
0.000300535
-0.00027064
-0.000724896
-0.00106203
-0.00128244
-0.00138654
-0.0013748
-0.00124754
-0.00100513
-0.000648165
-0.000177534
0.000405888
0.00110119
0.00190723
0.00282265
0.00384599
0.00497572
0.00620994
0.00754602
0.00898071
0.0105107
0.0121329
0.0138444
0.0156416
0.0175202
0.0194757
0.0215041
0.0236019
0.0257652
0.0279897
0.0302706
0.0326037
0.0349847
0.0374097
0.039874
0.0423727
0.0449007
0.0474528
0.0500241
0.0526089
0.0552011
0.0577948
0.0603844
0.062964
0.0655286
0.0680727
0.0705899
0.0730741
0.0755201
0.0779228
0.0802776
0.0825797
0.0848239
0.0870039
0.089114
0.0911492
0.0931052
0.0949777
0.0967632
0.0984581
0.100058
0.101559
0.102958
0.104252
0.105437
0.106508
0.107463
0.108301
0.109021
0.109621
0.110103
0.110466
0.110707
0.110826
0.110822
0.110697
0.110453
0.11009
0.109608
0.109009
0.108293
0.107463
0.106518
0.105462
0.104293
0.103013
0.10163
0.100153
0.0984345
0.0963526
0.0128186
0.0106324
0.00883348
0.00729155
0.00585447
0.00453017
0.00332746
0.00224537
0.00128347
0.000441772
-0.000279734
-0.000880767
-0.00136094
-0.0017202
-0.00195892
-0.00207781
-0.00207706
-0.00195717
-0.00171908
-0.00136387
-0.000892539
-0.000306001
0.000394642
0.00120806
0.00213294
0.00316795
0.00431133
0.00556058
0.00691262
0.00836429
0.00991265
0.0115548
0.0132874
0.0151063
0.0170071
0.0189858
0.0210386
0.0231618
0.0253512
0.0276021
0.0299102
0.0322712
0.0346811
0.0371355
0.0396293
0.0421577
0.0447159
0.047299
0.0499019
0.0525186
0.0551426
0.0577682
0.0603898
0.0630019
0.0655992
0.0681756
0.0707246
0.07324
0.0757172
0.0781511
0.0805371
0.0828704
0.0851455
0.087356
0.0894963
0.0915615
0.0935465
0.0954469
0.0972586
0.0989781
0.100601
0.102125
0.103544
0.104857
0.106059
0.107144
0.108112
0.10896
0.109688
0.110295
0.11078
0.111142
0.111379
0.11149
0.111474
0.111335
0.111074
0.110689
0.110182
0.109552
0.108801
0.107931
0.106944
0.10584
0.104619
0.103282
0.101838
0.100296
0.0985054
0.0963381
0.0126606
0.0103903
0.00852086
0.00691687
0.00541992
0.00403974
0.00278607
0.00165705
0.000652058
-0.000228594
-0.000984697
-0.00161601
-0.0021224
-0.00250401
-0.00276112
-0.00289422
-0.00290384
-0.00279093
-0.00255682
-0.00220275
-0.00172975
-0.00113887
-0.000431438
0.000391242
0.001328
0.00237726
0.00353665
0.00480315
0.0061737
0.00764553
0.00921587
0.0108815
0.0126384
0.0144825
0.0164095
0.0184157
0.0204974
0.0226505
0.0248704
0.0271527
0.0294932
0.0318876
0.0343317
0.0368207
0.0393494
0.0419131
0.0445073
0.0471271
0.0497671
0.0524209
0.0550819
0.0577447
0.0604039
0.0630539
0.0656889
0.0683027
0.0708885
0.0734407
0.0759545
0.078425
0.0808472
0.0832162
0.0855264
0.0877718
0.0899468
0.0920463
0.094065
0.0959977
0.0978402
0.0995889
0.101239
0.102788
0.104232
0.105566
0.106786
0.107888
0.108871
0.109732
0.110471
0.111085
0.111574
0.111936
0.112169
0.112273
0.112248
0.112096
0.111817
0.11141
0.110875
0.110214
0.109427
0.108518
0.107487
0.106335
0.105061
0.103667
0.102162
0.100557
0.0986937
0.0964422
0.012375
0.0100205
0.00808057
0.00641504
0.00485887
0.00342251
0.0021172
0.00094078
-0.000107729
-0.00102769
-0.00181865
-0.00248052
-0.00301333
-0.00341705
-0.00369199
-0.00383869
-0.00385826
-0.00375203
-0.00352136
-0.00316753
-0.0026917
-0.00209513
-0.00137913
-0.000544877
0.000406233
0.001472
0.00264945
0.00393555
0.00532761
0.00682303
0.00841873
0.0101109
0.0118955
0.0137684
0.0157258
0.0177641
0.0198791
0.0220663
0.0243214
0.02664
0.0290182
0.0314514
0.0339349
0.0364636
0.0390325
0.0416373
0.0442734
0.0469356
0.0496181
0.0523143
0.0550178
0.0577232
0.0604254
0.0631186
0.0657965
0.0684528
0.071081
0.0736757
0.076232
0.0787444
0.0812077
0.083617
0.0859668
0.0882517
0.090466
0.0926044
0.0946611
0.0966307
0.0985085
0.100291
0.101972
0.10355
0.10502
0.106378
0.10762
0.108742
0.109743
0.11062
0.111371
0.111994
0.112488
0.112851
0.113082
0.11318
0.113147
0.112982
0.112686
0.112256
0.111693
0.111
0.110177
0.109228
0.108152
0.10695
0.105623
0.104171
0.102606
0.100937
0.0990026
0.0966671
0.0119595
0.00952064
0.00750933
0.00578188
0.00416673
0.00267395
0.00131602
9.1559e-05
-0.00100059
-0.00195992
-0.00278595
-0.00347848
-0.00403742
-0.00446272
-0.00475487
-0.00491488
-0.00494414
-0.00484403
-0.00461595
-0.00426128
-0.00378133
-0.00317734
-0.00245053
-0.0016023
-0.000634678
0.000449509
0.00164723
0.00295578
0.00437265
0.00589496
0.00751908
0.00924096
0.0110567
0.0129626
0.0149549
0.0170294
0.0191818
0.0214075
0.0237025
0.0260626
0.0284836
0.0309606
0.0334885
0.0360622
0.0386771
0.0413288
0.0440126
0.0467226
0.0494529
0.0521969
0.0549484
0.0577022
0.0604528
0.0631942
0.0659203
0.0686247
0.0713013
0.0739444
0.0765488
0.0791086
0.0816182
0.0840726
0.086467
0.0887962
0.0910547
0.0932366
0.0953358
0.0973465
0.0992639
0.101084
0.102801
0.104411
0.10591
0.107296
0.108563
0.109708
0.11073
0.111624
0.11239
0.113024
0.113524
0.11389
0.11412
0.114215
0.114174
0.113997
0.113682
0.113229
0.112639
0.111913
0.111055
0.110064
0.108942
0.10769
0.106309
0.104798
0.103172
0.101439
0.099433
0.0970137
0.0114113
0.00888783
0.00680436
0.00501374
0.00333881
0.00178924
0.000378195
-0.000894845
-0.00203093
-0.0030298
-0.00389096
-0.00461392
-0.00519842
-0.00564489
-0.00595404
-0.0061272
-0.00616569
-0.00607091
-0.00584439
-0.00548763
-0.0050019
-0.00438832
-0.00364835
-0.00278405
-0.00179808
-0.000693368
0.000527371
0.00186161
0.00330654
0.00485874
0.00651432
0.00826941
0.0101204
0.0120636
0.014095
0.0162098
0.0184036
0.0206725
0.0230124
0.0254191
0.0278879
0.0304135
0.0329908
0.0356151
0.0382817
0.040986
0.0437228
0.0464861
0.0492695
0.052067
0.0548724
0.0576802
0.0604846
0.0632796
0.0660593
0.0688177
0.0715486
0.0742461
0.0769044
0.079517
0.0820783
0.0845834
0.0870279
0.0894067
0.0917143
0.0939444
0.0960904
0.0981465
0.100108
0.101969
0.103725
0.105372
0.106905
0.108321
0.109617
0.110789
0.111834
0.112748
0.11353
0.114175
0.114684
0.115055
0.115288
0.11538
0.115332
0.115141
0.114809
0.114333
0.113715
0.112958
0.112062
0.111029
0.109861
0.108557
0.10712
0.105551
0.103862
0.102065
0.0999867
0.0974833
0.0107272
0.00811893
0.0059625
0.00410705
0.00237093
0.000764029
-0.000700384
-0.00202252
-0.00320308
-0.00424173
-0.00513783
-0.00589087
-0.00650085
-0.00696841
-0.00729453
-0.00748049
-0.00752755
-0.0074372
-0.00721107
-0.0068506
-0.00635697
-0.00573156
-0.00497645
-0.00409433
-0.00308799
-0.00196006
-0.000713112
0.000650008
0.00212596
0.00371107
0.0054016
0.00719398
0.00908458
0.0110693
0.0131436
0.0153029
0.0175429
0.0198599
0.0222498
0.0247079
0.0272293
0.0298085
0.0324407
0.0351212
0.0378451
0.0406075
0.0434026
0.0462244
0.0490667
0.0519235
0.0547886
0.057656
0.0605197
0.0633739
0.0662132
0.0690317
0.071823
0.0745807
0.0772983
0.0799694
0.0825883
0.0851504
0.087651
0.090085
0.0924467
0.0947296
0.096927
0.0990329
0.101042
0.102949
0.104749
0.106436
0.108007
0.109458
0.110787
0.111988
0.113059
0.113995
0.114795
0.115455
0.115975
0.116354
0.11659
0.11668
0.116625
0.116422
0.116072
0.115574
0.114929
0.114139
0.113206
0.11213
0.110913
0.109557
0.108064
0.106434
0.104682
0.102819
0.100668
0.0980786
0.00990439
0.00721036
0.00498009
0.00305845
0.00125971
-0.000405515
-0.00192397
-0.00329583
-0.00452136
-0.00559989
-0.0065309
-0.00731417
-0.00794994
-0.00843874
-0.00878165
-0.00897985
-0.00903473
-0.00894779
-0.00872054
-0.00835438
-0.00785077
-0.00721167
-0.00643977
-0.0055379
-0.00450857
-0.0033543
-0.00207801
-0.000683084
0.00082688
0.00244836
0.00417791
0.00601193
0.00794635
0.00997667
0.0120982
0.0143065
0.0165977
0.0189679
0.0214127
0.0239272
0.0265061
0.0291443
0.0318371
0.0345795
0.0373662
0.0401917
0.0430505
0.0459364
0.0488436
0.0517657
0.0546961
0.0576288
0.0605576
0.063477
0.066382
0.0692666
0.0721243
0.0749478
0.0777306
0.0804662
0.0831491
0.0857747
0.0883378
0.0908329
0.0932538
0.0955942
0.0978477
0.100008
0.10207
0.104027
0.105874
0.107606
0.10922
0.110711
0.112075
0.113308
0.114407
0.115369
0.11619
0.116868
0.117402
0.117791
0.11803
0.11812
0.118058
0.117843
0.117477
0.116957
0.116285
0.115463
0.114491
0.113371
0.112105
0.110695
0.109144
0.107453
0.105636
0.103706
0.10148
0.0988022
0.00894092
0.00615884
0.00385346
0.0018646
1.72594e-06
-0.00172334
-0.00329694
-0.00471919
-0.00599013
-0.00710897
-0.00807541
-0.00888948
-0.00955136
-0.0100615
-0.0104208
-0.0106307
-0.0106925
-0.0106075
-0.0103774
-0.0100037
-0.00948839
-0.0088341
-0.00804357
-0.00711942
-0.00606407
-0.00488041
-0.00357192
-0.00214225
-0.000594842
0.00106705
0.00283997
0.00471987
0.00670222
0.00878231
0.0109557
0.0132181
0.0155657
0.0179942
0.0204989
0.0230748
0.0257167
0.0284197
0.0311788
0.0339886
0.0368433
0.0397373
0.0426652
0.0456213
0.0485993
0.0515925
0.0545941
0.0575978
0.0605979
0.0635889
0.0665658
0.0695226
0.0724522
0.0753474
0.0782013
0.0810079
0.0837615
0.0864571
0.0890889
0.0916507
0.0941363
0.0965395
0.0988541
0.101074
0.103193
0.105206
0.107105
0.108887
0.110546
0.11208
0.113484
0.114753
0.115884
0.116874
0.117719
0.118419
0.118969
0.119368
0.119613
0.119703
0.119635
0.119411
0.119028
0.118487
0.117788
0.116931
0.11592
0.114756
0.11344
0.111976
0.110365
0.108611
0.106727
0.104728
0.102424
0.0996549
0.00783554
0.00496186
0.0025791
0.000521558
-0.00140712
-0.00319375
-0.00482375
-0.00629722
-0.00761439
-0.00877456
-0.00977736
-0.0106228
-0.0113109
-0.0118422
-0.0122176
-0.0124384
-0.0125058
-0.0124212
-0.0121865
-0.0118038
-0.0112755
-0.0106043
-0.0097927
-0.00884331
-0.00775897
-0.00654314
-0.00519959
-0.00373179
-0.00214295
-0.000436331
0.00138418
0.00331406
0.00534855
0.00748306
0.00971331
0.0120351
0.0144442
0.016936
0.0195057
0.0221486
0.0248595
0.0276331
0.0304641
0.0333466
0.0362747
0.0392429
0.0422458
0.0452779
0.0483327
0.0514028
0.0544814
0.0575624
0.0606401
0.0637093
0.0667644
0.0697991
0.0728063
0.075779
0.0787105
0.0815946
0.0844255
0.0871974
0.0899038
0.0925382
0.0950942
0.0975658
0.0999471
0.102232
0.104414
0.106486
0.108443
0.110278
0.111988
0.113569
0.115016
0.116324
0.117491
0.118513
0.119387
0.12011
0.120678
0.12109
0.121342
0.121433