/*--------------------------------*- C++ -*----------------------------------*\
| =========                 |                                                 |
| \\      /  F ield         | OpenFOAM: The Open Source CFD Toolbox           |
|  \\    /   O peration     | Version:  2212                                  |
|   \\  /    A nd           | Website:  www.openfoam.com                      |
|    \\/     M anipulation  |                                                 |
\*---------------------------------------------------------------------------*/
FoamFile
{
    version     2.0;
    format      ascii;
    arch        "LSB;label=32;scalar=64";
    class       surfaceScalarField;
    location    "0.0145";
    object      phi_0;
}
// * * * * * * * * * * * * * * * * * * * * * * * * * * * * * * * * * * * * * //

dimensions      [0 3 -1 0 0 0 0];

oriented        oriented;

internalField   nonuniform List<scalar> 
19800
(
6.38389e-11
-6.385e-11
1.91484e-10
-1.27638e-10
2.75621e-10
-8.41336e-11
2.97598e-10
-2.19745e-11
2.39371e-10
5.82352e-11
9.6278e-11
1.43097e-10
-1.30518e-10
2.26793e-10
-4.36959e-10
3.06441e-10
-8.17689e-10
3.80725e-10
-1.26662e-09
4.48926e-10
-1.77734e-09
5.10707e-10
-2.34331e-09
5.65959e-10
-2.95809e-09
6.14782e-10
-3.61546e-09
6.57357e-10
-4.30942e-09
6.93953e-10
-5.03423e-09
7.24809e-10
-5.78442e-09
7.50178e-10
-6.55477e-09
7.70352e-10
-7.34035e-09
7.85592e-10
-8.13654e-09
7.9619e-10
-8.93895e-09
8.02426e-10
-9.74351e-09
8.04567e-10
-1.05464e-08
8.02908e-10
-1.13442e-08
7.97763e-10
-1.21336e-08
7.89425e-10
-1.29117e-08
7.78133e-10
-1.36758e-08
7.64109e-10
-1.44234e-08
7.47557e-10
-1.5152e-08
7.28612e-10
-1.58594e-08
7.07436e-10
-1.65437e-08
6.84259e-10
-1.7203e-08
6.59254e-10
-1.78355e-08
6.32524e-10
-1.84397e-08
6.0422e-10
-1.90142e-08
5.74521e-10
-1.95578e-08
5.43524e-10
-2.0069e-08
5.11285e-10
-2.0547e-08
4.77933e-10
-2.09906e-08
4.43618e-10
-2.1399e-08
4.08442e-10
-2.17715e-08
3.72485e-10
-2.21074e-08
3.35854e-10
-2.2406e-08
2.98673e-10
-2.26671e-08
2.61027e-10
-2.289e-08
2.22948e-10
-2.30745e-08
1.84481e-10
-2.32202e-08
1.45699e-10
-2.33269e-08
1.06673e-10
-2.33943e-08
6.74445e-11
-2.34223e-08
2.80381e-11
-2.34109e-08
-1.14956e-11
-2.33598e-08
-5.10794e-11
-2.32691e-08
-9.06483e-11
-2.3139e-08
-1.30155e-10
-2.29694e-08
-1.69564e-10
-2.27606e-08
-2.08824e-10
-2.25127e-08
-2.47854e-10
-2.22262e-08
-2.86558e-10
-2.19013e-08
-3.24848e-10
-2.15387e-08
-3.62646e-10
-2.11388e-08
-3.99884e-10
-2.07023e-08
-4.36472e-10
-2.023e-08
-4.72279e-10
-1.97229e-08
-5.07165e-10
-1.91819e-08
-5.40991e-10
-1.86083e-08
-5.7362e-10
-1.80033e-08
-6.04912e-10
-1.73686e-08
-6.34725e-10
-1.67057e-08
-6.62892e-10
-1.60165e-08
-6.89244e-10
-1.53029e-08
-7.1362e-10
-1.4567e-08
-7.3586e-10
-1.38112e-08
-7.55796e-10
-1.3038e-08
-7.73251e-10
-1.22499e-08
-7.88024e-10
-1.145e-08
-7.99886e-10
-1.06415e-08
-8.08587e-10
-9.8276e-09
-8.13864e-10
-9.01216e-09
-8.15446e-10
-8.19909e-09
-8.13066e-10
-7.39262e-09
-8.06464e-10
-6.59726e-09
-7.95366e-10
-5.81777e-09
-7.79487e-10
-5.05923e-09
-7.58538e-10
-4.327e-09
-7.32231e-10
-3.62673e-09
-7.00273e-10
-2.96435e-09
-6.62382e-10
-2.34603e-09
-6.18319e-10
-1.77812e-09
-5.67907e-10
-1.26708e-09
-5.11046e-10
-8.19349e-10
-4.4774e-10
-4.4119e-10
-3.78158e-10
-1.38444e-10
-3.02742e-10
8.39526e-11
-2.22402e-10
2.22808e-10
-1.3886e-10
2.78115e-10
-5.53032e-11
2.55648e-10
2.24651e-11
1.71843e-10
8.37916e-11
6.34855e-11
1.08352e-10
6.34808e-11
8.73455e-11
-1.51188e-10
2.17649e-10
-2.57957e-10
2.72099e-10
-1.38575e-10
1.70818e-10
7.92968e-11
-1.20859e-10
3.49907e-10
-6.19924e-10
6.42157e-10
-1.32955e-09
9.36417e-10
-2.24426e-09
1.22115e-09
-3.35344e-09
1.48991e-09
-4.64355e-09
1.73904e-09
-6.09941e-09
1.96657e-09
-7.70503e-09
2.17158e-09
-9.44412e-09
2.35387e-09
-1.13005e-08
2.51373e-09
-1.32582e-08
2.6517e-09
-1.53019e-08
2.76851e-09
-1.74168e-08
2.865e-09
-1.95885e-08
2.94208e-09
-2.18036e-08
3.00071e-09
-2.40493e-08
3.04189e-09
-2.63135e-08
3.06662e-09
-2.85849e-08
3.07593e-09
-3.08528e-08
3.07082e-09
-3.31073e-08
3.05232e-09
-3.53394e-08
3.02144e-09
-3.75403e-08
2.97911e-09
-3.97024e-08
2.92614e-09
-4.18181e-08
2.86328e-09
-4.38807e-08
2.79127e-09
-4.58841e-08
2.71079e-09
-4.78224e-08
2.6225e-09
-4.96901e-08
2.52704e-09
-5.14826e-08
2.42501e-09
-5.31953e-08
2.31696e-09
-5.48242e-08
2.20338e-09
-5.63654e-08
2.08475e-09
-5.78157e-08
1.9615e-09
-5.91718e-08
1.83407e-09
-6.0431e-08
1.70284e-09
-6.15908e-08
1.56821e-09
-6.26489e-08
1.43057e-09
-6.36033e-08
1.29029e-09
-6.44523e-08
1.1477e-09
-6.51944e-08
1.00311e-09
-6.58282e-08
8.56744e-10
-6.63526e-08
7.08853e-10
-6.67666e-08
5.59673e-10
-6.70693e-08
4.0943e-10
-6.72602e-08
2.58341e-10
-6.73388e-08
1.0661e-10
-6.73047e-08
-4.55544e-11
-6.71579e-08
-1.97917e-10
-6.68983e-08
-3.50242e-10
-6.65261e-08
-5.02311e-10
-6.60418e-08
-6.5389e-10
-6.54459e-08
-8.0473e-10
-6.47392e-08
-9.54549e-10
-6.39227e-08
-1.10304e-09
-6.29977e-08
-1.24987e-09
-6.19656e-08
-1.39473e-09
-6.08282e-08
-1.53727e-09
-5.95876e-08
-1.6771e-09
-5.82461e-08
-1.8138e-09
-5.68063e-08
-1.9469e-09
-5.52714e-08
-2.07592e-09
-5.36447e-08
-2.20033e-09
-5.193e-08
-2.31962e-09
-5.01315e-08
-2.43319e-09
-4.82539e-08
-2.54047e-09
-4.63023e-08
-2.64084e-09
-4.42823e-08
-2.73365e-09
-4.21999e-08
-2.81826e-09
-4.00617e-08
-2.89399e-09
-3.78749e-08
-2.9601e-09
-3.56471e-08
-3.01579e-09
-3.33868e-08
-3.06022e-09
-3.11029e-08
-3.09249e-09
-2.88051e-08
-3.11167e-09
-2.65037e-08
-3.11679e-09
-2.42099e-08
-3.10688e-09
-2.19354e-08
-3.08095e-09
-1.96928e-08
-3.03802e-09
-1.74952e-08
-2.97708e-09
-1.53565e-08
-2.89716e-09
-1.32915e-08
-2.79728e-09
-1.13152e-08
-2.67653e-09
-9.4435e-09
-2.53411e-09
-7.69244e-09
-2.36939e-09
-6.07837e-09
-2.18198e-09
-4.61757e-09
-1.97185e-09
-3.3258e-09
-1.73951e-09
-2.21776e-09
-1.4862e-09
-1.30619e-09
-1.21432e-09
-6.00495e-10
-9.281e-10
-1.0474e-10
-6.34608e-10
1.85509e-10
-3.45551e-10
2.87963e-10
-8.00008e-11
2.40141e-10
1.31615e-10
1.0779e-10
2.40701e-10
1.71269e-10
8.02729e-11
-2.31458e-10
1.1537e-10
-2.93041e-10
4.00413e-12
-2.71952e-11
-3.37287e-10
4.2059e-10
-9.56243e-10
9.68865e-10
-1.87686e-09
1.56277e-09
-3.1059e-09
2.16545e-09
-4.63835e-09
2.75359e-09
-6.46131e-09
3.31286e-09
-8.55694e-09
3.83466e-09
-1.09043e-08
4.31387e-09
-1.34805e-08
4.74782e-09
-1.6262e-08
5.13538e-09
-1.92248e-08
5.47653e-09
-2.23451e-08
5.77194e-09
-2.55994e-08
6.02282e-09
-2.89651e-08
6.23068e-09
-3.24202e-08
6.39725e-09
-3.5944e-08
6.52447e-09
-3.95164e-08
6.61433e-09
-4.31187e-08
6.66888e-09
-4.67329e-08
6.69019e-09
-5.03425e-08
6.68038e-09
-5.39317e-08
6.64153e-09
-5.74859e-08
6.57565e-09
-6.09914e-08
6.48464e-09
-6.44356e-08
6.37034e-09
-6.78068e-08
6.23442e-09
-7.1094e-08
6.07846e-09
-7.42871e-08
5.90396e-09
-7.73771e-08
5.71243e-09
-8.03552e-08
5.50521e-09
-8.32138e-08
5.28356e-09
-8.59455e-08
5.0487e-09
-8.85439e-08
4.80175e-09
-9.10029e-08
4.54375e-09
-9.33171e-08
4.27567e-09
-9.54814e-08
3.99841e-09
-9.74915e-08
3.71288e-09
-9.93431e-08
3.41989e-09
-1.01033e-07
3.12023e-09
-1.02557e-07
2.81464e-09
-1.03913e-07
2.50383e-09
-1.05099e-07
2.18845e-09
-1.06111e-07
1.86908e-09
-1.06948e-07
1.54625e-09
-1.07609e-07
1.2205e-09
-1.08092e-07
8.92346e-10
-1.08396e-07
5.62297e-10
-1.0852e-07
2.30848e-10
-1.08464e-07
-1.0151e-10
-1.08228e-07
-4.34271e-10
-1.07811e-07
-7.66913e-10
-1.07215e-07
-1.09891e-09
-1.06439e-07
-1.42972e-09
-1.05485e-07
-1.75875e-09
-1.04354e-07
-2.0854e-09
-1.03048e-07
-2.409e-09
-1.01569e-07
-2.72886e-09
-9.99195e-08
-3.04425e-09
-9.81023e-08
-3.3544e-09
-9.6121e-08
-3.65846e-09
-9.39793e-08
-3.95552e-09
-9.16815e-08
-4.24464e-09
-8.92327e-08
-4.52477e-09
-8.66382e-08
-4.79483e-09
-8.39041e-08
-5.05368e-09
-8.10372e-08
-5.3001e-09
-7.80449e-08
-5.53281e-09
-7.49352e-08
-5.75047e-09
-7.17172e-08
-5.95169e-09
-6.84005e-08
-6.13502e-09
-6.49955e-08
-6.29891e-09
-6.15139e-08
-6.44174e-09
-5.79679e-08
-6.56179e-09
-5.43709e-08
-6.65724e-09
-5.07372e-08
-6.72622e-09
-4.70821e-08
-6.76677e-09
-4.3422e-08
-6.77689e-09
-3.97743e-08
-6.75453e-09
-3.61576e-08
-6.69767e-09
-3.25914e-08
-6.60425e-09
-2.90962e-08
-6.47223e-09
-2.56937e-08
-6.29967e-09
-2.24063e-08
-6.08472e-09
-1.92571e-08
-5.82571e-09
-1.627e-08
-5.52124e-09
-1.3469e-08
-5.17033e-09
-1.08784e-08
-4.77262e-09
-8.52165e-09
-4.32857e-09
-6.42134e-09
-3.83982e-09
-4.59779e-09
-3.30974e-09
-3.06792e-09
-2.74419e-09
-1.84334e-09
-2.15269e-09
-9.2771e-10
-1.55024e-09
-3.13227e-10
-9.6004e-10
2.42393e-11
-4.17463e-10
1.31359e-10
2.44957e-11
8.32736e-11
2.88778e-10
2.54546e-10
2.0224e-11
-2.5168e-10
-8.88545e-11
-1.83967e-10
-4.30214e-10
3.14168e-10
-1.07963e-09
1.07001e-09
-2.08471e-09
1.97394e-09
-3.47054e-09
2.94861e-09
-5.24476e-09
3.93968e-09
-7.40207e-09
4.91089e-09
-9.92795e-09
5.83875e-09
-1.28015e-08
6.70825e-09
-1.59978e-08
7.51012e-09
-1.9489e-08
8.23899e-09
-2.32457e-08
8.89214e-09
-2.7238e-08
9.4688e-09
-3.14356e-08
9.96952e-09
-3.58086e-08
1.03958e-08
-4.03277e-08
1.07498e-08
-4.49647e-08
1.10342e-08
-4.96922e-08
1.1252e-08
-5.44843e-08
1.14064e-08
-5.9316e-08
1.15006e-08
-6.4164e-08
1.15382e-08
-6.9006e-08
1.15224e-08
-7.38212e-08
1.14568e-08
-7.85901e-08
1.13446e-08
-8.32945e-08
1.1189e-08
-8.79172e-08
1.09931e-08
-9.24426e-08
1.07598e-08
-9.6856e-08
1.04918e-08
-1.01144e-07
1.01918e-08
-1.05294e-07
9.86224e-09
-1.09294e-07
9.50544e-09
-1.13134e-07
9.12365e-09
-1.16804e-07
8.71894e-09
-1.20296e-07
8.29323e-09
-1.236e-07
7.84832e-09
-1.26711e-07
7.38592e-09
-1.2962e-07
6.9076e-09
-1.32322e-07
6.41488e-09
-1.34811e-07
5.90916e-09
-1.37083e-07
5.39179e-09
-1.39132e-07
4.86403e-09
-1.40955e-07
4.32706e-09
-1.42549e-07
3.78197e-09
-1.43909e-07
3.22982e-09
-1.45035e-07
2.67158e-09
-1.45922e-07
2.1082e-09
-1.46571e-07
1.5406e-09
-1.46978e-07
9.69668e-10
-1.47144e-07
3.96309e-10
-1.47066e-07
-1.78586e-10
-1.46747e-07
-7.54113e-10
-1.46184e-07
-1.32936e-09
-1.4538e-07
-1.90337e-09
-1.44334e-07
-2.47519e-09
-1.43049e-07
-3.04379e-09
-1.41527e-07
-3.60807e-09
-1.39769e-07
-4.1669e-09
-1.37778e-07
-4.71909e-09
-1.35559e-07
-5.26335e-09
-1.33115e-07
-5.79835e-09
-1.30451e-07
-6.32264e-09
-1.27572e-07
-6.83467e-09
-1.24484e-07
-7.33281e-09
-1.21193e-07
-7.81531e-09
-1.17708e-07
-8.28033e-09
-1.14036e-07
-8.72589e-09
-1.10186e-07
-9.14994e-09
-1.06168e-07
-9.55028e-09
-1.01994e-07
-9.92462e-09
-9.76753e-08
-1.02706e-08
-9.32248e-08
-1.05855e-08
-8.86568e-08
-1.08669e-08
-8.39867e-08
-1.11118e-08
-7.92311e-08
-1.13174e-08
-7.44078e-08
-1.14806e-08
-6.95359e-08
-1.15982e-08
-6.46358e-08
-1.16669e-08
-5.97292e-08
-1.16834e-08
-5.48393e-08
-1.16444e-08
-4.99905e-08
-1.15465e-08
-4.52085e-08
-1.13863e-08
-4.05201e-08
-1.11606e-08
-3.59534e-08
-1.08663e-08
-3.15376e-08
-1.05006e-08
-2.73024e-08
-1.00609e-08
-2.32782e-08
-9.54542e-09
-1.94956e-08
-8.95299e-09
-1.59847e-08
-8.28353e-09
-1.27748e-08
-7.53849e-09
-9.89322e-09
-6.72136e-09
-7.36444e-09
-5.83853e-09
-5.20822e-09
-4.90041e-09
-3.43776e-09
-3.92314e-09
-2.05699e-09
-2.93101e-09
-1.0572e-09
-1.95983e-09
-4.1294e-10
-1.06172e-09
-7.75717e-11
-3.10891e-10
2.28677e-11
1.88342e-10
2.77416e-10
-5.35877e-11
-1.98083e-10
-3.44857e-10
1.07303e-10
-9.58905e-10
9.28224e-10
-1.95957e-09
2.07067e-09
-3.38877e-09
3.40313e-09
-5.26851e-09
4.82836e-09
-7.60469e-09
6.27585e-09
-1.03905e-08
7.69668e-09
-1.36095e-08
9.05773e-09
-1.72382e-08
1.0337e-08
-2.12484e-08
1.15203e-08
-2.56083e-08
1.25989e-08
-3.02841e-08
1.3568e-08
-3.5241e-08
1.44257e-08
-4.04435e-08
1.5172e-08
-4.58564e-08
1.58087e-08
-5.14451e-08
1.63385e-08
-5.71757e-08
1.67648e-08
-6.30155e-08
1.70919e-08
-6.89332e-08
1.73241e-08
-7.48989e-08
1.74663e-08
-8.08839e-08
1.75232e-08
-8.68614e-08
1.74999e-08
-9.28059e-08
1.74013e-08
-9.86936e-08
1.72322e-08
-1.04502e-07
1.69974e-08
-1.1021e-07
1.67013e-08
-1.15799e-07
1.63484e-08
-1.2125e-07
1.59427e-08
-1.26546e-07
1.54882e-08
-1.31672e-07
1.49887e-08
-1.36615e-07
1.44478e-08
-1.4136e-07
1.38686e-08
-1.45895e-07
1.32545e-08
-1.5021e-07
1.26082e-08
-1.54295e-07
1.19327e-08
-1.58139e-07
1.12304e-08
-1.61735e-07
1.05038e-08
-1.65076e-07
9.75507e-09
-1.68153e-07
8.98647e-09
-1.70961e-07
8.19998e-09
-1.73494e-07
7.3975e-09
-1.75748e-07
6.58082e-09
-1.77718e-07
5.75163e-09
-1.794e-07
4.91152e-09
-1.8079e-07
4.06204e-09
-1.81887e-07
3.20464e-09
-1.82687e-07
2.34075e-09
-1.83189e-07
1.47177e-09
-1.83392e-07
5.9911e-10
-1.83294e-07
-2.75848e-10
-1.82897e-07
-1.1517e-09
-1.82199e-07
-2.02701e-09
-1.81202e-07
-2.90033e-09
-1.79907e-07
-3.77013e-09
-1.78316e-07
-4.63484e-09
-1.76431e-07
-5.49281e-09
-1.74256e-07
-6.34227e-09
-1.71794e-07
-7.18141e-09
-1.69049e-07
-8.00829e-09
-1.66026e-07
-8.82084e-09
-1.62732e-07
-9.61687e-09
-1.59173e-07
-1.03941e-08
-1.55355e-07
-1.115e-08
-1.51289e-07
-1.18819e-08
-1.46982e-07
-1.25871e-08
-1.42445e-07
-1.32626e-08
-1.3769e-07
-1.39053e-08
-1.32728e-07
-1.45119e-08
-1.27574e-07
-1.50789e-08
-1.22242e-07
-1.56027e-08
-1.16748e-07
-1.60794e-08
-1.1111e-07
-1.65049e-08
-1.05347e-07
-1.68752e-08
-9.94784e-08
-1.71857e-08
-9.35271e-08
-1.74319e-08
-8.75162e-08
-1.76091e-08
-8.14706e-08
-1.77125e-08
-7.54167e-08
-1.77372e-08
-6.93828e-08
-1.76784e-08
-6.33983e-08
-1.7531e-08
-5.74943e-08
-1.72903e-08
-5.17031e-08
-1.69518e-08
-4.60583e-08
-1.65111e-08
-4.05946e-08
-1.59643e-08
-3.53473e-08
-1.53082e-08
-3.03521e-08
-1.45406e-08
-2.56448e-08
-1.36603e-08
-2.12603e-08
-1.2668e-08
-1.72324e-08
-1.15664e-08
-1.35922e-08
-1.03615e-08
-1.03674e-08
-9.0634e-09
-7.5801e-09
-7.68766e-09
-5.24554e-09
-6.25771e-09
-3.36915e-09
-4.80742e-09
-1.94398e-09
-3.385e-09
-9.47532e-10
-2.05817e-09
-3.3851e-10
-9.1992e-10
-5.32355e-11
-9.69218e-11
2.24178e-10
-1.33761e-10
-6.43147e-11
-6.24346e-10
5.9789e-10
-1.53401e-09
1.8379e-09
-2.91072e-09
3.44738e-09
-4.78637e-09
5.27879e-09
-7.17679e-09
7.21878e-09
-1.00838e-08
9.18287e-09
-1.34977e-08
1.11105e-08
-1.73993e-08
1.29594e-08
-2.17628e-08
1.47004e-08
-2.65567e-08
1.63141e-08
-3.17459e-08
1.77881e-08
-3.72931e-08
1.91151e-08
-4.31592e-08
2.02918e-08
-4.93047e-08
2.13175e-08
-5.56898e-08
2.21938e-08
-6.22754e-08
2.2924e-08
-6.90229e-08
2.35124e-08
-7.58952e-08
2.39642e-08
-8.28563e-08
2.42851e-08
-8.98716e-08
2.44816e-08
-9.69085e-08
2.456e-08
-1.03936e-07
2.4527e-08
-1.10923e-07
2.43892e-08
-1.17844e-07
2.41531e-08
-1.24672e-07
2.38251e-08
-1.31382e-07
2.34116e-08
-1.37952e-07
2.29183e-08
-1.44361e-07
2.23512e-08
-1.50588e-07
2.17156e-08
-1.56616e-07
2.10168e-08
-1.62428e-07
2.02597e-08
-1.68009e-07
1.94489e-08
-1.73343e-07
1.85889e-08
-1.78418e-07
1.76836e-08
-1.83223e-07
1.6737e-08
-1.87745e-07
1.57528e-08
-1.91975e-07
1.47342e-08
-1.95905e-07
1.36845e-08
-1.99525e-07
1.26067e-08
-2.02829e-07
1.15035e-08
-2.05809e-07
1.03778e-08
-2.0846e-07
9.23194e-09
-2.10777e-07
8.06835e-09
-2.12755e-07
6.88929e-09
-2.14389e-07
5.69694e-09
-2.15678e-07
4.4934e-09
-2.16618e-07
3.28071e-09
-2.17207e-07
2.06087e-09
-2.17444e-07
8.35866e-10
-2.17328e-07
-3.92306e-10
-2.16858e-07
-1.62164e-09
-2.16035e-07
-2.8501e-09
-2.14859e-07
-4.07562e-09
-2.13333e-07
-5.29602e-09
-2.11459e-07
-6.50908e-09
-2.09239e-07
-7.71244e-09
-2.06678e-07
-8.90367e-09
-2.03779e-07
-1.00802e-08
-2.00548e-07
-1.12392e-08
-1.96991e-07
-1.23779e-08
-1.93115e-07
-1.34932e-08
-1.88927e-07
-1.45818e-08
-1.84437e-07
-1.56403e-08
-1.79654e-07
-1.6665e-08
-1.74589e-07
-1.7652e-08
-1.69254e-07
-1.85973e-08
-1.63663e-07
-1.94964e-08
-1.57831e-07
-2.03447e-08
-1.51772e-07
-2.11374e-08
-1.45505e-07
-2.18695e-08
-1.39049e-07
-2.25355e-08
-1.32424e-07
-2.31299e-08
-1.25652e-07
-2.36469e-08
-1.18758e-07
-2.40803e-08
-1.11766e-07
-2.44239e-08
-1.04704e-07
-2.46713e-08
-9.76001e-08
-2.48159e-08
-9.04862e-08
-2.48511e-08
-8.33942e-08
-2.47704e-08
-7.63582e-08
-2.4567e-08
-6.94138e-08
-2.42348e-08
-6.2598e-08
-2.37676e-08
-5.59492e-08
-2.31599e-08
-4.95066e-08
-2.24069e-08
-4.33102e-08
-2.15046e-08
-3.74002e-08
-2.04506e-08
-3.18166e-08
-1.9244e-08
-2.65983e-08
-1.78863e-08
-2.17826e-08
-1.63821e-08
-1.7404e-08
-1.47401e-08
-1.34929e-08
-1.29744e-08
-1.00744e-08
-1.11062e-08
-7.16614e-09
-9.166e-09
-4.77655e-09
-7.19701e-09
-2.90277e-09
-5.25877e-09
-1.52848e-09
-3.43247e-09
-6.21948e-10
-1.82644e-09
-1.34705e-10
-5.84164e-10
8.94752e-11
-2.14667e-10
1.50355e-10
-9.10094e-10
1.29332e-09
-2.12455e-09
3.05235e-09
-3.88814e-09
5.21099e-09
-6.22017e-09
7.61082e-09
-9.12798e-09
1.01266e-08
-1.26075e-08
1.26624e-08
-1.66447e-08
1.51477e-08
-2.12172e-08
1.75319e-08
-2.62958e-08
1.9779e-08
-3.18462e-08
2.18646e-08
-3.78303e-08
2.37722e-08
-4.42074e-08
2.54922e-08
-5.0935e-08
2.70194e-08
-5.79699e-08
2.83524e-08
-6.52687e-08
2.94926e-08
-7.27882e-08
3.04435e-08
-8.0486e-08
3.12103e-08
-8.83211e-08
3.17992e-08
-9.62534e-08
3.22174e-08
-1.04245e-07
3.24728e-08
-1.12258e-07
3.25735e-08
-1.20259e-07
3.25278e-08
-1.28214e-07
3.23442e-08
-1.36092e-07
3.20312e-08
-1.43864e-07
3.15969e-08
-1.51502e-07
3.10495e-08
-1.5898e-07
3.03966e-08
-1.66275e-07
2.96459e-08
-1.73363e-07
2.88044e-08
-1.80225e-07
2.78789e-08
-1.86842e-07
2.68761e-08
-1.93195e-07
2.58019e-08
-1.99268e-07
2.46621e-08
-2.05047e-07
2.34622e-08
-2.10517e-07
2.22072e-08
-2.15666e-07
2.09021e-08
-2.20483e-07
1.95512e-08
-2.24957e-07
1.81587e-08
-2.29079e-07
1.67288e-08
-2.32841e-07
1.52651e-08
-2.36234e-07
1.37711e-08
-2.39253e-07
1.22503e-08
-2.4189e-07
1.07058e-08
-2.44141e-07
9.14057e-09
-2.46002e-07
7.55761e-09
-2.47468e-07
5.95971e-09
-2.48537e-07
4.34961e-09
-2.49206e-07
2.73002e-09
-2.49474e-07
1.10362e-09
-2.49339e-07
-5.26927e-10
-2.48802e-07
-2.15893e-09
-2.47863e-07
-3.78964e-09
-2.46522e-07
-5.41627e-09
-2.44782e-07
-7.03593e-09
-2.42646e-07
-8.64562e-09
-2.40116e-07
-1.02422e-08
-2.37197e-07
-1.18225e-08
-2.33894e-07
-1.33829e-08
-2.30214e-07
-1.49199e-08
-2.26162e-07
-1.64296e-08
-2.21747e-07
-1.7908e-08
-2.16978e-07
-1.93508e-08
-2.11865e-07
-2.07533e-08
-2.06419e-07
-2.21108e-08
-2.00653e-07
-2.34181e-08
-1.9458e-07
-2.46698e-08
-1.88217e-07
-2.58601e-08
-1.81578e-07
-2.6983e-08
-1.74684e-07
-2.80321e-08
-1.67553e-07
-2.90007e-08
-1.60206e-07
-2.98817e-08
-1.52668e-07
-3.06678e-08
-1.44964e-07
-3.13515e-08
-1.37119e-07
-3.19248e-08
-1.29164e-07
-3.23795e-08
-1.21128e-07
-3.27074e-08
-1.13044e-07
-3.28999e-08
-1.04946e-07
-3.29487e-08
-9.68711e-08
-3.28453e-08
-8.88569e-08
-3.25812e-08
-8.09429e-08
-3.21487e-08
-7.31703e-08
-3.15402e-08
-6.55813e-08
-3.07489e-08
-5.82192e-08
-2.97689e-08
-5.11279e-08
-2.85959e-08
-4.43513e-08
-2.72272e-08
-3.79331e-08
-2.56622e-08
-3.19155e-08
-2.39038e-08
-2.63392e-08
-2.19584e-08
-2.12416e-08
-1.98377e-08
-1.66562e-08
-1.75598e-08
-1.2611e-08
-1.51513e-08
-9.12728e-09
-1.26498e-08
-6.21778e-09
-1.01065e-08
-3.88561e-09
-7.59093e-09
-2.12287e-09
-5.19521e-09
-9.1002e-10
-3.03929e-09
-2.16092e-10
-1.2781e-09
-1.26608e-10
-2.93199e-10
4.4356e-10
-1.1917e-09
2.19183e-09
-2.71058e-09
4.57123e-09
-4.86168e-09
7.36209e-09
-7.65044e-09
1.03996e-08
-1.10742e-08
1.35504e-08
-1.51217e-08
1.67099e-08
-1.97735e-08
1.97995e-08
-2.50029e-08
2.27613e-08
-3.07772e-08
2.55534e-08
-3.7059e-08
2.81463e-08
-4.3807e-08
3.05202e-08
-5.09774e-08
3.26626e-08
-5.85247e-08
3.45667e-08
-6.64025e-08
3.62301e-08
-7.45639e-08
3.7654e-08
-8.29626e-08
3.88422e-08
-9.15527e-08
3.98004e-08
-1.0029e-07
4.05362e-08
-1.0913e-07
4.10579e-08
-1.18032e-07
4.13751e-08
-1.26957e-07
4.14975e-08
-1.35864e-07
4.14355e-08
-1.44719e-07
4.11993e-08
-1.53487e-07
4.07993e-08
-1.62136e-07
4.02459e-08
-1.70636e-07
3.95489e-08
-1.78957e-07
3.87181e-08
-1.87074e-07
3.77628e-08
-1.94962e-07
3.66921e-08
-2.02598e-07
3.55146e-08
-2.0996e-07
3.42383e-08
-2.17029e-07
3.28711e-08
-2.23787e-07
3.14202e-08
-2.30218e-07
2.98925e-08
-2.36305e-07
2.82945e-08
-2.42035e-07
2.66323e-08
-2.47395e-07
2.49116e-08
-2.52375e-07
2.31378e-08
-2.56962e-07
2.1316e-08
-2.61147e-07
1.94509e-08
-2.64923e-07
1.75471e-08
-2.68282e-07
1.56088e-08
-2.71216e-07
1.36402e-08
-2.73721e-07
1.16451e-08
-2.7579e-07
9.62722e-09
-2.77421e-07
7.59026e-09
-2.78609e-07
5.53773e-09
-2.79352e-07
3.4731e-09
-2.79648e-07
1.39982e-09
-2.79497e-07
-6.78668e-10
-2.78897e-07
-2.75889e-09
-2.77849e-07
-4.83735e-09
-2.76355e-07
-6.91043e-09
-2.74416e-07
-8.97442e-09
-2.72036e-07
-1.10255e-08
-2.69219e-07
-1.30596e-08
-2.65969e-07
-1.50727e-08
-2.62291e-07
-1.70602e-08
-2.58194e-07
-1.90176e-08
-2.53683e-07
-2.094e-08
-2.48769e-07
-2.28222e-08
-2.43461e-07
-2.46586e-08
-2.37771e-07
-2.64436e-08
-2.31711e-07
-2.8171e-08
-2.25295e-07
-2.98342e-08
-2.18538e-07
-3.14264e-08
-2.11458e-07
-3.29403e-08
-2.04073e-07
-3.43682e-08
-1.96403e-07
-3.57021e-08
-1.8847e-07
-3.69335e-08
-1.80298e-07
-3.80535e-08
-1.71913e-07
-3.9053e-08
-1.63342e-07
-3.99223e-08
-1.54615e-07
-4.06516e-08
-1.45764e-07
-4.12307e-08
-1.36822e-07
-4.16494e-08
-1.27825e-07
-4.1897e-08
-1.18811e-07
-4.19632e-08
-1.09818e-07
-4.18375e-08
-1.0089e-07
-4.151e-08
-9.20675e-08
-4.09708e-08
-8.33966e-08
-4.02111e-08
-7.49227e-08
-3.92228e-08
-6.66925e-08
-3.79991e-08
-5.87533e-08
-3.65352e-08
-5.11522e-08
-3.48283e-08
-4.3936e-08
-3.28784e-08
-3.71503e-08
-3.06895e-08
-3.08387e-08
-2.82701e-08
-2.50416e-08
-2.56348e-08
-1.97959e-08
-2.28056e-08
-1.51332e-08
-1.98141e-08
-1.10789e-08
-1.6704e-08
-7.65147e-09
-1.35339e-08
-4.86129e-09
-1.03811e-08
-2.71029e-09
-7.34621e-09
-1.19237e-09
-4.55721e-09
-2.9459e-10
-2.17587e-09
-4.21194e-10
-3.67822e-10
8.11383e-10
-1.46316e-09
3.28719e-09
-3.27974e-09
6.38781e-09
-5.81169e-09
9.89405e-09
-9.05038e-09
1.36383e-08
-1.29824e-08
1.74824e-08
-1.75883e-08
2.13158e-08
-2.28423e-08
2.50535e-08
-2.87129e-08
2.86319e-08
-3.51633e-08
3.20038e-08
-4.21524e-08
3.51355e-08
-4.96359e-08
3.80038e-08
-5.7567e-08
4.05937e-08
-6.58971e-08
4.28968e-08
-7.45768e-08
4.49099e-08
-8.35565e-08
4.66337e-08
-9.27867e-08
4.80723e-08
-1.02219e-07
4.92323e-08
-1.11805e-07
5.01221e-08
-1.21498e-07
5.07516e-08
-1.31255e-07
5.11318e-08
-1.41032e-07
5.12743e-08
-1.50788e-07
5.11914e-08
-1.60484e-07
5.08952e-08
-1.70083e-07
5.03983e-08
-1.7955e-07
4.9713e-08
-1.88852e-07
4.88513e-08
-1.97959e-07
4.78249e-08
-2.06842e-07
4.66454e-08
-2.15473e-07
4.53235e-08
-2.23828e-07
4.38698e-08
-2.31884e-07
4.22943e-08
-2.39619e-07
4.06063e-08
-2.47014e-07
3.8815e-08
-2.5405e-07
3.69286e-08
-2.60711e-07
3.49552e-08
-2.66981e-07
3.29023e-08
-2.72846e-07
3.07769e-08
-2.78294e-07
2.85857e-08
-2.83313e-07
2.6335e-08
-2.87893e-07
2.40306e-08
-2.92024e-07
2.16782e-08
-2.95698e-07
1.92831e-08
-2.98908e-07
1.68502e-08
-3.01648e-07
1.43846e-08
-3.03911e-07
1.18907e-08
-3.05694e-07
9.3732e-09
-3.06993e-07
6.83641e-09
-3.07804e-07
4.28467e-09
-3.08127e-07
1.7223e-09
-3.07959e-07
-8.4643e-10
-3.07301e-07
-3.4172e-09
-3.06153e-07
-5.98563e-09
-3.04516e-07
-8.54725e-09
-3.02393e-07
-1.10974e-08
-2.99787e-07
-1.36314e-08
-2.96702e-07
-1.61443e-08
-2.93144e-07
-1.86308e-08
-2.89119e-07
-2.10855e-08
-2.84634e-07
-2.35027e-08
-2.79697e-07
-2.58764e-08
-2.74319e-07
-2.82002e-08
-2.68511e-07
-3.04672e-08
-2.62284e-07
-3.26704e-08
-2.55653e-07
-3.48022e-08
-2.48632e-07
-3.68545e-08
-2.4124e-07
-3.8819e-08
-2.33493e-07
-4.06867e-08
-2.25413e-07
-4.24482e-08
-2.17022e-07
-4.40935e-08
-2.08343e-07
-4.56125e-08
-1.99402e-07
-4.69942e-08
-1.90228e-07
-4.82274e-08
-1.8085e-07
-4.93005e-08
-1.713e-07
-5.02015e-08
-1.61613e-07
-5.0918e-08
-1.51824e-07
-5.14377e-08
-1.41973e-07
-5.1748e-08
-1.321e-07
-5.18363e-08
-1.22248e-07
-5.16902e-08
-1.1246e-07
-5.12978e-08
-1.02783e-07
-5.06476e-08
-9.32646e-08
-4.97293e-08
-8.39538e-08
-4.85336e-08
-7.49001e-08
-4.70528e-08
-6.61538e-08
-4.52815e-08
-5.77652e-08
-4.32169e-08
-4.9784e-08
-4.08596e-08
-4.22587e-08
-3.82148e-08
-3.52359e-08
-3.52929e-08
-2.87594e-08
-3.21112e-08
-2.28695e-08
-2.86955e-08
-1.7602e-08
-2.50816e-08
-1.29875e-08
-2.13185e-08
-9.05076e-09
-1.74707e-08
-5.81024e-09
-1.36216e-08
-3.27856e-09
-9.87788e-09
-1.46329e-09
-6.37249e-09
-3.68871e-10
-3.27028e-09
-7.90069e-10
-4.37966e-10
1.24935e-09
-1.72133e-09
4.57056e-09
-3.8248e-09
8.49128e-09
-6.72608e-09
1.27953e-08
-1.04029e-08
1.73151e-08
-1.48308e-08
2.19102e-08
-1.99816e-08
2.64666e-08
-2.58227e-08
3.08947e-08
-3.23172e-08
3.51263e-08
-3.94235e-08
3.91102e-08
-4.7097e-08
4.28089e-08
-5.52898e-08
4.61965e-08
-6.39519e-08
4.92558e-08
-7.30319e-08
5.19768e-08
-8.24777e-08
5.43556e-08
-9.22366e-08
5.63927e-08
-1.02257e-07
5.80924e-08
-1.12486e-07
5.94619e-08
-1.22875e-07
6.05109e-08
-1.33374e-07
6.12506e-08
-1.43936e-07
6.16937e-08
-1.54515e-07
6.18535e-08
-1.65068e-07
6.17442e-08
-1.75553e-07
6.13803e-08
-1.85931e-07
6.07762e-08
-1.96164e-07
5.99464e-08
-2.06218e-07
5.89052e-08
-2.1606e-07
5.76664e-08
-2.25658e-07
5.62435e-08
-2.34984e-07
5.46496e-08
-2.44011e-07
5.2897e-08
-2.52714e-07
5.09977e-08
-2.61071e-07
4.8963e-08
-2.6906e-07
4.68035e-08
-2.76661e-07
4.45295e-08
-2.83856e-07
4.21504e-08
-2.90629e-07
3.96752e-08
-2.96964e-07
3.71126e-08
-3.02849e-07
3.44704e-08
-3.0827e-07
3.17562e-08
-3.13217e-07
2.89772e-08
-3.17679e-07
2.61401e-08
-3.21647e-07
2.32513e-08
-3.25114e-07
2.0317e-08
-3.28072e-07
1.73429e-08
-3.30516e-07
1.43347e-08
-3.32441e-07
1.1298e-08
-3.33843e-07
8.23801e-09
-3.34718e-07
5.16003e-09
-3.35065e-07
2.06926e-09
-3.34882e-07
-1.0291e-09
-3.3417e-07
-4.1298e-09
-3.32928e-07
-7.22753e-09
-3.31158e-07
-1.03169e-08
-3.28863e-07
-1.33922e-08
-3.26047e-07
-1.64479e-08
-3.22713e-07
-1.94778e-08
-3.18868e-07
-2.24756e-08
-3.14519e-07
-2.54349e-08
-3.09673e-07
-2.83487e-08
-3.0434e-07
-3.12098e-08
-2.9853e-07
-3.40104e-08
-2.92254e-07
-3.67423e-08
-2.85528e-07
-3.93971e-08
-2.78364e-07
-4.19657e-08
-2.7078e-07
-4.44383e-08
-2.62795e-07
-4.68049e-08
-2.54427e-07
-4.90547e-08
-2.45698e-07
-5.11766e-08
-2.36633e-07
-5.31587e-08
-2.27257e-07
-5.49886e-08
-2.17598e-07
-5.66536e-08
-2.07685e-07
-5.81401e-08
-1.97551e-07
-5.94344e-08
-1.8723e-07
-6.05223e-08
-1.76759e-07
-6.13893e-08
-1.66176e-07
-6.20207e-08
-1.55522e-07
-6.24016e-08
-1.44841e-07
-6.25175e-08
-1.34177e-07
-6.23538e-08
-1.23578e-07
-6.18967e-08
-1.13093e-07
-6.11331e-08
-1.02771e-07
-6.0051e-08
-9.26651e-08
-5.86398e-08
-8.28269e-08
-5.68911e-08
-7.33096e-08
-5.47988e-08
-6.41664e-08
-5.23601e-08
-5.54498e-08
-4.95762e-08
-4.72113e-08
-4.64533e-08
-3.95007e-08
-4.30036e-08
-3.23651e-08
-3.92468e-08
-2.5849e-08
-3.52117e-08
-1.99925e-08
-3.0938e-08
-1.48321e-08
-2.6479e-08
-1.03992e-08
-2.19036e-08
-6.72102e-09
-1.72998e-08
-3.82098e-09
-1.27779e-08
-1.71992e-09
-8.47354e-09
-4.38406e-10
-4.55179e-09
-1.22848e-09
-5.03462e-10
1.75281e-09
-1.96478e-09
6.0319e-09
-4.34212e-09
1.08686e-08
-7.59825e-09
1.60515e-08
-1.1698e-08
2.14149e-08
-1.66062e-08
2.68184e-08
-2.22858e-08
3.21462e-08
-2.86971e-08
3.73059e-08
-3.57968e-08
4.22261e-08
-4.3539e-08
4.68523e-08
-5.18745e-08
5.11444e-08
-6.0752e-08
5.5074e-08
-7.01182e-08
5.8622e-08
-7.99187e-08
6.17774e-08
-9.00987e-08
6.45355e-08
-1.00603e-07
6.68968e-08
-1.11376e-07
6.88659e-08
-1.22365e-07
7.04509e-08
-1.33517e-07
7.16625e-08
-1.4478e-07
7.25134e-08
-1.56104e-07
7.30178e-08
-1.67441e-07
7.31911e-08
-1.78747e-07
7.30495e-08
-1.89976e-07
7.26094e-08
-2.01087e-07
7.18876e-08
-2.12042e-07
7.09009e-08
-2.22802e-07
6.96655e-08
-2.33334e-07
6.81978e-08
-2.43603e-07
6.65133e-08
-2.53581e-07
6.46273e-08
-2.63238e-07
6.25541e-08
-2.72548e-07
6.03078e-08
-2.81487e-07
5.79016e-08
-2.90031e-07
5.5348e-08
-2.98161e-07
5.26589e-08
-3.05856e-07
4.98456e-08
-3.131e-07
4.69187e-08
-3.19875e-07
4.38882e-08
-3.26168e-07
4.07635e-08
-3.31966e-07
3.75535e-08
-3.37255e-07
3.42668e-08
-3.42026e-07
3.09112e-08
-3.46269e-07
2.74943e-08
-3.49976e-07
2.40235e-08
-3.53139e-07
2.05057e-08
-3.55751e-07
1.69475e-08
-3.57809e-07
1.33554e-08
-3.59307e-07
9.73589e-09
-3.60242e-07
6.09509e-09
-3.60612e-07
2.43923e-09
-3.60415e-07
-1.22551e-09
-3.59652e-07
-4.89291e-09
-3.58323e-07
-8.55667e-09
-3.56429e-07
-1.22103e-08
-3.53974e-07
-1.58473e-08
-3.50962e-07
-1.94607e-08
-3.47396e-07
-2.30435e-08
-3.43283e-07
-2.65882e-08
-3.38631e-07
-3.0087e-08
-3.33448e-07
-3.35318e-08
-3.27744e-07
-3.6914e-08
-3.2153e-07
-4.02245e-08
-3.14818e-07
-4.34537e-08
-3.07624e-07
-4.65915e-08
-2.99962e-07
-4.96272e-08
-2.91851e-07
-5.25494e-08
-2.8331e-07
-5.53462e-08
-2.7436e-07
-5.80051e-08
-2.65023e-07
-6.05128e-08
-2.55326e-07
-6.28556e-08
-2.45296e-07
-6.5019e-08
-2.34962e-07
-6.69878e-08
-2.24355e-07
-6.87466e-08
-2.1351e-07
-7.02792e-08
-2.02464e-07
-7.15691e-08
-1.91254e-07
-7.25994e-08
-1.79921e-07
-7.33532e-08
-1.68509e-07
-7.38134e-08
-1.57064e-07
-7.39631e-08
-1.45632e-07
-7.37857e-08
-1.34263e-07
-7.32654e-08
-1.23009e-07
-7.23873e-08
-1.11922e-07
-7.11378e-08
-1.01057e-07
-6.95052e-08
-9.0468e-08
-6.74798e-08
-8.02115e-08
-6.50552e-08
-7.0343e-08
-6.22285e-08
-6.0918e-08
-5.90012e-08
-5.1991e-08
-5.53803e-08
-4.36151e-08
-5.13796e-08
-3.58411e-08
-4.70207e-08
-2.87176e-08
-4.23351e-08
-2.229e-08
-3.73656e-08
-1.66004e-08
-3.21686e-08
-1.16877e-08
-2.68163e-08
-7.58769e-09
-2.13997e-08
-4.33438e-09
-1.60312e-08
-1.96113e-09
-1.08468e-08
-5.03094e-10
-6.00984e-09
-1.73156e-09
-5.64374e-10
2.31718e-09
-2.19321e-09
7.66075e-09
-4.83038e-09
1.35058e-08
-8.4254e-09
1.96465e-08
-1.29313e-08
2.59207e-08
-1.83024e-08
3.21896e-08
-2.4493e-08
3.83368e-08
-3.1456e-08
4.42689e-08
-3.91421e-08
4.99122e-08
-4.74999e-08
5.52101e-08
-5.6476e-08
6.01205e-08
-6.60152e-08
6.46131e-08
-7.60609e-08
6.86677e-08
-8.65556e-08
7.22721e-08
-9.74415e-08
7.54215e-08
-1.08661e-07
7.81162e-08
-1.20156e-07
8.03614e-08
-1.31872e-07
8.21662e-08
-1.43751e-07
8.35423e-08
-1.55742e-07
8.45039e-08
-1.67791e-07
8.50672e-08
-1.7985e-07
8.52494e-08
-1.91869e-07
8.50686e-08
-2.03803e-07
8.45437e-08
-2.15609e-07
8.36935e-08
-2.27245e-07
8.25371e-08
-2.38673e-07
8.10933e-08
-2.49856e-07
7.93805e-08
-2.60759e-07
7.74166e-08
-2.71351e-07
7.5219e-08
-2.81601e-07
7.28045e-08
-2.91482e-07
7.0189e-08
-3.00968e-07
6.73877e-08
-3.10035e-07
6.44152e-08
-3.18662e-07
6.12852e-08
-3.26827e-07
5.80107e-08
-3.34512e-07
5.4604e-08
-3.41701e-07
5.10768e-08
-3.48377e-07
4.74399e-08
-3.54527e-07
4.37037e-08
-3.60139e-07
3.98781e-08
-3.652e-07
3.59723e-08
-3.69701e-07
3.19952e-08
-3.73632e-07
2.79552e-08
-3.76987e-07
2.38604e-08
-3.79758e-07
1.97186e-08
-3.8194e-07
1.55374e-08
-3.83529e-07
1.13243e-08
-3.8452e-07
7.08644e-09
-3.84912e-07
2.83111e-09
-3.84703e-07
-1.43446e-09
-3.83893e-07
-5.70303e-09
-3.82482e-07
-9.96722e-09
-3.80473e-07
-1.42195e-08
-3.77868e-07
-1.84523e-08
-3.74671e-07
-2.26574e-08
-3.70888e-07
-2.68267e-08