/*--------------------------------*- C++ -*----------------------------------*\
| =========                 |                                                 |
| \\      /  F ield         | OpenFOAM: The Open Source CFD Toolbox           |
|  \\    /   O peration     | Version:  2212                                  |
|   \\  /    A nd           | Website:  www.openfoam.com                      |
|    \\/     M anipulation  |                                                 |
\*---------------------------------------------------------------------------*/
FoamFile
{
    version     2.0;
    format      ascii;
    arch        "LSB;label=32;scalar=64";
    class       surfaceScalarField;
    location    "0.022";
    object      phi;
}
// * * * * * * * * * * * * * * * * * * * * * * * * * * * * * * * * * * * * * //

dimensions      [0 3 -1 0 0 0 0];

oriented        oriented;

internalField   nonuniform List<scalar> 
19800
(
6.07382e-11
-6.07676e-11
1.89917e-10
-1.29167e-10
3.0244e-10
-1.12551e-10
3.6556e-10
-6.31153e-11
3.58039e-10
7.51558e-12
2.70774e-10
8.72656e-11
1.00901e-10
1.69871e-10
-1.50784e-10
2.51688e-10
-4.81329e-10
3.30542e-10
-8.86449e-10
4.05121e-10
-1.36113e-09
4.7468e-10
-1.89993e-09
5.38803e-10
-2.49721e-09
5.97275e-10
-3.14718e-09
6.49976e-10
-3.8441e-09
6.96915e-10
-4.58227e-09
7.38177e-10
-5.35615e-09
7.7388e-10
-6.16033e-09
8.04178e-10
-6.98955e-09
8.29218e-10
-7.83873e-09
8.49183e-10
-8.70301e-09
8.64285e-10
-9.57775e-09
8.74742e-10
-1.04585e-08
8.80774e-10
-1.13411e-08
8.82595e-10
-1.22215e-08
8.8041e-10
-1.30959e-08
8.74398e-10
-1.39607e-08
8.64771e-10
-1.48124e-08
8.51762e-10
-1.5648e-08
8.35537e-10
-1.64643e-08
8.16264e-10
-1.72584e-08
7.94152e-10
-1.80278e-08
7.69364e-10
-1.87698e-08
7.42021e-10
-1.94821e-08
7.12294e-10
-2.01625e-08
6.80389e-10
-2.08089e-08
6.46453e-10
-2.14195e-08
6.10602e-10
-2.19925e-08
5.72987e-10
-2.25263e-08
5.33776e-10
-2.30194e-08
4.93104e-10
-2.34705e-08
4.51086e-10
-2.38784e-08
4.07861e-10
-2.42419e-08
3.63579e-10
-2.45603e-08
3.18368e-10
-2.48326e-08
2.72327e-10
-2.50582e-08
2.2556e-10
-2.52364e-08
1.78196e-10
-2.53667e-08
1.30351e-10
-2.54489e-08
8.21181e-11
-2.54825e-08
3.35941e-11
-2.54673e-08
-1.51096e-11
-2.54035e-08
-6.38601e-11
-2.5291e-08
-1.12533e-10
-2.51299e-08
-1.61038e-10
-2.49206e-08
-2.09284e-10
-2.46635e-08
-2.57157e-10
-2.43589e-08
-3.04525e-10
-2.40077e-08
-3.51233e-10
-2.36106e-08
-3.97128e-10
-2.31685e-08
-4.42083e-10
-2.26825e-08
-4.85964e-10
-2.21539e-08
-5.28618e-10
-2.1584e-08
-5.69872e-10
-2.09745e-08
-6.09547e-10
-2.0327e-08
-6.47457e-10
-1.96436e-08
-6.83429e-10
-1.89263e-08
-7.17289e-10
-1.81775e-08
-7.48849e-10
-1.73995e-08
-7.77914e-10
-1.65952e-08
-8.04289e-10
-1.57675e-08
-8.27771e-10
-1.49193e-08
-8.48159e-10
-1.4054e-08
-8.65267e-10
-1.31751e-08
-8.78912e-10
-1.22862e-08
-8.88903e-10
-1.13912e-08
-8.95045e-10
-1.0494e-08
-8.97137e-10
-9.59906e-09
-8.94961e-10
-8.71077e-09
-8.88297e-10
-7.83383e-09
-8.76937e-10
-6.97314e-09
-8.60686e-10
-6.13379e-09
-8.39352e-10
-5.32104e-09
-8.12756e-10
-4.54029e-09
-7.80746e-10
-3.7971e-09
-7.43195e-10
-3.0971e-09
-7.00003e-10
-2.446e-09
-6.51103e-10
-1.84952e-09
-5.9648e-10
-1.31334e-09
-5.36184e-10
-8.42978e-10
-4.70361e-10
-4.43682e-10
-3.99298e-10
-1.2018e-10
-3.23504e-10
1.23643e-10
-2.43829e-10
2.85293e-10
-1.61659e-10
3.6457e-10
-7.9283e-11
3.65125e-10
-5.59113e-13
2.97045e-10
6.80766e-11
1.81579e-10
1.15466e-10
5.99053e-11
1.21672e-10
5.99032e-11
1.12299e-10
-1.73054e-10
2.90554e-10
-3.07428e-10
4.19493e-10
-2.41484e-10
4.20854e-10
-6.44785e-11
2.50375e-10
1.78008e-10
-1.17372e-10
4.55011e-10
-6.93693e-10
7.46204e-10
-1.48045e-09
1.03845e-09
-2.47324e-09
1.32333e-09
-3.6635e-09
1.59538e-09
-5.03997e-09
1.85113e-09
-6.58958e-09
2.08842e-09
-8.29826e-09
2.30595e-09
-1.01513e-08
2.50299e-09
-1.21336e-08
2.67925e-09
-1.42302e-08
2.83478e-09
-1.64262e-08
2.96981e-09
-1.87067e-08
3.08475e-09
-2.10576e-08
3.18012e-09
-2.34649e-08
3.25648e-09
-2.59152e-08
3.31454e-09
-2.83954e-08
3.35501e-09
-3.08933e-08
3.37862e-09
-3.33968e-08
3.38613e-09
-3.58947e-08
3.37829e-09
-3.83762e-08
3.35586e-09
-4.0831e-08
3.31956e-09
-4.32494e-08
3.27014e-09
-4.56221e-08
3.20834e-09
-4.79407e-08
3.13483e-09
-5.01968e-08
3.05029e-09
-5.23828e-08
2.95537e-09
-5.44915e-08
2.85071e-09
-5.65162e-08
2.73693e-09
-5.84504e-08
2.61465e-09
-6.02885e-08
2.48447e-09
-6.20248e-08
2.34698e-09
-6.36546e-08
2.20272e-09
-6.5173e-08
2.05224e-09
-6.6576e-08
1.89605e-09
-6.78596e-08
1.73468e-09
-6.90204e-08
1.56865e-09
-7.00552e-08
1.39844e-09
-7.09614e-08
1.22453e-09
-7.17364e-08
1.04736e-09
-7.23782e-08
8.67374e-10
-7.28851e-08
6.85021e-10
-7.32555e-08
5.00735e-10
-7.34883e-08
3.14933e-10
-7.35827e-08
1.28039e-10
-7.35383e-08
-5.95068e-11
-7.33549e-08
-2.4726e-10
-7.30327e-08
-4.34771e-10
-7.25721e-08
-6.21603e-10
-7.19741e-08
-8.07322e-10
-7.12398e-08
-9.91459e-10
-7.03708e-08
-1.17351e-09
-6.93691e-08
-1.35295e-09
-6.8237e-08
-1.52923e-09
-6.69773e-08
-1.70179e-09
-6.55931e-08
-1.87009e-09
-6.40882e-08
-2.03352e-09
-6.24666e-08
-2.19147e-09
-6.07329e-08
-2.34329e-09
-5.8892e-08
-2.48832e-09
-5.69496e-08
-2.62586e-09
-5.49116e-08
-2.75523e-09
-5.27847e-08
-2.87572e-09
-5.0576e-08
-2.98663e-09
-4.82931e-08
-3.08719e-09
-4.59442e-08
-3.17669e-09
-4.3538e-08
-3.25436e-09
-4.10838e-08
-3.31947e-09
-3.85914e-08
-3.37126e-09
-3.60713e-08
-3.40902e-09
-3.35343e-08
-3.43199e-09
-3.09921e-08
-3.43942e-09
-2.84565e-08
-3.43055e-09
-2.59401e-08
-3.40464e-09
-2.34561e-08
-3.36095e-09
-2.1018e-08
-3.2988e-09
-1.86397e-08
-3.21757e-09
-1.63358e-08
-3.11667e-09
-1.41209e-08
-2.99564e-09
-1.20101e-08
-2.85409e-09
-1.00183e-08
-2.69179e-09
-8.16066e-09
-2.50871e-09
-6.45214e-09
-2.305e-09
-4.90718e-09
-2.08115e-09
-3.53948e-09
-1.83806e-09
-2.36149e-09
-1.57729e-09
-1.38372e-09
-1.30128e-09
-6.13782e-10
-1.01377e-09
-5.49244e-11
-7.20512e-10
2.9603e-10
-4.3024e-10
4.51803e-10
-1.5634e-10
4.39153e-10
8.0724e-11
3.04721e-10
2.49896e-10
1.2154e-10
3.04844e-10
1.81453e-10
1.12381e-10
-2.85464e-10
2.34665e-10
-4.29695e-10
2.46255e-10
-2.53088e-10
5.86921e-11
1.23089e-10
-3.85428e-10
6.22126e-10
-1.12078e-09
1.19037e-09
-2.16475e-09
1.79017e-09
-3.5221e-09
2.3958e-09
-5.18853e-09
2.98977e-09
-7.15337e-09
3.56022e-09
-9.40143e-09
4.09918e-09
-1.19144e-08
4.60141e-09
-1.4672e-08
5.06353e-09
-1.76525e-08
5.48354e-09
-2.08337e-08
5.86039e-09
-2.41927e-08
6.1938e-09
-2.77069e-08
6.48398e-09
-3.13537e-08
6.73154e-09
-3.51109e-08
6.93738e-09
-3.89571e-08
7.10262e-09
-4.28711e-08
7.22856e-09
-4.68327e-08
7.3166e-09
-5.08223e-08
7.36822e-09
-5.48211e-08
7.38496e-09
-5.88112e-08
7.36838e-09
-6.27753e-08
7.32002e-09
-6.66973e-08
7.24149e-09
-7.05615e-08
7.13435e-09
-7.43533e-08
7.00012e-09
-7.80587e-08
6.84029e-09
-8.16648e-08
6.65635e-09
-8.51592e-08
6.44973e-09
-8.85302e-08
6.22179e-09
-9.17672e-08
5.97392e-09
-9.48601e-08
5.70746e-09
-9.77993e-08
5.42371e-09
-1.00576e-07
5.12391e-09
-1.03183e-07
4.80929e-09
-1.05612e-07
4.48101e-09
-1.07856e-07
4.14024e-09
-1.09909e-07
3.78808e-09
-1.11766e-07
3.42562e-09
-1.13422e-07
3.05394e-09
-1.14871e-07
2.67408e-09
-1.16111e-07
2.28702e-09
-1.17137e-07
1.89374e-09
-1.17947e-07
1.49521e-09
-1.18539e-07
1.0924e-09
-1.1891e-07
6.86253e-10
-1.1906e-07
2.77726e-10
-1.18987e-07
-1.32213e-10
-1.18692e-07
-5.42589e-10
-1.18174e-07
-9.52422e-10
-1.17435e-07
-1.36071e-09
-1.16476e-07
-1.76645e-09
-1.15299e-07
-2.16858e-09
-1.13907e-07
-2.56601e-09
-1.12302e-07
-2.95759e-09
-1.10489e-07
-3.34216e-09
-1.08472e-07
-3.7185e-09
-1.06257e-07
-4.08536e-09
-1.03849e-07
-4.44147e-09
-1.01255e-07
-4.78547e-09
-9.84823e-08
-5.11598e-09
-9.55391e-08
-5.43158e-09
-9.24341e-08
-5.73081e-09
-8.91772e-08
-6.01216e-09
-8.57788e-08
-6.27411e-09
-8.22503e-08
-6.5151e-09
-7.86039e-08
-6.73357e-09
-7.48527e-08
-6.92791e-09
-7.10105e-08
-7.0965e-09
-6.70922e-08
-7.23775e-09
-6.31135e-08
-7.35002e-09
-5.90908e-08
-7.43172e-09
-5.50415e-08
-7.48123e-09
-5.0984e-08
-7.49699e-09
-4.69371e-08
-7.47741e-09
-4.29208e-08
-7.42098e-09
-3.89555e-08
-7.32623e-09
-3.50625e-08
-7.19181e-09
-3.12636e-08
-7.0165e-09
-2.7581e-08
-6.79921e-09
-2.40376e-08
-6.53907e-09
-2.06562e-08
-6.2355e-09
-1.74598e-08
-5.88821e-09
-1.44711e-08
-5.49737e-09
-1.17124e-08
-5.06368e-09
-9.20496e-09
-4.58859e-09
-6.96848e-09
-4.07454e-09
-5.02041e-09
-3.52538e-09
-3.37486e-09
-2.94684e-09
-2.04123e-09
-2.3474e-09
-1.02231e-09
-1.73944e-09
-3.11684e-10
-1.14088e-09
1.09685e-10
-5.77708e-10
2.77888e-10
-8.74672e-11
2.51187e-10
2.76592e-10
1.15758e-10
4.4028e-10
2.97211e-10
6.44323e-11
-3.49897e-10
6.56938e-11
-4.30954e-10
-1.19853e-10
-6.75331e-11
-5.79997e-10
5.83231e-10
-1.37481e-09
1.41695e-09
-2.54202e-09
2.35759e-09
-4.10159e-09
3.34974e-09
-6.05968e-09
4.35389e-09
-8.41198e-09
5.34207e-09
-1.11464e-08
6.29459e-09
-1.42449e-08
7.19771e-09
-1.76855e-08
8.04199e-09
-2.14431e-08
8.82112e-09
-2.54906e-08
9.53111e-09
-2.97999e-08
1.01697e-08
-3.43419e-08
1.07358e-08
-3.90874e-08
1.12295e-08
-4.40073e-08
1.16514e-08
-4.90727e-08
1.20028e-08
-5.42553e-08
1.22852e-08
-5.95276e-08
1.25008e-08
-6.48627e-08
1.26517e-08
-7.02347e-08
1.27403e-08
-7.56187e-08
1.2769e-08
-8.09907e-08
1.27404e-08
-8.63279e-08
1.26572e-08
-9.16084e-08
1.2522e-08
-9.68113e-08
1.23373e-08
-1.01917e-07
1.21058e-08
-1.06907e-07
1.18301e-08
-1.11763e-07
1.15126e-08
-1.16469e-07
1.11559e-08
-1.2101e-07
1.07622e-08
-1.2537e-07
1.03341e-08
-1.29536e-07
9.87366e-09
-1.33496e-07
9.38324e-09
-1.37237e-07
8.86498e-09
-1.40748e-07
8.32098e-09
-1.44021e-07
7.75328e-09
-1.47044e-07
7.16385e-09
-1.49811e-07
6.55461e-09
-1.52313e-07
5.92747e-09
-1.54543e-07
5.28425e-09
-1.56496e-07
4.62673e-09
-1.58165e-07
3.95667e-09
-1.59547e-07
3.27578e-09
-1.60638e-07
2.58576e-09
-1.61434e-07
1.88826e-09
-1.61932e-07
1.18498e-09
-1.62132e-07
4.77592e-10
-1.62032e-07
-2.32223e-10
-1.61632e-07
-9.42753e-10
-1.60932e-07
-1.65228e-09
-1.59934e-07
-2.35904e-09
-1.58639e-07
-3.06125e-09
-1.57051e-07
-3.75705e-09
-1.55172e-07
-4.44456e-09
-1.53008e-07
-5.12179e-09
-1.50563e-07
-5.7867e-09
-1.47845e-07
-6.43723e-09
-1.44859e-07
-7.07119e-09
-1.41614e-07
-7.68637e-09
-1.38119e-07
-8.28046e-09
-1.34384e-07
-8.85109e-09
-1.3042e-07
-9.39582e-09
-1.26238e-07
-9.91213e-09
-1.21853e-07
-1.03975e-08
-1.17278e-07
-1.08492e-08
-1.12528e-07
-1.12647e-08
-1.07621e-07
-1.16413e-08
-1.02572e-07
-1.19762e-08
-9.74021e-08
-1.22666e-08
-9.21299e-08
-1.25099e-08
-8.67767e-08
-1.27032e-08
-8.13645e-08
-1.28439e-08
-7.59165e-08
-1.29292e-08
-7.04571e-08
-1.29564e-08
-6.50115e-08
-1.2923e-08
-5.9606e-08
-1.28265e-08
-5.42678e-08
-1.26645e-08
-4.90247e-08
-1.24349e-08
-4.39054e-08
-1.21358e-08
-3.89391e-08
-1.17655e-08
-3.41554e-08
-1.13228e-08
-2.95838e-08
-1.08071e-08
-2.52539e-08
-1.02181e-08
-2.11948e-08
-9.55648e-09
-1.74346e-08
-8.82395e-09
-1.39997e-08
-8.02346e-09
-1.09145e-08
-7.15973e-09
-8.20007e-09
-6.2398e-09
-5.87303e-09
-5.27387e-09
-3.94398e-09
-4.27646e-09
-2.41544e-09
-3.26799e-09
-1.2793e-09
-2.27702e-09
-5.13668e-10
-1.34333e-09
-7.90643e-11
-5.22074e-10
8.58943e-11
1.11626e-10
6.96009e-11
4.56578e-10
3.66802e-10
-2.99965e-12
-3.46905e-10
-1.68593e-10
-2.65347e-10
-6.06471e-10
3.70346e-10
-1.3972e-09
1.37397e-09
-2.59746e-09
2.61721e-09
-4.24362e-09
4.00376e-09
-6.35518e-09
5.4613e-09
-8.93791e-09
6.93661e-09
-1.19867e-08
8.39083e-09
-1.54878e-08
9.79572e-09
-1.94211e-08
1.1131e-08
-2.37613e-08
1.23822e-08
-2.84798e-08
1.35396e-08
-3.35451e-08
1.45964e-08
-3.89242e-08
1.55487e-08
-4.45828e-08
1.63945e-08
-5.04865e-08
1.71331e-08
-5.66002e-08
1.77651e-08
-6.28896e-08
1.82921e-08
-6.93205e-08
1.87161e-08
-7.58595e-08
1.90399e-08
-8.24743e-08
1.92664e-08
-8.91331e-08
1.93991e-08
-9.58057e-08
1.94415e-08
-1.02463e-07
1.93974e-08
-1.09076e-07
1.92704e-08
-1.15619e-07
1.90647e-08
-1.22065e-07
1.87839e-08
-1.28391e-07
1.8432e-08
-1.34574e-07
1.80127e-08
-1.40591e-07
1.753e-08
-1.46423e-07
1.69874e-08
-1.52049e-07
1.63886e-08
-1.57452e-07
1.57372e-08
-1.62615e-07
1.50366e-08
-1.67522e-07
1.42902e-08
-1.72159e-07
1.35013e-08
-1.76511e-07
1.26731e-08
-1.80566e-07
1.18087e-08
-1.84313e-07
1.09111e-08
-1.87742e-07
9.98316e-09
-1.90842e-07
9.02785e-09
-1.93606e-07
8.04792e-09
-1.96025e-07
7.04612e-09
-1.98094e-07
6.02511e-09
-1.99805e-07
4.98753e-09
-2.01156e-07
3.93598e-09
-2.0214e-07
2.87303e-09
-2.02757e-07
1.80126e-09
-2.03002e-07
7.23256e-10
-2.02876e-07
-3.584e-10
-2.02378e-07
-1.44108e-09
-2.01508e-07
-2.52214e-09
-2.00268e-07
-3.59886e-09
-1.98661e-07
-4.6685e-09
-1.9669e-07
-5.72821e-09
-1.94359e-07
-6.77509e-09
-1.91675e-07
-7.80612e-09
-1.88643e-07
-8.81823e-09
-1.85272e-07
-9.80821e-09
-1.81571e-07
-1.07728e-08
-1.77549e-07
-1.17086e-08
-1.73217e-07
-1.26121e-08
-1.68588e-07
-1.34797e-08
-1.63676e-07
-1.43078e-08
-1.58496e-07
-1.50925e-08
-1.53064e-07
-1.583e-08
-1.47397e-07
-1.65163e-08
-1.41514e-07
-1.71474e-08
-1.35436e-07
-1.77193e-08
-1.29184e-07
-1.82279e-08
-1.22782e-07
-1.8669e-08
-1.16253e-07
-1.90384e-08
-1.09624e-07
-1.93321e-08
-1.02922e-07
-1.9546e-08
-9.61754e-08
-1.96761e-08
-8.94133e-08
-1.97184e-08
-8.26671e-08
-1.96693e-08
-7.59686e-08
-1.9525e-08
-6.93509e-08
-1.92822e-08
-6.28478e-08
-1.8938e-08
-5.6494e-08
-1.84896e-08
-5.03245e-08
-1.7935e-08
-4.43747e-08
-1.72726e-08
-3.86801e-08
-1.65017e-08
-3.32756e-08
-1.56226e-08
-2.81954e-08
-1.46366e-08
-2.34725e-08
-1.35469e-08
-1.91376e-08
-1.23583e-08
-1.52187e-08
-1.10786e-08
-1.17398e-08
-9.71874e-09
-8.71956e-09
-8.2941e-09
-6.16995e-09
-6.82607e-09
-4.0941e-09
-5.34385e-09
-2.48405e-09
-3.88707e-09
-1.31812e-09
-2.50925e-09
-5.57891e-10
-1.28232e-09
-1.44924e-10
-3.01343e-10
2.98715e-12
3.08662e-10
3.69783e-10
-7.99465e-11
-2.66956e-10
-4.37734e-10
9.24392e-11
-1.16229e-09
1.09492e-09
-2.32157e-09
2.53325e-09
-3.96441e-09
4.26006e-09
-6.12238e-09
6.16173e-09
-8.81193e-09
8.15085e-09
-1.20367e-08
1.01614e-08
-1.57896e-08
1.21438e-08
-2.00551e-08
1.40612e-08
-2.48105e-08
1.58864e-08
-3.0028e-08
1.75997e-08
-3.56755e-08
1.91871e-08
-4.1718e-08
2.06389e-08
-4.81184e-08
2.19492e-08
-5.48382e-08
2.31143e-08
-6.18381e-08
2.4133e-08
-6.90786e-08
2.50056e-08
-7.65201e-08
2.57336e-08
-8.41235e-08
2.63195e-08
-9.18504e-08
2.67668e-08
-9.96633e-08
2.70794e-08
-1.07526e-07
2.72615e-08
-1.15402e-07
2.73181e-08
-1.23259e-07
2.7254e-08
-1.31063e-07
2.70744e-08
-1.38783e-07
2.67846e-08
-1.46389e-07
2.63899e-08
-1.53853e-07
2.58955e-08
-1.61147e-07
2.53068e-08
-1.68246e-07
2.46289e-08
-1.75125e-07
2.38671e-08
-1.81763e-07
2.30263e-08
-1.88137e-07
2.21115e-08
-1.94228e-07
2.11276e-08
-2.00017e-07
2.00793e-08
-2.05487e-07
1.89711e-08
-2.10622e-07
1.78076e-08
-2.15406e-07
1.6593e-08
-2.19827e-07
1.53317e-08
-2.23871e-07
1.40277e-08
-2.27528e-07
1.26851e-08
-2.30788e-07
1.13078e-08
-2.33642e-07
9.89959e-09
-2.36081e-07
8.46433e-09
-2.38099e-07
7.00572e-09
-2.39691e-07
5.52743e-09
-2.40851e-07
4.03312e-09
-2.41576e-07
2.52642e-09
-2.41864e-07
1.01099e-09
-2.41712e-07
-5.09501e-10
-2.41122e-07
-2.03134e-09
-2.40094e-07
-3.55079e-09
-2.38628e-07
-5.064e-09
-2.3673e-07
-6.56708e-09
-2.34402e-07
-8.05603e-09
-2.3165e-07
-9.52674e-09
-2.28482e-07
-1.0975e-08
-2.24903e-07
-1.23964e-08
-2.20925e-07
-1.37866e-08
-2.16557e-07
-1.51408e-08
-2.11811e-07
-1.64544e-08
-2.06701e-07
-1.77225e-08
-2.01241e-07
-1.894e-08
-1.95446e-07
-2.01018e-08
-1.89336e-07
-2.12026e-08
-1.82929e-07
-2.2237e-08
-1.76246e-07
-2.31996e-08
-1.69309e-07
-2.40847e-08
-1.62141e-07
-2.48868e-08
-1.54769e-07
-2.56e-08
-1.47219e-07
-2.62187e-08
-1.3952e-07
-2.67372e-08
-1.31703e-07
-2.71498e-08
-1.23798e-07
-2.74509e-08
-1.15839e-07
-2.7635e-08
-1.07861e-07
-2.76967e-08
-9.9899e-08
-2.76311e-08
-9.19906e-08
-2.74333e-08
-8.4174e-08
-2.70988e-08
-7.64881e-08
-2.66238e-08
-6.89728e-08
-2.60049e-08
-6.16683e-08
-2.52395e-08
-5.46151e-08
-2.43258e-08
-4.78534e-08
-2.32634e-08
-4.14229e-08
-2.2053e-08
-3.53623e-08
-2.06972e-08
-2.97084e-08
-1.92008e-08
-2.44956e-08
-1.75711e-08
-1.97551e-08
-1.58192e-08
-1.55134e-08
-1.39604e-08
-1.17915e-08
-1.2016e-08
-8.60312e-09
-1.00145e-08
-5.9531e-09
-7.99387e-09
-3.83548e-09
-6.00469e-09
-2.23138e-09
-4.11336e-09
-1.10687e-09
-2.40684e-09
-4.10883e-10
-9.97325e-10
-7.30698e-11
-2.91622e-11
2.96718e-10
-1.60294e-10
-1.06662e-10
-7.22524e-10
6.5468e-10
-1.75261e-09
2.12501e-09
-3.3028e-09
4.08344e-09
-5.41115e-09
6.36842e-09
-8.10185e-09
8.85242e-09
-1.13862e-08
1.14352e-08
-1.5264e-08
1.40392e-08
-1.97254e-08
1.66051e-08
-2.47519e-08
1.90877e-08
-3.03184e-08
2.14529e-08
-3.63942e-08
2.36755e-08
-4.29442e-08
2.57371e-08
-4.99302e-08
2.76249e-08
-5.73115e-08
2.93305e-08
-6.50459e-08
3.08487e-08
-7.309e-08
3.21771e-08
-8.14001e-08
3.33157e-08
-8.99324e-08
3.42659e-08
-9.86434e-08
3.50306e-08
-1.0749e-07
3.56137e-08
-1.16431e-07
3.60201e-08
-1.25425e-07
3.62553e-08
-1.34432e-07
3.63252e-08
-1.43414e-07
3.6236e-08
-1.52334e-07
3.59945e-08
-1.61157e-07
3.56072e-08
-1.69848e-07
3.50812e-08
-1.78376e-07
3.44233e-08
-1.86709e-07
3.36403e-08
-1.94819e-07
3.27391e-08
-2.02679e-07
3.17264e-08
-2.10261e-07
3.06089e-08
-2.17543e-07
2.93932e-08
-2.24501e-07
2.80855e-08
-2.31113e-07
2.66921e-08
-2.37361e-07
2.52191e-08
-2.43226e-07
2.36724e-08
-2.48691e-07
2.20578e-08
-2.5374e-07
2.03809e-08
-2.5836e-07
1.86471e-08
-2.62536e-07
1.68619e-08
-2.66259e-07
1.50305e-08
-2.69518e-07
1.31579e-08
-2.72303e-07
1.12493e-08
-2.74606e-07
9.30962e-09
-2.76423e-07
7.34371e-09
-2.77746e-07
5.3565e-09
-2.78573e-07
3.35286e-09
-2.78899e-07
1.33766e-09
-2.78725e-07
-6.84183e-10
-2.78048e-07
-2.70772e-09
-2.76871e-07
-4.72792e-09
-2.75195e-07
-6.73969e-09
-2.73025e-07
-8.7378e-09
-2.70364e-07
-1.07169e-08
-2.67219e-07
-1.26716e-08
-2.63598e-07
-1.45962e-08
-2.59509e-07
-1.64849e-08
-2.54964e-07
-1.83319e-08
-2.49974e-07
-2.01309e-08
-2.44552e-07
-2.18757e-08
-2.38715e-07
-2.35598e-08
-2.32478e-07
-2.51766e-08
-2.25861e-07
-2.67193e-08
-2.18883e-07
-2.81809e-08
-2.11565e-07
-2.95542e-08
-2.03933e-07
-3.08321e-08
-1.9601e-07
-3.20073e-08
-1.87825e-07
-3.30722e-08
-1.79406e-07
-3.40194e-08
-1.70783e-07
-3.48414e-08
-1.61989e-07
-3.55309e-08
-1.53059e-07
-3.60802e-08
-1.44027e-07
-3.64823e-08
-1.34932e-07
-3.673e-08
-1.25813e-07
-3.68164e-08
-1.16709e-07
-3.67351e-08
-1.07662e-07
-3.64799e-08
-9.87154e-08
-3.60454e-08
-8.99126e-08
-3.54267e-08
-8.12978e-08
-3.46197e-08
-7.29159e-08
-3.36214e-08
-6.48118e-08
-3.243e-08
-5.70299e-08
-3.10453e-08
-4.96141e-08
-2.94689e-08
-4.26066e-08
-2.77047e-08
-3.60481e-08
-2.57593e-08
-2.99761e-08
-2.36431e-08
-2.44245e-08
-2.13707e-08
-1.94229e-08
-1.89621e-08
-1.49946e-08
-1.64443e-08
-1.11558e-08
-1.38532e-08
-7.91441e-09
-1.12353e-08
-5.26788e-09
-8.65122e-09
-3.20229e-09
-6.17896e-09
-1.69078e-09
-3.91834e-09
-6.92599e-10
-1.99551e-09
-1.52469e-10
-5.69299e-10
1.44252e-10
-2.40507e-10
1.33853e-10
-1.01102e-09
1.42519e-09
-2.35456e-09
3.46855e-09
-4.30639e-09
6.03528e-09
-6.89211e-09
8.95413e-09
-1.01267e-08
1.2087e-08
-1.40148e-08
1.53232e-08
-1.85511e-08
1.85755e-08
-2.37215e-08
2.17756e-08
-2.95044e-08
2.48706e-08
-3.58714e-08
2.78199e-08
-4.27888e-08
3.05929e-08
-5.02188e-08
3.3167e-08
-5.81198e-08
3.5526e-08
-6.6448e-08
3.76587e-08
-7.51577e-08
3.95583e-08
-8.42019e-08
4.12214e-08
-9.35334e-08
4.26471e-08
-1.03104e-07
4.38368e-08
-1.12867e-07
4.47937e-08
-1.22776e-07
4.55223e-08
-1.32784e-07
4.60282e-08
-1.42847e-07
4.63181e-08
-1.52921e-07
4.6399e-08
-1.62963e-07
4.62787e-08
-1.72934e-07
4.59654e-08
-1.82794e-07
4.54672e-08
-1.92506e-07
4.47929e-08
-2.02034e-07
4.39508e-08
-2.11343e-07
4.29498e-08
-2.20402e-07
4.17983e-08
-2.29181e-07
4.05048e-08
-2.3765e-07
3.90778e-08
-2.45782e-07
3.75254e-08
-2.53552e-07
3.58558e-08
-2.60937e-07
3.40767e-08
-2.67914e-07
3.21961e-08
-2.74463e-07
3.02213e-08
-2.80565e-07
2.81597e-08
-2.86202e-07
2.60186e-08
-2.9136e-07
2.38048e-08
-2.96023e-07
2.15252e-08
-3.00179e-07
1.91865e-08
-3.03816e-07
1.67952e-08
-3.06925e-07
1.43579e-08
-3.09496e-07
1.18808e-08
-3.11523e-07
9.37032e-09
-3.12999e-07
6.83263e-09
-3.1392e-07
4.274e-09
-3.14283e-07
1.70069e-09
-3.14086e-07
-8.81008e-10
-3.13329e-07
-3.46474e-09
-3.12013e-07
-6.04408e-09
-3.1014e-07
-8.61248e-09
-3.07715e-07
-1.11633e-08
-3.04742e-07
-1.36896e-08
-3.01229e-07
-1.61845e-08
-2.97185e-07
-1.86408e-08
-2.92618e-07
-2.10512e-08
-2.87542e-07
-2.3408e-08
-2.8197e-07
-2.57034e-08
-2.75916e-07
-2.79295e-08
-2.69398e-07
-3.0078e-08
-2.62434e-07
-3.21404e-08
-2.55045e-07
-3.41082e-08
-2.47254e-07
-3.59726e-08
-2.39083e-07
-3.77244e-08
-2.30561e-07
-3.93545e-08
-2.21714e-07
-4.08537e-08
-2.12574e-07
-4.22127e-08
-2.03172e-07
-4.34219e-08
-1.93541e-07
-4.4472e-08
-1.83718e-07
-4.53535e-08
-1.73741e-07
-4.60574e-08
-1.63649e-07
-4.65743e-08
-1.53483e-07
-4.68957e-08
-1.43287e-07
-4.70129e-08
-1.33104e-07
-4.69181e-08
-1.2298e-07
-4.66037e-08
-1.12962e-07
-4.60631e-08
-1.03099e-07
-4.52906e-08
-9.34369e-08
-4.42813e-08
-8.40262e-08
-4.3032e-08
-7.49154e-08
-4.15408e-08
-6.61526e-08
-3.9808e-08
-5.77854e-08
-3.78361e-08
-4.98595e-08
-3.56306e-08
-4.24187e-08
-3.32002e-08
-3.55036e-08
-3.05582e-08
-2.91514e-08
-2.77229e-08
-2.33942e-08
-2.47193e-08
-1.82584e-08
-2.15801e-08
-1.37638e-08
-1.83479e-08
-9.92175e-09
-1.50773e-08
-6.73492e-09
-1.18381e-08
-4.19582e-09
-8.71805e-09
-2.28643e-09
-5.82773e-09
-9.78015e-10
-3.30393e-09
-2.31717e-10
-1.3156e-09
-8.74715e-11
-3.18688e-10
4.52545e-10
-1.29599e-09
2.4025e-09
-2.95342e-09
5.12598e-09
-5.30928e-09
8.39114e-09
-8.37586e-09
1.20207e-08
-1.21579e-08
1.58691e-08
-1.66522e-08
1.98175e-08
-2.18473e-08
2.37706e-08
-2.77242e-08
2.76525e-08
-3.42571e-08
3.14034e-08
-4.1414e-08
3.49768e-08
-4.91581e-08
3.8337e-08
-5.74483e-08
4.14571e-08
-6.62399e-08
4.43176e-08
-7.5486e-08
4.69048e-08
-8.51377e-08
4.921e-08
-9.51449e-08
5.12286e-08
-1.05457e-07
5.29589e-08
-1.16022e-07
5.44022e-08
-1.2679e-07
5.55618e-08
-1.37711e-07
5.64428e-08
-1.48734e-07
5.70518e-08
-1.59812e-07
5.73962e-08
-1.70898e-07
5.74846e-08
-1.81945e-07
5.73262e-08
-1.92911e-07
5.69306e-08
-2.03751e-07
5.63079e-08
-2.14427e-07
5.54682e-08
-2.24898e-07
5.44221e-08
-2.35128e-07
5.31799e-08
-2.45082e-07
5.17521e-08
-2.54726e-07
5.01491e-08
-2.6403e-07
4.83812e-08
-2.72962e-07
4.64583e-08
-2.81497e-07
4.43905e-08
-2.89608e-07
4.21875e-08
-2.97271e-07
3.98587e-08
-3.04463e-07
3.74134e-08
-3.11163e-07
3.48606e-08
-3.17354e-07
3.22094e-08
-3.23018e-07
2.94681e-08
-3.28138e-07
2.66454e-08
-3.32701e-07
2.37495e-08
-3.36694e-07
2.07885e-08
-3.40107e-07
1.77705e-08
-3.42929e-07
1.47032e-08
-3.45153e-07
1.15945e-08
-3.46773e-07
8.4523e-09
-3.47783e-07
5.2842e-09
-3.48181e-07
2.09801e-09
-3.47963e-07
-1.09846e-09
-3.47131e-07
-4.29732e-09
-3.45684e-07
-7.49059e-09
-3.43626e-07
-1.06701e-08
-3.40962e-07
-1.38277e-08
-3.37697e-07
-1.69549e-08
-3.33838e-07
-2.00429e-08
-3.29396e-07
-2.3083e-08
-3.24381e-07
-2.6066e-08
-3.18807e-07
-2.89825e-08
-3.12687e-07
-3.1823e-08
-3.06039e-07
-3.45775e-08
-2.98881e-07
-3.72359e-08
-2.91234e-07
-3.97878e-08
-2.8312e-07
-4.22226e-08
-2.74563e-07
-4.45294e-08
-2.6559e-07
-4.66972e-08
-2.5623e-07
-4.87147e-08
-2.46513e-07
-5.05705e-08
-2.36472e-07
-5.22533e-08
-2.26143e-07
-5.37515e-08
-2.15561e-07
-5.50535e-08
-2.04767e-07
-5.61481e-08
-1.938e-07
-5.70239e-08
-1.82704e-07
-5.767e-08
-1.71524e-07
-5.80758e-08
-1.60306e-07
-5.8231e-08
-1.49098e-07
-5.81262e-08
-1.37949e-07
-5.77525e-08
-1.26911e-07
-5.71021e-08
-1.16033e-07
-5.61682e-08
-1.05369e-07
-5.49456e-08
-9.49701e-08
-5.34305e-08
-8.48897e-08
-5.16212e-08
-7.51792e-08
-4.95186e-08
-6.58893e-08
-4.71261e-08
-5.7069e-08
-4.44508e-08
-4.87654e-08
-4.15038e-08
-4.10221e-08
-3.83014e-08
-3.38794e-08
-3.48656e-08
-2.73727e-08
-3.1226e-08
-2.15319e-08
-2.74208e-08
-1.63808e-08
-2.3499e-08
-1.19355e-08
-1.95225e-08
-8.20475e-09
-1.55688e-08
-5.18861e-09
-1.17342e-08
-2.87896e-09
-8.13739e-09
-1.25985e-09
-4.92305e-09
-3.08936e-10
-2.26651e-09
-3.96415e-10
-3.9385e-10
8.46397e-10
-1.57325e-09
3.58191e-09
-3.54016e-09
7.09288e-09
-6.29656e-09
1.11475e-08
-9.84144e-09
1.55656e-08
-1.41688e-08
2.01965e-08
-1.92669e-08
2.49156e-08
-2.51171e-08
2.96209e-08
-3.16951e-08
3.42304e-08
-3.897e-08
3.86784e-08
-4.69061e-08
4.2913e-08
-5.54628e-08
4.68937e-08
-6.45956e-08
5.05899e-08
-7.42567e-08
5.39787e-08
-8.4396e-08
5.70441e-08
-9.49615e-08
5.97756e-08
-1.059e-07
6.2167e-08
-1.17157e-07
6.42163e-08
-1.2868e-07
6.59244e-08
-1.40413e-07
6.72947e-08
-1.52303e-07
6.8333e-08
-1.64297e-07
6.90465e-08
-1.76345e-07
6.94439e-08
-1.88395e-07
6.9535e-08
-2.004e-07
6.93305e-08
-2.12311e-07
6.88416e-08
-2.24083e-07
6.80802e-08
-2.35673e-07
6.70583e-08
-2.47039e-07
6.57882e-08
-2.58142e-07
6.42823e-08
-2.68943e-07
6.25531e-08
-2.79406e-07
6.06129e-08
-2.89499e-07
5.84739e-08
-2.99189e-07
5.61482e-08
-3.08446e-07
5.36478e-08
-3.17243e-07
5.09841e-08
-3.25553e-07
4.81687e-08
-3.33352e-07
4.52126e-08
-3.40618e-07
4.21269e-08
-3.47331e-07
3.89221e-08
-3.53472e-07
3.56087e-08
-3.59023e-07
3.21969e-08
-3.6397e-07
2.86966e-08
-3.68299e-07
2.51177e-08
-3.71999e-07
2.14698e-08
-3.75058e-07
1.77626e-08
-3.77469e-07
1.40054e-08
-3.79224e-07
1.02076e-08
-3.80319e-07
6.3787e-09
-3.80749e-07
2.52804e-09
-3.80512e-07
-1.33493e-09
-3.79609e-07
-5.20065e-09
-3.7804e-07
-9.05948e-09
-3.75809e-07
-1.29016e-08
-3.72919e-07
-1.6717e-08
-3.69379e-07
-2.04954e-08
-3.65195e-07
-2.42265e-08
-3.60379e-07
-2.78994e-08
-3.54941e-07
-3.15033e-08
-3.48897e-07
-3.50267e-08
-3.42262e-07
-3.84582e-08
-3.35054e-07
-4.17858e-08
-3.27292e-07
-4.49973e-08
-3.19e-07
-4.80802e-08
-3.102e-07
-5.10218e-08
-3.00921e-07
-5.38091e-08
-2.91189e-07
-5.64286e-08
-2.81037e-07
-5.88671e-08
-2.70497e-07
-6.11109e-08
-2.59603e-07
-6.31463e-08
-2.48395e-07
-6.49597e-08
-2.36912e-07
-6.65372e-08
-2.25194e-07
-6.78653e-08
-2.13288e-07
-6.89308e-08
-2.01237e-07
-6.97206e-08
-1.89091e-07
-7.02222e-08
-1.76898e-07
-7.04236e-08
-1.64711e-07
-7.03136e-08
-1.52581e-07
-6.98822e-08
-1.40563e-07
-6.91201e-08
-1.28711e-07
-6.80198e-08
-1.17082e-07
-6.65752e-08
-1.0573e-07
-6.47825e-08
-9.47108e-08
-6.264e-08
-8.40803e-08
-6.01491e-08
-7.38919e-08
-5.73144e-08
-6.41981e-08
-5.41447e-08
-5.50487e-08
-5.06532e-08
-4.64909e-08
-4.68592e-08
-3.85682e-08
-4.27884e-08
-3.13196e-08
-3.84746e-08
-2.4779e-08
-3.39614e-08
-1.89748e-08
-2.93033e-08
-1.39288e-08
-2.45685e-08
-9.65625e-09
-1.98414e-08
-6.16565e-09
-1.52248e-08
-3.45923e-09
-1.08438e-08
-1.5339e-09
-6.84837e-09
-3.83157e-10
-3.41726e-09
-7.79567e-10
-4.65577e-10
1.31197e-09
-1.84059e-09
4.95692e-09
-4.10953e-09
9.36182e-09
-7.25921e-09
1.42972e-08
-1.12756e-08
1.9582e-08
-1.61421e-08
2.5063e-08
-2.18376e-08
3.06111e-08
-2.83364e-08
3.61197e-08
-3.56077e-08
4.15017e-08
-4.36157e-08
4.66864e-08
-5.232e-08
5.16172e-08
-6.1676e-08
5.62497e-08
-7.16355e-08
6.05494e-08
-8.21477e-08
6.44908e-08
-9.31589e-08
6.80554e-08
-1.04614e-07
7.12309e-08
-1.16457e-07
7.40102e-08
-1.28631e-07
7.63902e-08
-1.41079e-07
7.83719e-08
-1.53743e-07
7.99588e-08
-1.66567e-07
8.11571e-08
-1.79495e-07
8.19749e-08
-1.92474e-07
8.24222e-08
-2.05449e-07
8.251e-08
-2.18369e-07
8.22505e-08
-2.31184e-07
8.16567e-08
-2.43846e-07
8.07421e-08
-2.56308e-07
7.95209e-08
-2.68527e-07
7.80071e-08
-2.8046e-07
7.62154e-08
-2.92067e-07
7.41602e-08
-3.0331e-07
7.18558e-08
-3.14153e-07
6.93168e-08
-3.24562e-07
6.65571e-08
-3.34505e-07
6.35908e-08
-3.43953e-07
6.04316e-08
-3.52877e-07
5.70929e-08
-3.61252e-07
5.35878e-08
-3.69054e-07
4.99292e-08
-3.76262e-07
4.61297e-08
-3.82855e-07
4.22016e-08
-3.88815e-07
3.81569e-08
-3.94126e-07
3.40076e-08
-3.98773e-07
2.97652e-08
-4.02745e-07
2.54411e-08
-4.06029e-07
2.10467e-08
-4.08617e-07
1.65933e-08
-4.10501e-07
1.20918e-08
-4.11676e-07
7.5536e-09
-4.12137e-07
2.98969e-09
-4.11884e-07
-1.58869e-09
-4.10914e-07
-6.17021e-09
-4.0923e-07
-1.07434e-08
-4.06835e-07
-1.52967e-08
-4.03734e-07
-1.98182e-08
-3.99933e-07
-2.42958e-08
-3.95443e-07
-2.87172e-08
-3.90273e-07
-3.30696e-08
-3.84436e-07
-3.73401e-08
-3.77947e-07
-4.15152e-08
-3.70824e-07
-4.55814e-08
-3.63085e-07
-4.95246e-08
-3.54752e-07
-5.33304e-08
-3.45848e-07
-5.69841e-08
-3.36399e-07
-6.04706e-08
-3.26434e-07
-6.37746e-08
-3.15982e-07
-6.68804e-08
-3.05077e-07
-6.97724e-08
-2.93753e-07
-7.24345e-08
-2.82049e-07
-7.48506e-08
-2.70004e-07
-7.70047e-08
-2.5766e-07
-7.88809e-08
-2.45062e-07
-8.04632e-08
-2.32257e-07
-8.17361e-08
-2.19293e-07
-8.26846e-08
-2.06221e-07
-8.32941e-08
-1.93094e-07
-8.35509e-08
-1.79965e-07
-8.3442e-08
-1.66892e-07
-8.29558e-08
-1.5393e-07
-8.20821e-08
-1.41137e-07
-8.08121e-08
-1.28573e-07
-7.91393e-08
-1.16296e-07
-7.70595e-08
-1.04365e-07
-7.45713e-08
-9.28379e-08
-7.16764e-08
-8.17717e-08
-6.83806e-08
-7.1222e-08
-6.46943e-08
-6.12422e-08
-6.0633e-08
-5.18826e-08
-5.62187e-08
-4.31905e-08
-5.14806e-08
-3.52087e-08
-4.64564e-08
-2.79757e-08
-4.11943e-08
-2.15249e-08
-3.5754e-08
-1.58843e-08
-3.02092e-08
-1.10762e-08
-2.46495e-08
-7.11787e-09
-1.91831e-08
-4.02198e-09
-1.39397e-08
-1.79795e-09
-9.0724e-09
-4.53944e-10
-4.76127e-09
-1.2335e-09
-5.33797e-10
1.84576e-09
-2.09708e-09
6.52021e-09
-4.65897e-09
1.19237e-08
-8.19233e-09
1.78306e-08
-1.26709e-08
2.40606e-08
-1.80673e-08
3.04593e-08
-2.43515e-08
3.68953e-08
-3.14902e-08
4.32584e-08
-3.94458e-08
4.94573e-08
-4.81769e-08
5.54176e-08
-5.76383e-08
6.10786e-08
-6.7781e-08
6.63924e-08
-7.85531e-08
7.13216e-08
-8.99001e-08
7.58378e-08
-1.01765e-07
7.99205e-08
-1.1409e-07
8.35558e-08
-1.26815e-07
8.67355e-08
-1.39881e-07
8.94561e-08
-1.53227e-07
9.17182e-08
-1.66794e-07
9.35256e-08
-1.80522e-07
9.48851e-08
-1.94353e-07
9.58057e-08
-2.08229e-07
9.62985e-08
-2.22095e-07
9.63759e-08
-2.35896e-07
9.60517e-08
-2.4958e-07
9.53406e-08
-2.63096e-07
9.42581e-08
-2.76396e-07
9.28201e-08
-2.89432e-07
9.10431e-08
-3.0216e-07
8.89436e-08
-3.14538e-07
8.65382e-08
-3.26525e-07
8.38435e-08
-3.38085e-07
8.08761e-08
-3.4918e-07
7.76523e-08
-3.59777e-07
7.41882e-08
-3.69845e-07
7.04998e-08
-3.79355e-07
6.66025e-08
-3.88279e-07
6.25116e-08
-3.96592e-07
5.8242e-08
-4.0427e-07
5.38085e-08
-4.11294e-07
4.92252e-08
-4.17643e-07
4.45062e-08
-4.23301e-07
3.96652e-08
-4.28252e-07
3.47159e-08
-4.32482e-07
2.96715e-08
-4.35981e-07
2.45453e-08
-4.38738e-07
1.93503e-08
-4.40745e-07
1.40994e-08
-4.41997e-07
8.80577e-09
-4.4249e-07
3.48229e-09
-4.42221e-07
-1.85794e-09
-4.41189e-07
-7.20173e-09
-4.39397e-07
-1.25357e-08
-4.36847e-07
-1.78464e-08
-4.33546e-07
-2.31199e-08
-4.29499e-07
-2.83422e-08
-4.24717e-07