/*--------------------------------*- C++ -*----------------------------------*\
| =========                 |                                                 |
| \\      /  F ield         | OpenFOAM: The Open Source CFD Toolbox           |
|  \\    /   O peration     | Version:  2212                                  |
|   \\  /    A nd           | Website:  www.openfoam.com                      |
|    \\/     M anipulation  |                                                 |
\*---------------------------------------------------------------------------*/
FoamFile
{
    version     2.0;
    format      ascii;
    arch        "LSB;label=32;scalar=64";
    class       surfaceScalarField;
    location    "0.022";
    object      phi_0;
}
// * * * * * * * * * * * * * * * * * * * * * * * * * * * * * * * * * * * * * //

dimensions      [0 3 -1 0 0 0 0];

oriented        oriented;

internalField   nonuniform List<scalar> 
19800
(
6.07547e-11
-6.08326e-11
1.80915e-10
-1.20164e-10
2.91716e-10
-1.10782e-10
3.52152e-10
-6.04426e-11
3.41961e-10
1.01923e-11
2.52118e-10
8.98435e-11
7.98294e-11
1.72291e-10
-1.7401e-10
2.5384e-10
-5.06392e-10
3.32387e-10
-9.13015e-10
4.06626e-10
-1.3888e-09
4.75789e-10
-1.92826e-09
5.39458e-10
-2.52566e-09
5.97399e-10
-3.17523e-09
6.4956e-10
-3.8712e-09
6.95964e-10
-4.60787e-09
7.36669e-10
-5.37968e-09
7.71804e-10
-6.18122e-09
8.0155e-10
-7.00732e-09
8.26097e-10
-7.85296e-09
8.45631e-10
-8.71332e-09
8.60358e-10
-9.58378e-09
8.70453e-10
-1.04599e-08
8.76119e-10
-1.13375e-08
8.77571e-10
-1.22125e-08
8.75058e-10
-1.30813e-08
8.68773e-10
-1.39402e-08
8.58914e-10
-1.47859e-08
8.4568e-10
-1.56151e-08
8.29249e-10
-1.64249e-08
8.09818e-10
-1.72125e-08
7.87574e-10
-1.79752e-08
7.62703e-10
-1.87106e-08
7.35377e-10
-1.94164e-08
7.05755e-10
-2.00904e-08
6.73998e-10
-2.07306e-08
6.4025e-10
-2.13353e-08
6.04672e-10
-2.19027e-08
5.67412e-10
-2.24313e-08
5.28605e-10
-2.29197e-08
4.88374e-10
-2.33665e-08
4.46835e-10
-2.37706e-08
4.04119e-10
-2.4131e-08
3.60352e-10
-2.44466e-08
3.15645e-10
-2.47167e-08
2.70105e-10
-2.49406e-08
2.23837e-10
-2.51175e-08
1.76945e-10
-2.52471e-08
1.29544e-10
-2.53288e-08
8.1752e-11
-2.53625e-08
3.36663e-11
-2.53478e-08
-1.46319e-11
-2.52848e-08
-6.30194e-11
-2.51734e-08
-1.11369e-10
-2.50139e-08
-1.5958e-10
-2.48064e-08
-2.07505e-10
-2.45514e-08
-2.54989e-10
-2.42495e-08
-3.01936e-10
-2.39012e-08
-3.48237e-10
-2.35075e-08
-3.93737e-10
-2.30692e-08
-4.38302e-10
-2.25874e-08
-4.81794e-10
-2.20633e-08
-5.24026e-10
-2.14985e-08
-5.6483e-10
-2.08944e-08
-6.04085e-10
-2.02528e-08
-6.4164e-10
-1.95755e-08
-6.77302e-10
-1.88646e-08
-7.10897e-10
-1.81223e-08
-7.4227e-10
-1.73511e-08
-7.71238e-10
-1.65535e-08
-7.97596e-10
-1.57323e-08
-8.21159e-10
-1.48906e-08
-8.41751e-10
-1.40314e-08
-8.59154e-10
-1.31583e-08
-8.73126e-10
-1.22748e-08
-8.83445e-10
-1.13849e-08
-8.89905e-10
-1.04926e-08
-8.92284e-10
-9.60229e-09
-8.90358e-10
-8.71834e-09
-8.83951e-10
-7.84542e-09
-8.72916e-10
-6.98833e-09
-8.57076e-10
-6.15212e-09
-8.36216e-10
-5.34198e-09
-8.10138e-10
-4.56328e-09
-7.787e-10
-3.82151e-09
-7.41779e-10
-3.12227e-09
-6.99245e-10
-2.47127e-09
-6.50994e-10
-1.87427e-09
-5.97001e-10
-1.33693e-09
-5.37329e-10
-8.64819e-10
-4.72118e-10
-4.63207e-10
-4.01615e-10
-1.36934e-10
-3.26274e-10
1.09958e-10
-2.46896e-10
2.7479e-10
-1.64838e-10
3.57167e-10
-8.23797e-11
3.60531e-10
-3.36672e-12
2.94762e-10
6.5767e-11
1.80901e-10
1.13862e-10
5.99975e-11
1.209e-10
5.99937e-11
1.19641e-10
-1.80478e-10
2.95323e-10
-2.9585e-10
4.15524e-10
-2.30978e-10
4.078e-10
-5.27162e-11
2.27728e-10
1.90259e-10
-1.49141e-10
4.66714e-10
-7.33581e-10
7.56722e-10
-1.52724e-09
1.04749e-09
-2.5256e-09
1.33074e-09
-3.72008e-09
1.6011e-09
-5.09936e-09
1.85507e-09
-6.65038e-09
2.09048e-09
-8.35898e-09
2.30601e-09
-1.02104e-08
2.50099e-09
-1.21896e-08
2.67519e-09
-1.42816e-08
2.82865e-09
-1.64715e-08
2.96164e-09
-1.87445e-08
3.07461e-09
-2.10865e-08
3.16812e-09
-2.34836e-08
3.24275e-09
-2.59225e-08
3.29921e-09
-2.83902e-08
3.33818e-09
-3.08745e-08
3.3604e-09
-3.33635e-08
3.36661e-09
-3.58461e-08
3.3576e-09
-3.83114e-08
3.33412e-09
-4.07495e-08
3.29693e-09
-4.31506e-08
3.24677e-09
-4.55056e-08
3.18435e-09
-4.78062e-08
3.11037e-09
-5.00442e-08
3.02554e-09
-5.2212e-08
2.93052e-09
-5.43026e-08
2.82597e-09
-5.63093e-08
2.71251e-09
-5.82261e-08
2.59077e-09
-6.00472e-08
2.46134e-09
-6.17673e-08
2.32479e-09
-6.33816e-08
2.18166e-09
-6.48855e-08
2.03249e-09
-6.62749e-08
1.87777e-09
-6.7546e-08
1.718e-09
-6.86955e-08
1.55364e-09
-6.97204e-08
1.38518e-09
-7.06178e-08
1.21307e-09
-7.13854e-08
1.03774e-09
-7.20212e-08
8.59605e-10
-7.25233e-08
6.79094e-10
-7.28904e-08
4.96633e-10
-7.31213e-08
3.12638e-10
-7.32152e-08
1.27536e-10
-7.31716e-08
-5.82504e-11
-7.29903e-08
-2.44305e-10
-7.26715e-08
-4.30176e-10
-7.22157e-08
-6.15402e-10
-7.16236e-08
-7.99518e-10
-7.08966e-08
-9.82022e-10
-7.00361e-08
-1.16242e-09
-6.90441e-08
-1.34022e-09
-6.7923e-08
-1.51491e-09
-6.66753e-08
-1.68593e-09
-6.53044e-08
-1.85273e-09
-6.38137e-08
-2.01471e-09
-6.22073e-08
-2.17127e-09
-6.04896e-08
-2.32179e-09
-5.86655e-08
-2.46567e-09
-5.67406e-08
-2.60226e-09
-5.47206e-08
-2.73087e-09
-5.2612e-08
-2.85082e-09
-5.04219e-08
-2.96142e-09
-4.81575e-08
-3.06196e-09
-4.5827e-08
-3.15169e-09
-4.34388e-08
-3.22988e-09
-4.10022e-08
-3.29574e-09
-3.85269e-08
-3.34848e-09
-3.6023e-08
-3.3873e-09
-3.35015e-08
-3.4114e-09
-3.09738e-08
-3.42e-09
-2.84518e-08
-3.41237e-09
-2.59479e-08
-3.38781e-09
-2.34752e-08
-3.34562e-09
-2.10471e-08
-3.28515e-09
-1.86776e-08
-3.20576e-09
-1.63809e-08
-3.10686e-09
-1.41716e-08
-2.98795e-09
-1.20648e-08
-2.84861e-09
-1.00754e-08
-2.68858e-09
-8.21867e-09
-2.50776e-09
-6.50941e-09
-2.30627e-09
-4.9622e-09
-2.08454e-09
-3.59086e-09
-1.84345e-09
-2.40802e-09
-1.58445e-09
-1.42441e-09
-1.3099e-09
-6.47898e-10
-1.02342e-09
-8.20843e-11
-7.30655e-10
2.75824e-10
-4.40295e-10
4.38124e-10
-1.65677e-10
4.31122e-10
7.27664e-11
3.01045e-10
2.43939e-10
1.20651e-10
3.01288e-10
1.80653e-10
1.10863e-10
-2.91323e-10
2.33697e-10
-4.18683e-10
2.39334e-10
-2.36602e-10
4.22911e-11
1.44329e-10
-4.1308e-10
6.45632e-10
-1.15986e-09
1.21349e-09
-2.21438e-09
1.81125e-09
-3.58084e-09
2.41396e-09
-5.25465e-09
3.00455e-09
-7.22488e-09
3.57133e-09
-9.47623e-09
4.10642e-09
-1.19903e-08
4.60456e-09
-1.47468e-08
5.06245e-09
-1.77239e-08
5.47811e-09
-2.08993e-08
5.85057e-09
-2.42502e-08
6.17959e-09
-2.7754e-08
6.46545e-09
-3.13883e-08
6.70883e-09
-3.51308e-08
6.91069e-09
-3.89603e-08
7.07217e-09
-4.28556e-08
7.19458e-09
-4.67968e-08
7.27933e-09
-5.07642e-08
7.32789e-09
-5.47395e-08
7.34184e-09
-5.87047e-08
7.32277e-09
-6.26428e-08
7.27225e-09
-6.65377e-08
7.19187e-09
-7.03742e-08
7.08321e-09
-7.41376e-08
6.94779e-09
-7.78144e-08
6.78713e-09
-8.13916e-08
6.60273e-09
-8.48571e-08
6.39603e-09
-8.81996e-08
6.16844e-09
-9.14084e-08
5.92133e-09
-9.44736e-08
5.65602e-09
-9.73861e-08
5.37382e-09
-1.00137e-07
5.07596e-09
-1.02719e-07
4.76363e-09
-1.05125e-07
4.438e-09
-1.07347e-07
4.10016e-09
-1.0938e-07
3.75121e-09
-1.11219e-07
3.39219e-09
-1.12858e-07
3.02414e-09
-1.14293e-07
2.64804e-09
-1.1552e-07
2.26488e-09
-1.16536e-07
1.87559e-09
-1.17338e-07
1.48111e-09
-1.17924e-07
1.08238e-09
-1.18291e-07
6.80342e-10
-1.1844e-07
2.75914e-10
-1.18368e-07
-1.29964e-10
-1.18076e-07
-5.36325e-10
-1.17564e-07
-9.42198e-10
-1.16833e-07
-1.34659e-09
-1.15884e-07
-1.74846e-09
-1.14719e-07
-2.14678e-09
-1.13341e-07
-2.54045e-09
-1.11753e-07
-2.92837e-09
-1.09958e-07
-3.30942e-09
-1.07962e-07
-3.68238e-09
-1.05769e-07
-4.04604e-09
-1.03384e-07
-4.39911e-09
-1.00815e-07
-4.74032e-09
-9.80688e-08
-5.0683e-09
-9.51527e-08
-5.38169e-09
-9.20759e-08
-5.67907e-09
-8.88478e-08
-5.95897e-09
-8.54787e-08
-6.21991e-09
-8.19798e-08
-6.46034e-09
-7.8363e-08
-6.67872e-09
-7.46413e-08
-6.87346e-09
-7.08282e-08
-7.04295e-09
-6.69384e-08
-7.18554e-09
-6.29873e-08
-7.29955e-09
-5.89913e-08
-7.38332e-09
-5.49674e-08
-7.43522e-09
-5.09338e-08
-7.45361e-09
-4.69093e-08
-7.43693e-09
-4.29134e-08
-7.38366e-09
-3.89666e-08
-7.2924e-09
-3.509e-08
-7.16177e-09
-3.13053e-08
-6.99053e-09
-2.76346e-08
-6.77754e-09
-2.41006e-08
-6.5219e-09
-2.07263e-08
-6.22295e-09
-1.75345e-08
-5.88035e-09
-1.45481e-08
-5.49416e-09
-1.17894e-08
-5.06498e-09
-9.27974e-09
-4.59419e-09
-7.03907e-09
-4.08412e-09
-5.08506e-09
-3.53847e-09
-3.43212e-09
-2.96284e-09
-2.09e-09
-2.36553e-09
-1.0619e-09
-1.75876e-09
-3.41898e-10
-1.16031e-09
8.84986e-11
-5.96071e-10
2.6477e-10
-1.03493e-10
2.44646e-10
2.64056e-10
1.13842e-10
4.32102e-10
2.94493e-10
6.27533e-11
-3.5408e-10
6.27643e-11
-4.18691e-10
-1.2786e-10
-4.5975e-11
-5.96572e-10
6.13034e-10
-1.40218e-09
1.45124e-09
-2.58088e-09
2.39218e-09
-4.15142e-09
3.38179e-09
-6.11913e-09
4.38168e-09
-8.47914e-09
5.36456e-09
-1.12189e-08
6.31111e-09
-1.43203e-08
7.20775e-09
-1.77609e-08
8.04516e-09
-2.15156e-08
8.81715e-09
-2.55573e-08
9.51981e-09
-2.98577e-08
1.0151e-08
-3.43878e-08
1.07097e-08
-3.91184e-08
1.11961e-08
-4.40205e-08
1.16109e-08
-4.90652e-08
1.19555e-08
-5.42246e-08
1.22315e-08
-5.9471e-08
1.2441e-08
-6.47778e-08
1.25862e-08
-7.01195e-08
1.26696e-08
-7.54712e-08
1.26935e-08
-8.08092e-08
1.26608e-08
-8.61108e-08
1.25739e-08
-9.13545e-08
1.24356e-08
-9.65197e-08
1.22484e-08
-1.01587e-07
1.20151e-08
-1.06538e-07
1.17381e-08
-1.11355e-07
1.142e-08
-1.16022e-07
1.10632e-08
-1.20524e-07
1.06703e-08
-1.24846e-07
1.02435e-08
-1.28975e-07
9.78505e-09
-1.32899e-07
9.29728e-09
-1.36605e-07
8.78228e-09
-1.40084e-07
8.24212e-09
-1.43325e-07
7.67881e-09
-1.46319e-07
7.09427e-09
-1.49058e-07
6.49039e-09
-1.51535e-07
5.86901e-09
-1.53742e-07
5.2319e-09
-1.55675e-07
4.58081e-09
-1.57328e-07
3.91741e-09
-1.58696e-07
3.24339e-09
-1.59775e-07
2.5604e-09
-1.60563e-07
1.87008e-09
-1.61056e-07
1.17404e-09
-1.61254e-07
4.73927e-10
-1.61156e-07
-2.28605e-10
-1.6076e-07
-9.31903e-10
-1.60068e-07
-1.63428e-09
-1.59081e-07
-2.33397e-09
-1.578e-07
-3.02921e-09
-1.56228e-07
-3.71819e-09
-1.5437e-07
-4.39904e-09
-1.52228e-07
-5.06983e-09
-1.49809e-07
-5.72858e-09
-1.47118e-07
-6.37325e-09
-1.44163e-07
-7.00172e-09
-1.4095e-07
-7.61179e-09
-1.37489e-07
-8.20121e-09
-1.3379e-07
-8.76766e-09
-1.29863e-07
-9.30877e-09
-1.2572e-07
-9.82208e-09
-1.21373e-07
-1.03051e-08
-1.16838e-07
-1.07552e-08
-1.12129e-07
-1.11698e-08
-1.07261e-07
-1.15461e-08
-1.02253e-07
-1.18816e-08
-9.71228e-08
-1.21734e-08
-9.18896e-08
-1.24188e-08
-8.65743e-08
-1.26148e-08
-8.11987e-08
-1.27589e-08
-7.57857e-08
-1.28482e-08
-7.03594e-08
-1.28799e-08
-6.49447e-08
-1.28516e-08
-5.95676e-08
-1.27607e-08
-5.42552e-08
-1.26048e-08
-4.90352e-08
-1.23818e-08
-4.39361e-08
-1.20897e-08
-3.89869e-08
-1.17267e-08
-3.42171e-08
-1.12917e-08
-2.96564e-08
-1.07837e-08
-2.53342e-08
-1.02025e-08
-2.12798e-08
-9.54862e-09
-1.75212e-08
-8.82358e-09
-1.40852e-08
-8.0302e-09
-1.09963e-08
-7.17301e-09
-8.27587e-09
-6.25887e-09
-5.94093e-09
-5.29777e-09
-4.00246e-09
-4.304e-09
-2.46349e-09
-3.29774e-09
-1.31649e-09
-2.30732e-09
-5.40216e-10
-1.37233e-09
-9.58718e-11
-5.47842e-10
7.72602e-11
9.09147e-11
6.6925e-11
4.42443e-10
3.61407e-10
-5.29965e-12
-3.48777e-10
-1.7296e-10
-2.51032e-10
-6.15477e-10
3.96547e-10
-1.41392e-09
1.41147e-09
-2.62391e-09
2.66123e-09
-4.28058e-09
4.04885e-09
-6.40225e-09
5.50346e-09
-8.99375e-09
6.97318e-09
-1.20492e-08
8.42005e-09
-1.55545e-08
9.81639e-09
-1.9489e-08
1.11422e-08
-2.38272e-08
1.23834e-08
-2.85401e-08
1.35301e-08
-3.35963e-08
1.4576e-08
-3.89627e-08
1.55173e-08
-4.4605e-08
1.6352e-08
-5.04887e-08
1.70798e-08
-5.6579e-08
1.77012e-08
-6.28415e-08
1.8218e-08
-6.92423e-08
1.86323e-08
-7.57482e-08
1.89469e-08
-8.23268e-08
1.91649e-08
-8.8947e-08
1.92898e-08
-9.55786e-08
1.93251e-08
-1.02192e-07
1.92747e-08
-1.08761e-07
1.91423e-08
-1.15257e-07
1.8932e-08
-1.21656e-07
1.86476e-08
-1.27934e-07
1.82929e-08
-1.34068e-07
1.78719e-08
-1.40037e-07
1.73884e-08
-1.45819e-07
1.6846e-08
-1.51397e-07
1.62484e-08
-1.56753e-07
1.55991e-08
-1.6187e-07
1.49016e-08
-1.66732e-07
1.41592e-08
-1.71325e-07
1.33752e-08
-1.75635e-07
1.25528e-08
-1.79651e-07
1.1695e-08
-1.83362e-07
1.08047e-08
-1.86756e-07
9.88481e-09
-1.89825e-07
8.93817e-09
-1.92561e-07
7.96746e-09
-1.94956e-07
6.97537e-09
-1.97003e-07
5.9645e-09
-1.98697e-07
4.93741e-09
-2.00033e-07
3.89662e-09
-2.01007e-07
2.84468e-09
-2.01617e-07
1.78409e-09
-2.01861e-07
7.17342e-10
-2.01736e-07
-3.53028e-10
-2.01244e-07
-1.42445e-09
-2.00384e-07
-2.49433e-09
-1.99158e-07
-3.56002e-09
-1.97568e-07
-4.61883e-09
-1.95618e-07
-5.66795e-09
-1.93313e-07
-6.70453e-09
-1.90657e-07
-7.72565e-09
-1.87657e-07
-8.72829e-09
-1.84321e-07
-9.70933e-09
-1.80658e-07
-1.06655e-08
-1.76676e-07
-1.15936e-08
-1.72387e-07
-1.24901e-08
-1.67803e-07
-1.33515e-08
-1.62938e-07
-1.41741e-08
-1.57805e-07
-1.49544e-08
-1.52422e-07
-1.56883e-08
-1.46805e-07
-1.63722e-08
-1.40973e-07
-1.70019e-08
-1.34946e-07
-1.75735e-08
-1.28744e-07
-1.80828e-08
-1.22392e-07
-1.85257e-08
-1.15913e-07
-1.88981e-08
-1.09332e-07
-1.91959e-08
-1.02676e-07
-1.94147e-08
-9.59734e-08
-1.95508e-08
-8.92534e-08
-1.95999e-08
-8.25466e-08
-1.95584e-08
-7.58847e-08
-1.94226e-08
-6.93004e-08
-1.91891e-08
-6.28274e-08
-1.88548e-08
-5.65001e-08
-1.8417e-08
-5.03535e-08
-1.78733e-08
-4.44228e-08
-1.72223e-08
-3.87435e-08
-1.6463e-08
-3.33506e-08
-1.55954e-08
-2.82783e-08
-1.46209e-08
-2.35596e-08
-1.35422e-08
-1.92256e-08
-1.23642e-08
-1.53044e-08
-1.10942e-08
-1.18204e-08
-9.74289e-09
-8.79265e-09
-8.3255e-09
-6.23363e-09
-6.86303e-09
-4.14698e-09
-5.38439e-09
-2.52541e-09
-3.92888e-09
-1.34796e-09
-2.54978e-09
-5.76985e-10
-1.31884e-09
-1.54845e-10
-3.31232e-10
-1.27502e-13
2.87718e-10
3.61272e-10
-8.26176e-11
-2.66158e-10
-4.43331e-10
1.09685e-10
-1.17274e-09
1.12595e-09
-2.33905e-09
2.57778e-09
-3.99039e-09
4.31258e-09
-6.15735e-09
6.21581e-09
-8.85532e-09
8.20143e-09
-1.2087e-08
1.02049e-08
-1.58446e-08
1.21777e-08
-2.01119e-08
1.40837e-08
-2.48658e-08
1.58961e-08
-3.00781e-08
1.75956e-08
-3.57165e-08
1.91685e-08
-4.17458e-08
2.06054e-08
-4.8129e-08
2.19004e-08
-5.48273e-08
2.30504e-08
-6.18017e-08
2.40541e-08
-6.90125e-08
2.4912e-08
-7.64204e-08
2.56259e-08
-8.39866e-08
2.61984e-08
-9.16728e-08
2.6633e-08
-9.94417e-08
2.69338e-08
-1.07257e-07
2.71052e-08
-1.15084e-07
2.7152e-08
-1.22888e-07
2.70793e-08
-1.30638e-07
2.68922e-08
-1.38303e-07
2.65962e-08
-1.45852e-07
2.61966e-08
-1.53257e-07
2.56986e-08
-1.60493e-07
2.51076e-08
-1.67533e-07
2.44288e-08
-1.74355e-07
2.36673e-08
-1.80935e-07
2.28283e-08
-1.87252e-07
2.19167e-08
-1.93288e-07
2.09372e-08
-1.99023e-07
1.98945e-08
-2.04441e-07
1.87933e-08
-2.09526e-07
1.76379e-08
-2.14264e-07
1.64326e-08
-2.18641e-07
1.51815e-08
-2.22645e-07
1.38888e-08
-2.26265e-07
1.25583e-08
-2.29491e-07
1.11939e-08
-2.32315e-07
9.79936e-09
-2.34729e-07
8.37836e-09
-2.36726e-07
6.93454e-09
-2.38301e-07
5.47149e-09
-2.39449e-07
3.99276e-09
-2.40167e-07
2.50189e-09
-2.40452e-07
1.00245e-09
-2.40303e-07
-5.01966e-10
-2.3972e-07
-2.00777e-09
-2.38703e-07
-3.51129e-09
-2.37254e-07
-5.00877e-09
-2.35376e-07
-6.49639e-09
-2.33074e-07
-7.97026e-09
-2.30352e-07
-9.42637e-09
-2.27217e-07
-1.08606e-08
-2.23677e-07
-1.22686e-08
-2.1974e-07
-1.36461e-08
-2.15417e-07
-1.49885e-08
-2.1072e-07
-1.62913e-08
-2.0566e-07
-1.75495e-08
-2.00253e-07
-1.87582e-08
-1.94515e-07
-1.99125e-08
-1.88462e-07
-2.10071e-08
-1.82114e-07
-2.20366e-08
-1.75491e-07
-2.29956e-08
-1.68614e-07
-2.38787e-08
-1.61507e-07
-2.46801e-08
-1.54196e-07
-2.53943e-08
-1.46706e-07
-2.60154e-08
-1.39066e-07
-2.65378e-08
-1.31306e-07
-2.69558e-08
-1.23457e-07
-2.72637e-08
-1.15552e-07
-2.74559e-08
-1.07625e-07
-2.75271e-08
-9.97113e-08
-2.74721e-08
-9.18478e-08
-2.72861e-08
-8.40724e-08
-2.69645e-08
-7.6424e-08
-2.65033e-08
-6.8942e-08
-2.58989e-08
-6.16666e-08
-2.51487e-08
-5.46382e-08
-2.42507e-08
-4.7897e-08
-2.32042e-08
-4.14826e-08
-2.20098e-08
-3.54338e-08
-2.06697e-08
-2.97875e-08
-1.91885e-08
-2.45785e-08
-1.75733e-08
-1.98379e-08
-1.58347e-08
-1.55929e-08
-1.39879e-08
-1.18648e-08
-1.20536e-08
-8.6678e-09
-1.006e-08
-6.00745e-09
-8.04475e-09
-3.87841e-09
-6.05792e-09
-2.26261e-09
-4.16559e-09
-1.12697e-09
-2.45448e-09
-4.21354e-10
-1.03685e-09
-7.63457e-11
-5.7305e-11
2.8493e-10
-1.63075e-10
-1.03078e-10
-7.28973e-10
6.75579e-10
-1.76413e-09
2.16112e-09
-3.32072e-09
4.13437e-09
-5.43624e-09
6.42809e-09
-8.13402e-09
8.9136e-09
-1.14245e-08
1.14919e-08
-1.53067e-08
1.40871e-08
-1.97698e-08
1.66408e-08
-2.47949e-08
1.91088e-08
-3.03563e-08
2.14575e-08
-3.64229e-08
2.36622e-08
-4.29595e-08
2.5705e-08
-4.99275e-08
2.75734e-08
-5.72862e-08
2.92592e-08
-6.49934e-08
3.07575e-08
-7.30057e-08
3.20664e-08
-8.12795e-08
3.31859e-08
-8.97712e-08
3.41176e-08
-9.84374e-08
3.48647e-08
-1.07236e-07
3.54313e-08
-1.16124e-07
3.58223e-08
-1.25062e-07
3.60433e-08
-1.34011e-07
3.61005e-08
-1.42932e-07
3.60001e-08
-1.51788e-07
3.57489e-08
-1.60546e-07
3.53537e-08
-1.69171e-07
3.48213e-08
-1.77631e-07
3.41588e-08
-1.85896e-07
3.3373e-08
-1.93938e-07
3.24708e-08
-2.0173e-07
3.14589e-08
-2.09246e-07
3.0344e-08
-2.16461e-07
2.91325e-08
-2.23355e-07
2.78308e-08
-2.29906e-07
2.64451e-08
-2.36094e-07
2.49814e-08
-2.41901e-07
2.34456e-08
-2.47312e-07
2.18433e-08
-2.52311e-07
2.018e-08
-2.56883e-07
1.84613e-08
-2.61017e-07
1.66923e-08
-2.64701e-07
1.48781e-08
-2.67926e-07
1.30237e-08
-2.70681e-07
1.11342e-08
-2.72961e-07
9.21421e-09
-2.74758e-07
7.26867e-09
-2.76068e-07
5.30231e-09
-2.76886e-07
3.31991e-09
-2.7721e-07
1.32616e-09
-2.77037e-07
-6.74135e-10
-2.76369e-07
-2.67613e-09
-2.75205e-07
-4.67493e-09
-2.73549e-07
-6.66555e-09
-2.71402e-07
-8.64292e-09
-2.68771e-07
-1.06018e-08
-2.6566e-07
-1.25369e-08
-2.62078e-07
-1.44426e-08
-2.58033e-07
-1.63134e-08
-2.53536e-07
-1.81434e-08
-2.48598e-07
-1.99267e-08
-2.43232e-07
-2.16569e-08
-2.37454e-07
-2.33279e-08
-2.31279e-07
-2.4933e-08
-2.24726e-07
-2.64656e-08
-2.17814e-07
-2.79188e-08
-2.10565e-07
-2.92855e-08
-2.03002e-07
-3.05587e-08
-1.9515e-07
-3.17309e-08
-1.87035e-07
-3.27949e-08
-1.78686e-07
-3.37431e-08
-1.70133e-07
-3.45682e-08
-1.61409e-07
-3.52626e-08
-1.52546e-07
-3.58188e-08
-1.4358e-07
-3.62297e-08
-1.34548e-07
-3.64879e-08
-1.25488e-07
-3.65866e-08
-1.16441e-07
-3.65192e-08
-1.07448e-07
-3.62795e-08
-9.85505e-08
-3.58618e-08
-8.97927e-08
-3.52611e-08
-8.12186e-08
-3.44731e-08
-7.28726e-08
-3.34947e-08
-6.47995e-08
-3.23238e-08
-5.70438e-08
-3.09599e-08
-4.96493e-08
-2.94044e-08
-4.26583e-08
-2.76607e-08
-3.61115e-08
-2.57353e-08
-3.00467e-08
-2.36381e-08
-2.44983e-08
-2.13832e-08
-1.94959e-08
-1.89903e-08
-1.50634e-08
-1.64861e-08
-1.12177e-08
-1.39057e-08
-7.96715e-09
-1.12953e-08
-5.31003e-09
-8.71505e-09
-3.23322e-09
-6.2424e-09
-1.71078e-09
-3.9769e-09
-7.02996e-10
-2.04464e-09
-1.55669e-10
-6.04639e-10
1.29264e-10
-2.43198e-10
1.40124e-10
-1.01773e-09
1.45011e-09
-2.36629e-09
3.50969e-09
-4.32372e-09
6.0918e-09
-6.91503e-09
9.01941e-09
-1.01545e-08
1.21531e-08
-1.4046e-08
1.53834e-08
-1.85835e-08
1.86245e-08
-2.37521e-08
2.18095e-08
-2.95296e-08
2.48863e-08
-3.58872e-08
2.78151e-08
-4.27908e-08
3.05658e-08
-5.02021e-08
3.31164e-08
-5.80796e-08
3.54509e-08
-6.63793e-08
3.75588e-08
-7.50554e-08
3.94336e-08
-8.40611e-08
4.10721e-08
-9.33491e-08
4.24738e-08
-1.02872e-07
4.36404e-08
-1.12582e-07
4.45752e-08
-1.22434e-07
4.5283e-08
-1.32381e-07
4.57696e-08
-1.4238e-07
4.60417e-08
-1.52386e-07
4.61068e-08
-1.62358e-07
4.59725e-08
-1.72257e-07
4.56471e-08
-1.82042e-07
4.51391e-08
-1.91677e-07
4.44569e-08
-2.01128e-07
4.36094e-08
-2.1036e-07
4.2605e-08
-2.19342e-07
4.14525e-08
-2.28043e-07
4.01602e-08
-2.36436e-07
3.87367e-08
-2.44493e-07
3.719e-08
-2.52191e-07
3.55282e-08
-2.59505e-07
3.37592e-08
-2.66414e-07
3.18905e-08
-2.72898e-07
2.99297e-08
-2.78939e-07
2.7884e-08
-2.84519e-07
2.57605e-08
-2.89624e-07
2.35659e-08
-2.94239e-07
2.13071e-08
-2.98351e-07
1.89905e-08
-3.0195e-07
1.66227e-08
-3.05026e-07
1.42098e-08
-3.0757e-07
1.17581e-08
-3.09575e-07
9.27376e-09
-3.11035e-07
6.76289e-09
-3.11947e-07
4.23153e-09
-3.12307e-07
1.68582e-09
-3.12113e-07
-8.68114e-10
-3.11365e-07
-3.42411e-09
-3.10064e-07
-5.97589e-09
-3.08212e-07
-8.51707e-09
-3.05814e-07
-1.10411e-08
-3.02874e-07
-1.35414e-08
-2.994e-07
-1.60111e-08
-2.954e-07
-1.84432e-08
-2.90883e-07
-2.08304e-08
-2.85861e-07
-2.31654e-08
-2.80347e-07
-2.54405e-08
-2.74356e-07
-2.76479e-08
-2.67904e-07
-2.97795e-08
-2.61011e-07
-3.18269e-08
-2.53695e-07
-3.37817e-08
-2.45978e-07
-3.56351e-08
-2.37885e-07
-3.73783e-08
-2.29442e-07
-3.90022e-08
-2.20675e-07
-4.04975e-08
-2.11615e-07
-4.1855e-08
-2.02293e-07
-4.30652e-08
-1.92743e-07
-4.41188e-08
-1.82999e-07
-4.50064e-08
-1.73099e-07
-4.57187e-08
-1.63082e-07
-4.62466e-08
-1.52989e-07
-4.65811e-08
-1.42861e-07
-4.67137e-08
-1.32744e-07
-4.66363e-08
-1.22683e-07
-4.63413e-08
-1.12723e-07
-4.58218e-08
-1.02912e-07
-4.50719e-08
-9.32984e-08
-4.40865e-08
-8.39309e-08
-4.28622e-08
-7.48579e-08
-4.13968e-08
-6.61277e-08
-3.96902e-08
-5.77876e-08
-3.77445e-08
-4.98835e-08
-3.55648e-08
-4.24592e-08
-3.31596e-08
-3.55558e-08
-3.05415e-08
-2.92104e-08
-2.77285e-08
-2.34557e-08
-2.4745e-08
-1.83187e-08
-2.16231e-08
-1.38194e-08
-1.8405e-08
-9.97014e-09
-1.51446e-08
-6.77418e-09
-1.1911e-08
-4.22494e-09
-8.79164e-09
-2.30538e-09
-5.89647e-09
-9.87844e-10
-3.36219e-09
-2.3471e-10
-1.35777e-09
-1.05455e-10
-3.21123e-10
4.61254e-10
-1.30237e-09
2.43136e-09
-2.96436e-09
5.17169e-09
-5.32467e-09
8.45212e-09
-8.39498e-09
1.20897e-08
-1.21794e-08
1.59376e-08
-1.6674e-08
1.9878e-08
-2.18666e-08
2.38171e-08
-2.77376e-08
2.76804e-08
-3.42605e-08
3.14092e-08
-4.14031e-08
3.49576e-08
-4.91279e-08
3.82907e-08
-5.73937e-08
4.13821e-08
-6.61556e-08
4.42129e-08
-7.53667e-08
4.67699e-08
-8.49779e-08
4.90448e-08
-9.49392e-08
5.10334e-08
-1.052e-07
5.27345e-08
-1.15709e-07
5.41496e-08
-1.26416e-07
5.52823e-08
-1.37271e-07
5.61381e-08
-1.48225e-07
5.67235e-08
-1.5923e-07
5.70465e-08
-1.70239e-07
5.71156e-08
-1.81207e-07
5.69403e-08
-1.9209e-07
5.65302e-08
-2.02846e-07
5.58955e-08
-2.13436e-07
5.50466e-08
-2.2382e-07
5.3994e-08
-2.33964e-07
5.27481e-08
-2.4383e-07
5.13194e-08
-2.53388e-07
4.97182e-08
-2.62607e-07
4.79549e-08
-2.71456e-07
4.60394e-08
-2.79909e-07
4.39815e-08
-2.87941e-07
4.17911e-08
-2.95528e-07
3.94774e-08
-3.02648e-07
3.70497e-08
-3.09281e-07
3.45168e-08
-3.15408e-07
3.18875e-08
-3.21012e-07
2.91703e-08
-3.26079e-07
2.63735e-08
-3.30593e-07
2.35051e-08
-3.34544e-07
2.05733e-08
-3.3792e-07
1.75857e-08
-3.40712e-07
1.45501e-08
-3.42912e-07
1.14741e-08
-3.44514e-07
8.36524e-09
-3.45514e-07
5.23117e-09
-3.45908e-07
2.07941e-09
-3.45693e-07
-1.08245e-09
-3.44871e-07
-4.2467e-09
-3.43441e-07
-7.40557e-09
-3.41407e-07
-1.05511e-08
-3.38773e-07
-1.36754e-08
-3.35544e-07
-1.677e-08
-3.31729e-07
-1.98265e-08
-3.27335e-07
-2.28363e-08
-3.22375e-07
-2.57905e-08
-3.16861e-07
-2.86798e-08
-3.10807e-07
-3.14949e-08
-3.04228e-07
-3.4226e-08
-2.97145e-07
-3.68633e-08
-2.89575e-07
-3.93963e-08
-2.81542e-07
-4.18148e-08
-2.73069e-07
-4.41079e-08
-2.64183e-07
-4.62647e-08
-2.54911e-07
-4.82742e-08
-2.45283e-07
-5.01249e-08
-2.35333e-07
-5.18056e-08
-2.25093e-07
-5.33047e-08
-2.14601e-07
-5.46108e-08
-2.03896e-07
-5.57124e-08
-1.93016e-07
-5.65983e-08
-1.82005e-07
-5.72574e-08
-1.70907e-07
-5.7679e-08
-1.59768e-07
-5.78529e-08
-1.48635e-07
-5.77692e-08
-1.37557e-07
-5.7419e-08
-1.26585e-07
-5.67942e-08
-1.15769e-07
-5.58879e-08
-1.05161e-07
-5.46945e-08
-9.48133e-08
-5.32098e-08
-8.47781e-08
-5.1432e-08
-7.51069e-08
-4.93613e-08
-6.58505e-08
-4.70009e-08
-5.7058e-08
-4.43573e-08
-4.87765e-08
-4.14412e-08
-4.10498e-08
-3.82681e-08
-3.39185e-08
-3.48599e-08
-2.74183e-08
-3.12452e-08
-2.15798e-08
-2.74617e-08
-1.6427e-08
-2.35577e-08
-1.19771e-08
-1.95945e-08
-8.23928e-09
-1.56488e-08
-5.21464e-09
-1.18163e-08
-2.89605e-09
-8.21507e-09
-1.26871e-09
-4.98954e-09
-3.11622e-10
-2.31486e-09
-4.17086e-10
-3.9594e-10
8.57198e-10
-1.5788e-09
3.61423e-09
-3.54939e-09
7.14228e-09
-6.30871e-09
1.12114e-08
-9.85508e-09
1.56361e-08
-1.41819e-08
2.02644e-08
-1.92767e-08
2.49727e-08
-2.51204e-08
2.96608e-08
-3.16877e-08
3.42478e-08
-3.89477e-08
3.86692e-08
-4.68639e-08
4.28738e-08
-5.53953e-08
4.68222e-08
-6.44974e-08
5.04841e-08
-7.41221e-08
5.38376e-08
-8.42192e-08
5.6867e-08
-9.47368e-08
5.95624e-08
-1.05622e-07
6.19182e-08
-1.1682e-07
6.39327e-08
-1.28277e-07
6.56073e-08
-1.39941e-07
6.69457e-08
-1.51757e-07
6.79539e-08
-1.63673e-07
6.86395e-08
-1.75638e-07
6.90114e-08
-1.87602e-07
6.90797e-08
-1.99517e-07
6.88552e-08
-2.11336e-07
6.83493e-08
-2.23014e-07
6.7574e-08
-2.34509e-07
6.65414e-08
-2.45779e-07
6.52639e-08
-2.56785e-07
6.37539e-08
-2.67489e-07
6.2024e-08
-2.77858e-07
6.00864e-08
-2.87856e-07
5.79534e-08
-2.97454e-07
5.56369e-08
-3.06621e-07
5.31489e-08
-3.15331e-07
5.05008e-08
-3.23557e-07
4.7704e-08
-3.31277e-07
4.47694e-08
-3.38468e-07
4.1708e-08
-3.45111e-07
3.853e-08
-3.51186e-07
3.52459e-08
-3.56678e-07
3.18656e-08
-3.61572e-07
2.8399e-08
-3.65855e-07
2.48555e-08
-3.69514e-07
2.12448e-08
-3.7254e-07
1.7576e-08
-3.74924e-07
1.38586e-08
-3.7666e-07
1.01015e-08
-3.77743e-07
6.31402e-09
-3.78169e-07
2.50526e-09
-3.77936e-07
-1.31555e-09
-3.77044e-07
-5.13913e-09
-3.75493e-07
-8.95607e-09
-3.73287e-07
-1.27568e-08
-3.70431e-07
-1.65316e-08
-3.66931e-07
-2.02704e-08
-3.62794e-07
-2.39631e-08
-3.58031e-07
-2.75991e-08
-3.52654e-07
-3.11678e-08
-3.46676e-07
-3.46581e-08
-3.40112e-07
-3.80586e-08
-3.32981e-07
-4.13576e-08
-3.25301e-07
-4.45432e-08
-3.17094e-07
-4.76031e-08
-3.08384e-07
-5.05246e-08
-2.99197e-07
-5.32949e-08
-2.89561e-07
-5.59009e-08
-2.79506e-07
-5.83293e-08
-2.69064e-07
-6.05665e-08
-2.58271e-07
-6.2599e-08
-2.47163e-07
-6.4413e-08
-2.35778e-07
-6.59949e-08
-2.2416e-07
-6.73311e-08
-2.1235e-07
-6.84082e-08
-2.00394e-07
-6.92132e-08
-1.8834e-07
-6.97334e-08
-1.76236e-07
-6.99568e-08
-1.64133e-07
-6.98719e-08
-1.52084e-07
-6.94683e-08
-1.40141e-07
-6.87367e-08
-1.2836e-07
-6.76691e-08
-1.16795e-07
-6.62593e-08
-1.05502e-07
-6.45028e-08
-9.45365e-08
-6.23978e-08
-8.39528e-08
-5.9945e-08
-7.3805e-08
-5.71486e-08
-6.41455e-08
-5.40168e-08
-5.50244e-08
-5.05623e-08
-4.64888e-08
-4.68037e-08
-3.85827e-08
-4.2766e-08
-3.13453e-08
-3.84825e-08
-2.48111e-08
-3.39958e-08
-1.9009e-08
-2.93599e-08
-1.39614e-08
-2.46421e-08
-9.68443e-09
-1.99258e-08
-6.18747e-09
-1.53132e-08
-3.47377e-09
-1.09288e-08
-1.54147e-09
-6.92183e-09
-3.85422e-10
-3.47092e-09
-8.02502e-10
-4.67273e-10
1.32448e-09
-1.84494e-09
4.99191e-09
-4.1163e-09
9.41364e-09
-7.26698e-09
1.43621e-08
-1.12823e-08
1.96514e-08
-1.61448e-08
2.5127e-08
-2.18331e-08
3.0661e-08
-2.83208e-08
3.61485e-08
-3.55765e-08
4.15035e-08
-4.35639e-08
4.66566e-08
-5.22422e-08
5.15521e-08
-6.15665e-08
5.61464e-08
-7.14884e-08
6.04061e-08
-8.19569e-08
6.4306e-08
-9.29183e-08
6.78285e-08
-1.04318e-07
7.09618e-08
-1.16099e-07
7.36994e-08
-1.28205e-07
7.60389e-08
-1.40579e-07
7.79814e-08
-1.53165e-07
7.9531e-08
-1.65905e-07
8.06943e-08
-1.78745e-07
8.14797e-08
-1.91631e-07
8.18974e-08
-2.0451e-07
8.19588e-08
-2.17331e-07
8.16762e-08
-2.30045e-07
8.10628e-08
-2.42603e-07
8.01323e-08
-2.5496e-07
7.88989e-08
-2.67073e-07
7.73769e-08
-2.789e-07
7.55809e-08
-2.90402e-07
7.35252e-08
-3.0154e-07
7.12245e-08
-3.12279e-07
6.8693e-08
-3.22587e-07
6.59447e-08
-3.32432e-07
6.29936e-08
-3.41784e-07
5.98532e-08
-3.50617e-07
5.6537e-08
-3.58906e-07
5.30577e-08
-3.66626e-07
4.94283e-08
-3.73757e-07
4.5661e-08
-3.80279e-07
4.1768e-08
-3.86174e-07
3.77611e-08
-3.91427e-07
3.36519e-08
-3.96024e-07
2.94519e-08
-3.99951e-07
2.51721e-08
-4.03199e-07
2.08238e-08
-4.05758e-07
1.64178e-08
-4.07622e-07
1.19649e-08
-4.08784e-07
7.47616e-09
-4.09241e-07
2.96228e-09
-4.0899e-07
-1.56576e-09
-4.08033e-07
-6.09697e-09
-4.06369e-07
-1.06202e-08
-4.04001e-07
-1.5124e-08
-4.00936e-07
-1.9597e-08
-3.97179e-07
-2.40272e-08
-3.92739e-07
-2.84027e-08
-3.87628e-07
-3.2711e-08
-3.81856e-07
-3.69394e-08
-3.75439e-07
-4.10749e-08
-3.68394e-07
-4.5104e-08
-3.60739e-07
-4.9013e-08
-3.52494e-07
-5.27876e-08
-3.43684e-07
-5.64135e-08
-3.34333e-07
-5.98758e-08
-3.24468e-07
-6.31593e-08
-3.14121e-07
-6.62486e-08
-3.03322e-07
-6.9128e-08
-2.92106e-07
-7.17818e-08
-2.80512e-07
-7.41939e-08
-2.68576e-07
-7.63483e-08
-2.56342e-07
-7.82291e-08
-2.43853e-07
-7.98203e-08
-2.31154e-07
-8.11065e-08
-2.18295e-07
-8.20724e-08
-2.05325e-07
-8.27034e-08
-1.92296e-07
-8.29855e-08
-1.79263e-07
-8.29056e-08
-1.66279e-07
-8.24518e-08
-1.53402e-07
-8.16135e-08
-1.4069e-07
-8.03818e-08
-1.28199e-07
-7.87495e-08
-1.1599e-07
-7.67121e-08
-1.0412e-07
-7.42676e-08
-9.26479e-08
-7.14174e-08
-8.16299e-08
-6.81666e-08
-7.11218e-08
-6.45249e-08
-6.11769e-08
-6.05072e-08
-5.18459e-08
-5.61347e-08
-4.3176e-08
-5.14359e-08
-3.52108e-08
-4.64478e-08
-2.7989e-08
-4.12177e-08
-2.15445e-08
-3.58043e-08
-1.59059e-08
-3.02806e-08
-1.10966e-08
-2.47352e-08
-7.13452e-09
-1.92753e-08
-4.03342e-09
-1.40299e-08
-1.80395e-09
-9.15129e-09
-4.55687e-10
-4.81918e-09
-1.25818e-09
-5.35046e-10
1.85953e-09
-2.09995e-09
6.55682e-09
-4.66264e-09
1.19763e-08
-8.19473e-09
1.78942e-08
-1.26692e-08
2.41259e-08
-1.8058e-08
3.05158e-08
-2.43307e-08
3.69337e-08
-3.14532e-08
4.3271e-08
-3.93877e-08
4.9438e-08
-4.80921e-08
5.53611e-08
-5.7521e-08
6.09809e-08
-6.76251e-08
6.62505e-08
-7.83522e-08
7.11332e-08
-8.96476e-08
7.56015e-08
-1.01455e-07
7.96356e-08
-1.13715e-07
8.32223e-08
-1.2637e-07
8.63541e-08
-1.39359e-07
8.9028e-08
-1.52623e-07
9.1245e-08
-1.66101e-07
9.30097e-08
-1.79736e-07
9.4329e-08
-1.93469e-07
9.52125e-08
-2.07243e-07
9.56715e-08
-2.21003e-07
9.57187e-08
-2.34695e-07
9.53683e-08
-2.48267e-07
9.4635e-08
-2.61669e-07
9.35346e-08
-2.74854e-07
9.20832e-08
-2.87774e-07
9.02971e-08
-3.00386e-07
8.81931e-08
-3.12649e-07
8.57879e-08
-3.24522e-07
8.3098e-08
-3.35969e-07
8.01399e-08
-3.46955e-07
7.693e-08
-3.57445e-07
7.34842e-08
-3.6741e-07
6.98183e-08
-3.76821e-07
6.59476e-08
-3.85651e-07
6.18874e-08
-3.93875e-07
5.76523e-08
-4.0147e-07
5.32568e-08
-4.08417e-07
4.87149e-08
-4.14697e-07
4.40403e-08
-4.20291e-07
3.92467e-08
-4.25187e-07
3.43473e-08
-4.2937e-07
2.9355e-08
-4.32829e-07
2.42829e-08
-4.35555e-07
1.91437e-08
-4.3754e-07
1.39499e-08
-4.38778e-07
8.71442e-09
-4.39265e-07
3.44975e-09
-4.39e-07
-1.83133e-09
-4.37981e-07
-7.11597e-09
-4.3621e-07
-1.23912e-08
-4.3369e-07
-1.76437e-08
-4.30427e-07
-2.28602e-08
-4.26428e-07
-2.80267e-08
-4.21701e-07
-3.31294e-08