/*--------------------------------*- C++ -*----------------------------------*\
| =========                 |                                                 |
| \\      /  F ield         | OpenFOAM: The Open Source CFD Toolbox           |
|  \\    /   O peration     | Version:  2212                                  |
|   \\  /    A nd           | Website:  www.openfoam.com                      |
|    \\/     M anipulation  |                                                 |
\*---------------------------------------------------------------------------*/
FoamFile
{
    version     2.0;
    format      ascii;
    arch        "LSB;label=32;scalar=64";
    class       volVectorField;
    location    "0.022";
    object      U_0;
}
// * * * * * * * * * * * * * * * * * * * * * * * * * * * * * * * * * * * * * //

dimensions      [0 1 -1 0 0 0 0];

internalField   nonuniform List<vector> 
10000
(
(2.86769e-06 -2.85664e-06 0)
(1.19998e-05 -5.88177e-06 0)
(2.42718e-05 -5.92885e-06 0)
(3.35126e-05 -4.26311e-06 0)
(3.63746e-05 -1.81781e-06 0)
(3.1527e-05 9.12584e-07 0)
(1.84643e-05 3.69079e-06 0)
(-2.86842e-06 6.38391e-06 0)
(-3.22523e-05 8.934e-06 0)
(-6.92991e-05 1.13073e-05 0)
(-0.000113532 1.34868e-05 0)
(-0.00016442 1.54717e-05 0)
(-0.000221392 1.7261e-05 0)
(-0.000283875 1.88573e-05 0)
(-0.000351286 2.02676e-05 0)
(-0.000423048 2.14927e-05 0)
(-0.000498599 2.25407e-05 0)
(-0.000577393 2.34257e-05 0)
(-0.000658897 2.41534e-05 0)
(-0.000742603 2.47281e-05 0)
(-0.000828016 2.51541e-05 0)
(-0.000914663 2.54397e-05 0)
(-0.00100209 2.55927e-05 0)
(-0.00108988 2.5626e-05 0)
(-0.0011776 2.55515e-05 0)
(-0.00126488 2.53708e-05 0)
(-0.00135135 2.50847e-05 0)
(-0.00143666 2.46938e-05 0)
(-0.00152048 2.42037e-05 0)
(-0.0016025 2.36233e-05 0)
(-0.00168244 2.29622e-05 0)
(-0.00176002 2.223e-05 0)
(-0.00183498 2.14307e-05 0)
(-0.00190709 2.05666e-05 0)
(-0.00197613 1.96399e-05 0)
(-0.00204189 1.86537e-05 0)
(-0.00210418 1.76139e-05 0)
(-0.00216282 1.6526e-05 0)
(-0.00221766 1.53955e-05 0)
(-0.00226854 1.42246e-05 0)
(-0.00231533 1.30151e-05 0)
(-0.00235791 1.17719e-05 0)
(-0.00239615 1.04998e-05 0)
(-0.00242997 9.2025e-06 0)
(-0.00245928 7.88147e-06 0)
(-0.00248399 6.53769e-06 0)
(-0.00250405 5.1756e-06 0)
(-0.00251938 3.79877e-06 0)
(-0.00252996 2.41032e-06 0)
(-0.00253573 1.01356e-06 0)
(-0.00253669 -3.91048e-07 0)
(-0.0025328 -1.80092e-06 0)
(-0.00252408 -3.21024e-06 0)
(-0.00251053 -4.61528e-06 0)
(-0.00249217 -6.01169e-06 0)
(-0.00246903 -7.39404e-06 0)
(-0.00244117 -8.76152e-06 0)
(-0.00240864 -1.01137e-05 0)
(-0.00237152 -1.14448e-05 0)
(-0.0023299 -1.27485e-05 0)
(-0.00228386 -1.40202e-05 0)
(-0.00223354 -1.52543e-05 0)
(-0.00217906 -1.6446e-05 0)
(-0.00212058 -1.75942e-05 0)
(-0.00205825 -1.86957e-05 0)
(-0.00199225 -1.97428e-05 0)
(-0.00192279 -2.07281e-05 0)
(-0.00185007 -2.16482e-05 0)
(-0.00177434 -2.24998e-05 0)
(-0.00169583 -2.32772e-05 0)
(-0.00161482 -2.39743e-05 0)
(-0.0015316 -2.45859e-05 0)
(-0.00144647 -2.51048e-05 0)
(-0.00135977 -2.55231e-05 0)
(-0.00127185 -2.58341e-05 0)
(-0.00118309 -2.60318e-05 0)
(-0.00109388 -2.61084e-05 0)
(-0.00100465 -2.60551e-05 0)
(-0.000915823 -2.58665e-05 0)
(-0.000827864 -2.55398e-05 0)
(-0.000741245 -2.50705e-05 0)
(-0.000656459 -2.44508e-05 0)
(-0.000574017 -2.3673e-05 0)
(-0.000494446 -2.27314e-05 0)
(-0.00041829 -2.16211e-05 0)
(-0.000346107 -2.03356e-05 0)
(-0.000278465 -1.88685e-05 0)
(-0.000215936 -1.72155e-05 0)
(-0.000159091 -1.53747e-05 0)
(-0.000108495 -1.33458e-05 0)
(-6.46985e-05 -1.11302e-05 0)
(-2.82141e-05 -8.73434e-06 0)
(5.05009e-07 -6.17323e-06 0)
(2.11077e-05 -3.47793e-06 0)
(3.34146e-05 -7.14421e-07 0)
(3.75362e-05 1.98535e-06 0)
(3.40462e-05 4.3725e-06 0)
(2.43661e-05 5.96758e-06 0)
(1.19077e-05 5.85926e-06 0)
(2.80062e-06 2.80299e-06 0)
(5.81484e-06 -1.19519e-05 0)
(2.11877e-05 -2.11828e-05 0)
(3.76858e-05 -1.87384e-05 0)
(4.48147e-05 -9.15731e-06 0)
(3.626e-05 4.24944e-06 0)
(8.82236e-06 1.94889e-05 0)
(-3.90887e-05 3.5368e-05 0)
(-0.000108024 5.11713e-05 0)
(-0.000197775 6.64594e-05 0)
(-0.000307652 8.09614e-05 0)
(-0.000436629 9.45103e-05 0)
(-0.000583468 0.000107012 0)
(-0.000746799 0.00011841 0)
(-0.000925161 0.000128687 0)
(-0.00111706 0.000137841 0)
(-0.00132099 0.000145881 0)
(-0.00153543 0.000152829 0)
(-0.00175893 0.000158717 0)
(-0.00199003 0.000163581 0)
(-0.00222732 0.000167456 0)
(-0.00246944 0.000170381 0)
(-0.00271508 0.000172388 0)
(-0.00296297 0.00017352 0)
(-0.00321192 0.00017382 0)
(-0.00346077 0.000173335 0)
(-0.00370842 0.000172105 0)
(-0.00395384 0.000170168 0)
(-0.00419602 0.000167563 0)
(-0.00443405 0.000164321 0)
(-0.00466703 0.000160482 0)
(-0.00489415 0.000156083 0)
(-0.00511462 0.000151161 0)
(-0.00532771 0.000145752 0)
(-0.00553274 0.000139888 0)
(-0.00572906 0.0001336 0)
(-0.00591609 0.000126917 0)
(-0.00609328 0.000119869 0)
(-0.00626011 0.000112484 0)
(-0.00641613 0.000104791 0)
(-0.00656089 9.68143e-05 0)
(-0.00669401 8.85781e-05 0)
(-0.00681512 8.01075e-05 0)
(-0.00692391 7.14279e-05 0)
(-0.00702008 6.25612e-05 0)
(-0.00710339 5.35304e-05 0)
(-0.00717361 4.43552e-05 0)
(-0.00723054 3.50558e-05 0)
(-0.00727404 2.56562e-05 0)
(-0.00730396 1.61781e-05 0)
(-0.00732022 6.64152e-06 0)
(-0.00732273 -2.93268e-06 0)
(-0.00731149 -1.25232e-05 0)
(-0.00728648 -2.21073e-05 0)
(-0.00724773 -3.16605e-05 0)
(-0.00719531 -4.11571e-05 0)
(-0.00712933 -5.057e-05 0)
(-0.0070499 -5.98748e-05 0)
(-0.00695723 -6.90485e-05 0)
(-0.00685151 -7.80651e-05 0)
(-0.006733 -8.68958e-05 0)
(-0.00660198 -9.55099e-05 0)
(-0.00645881 -0.000103875 0)
(-0.00630385 -0.000111961 0)
(-0.00613753 -0.000119738 0)
(-0.00596031 -0.000127175 0)
(-0.00577272 -0.000134237 0)
(-0.00557532 -0.00014089 0)
(-0.00536873 -0.000147099 0)
(-0.00515361 -0.000152828 0)
(-0.0049307 -0.000158038 0)
(-0.00470075 -0.000162695 0)
(-0.00446459 -0.000166759 0)
(-0.00422312 -0.000170188 0)
(-0.00397728 -0.000172939 0)
(-0.00372806 -0.000174968 0)
(-0.00347652 -0.000176235 0)
(-0.00322378 -0.000176695 0)
(-0.00297099 -0.000176307 0)
(-0.00271939 -0.000175035 0)
(-0.00247023 -0.000172845 0)
(-0.00222485 -0.000169703 0)
(-0.00198463 -0.00016557 0)
(-0.00175096 -0.000160411 0)
(-0.0015253 -0.000154196 0)
(-0.00130913 -0.000146902 0)
(-0.00110395 -0.000138506 0)
(-0.000911285 -0.000128995 0)
(-0.000732628 -0.000118365 0)
(-0.000569459 -0.00010663 0)
(-0.000423212 -9.38242e-05 0)
(-0.000295226 -8.00093e-05 0)
(-0.000186687 -6.52886e-05 0)
(-9.85504e-05 -4.98337e-05 0)
(-3.14296e-05 -3.39279e-05 0)
(1.45748e-05 -1.8034e-05 0)
(4.01349e-05 -2.90476e-06 0)
(4.70182e-05 1.02398e-05 0)
(3.86162e-05 1.94145e-05 0)
(2.14001e-05 2.1424e-05 0)
(5.83718e-06 1.18941e-05 0)
(5.81202e-06 -2.41831e-05 0)
(1.88981e-05 -3.77529e-05 0)
(2.7519e-05 -2.71193e-05 0)
(1.98039e-05 -1.12017e-06 0)
(-1.17294e-05 3.39145e-05 0)
(-7.12574e-05 7.3786e-05 0)
(-0.00016108 0.000115725 0)
(-0.000282133 0.000157905 0)
(-0.00043434 0.00019911 0)
(-0.000616864 0.000238537 0)
(-0.000828354 0.000275655 0)
(-0.0010671 0.000310119 0)
(-0.00133114 0.000341724 0)
(-0.00161836 0.000370357 0)
(-0.00192655 0.000395966 0)
(-0.00225342 0.000418553 0)
(-0.00259672 0.000438146 0)
(-0.00295417 0.000454801 0)
(-0.00332355 0.000468602 0)
(-0.00370267 0.000479628 0)
(-0.00408942 0.000487979 0)
(-0.00448173 0.000493755 0)
(-0.00487763 0.000497055 0)
(-0.00527522 0.000497992 0)
(-0.00567267 0.000496678 0)
(-0.00606824 0.000493225 0)
(-0.00646029 0.000487744 0)
(-0.00684723 0.000480347 0)
(-0.00722757 0.000471138 0)
(-0.00759991 0.000460218 0)
(-0.00796292 0.000447688 0)
(-0.00831535 0.000433647 0)
(-0.00865602 0.000418191 0)
(-0.00898384 0.000401416 0)
(-0.00929778 0.000383412 0)
(-0.00959689 0.000364268 0)
(-0.00988027 0.000344067 0)
(-0.0101471 0.00032289 0)
(-0.0103967 0.000300814 0)
(-0.0106282 0.000277915 0)
(-0.0108411 0.000254266 0)
(-0.0110349 0.000229937 0)
(-0.0112088 0.000204999 0)
(-0.0113626 0.000179519 0)
(-0.0114958 0.00015356 0)
(-0.0116081 0.000127188 0)
(-0.011699 0.000100464 0)
(-0.0117685 7.34498e-05 0)
(-0.0118162 4.62108e-05 0)
(-0.011842 1.88092e-05 0)
(-0.0118459 -8.69275e-06 0)
(-0.0118277 -3.62301e-05 0)
(-0.0117875 -6.3738e-05 0)
(-0.0117253 -9.11506e-05 0)
(-0.0116412 -0.000118396 0)
(-0.0115355 -0.000145401 0)
(-0.0114083 -0.000172095 0)
(-0.0112599 -0.000198402 0)
(-0.0110906 -0.000224244 0)
(-0.010901 -0.000249543 0)
(-0.0106913 -0.000274217 0)
(-0.0104623 -0.000298177 0)
(-0.0102145 -0.000321331 0)
(-0.00994851 -0.000343591 0)
(-0.00966517 -0.000364868 0)
(-0.0093653 -0.000385061 0)
(-0.00904981 -0.00040407 0)
(-0.00871968 -0.000421798 0)
(-0.008376 -0.000438139 0)
(-0.00801991 -0.000452988 0)
(-0.00765265 -0.000466236 0)
(-0.00727555 -0.000477772 0)
(-0.00689004 -0.000487485 0)
(-0.0064976 -0.000495256 0)
(-0.00609983 -0.000500971 0)
(-0.00569841 -0.000504513 0)
(-0.00529508 -0.000505768 0)
(-0.0048917 -0.000504629 0)
(-0.00449018 -0.000500992 0)
(-0.00409253 -0.000494759 0)
(-0.00370083 -0.000485833 0)
(-0.00331723 -0.000474122 0)
(-0.0029439 -0.000459542 0)
(-0.0025831 -0.000442025 0)
(-0.00223712 -0.000421515 0)
(-0.00190825 -0.000397978 0)
(-0.00159879 -0.000371405 0)
(-0.001311 -0.000341824 0)
(-0.00104707 -0.000309314 0)
(-0.000809091 -0.000274016 0)
(-0.000598966 -0.000236164 0)
(-0.000418325 -0.00019612 0)
(-0.000268412 -0.000154441 0)
(-0.00014993 -0.000111969 0)
(-6.28147e-05 -6.99743e-05 0)
(-5.93372e-06 -3.0358e-05 0)
(2.32534e-05 4.04279e-06 0)
(2.91644e-05 2.90492e-05 0)
(1.9443e-05 3.86376e-05 0)
(5.95036e-06 2.43265e-05 0)
(4.19281e-06 -3.35455e-05 0)
(9.72128e-06 -4.54109e-05 0)
(2.55375e-06 -1.97008e-05 0)
(-2.85454e-05 3.03702e-05 0)
(-9.10938e-05 9.54197e-05 0)
(-0.000189654 0.000168912 0)
(-0.000326829 0.000246316 0)
(-0.000503745 0.000324471 0)
(-0.000720349 0.00040119 0)
(-0.000975722 0.000474944 0)
(-0.00126828 0.000544682 0)
(-0.00159596 0.000609702 0)
(-0.00195638 0.000669544 0)
(-0.00234688 0.000723926 0)
(-0.00276469 0.000772711 0)
(-0.00320694 0.000815847 0)
(-0.0036707 0.000853356 0)
(-0.00415305 0.000885313 0)
(-0.0046511 0.000911834 0)
(-0.00516199 0.000933064 0)
(-0.00568295 0.000949168 0)
(-0.00621127 0.000960332 0)
(-0.00674432 0.000966742 0)
(-0.00727959 0.000968597 0)
(-0.00781465 0.000966101 0)
(-0.00834718 0.000959458 0)
(-0.00887497 0.000948878 0)
(-0.00939591 0.000934568 0)
(-0.009908 0.000916732 0)
(-0.0104094 0.000895567 0)
(-0.0108982 0.000871268 0)
(-0.0113728 0.000844022 0)
(-0.0118316 0.000814014 0)
(-0.0122732 0.000781426 0)
(-0.0126961 0.000746432 0)
(-0.013099 0.000709205 0)
(-0.0134807 0.000669907 0)
(-0.0138402 0.000628696 0)
(-0.0141764 0.000585723 0)
(-0.0144884 0.000541136 0)
(-0.0147753 0.000495079 0)
(-0.0150362 0.000447692 0)
(-0.0152706 0.000399108 0)
(-0.0154778 0.000349459 0)
(-0.0156572 0.000298876 0)
(-0.0158083 0.000247484 0)
(-0.0159307 0.000195407 0)
(-0.0160241 0.00014277 0)
(-0.0160883 8.9696e-05 0)
(-0.0161229 3.63085e-05 0)
(-0.0161279 -1.7267e-05 0)
(-0.0161032 -7.09036e-05 0)
(-0.0160488 -0.000124472 0)
(-0.0159647 -0.00017784 0)
(-0.0158513 -0.000230876 0)
(-0.0157086 -0.00028344 0)
(-0.015537 -0.000335386 0)
(-0.0153369 -0.00038657 0)
(-0.0151087 -0.000436843 0)
(-0.014853 -0.000486046 0)
(-0.0145705 -0.000534016 0)
(-0.0142619 -0.000580589 0)
(-0.013928 -0.000625593 0)
(-0.0135697 -0.000668849 0)
(-0.0131881 -0.000710173 0)
(-0.0127843 -0.00074938 0)
(-0.0123595 -0.00078628 0)
(-0.0119151 -0.000820673 0)
(-0.0114525 -0.000852359 0)
(-0.0109732 -0.000881132 0)
(-0.010479 -0.000906784 0)
(-0.0099716 -0.000929102 0)
(-0.00945292 -0.000947871 0)
(-0.00892497 -0.000962874 0)
(-0.00838987 -0.000973894 0)
(-0.00784985 -0.000980713 0)
(-0.00730728 -0.000983124 0)
(-0.0067646 -0.000980923 0)
(-0.00622436 -0.000973916 0)
(-0.0056892 -0.000961917 0)
(-0.00516188 -0.000944749 0)
(-0.00464522 -0.000922255 0)
(-0.00414207 -0.000894293 0)
(-0.00365539 -0.000860751 0)
(-0.00318813 -0.000821549 0)
(-0.00274326 -0.000776652 0)
(-0.00232372 -0.000726086 0)
(-0.00193239 -0.000669947 0)
(-0.00157202 -0.000608431 0)
(-0.00124521 -0.000541864 0)
(-0.000954269 -0.000470754 0)
(-0.000701155 -0.000395854 0)
(-0.000487305 -0.000318269 0)
(-0.00031348 -0.000239594 0)
(-0.000179527 -0.000162113 0)
(-8.40862e-05 -8.90883e-05 0)
(-2.42824e-05 -2.51505e-05 0)
(4.68551e-06 2.32378e-05 0)
(1.04948e-05 4.72041e-05 0)
(4.39657e-06 3.40416e-05 0)
(1.85525e-06 -3.67758e-05 0)
(-3.25309e-06 -3.78837e-05 0)
(-3.14717e-05 1.08401e-05 0)
(-9.18725e-05 9.25405e-05 0)
(-0.000191179 0.000195081 0)
(-0.000333865 0.000309731 0)
(-0.00052251 0.000430207 0)
(-0.000758188 0.000551992 0)
(-0.00104079 0.000671821 0)
(-0.00136927 0.000787354 0)
(-0.00174183 0.000896927 0)
(-0.00215614 0.000999379 0)
(-0.00260945 0.00109393 0)
(-0.00309871 0.00118007 0)
(-0.00362067 0.00125751 0)
(-0.00417196 0.00132612 0)
(-0.00474912 0.00138589 0)
(-0.00534868 0.0014369 0)
(-0.00596717 0.00147929 0)
(-0.00660117 0.00151326 0)
(-0.00724732 0.00153906 0)
(-0.00790234 0.00155694 0)
(-0.00856305 0.0015672 0)
(-0.00922637 0.00157015 0)
(-0.00988935 0.0015661 0)
(-0.0105491 0.00155537 0)
(-0.011203 0.00153828 0)
(-0.0118484 0.00151516 0)
(-0.0124828 0.00148632 0)
(-0.013104 0.00145209 0)
(-0.0137096 0.00141277 0)
(-0.0142977 0.00136867 0)
(-0.0148662 0.00132009 0)
(-0.0154133 0.00126732 0)
(-0.0159373 0.00121062 0)
(-0.0164366 0.00115029 0)
(-0.0169097 0.00108659 0)
(-0.0173552 0.00101977 0)
(-0.0177718 0.000950077 0)
(-0.0181584 0.000877755 0)
(-0.0185139 0.000803033 0)
(-0.0188373 0.000726143 0)
(-0.0191277 0.000647304 0)
(-0.0193844 0.00056673 0)
(-0.0196066 0.000484631 0)
(-0.0197938 0.000401216 0)
(-0.0199454 0.000316692 0)
(-0.0200611 0.000231261 0)
(-0.0201404 0.000145123 0)
(-0.0201831 5.84839e-05 0)
(-0.020189 -2.84522e-05 0)
(-0.0201582 -0.00011548 0)
(-0.0200905 -0.000202388 0)
(-0.0199862 -0.00028896 0)
(-0.0198453 -0.000374976 0)
(-0.0196682 -0.000460212 0)
(-0.0194554 -0.00054444 0)
(-0.0192071 -0.000627419 0)
(-0.0189242 -0.000708901 0)
(-0.0186072 -0.000788635 0)
(-0.018257 -0.000866358 0)
(-0.0178744 -0.000941801 0)
(-0.0174606 -0.00101469 0)
(-0.0170167 -0.00108472 0)
(-0.0165439 -0.00115162 0)
(-0.0160436 -0.00121507 0)
(-0.0155174 -0.00127477 0)
(-0.014967 -0.0013304 0)
(-0.014394 -0.00138163 0)
(-0.0138005 -0.00142814 0)
(-0.0131886 -0.00146958 0)
(-0.0125603 -0.00150562 0)
(-0.0119181 -0.00153593 0)
(-0.0112644 -0.00156014 0)
(-0.0106019 -0.00157793 0)
(-0.00993327 -0.00158896 0)
(-0.0092614 -0.0015929 0)
(-0.00858929 -0.00158943 0)
(-0.00792005 -0.00157825 0)
(-0.00725692 -0.00155907 0)
(-0.00660321 -0.00153164 0)
(-0.00596233 -0.0014957 0)
(-0.00533776 -0.00145108 0)
(-0.00473302 -0.00139762 0)
(-0.00415164 -0.00133522 0)
(-0.00359717 -0.00126387 0)
(-0.00307307 -0.00118367 0)
(-0.00258273 -0.00109481 0)
(-0.00212936 -0.000997658 0)
(-0.00171594 -0.000892804 0)
(-0.00134514 -0.000781107 0)
(-0.00101916 -0.00066381 0)
(-0.000739612 -0.000542667 0)
(-0.000507362 -0.000420125 0)
(-0.000322292 -0.000299562 0)
(-0.000183058 -0.000185636 0)
(-8.68086e-05 -8.47245e-05 0)
(-2.88395e-05 -5.41388e-06 0)
(-2.26383e-06 4.08357e-05 0)
(2.09285e-06 3.77356e-05 0)
(-7.54481e-07 -3.25348e-05 0)
(-1.80935e-05 -1.19038e-05 0)
(-7.05349e-05 6.88064e-05 0)
(-0.000164055 0.000190045 0)
(-0.000303975 0.000337414 0)
(-0.000494325 0.000500248 0)
(-0.000737358 0.000670658 0)
(-0.00103391 0.000842789 0)
(-0.00138369 0.00101231 0)
(-0.00178542 0.00117603 0)
(-0.00223713 0.0013316 0)
(-0.00273619 0.00147737 0)
(-0.00327956 0.00161216 0)
(-0.00386386 0.0017352 0)
(-0.00448542 0.00184601 0)
(-0.00514046 0.00194434 0)
(-0.00582508 0.00203012 0)
(-0.00653532 0.00210341 0)
(-0.00726723 0.00216437 0)
(-0.0080169 0.00221326 0)
(-0.00878046 0.00225039 0)
(-0.00955413 0.00227611 0)
(-0.0103342 0.00229081 0)
(-0.0111172 0.00229493 0)
(-0.0118996 0.0022889 0)
(-0.0126781 0.00227316 0)
(-0.0134496 0.00224819 0)
(-0.0142109 0.00221443 0)
(-0.0149594 0.00217234 0)
(-0.0156921 0.00212237 0)
(-0.0164065 0.00206497 0)
(-0.0171001 0.00200059 0)
(-0.0177707 0.00192965 0)
(-0.0184161 0.00185257 0)
(-0.0190343 0.00176976 0)
(-0.0196232 0.00168161 0)
(-0.0201813 0.00158852 0)
(-0.0207069 0.00149085 0)
(-0.0211983 0.00138897 0)
(-0.0216544 0.00128323 0)
(-0.0220737 0.00117397 0)
(-0.0224552 0.00106153 0)
(-0.0227977 0.000946227 0)
(-0.0231004 0.00082838 0)
(-0.0233625 0.0007083 0)
(-0.0235832 0.00058629 0)
(-0.0237619 0.000462653 0)
(-0.0238982 0.000337692 0)
(-0.0239915 0.000211706 0)
(-0.0240417 8.49919e-05 0)
(-0.0240486 -4.21495e-05 0)
(-0.024012 -0.000169413 0)
(-0.0239319 -0.000296488 0)
(-0.0238086 -0.00042306 0)
(-0.0236422 -0.000548806 0)
(-0.023433 -0.000673397 0)
(-0.0231817 -0.000796492 0)
(-0.0228887 -0.000917744 0)
(-0.0225547 -0.00103679 0)
(-0.0221806 -0.00115327 0)
(-0.0217674 -0.00126679 0)
(-0.021316 -0.00137696 0)
(-0.0208278 -0.00148338 0)
(-0.0203041 -0.00158562 0)
(-0.0197465 -0.00168326 0)
(-0.0191565 -0.00177586 0)
(-0.0185359 -0.00186296 0)
(-0.0178868 -0.0019441 0)
(-0.0172113 -0.00201881 0)
(-0.0165115 -0.00208662 0)
(-0.0157899 -0.00214705 0)
(-0.0150492 -0.00219959 0)
(-0.014292 -0.00224377 0)
(-0.0135213 -0.0022791 0)
(-0.01274 -0.00230508 0)
(-0.0119515 -0.00232126 0)
(-0.011159 -0.00232715 0)
(-0.010366 -0.00232232 0)
(-0.00957625 -0.00230633 0)
(-0.00879335 -0.00227881 0)
(-0.00802118 -0.00223938 0)
(-0.00726367 -0.00218775 0)
(-0.0065248 -0.00212365 0)
(-0.0058086 -0.00204691 0)
(-0.00511912 -0.00195744 0)
(-0.00446037 -0.00185527 0)
(-0.00383627 -0.00174058 0)
(-0.00325063 -0.00161371 0)
(-0.00270703 -0.00147527 0)
(-0.00220882 -0.00132613 0)
(-0.00175894 -0.00116758 0)
(-0.00135983 -0.00100141 0)
(-0.00101333 -0.000830085 0)
(-0.000720446 -0.000656927 0)
(-0.000481256 -0.000486421 0)
(-0.000294652 -0.000324562 0)
(-0.000158098 -0.000179328 0)
(-6.73503e-05 -6.11698e-05 0)
(-1.68851e-05 1.62883e-05 0)
(-4.86552e-07 3.4072e-05 0)
(-3.40447e-06 -2.03007e-05 0)
(-3.36493e-05 3.42418e-05 0)
(-0.000111932 0.000156719 0)
(-0.000240725 0.000325795 0)
(-0.000423602 0.000525337 0)
(-0.000663834 0.000743104 0)
(-0.000963141 0.000969778 0)
(-0.00132193 0.0011983 0)
(-0.00173958 0.00142331 0)
(-0.00221455 0.00164076 0)
(-0.00274459 0.00184766 0)
(-0.00332682 0.00204177 0)
(-0.00395789 0.00222153 0)
(-0.00463411 0.00238586 0)
(-0.00535149 0.00253405 0)
(-0.00610585 0.0026657 0)
(-0.00689291 0.00278066 0)
(-0.0077083 0.00287896 0)
(-0.00854766 0.00296077 0)
(-0.00940662 0.00302638 0)
(-0.0102809 0.00307617 0)
(-0.0111663 0.0031106 0)
(-0.0120586 0.00313017 0)
(-0.0129539 0.00313541 0)
(-0.0138483 0.0031269 0)
(-0.0147381 0.00310523 0)
(-0.0156196 0.00307101 0)
(-0.0164895 0.00302484 0)
(-0.0173446 0.00296733 0)
(-0.0181816 0.0028991 0)
(-0.0189977 0.00282074 0)
(-0.01979 0.00273284 0)
(-0.020556 0.00263598 0)
(-0.0212931 0.00253073 0)
(-0.0219991 0.00241765 0)
(-0.0226718 0.00229727 0)
(-0.0233092 0.00217011 0)
(-0.0239094 0.0020367 0)
(-0.0244708 0.00189752 0)
(-0.0249916 0.00175305 0)
(-0.0254705 0.00160376 0)
(-0.0259061 0.00145011 0)
(-0.0262973 0.00129254 0)
(-0.0266429 0.00113148 0)
(-0.0269421 0.000967363 0)
(-0.0271941 0.000800612 0)
(-0.0273981 0.000631639 0)
(-0.0275535 0.000460855 0)
(-0.02766 0.000288672 0)
(-0.0277171 0.000115502 0)
(-0.0277247 -5.82386e-05 0)
(-0.0276827 -0.000232133 0)
(-0.027591 -0.000405758 0)
(-0.02745 -0.000578681 0)
(-0.0272597 -0.00075046 0)
(-0.0270207 -0.000920642 0)
(-0.0267334 -0.00108876 0)
(-0.0263986 -0.00125434 0)
(-0.026017 -0.0014169 0)
(-0.0255896 -0.00157592 0)
(-0.0251175 -0.00173088 0)
(-0.024602 -0.00188125 0)
(-0.0240444 -0.00202648 0)
(-0.0234463 -0.00216599 0)
(-0.0228094 -0.0022992 0)
(-0.0221357 -0.00242551 0)
(-0.0214271 -0.00254432 0)
(-0.0206859 -0.00265498 0)
(-0.0199145 -0.00275688 0)
(-0.0191154 -0.00284935 0)
(-0.0182915 -0.00293176 0)
(-0.0174457 -0.00300344 0)
(-0.016581 -0.00306374 0)
(-0.0157007 -0.00311201 0)
(-0.0148084 -0.00314759 0)
(-0.0139075 -0.00316987 0)
(-0.013002 -0.00317822 0)
(-0.0120957 -0.00317205 0)
(-0.0111926 -0.00315083 0)
(-0.010297 -0.00311403 0)
(-0.00941315 -0.00306121 0)
(-0.00854545 -0.00299198 0)
(-0.00769833 -0.00290604 0)
(-0.00687626 -0.00280319 0)
(-0.00608372 -0.00268336 0)
(-0.00532513 -0.00254666 0)
(-0.00460483 -0.00239335 0)
(-0.00392696 -0.00222399 0)
(-0.00329548 -0.00203941 0)
(-0.00271401 -0.00184085 0)
(-0.0021858 -0.00163006 0)
(-0.00171354 -0.00140939 0)
(-0.00129932 -0.00118202 0)
(-0.000944406 -0.000952166 0)
(-0.000649196 -0.000725345 0)
(-0.000413002 -0.00050878 0)
(-0.000233831 -0.000311841 0)
(-0.000108174 -0.000146526 0)
(-3.22137e-05 -2.81394e-05 0)
(-3.11019e-06 2.2526e-05 0)
(-5.98622e-06 2.29088e-08 0)
(-4.92322e-05 0.000101235 0)
(-0.000153931 0.000275817 0)
(-0.000318957 0.000501346 0)
(-0.000545939 0.000760505 0)
(-0.00083723 0.0010398 0)
(-0.00119381 0.00132875 0)
(-0.00161553 0.00161923 0)
(-0.0021013 0.00190494 0)
(-0.00264925 0.00218106 0)
(-0.0032568 0.00244389 0)
(-0.00392076 0.0026907 0)
(-0.00463751 0.00291948 0)
(-0.00540302 0.00312882 0)
(-0.006213 0.00331778 0)
(-0.00706294 0.00348579 0)
(-0.0079482 0.0036326 0)
(-0.00886407 0.00375818 0)
(-0.00980579 0.00386271 0)
(-0.0107686 0.00394652 0)
(-0.0117479 0.00401004 0)
(-0.012739 0.00405381 0)
(-0.0137373 0.00407846 0)
(-0.0147386 0.00408464 0)
(-0.0157386 0.00407308 0)
(-0.0167331 0.00404451 0)
(-0.0177182 0.00399968 0)
(-0.0186902 0.00393939 0)
(-0.0196453 0.00386439 0)
(-0.0205803 0.00377547 0)
(-0.0214917 0.00367339 0)
(-0.0223766 0.00355891 0)
(-0.023232 0.00343278 0)
(-0.0240551 0.00329573 0)
(-0.0248435 0.00314848 0)
(-0.0255946 0.00299172 0)
(-0.0263063 0.00282614 0)
(-0.0269764 0.00265238 0)
(-0.0276031 0.00247111 0)
(-0.0281846 0.00228294 0)
(-0.0287192 0.00208848 0)
(-0.0292055 0.00188833 0)
(-0.0296422 0.00168306 0)
(-0.030028 0.00147325 0)
(-0.030362 0.00125946 0)
(-0.0306431 0.00104222 0)
(-0.0308707 0.000822092 0)
(-0.0310441 0.000599608 0)
(-0.0311629 0.000375308 0)
(-0.0312265 0.000149731 0)
(-0.0312348 -7.65815e-05 0)
(-0.0311877 -0.000303082 0)
(-0.0310852 -0.000529216 0)
(-0.0309275 -0.000754416 0)
(-0.0307149 -0.000978107 0)
(-0.0304478 -0.0011997 0)
(-0.030127 -0.00141859 0)
(-0.029753 -0.00163416 0)
(-0.0293269 -0.00184576 0)
(-0.0288496 -0.00205274 0)
(-0.0283225 -0.00225442 0)
(-0.0277468 -0.0024501 0)
(-0.0271243 -0.00263907 0)
(-0.0264565 -0.00282058 0)
(-0.0257455 -0.00299388 0)
(-0.0249933 -0.0031582 0)
(-0.0242023 -0.00331274 0)
(-0.0233748 -0.0034567 0)
(-0.0225136 -0.00358925 0)
(-0.0216215 -0.00370957 0)
(-0.0207016 -0.00381681 0)
(-0.0197571 -0.00391014 0)
(-0.0187914 -0.00398871 0)
(-0.0178083 -0.0040517 0)
(-0.0168114 -0.00409828 0)
(-0.0158049 -0.00412766 0)
(-0.0147928 -0.00413905 0)
(-0.0137795 -0.00413174 0)
(-0.0127694 -0.00410502 0)
(-0.0117671 -0.00405827 0)
(-0.0107774 -0.00399095 0)
(-0.009805 -0.00390259 0)
(-0.00885474 -0.00379285 0)
(-0.0079315 -0.00366153 0)
(-0.00704015 -0.00350859 0)
(-0.00618547 -0.0033342 0)
(-0.00537214 -0.00313879 0)
(-0.00460466 -0.00292309 0)
(-0.0038873 -0.00268823 0)
(-0.00322398 -0.00243582 0)
(-0.00261823 -0.00216807 0)
(-0.00207306 -0.00188791 0)
(-0.00159083 -0.00159923 0)
(-0.00117319 -0.00130704 0)
(-0.000820969 -0.00101784 0)
(-0.000534034 -0.000739917 0)
(-0.000311113 -0.000483799 0)
(-0.000149611 -0.000262704 0)
(-4.75806e-05 -9.3139e-05 0)
(-5.66855e-06 2.99618e-06 0)
(-8.44506e-06 2.82823e-05 0)
(-6.44626e-05 0.0001891 0)
(-0.000195472 0.000426399 0)
(-0.000396842 0.000717259 0)
(-0.000668222 0.00104359 0)
(-0.00101092 0.001391 0)
(-0.00142507 0.00174808 0)
(-0.00190984 0.00210579 0)
(-0.0024636 0.00245705 0)
(-0.00308403 0.00279627 0)
(-0.00376818 0.00311918 0)
(-0.00451254 0.00342251 0)
(-0.00531314 0.00370382 0)
(-0.00616568 0.00396138 0)
(-0.00706553 0.004194 0)
(-0.00800788 0.00440094 0)
(-0.00898776 0.00458182 0)
(-0.0100001 0.00473657 0)
(-0.0110399 0.00486535 0)
(-0.012102 0.0049685 0)
(-0.0131813 0.00504654 0)
(-0.014273 0.00510008 0)
(-0.0153721 0.00512986 0)
(-0.0164739 0.00513668 0)
(-0.0175738 0.00512139 0)
(-0.0186675 0.00508489 0)
(-0.0197505 0.0050281 0)
(-0.0208187 0.00495197 0)
(-0.0218684 0.00485746 0)
(-0.0228957 0.00474551 0)
(-0.023897 0.00461709 0)
(-0.024869 0.00447312 0)
(-0.0258086 0.00431453 0)
(-0.0267127 0.00414224 0)
(-0.0275785 0.00395714 0)
(-0.0284033 0.00376009 0)
(-0.0291848 0.00355195 0)
(-0.0299207 0.00333355 0)
(-0.0306088 0.00310568 0)
(-0.0312473 0.00286914 0)
(-0.0318342 0.00262469 0)
(-0.0323681 0.00237308 0)
(-0.0328475 0.00211503 0)
(-0.0332711 0.00185127 0)
(-0.0336376 0.00158249 0)
(-0.0339462 0.00130939 0)
(-0.034196 0.00103266 0)
(-0.0343863 0.000752966 0)
(-0.0345165 0.000471002 0)
(-0.0345862 0.00018744 0)
(-0.0345952 -9.70371e-05 0)
(-0.0345434 -0.000381735 0)
(-0.0344307 -0.000665954 0)
(-0.0342574 -0.000948985 0)
(-0.0340239 -0.0012301 0)
(-0.0337306 -0.00150857 0)
(-0.0333782 -0.00178361 0)
(-0.0329675 -0.00205445 0)
(-0.0324995 -0.0023203 0)
(-0.0319755 -0.00258032 0)
(-0.0313966 -0.00283366 0)
(-0.0307646 -0.00307945 0)
(-0.030081 -0.00331679 0)
(-0.0293478 -0.00354477 0)
(-0.0285671 -0.00376242 0)
(-0.0277412 -0.00396879 0)
(-0.0268726 -0.00416288 0)
(-0.0259639 -0.0043437 0)
(-0.0250182 -0.00451021 0)
(-0.0240385 -0.00466139 0)
(-0.0230281 -0.00479619 0)
(-0.0219906 -0.00491359 0)
(-0.0209297 -0.00501253 0)
(-0.0198494 -0.00509201 0)
(-0.0187538 -0.005151 0)
(-0.0176472 -0.00518852 0)
(-0.0165342 -0.00520365 0)
(-0.0154194 -0.00519549 0)
(-0.0143076 -0.0051632 0)
(-0.0132039 -0.00510605 0)
(-0.0121132 -0.00502339 0)
(-0.0110407 -0.00491469 0)
(-0.00999158 -0.00477956 0)
(-0.00897114 -0.00461781 0)
(-0.00798454 -0.00442944 0)
(-0.00703692 -0.0042147 0)
(-0.00613328 -0.00397419 0)
(-0.00527843 -0.00370885 0)
(-0.00447696 -0.00342011 0)
(-0.00373311 -0.00310994 0)
(-0.00305071 -0.00278101 0)
(-0.00243309 -0.00243681 0)
(-0.001883 -0.00208189 0)
(-0.00140252 -0.00172202 0)
(-0.000993006 -0.00136454 0)
(-0.000654999 -0.00101862 0)
(-0.000388061 -0.000695737 0)
(-0.000190609 -0.000410008 0)
(-6.26067e-05 -0.000178726 0)
(-8.10795e-06 -2.43674e-05 0)
(-1.07639e-05 6.42001e-05 0)
(-7.91419e-05 0.000297441 0)
(-0.000235939 0.000608181 0)
(-0.000473203 0.000973384 0)
(-0.00078865 0.00137455 0)
(-0.0011825 0.00179668 0)
(-0.00165397 0.00222766 0)
(-0.00220145 0.00265775 0)
(-0.00282272 0.00307914 0)
(-0.00351493 0.00348565 0)
(-0.0042747 0.00387241 0)
(-0.00509816 0.00423568 0)
(-0.00598099 0.00457264 0)
(-0.00691856 0.00488122 0)
(-0.00790592 0.00516 0)
(-0.00893798 0.00540804 0)
(-0.0100094 0.00562486 0)
(-0.0111149 0.00581032 0)
(-0.0122491 0.00596456 0)
(-0.0134065 0.00608795 0)
(-0.0145817 0.00618106 0)
(-0.0157696 0.0062446 0)
(-0.0169649 0.00627941 0)
(-0.0181626 0.00628642 0)
(-0.0193577 0.00626664 0)
(-0.0205456 0.00622113 0)
(-0.0217216 0.00615099 0)
(-0.0228813 0.00605734 0)
(-0.0240205 0.00594132 0)
(-0.0251352 0.00580408 0)
(-0.0262217 0.00564676 0)
(-0.0272762 0.00547051 0)
(-0.0282953 0.00527642 0)
(-0.0292759 0.00506561 0)
(-0.0302148 0.00483915 0)
(-0.0311093 0.00459811 0)
(-0.0319568 0.00434351 0)
(-0.0327546 0.00407637 0)
(-0.0335007 0.00379766 0)
(-0.0341929 0.00350835 0)
(-0.0348292 0.00320936 0)
(-0.035408 0.00290161 0)
(-0.0359276 0.00258599 0)
(-0.0363868 0.00226338 0)
(-0.0367841 0.00193464 0)
(-0.0371186 0.00160062 0)
(-0.0373893 0.00126215 0)
(-0.0375955 0.000920081 0)
(-0.0377365 0.000575232 0)
(-0.037812 0.000228443 0)
(-0.0378217 -0.00011945 0)
(-0.0377654 -0.0004676 0)
(-0.0376432 -0.000815154 0)
(-0.0374553 -0.00116124 0)
(-0.0372021 -0.00150496 0)
(-0.0368841 -0.00184542 0)
(-0.036502 -0.00218169 0)
(-0.0360568 -0.0025128 0)
(-0.0355495 -0.00283778 0)
(-0.0349813 -0.00315563 0)
(-0.0343538 -0.0034653 0)
(-0.0336686 -0.00376573 0)
(-0.0329275 -0.00405583 0)
(-0.0321326 -0.00433447 0)
(-0.0312861 -0.00460051 0)
(-0.0303906 -0.00485277 0)
(-0.0294487 -0.00509004 0)
(-0.0284634 -0.00531111 0)
(-0.0274377 -0.00551475 0)
(-0.0263751 -0.00569969 0)
(-0.0252791 -0.00586471 0)
(-0.0241534 -0.00600853 0)
(-0.0230022 -0.00612991 0)
(-0.0218297 -0.00622762 0)
(-0.0206403 -0.00630046 0)
(-0.0194385 -0.00634725 0)
(-0.0182294 -0.00636689 0)
(-0.0170178 -0.00635832 0)
(-0.0158088 -0.00632057 0)
(-0.0146079 -0.00625277 0)
(-0.0134204 -0.00615417 0)
(-0.0122517 -0.00602419 0)
(-0.0111074 -0.00586239 0)
(-0.0099931 -0.00566859 0)
(-0.00891427 -0.00544283 0)
(-0.00787637 -0.00518549 0)
(-0.00688472 -0.00489729 0)
(-0.00594447 -0.00457941 0)
(-0.00506049 -0.00423357 0)
(-0.00423737 -0.00386209 0)
(-0.00347927 -0.0034681 0)
(-0.0027899 -0.00305562 0)
(-0.00217243 -0.00262977 0)
(-0.00162946 -0.00219702 0)
(-0.00116291 -0.0017654 0)
(-0.000774107 -0.00134483 0)
(-0.000463497 -0.000947491 0)
(-0.000230544 -0.000588138 0)
(-7.70863e-05 -0.000284512 0)
(-1.04026e-05 -5.92807e-05 0)
(-1.29428e-05 0.000107434 0)
(-9.3181e-05 0.000425635 0)
(-0.000275 0.00082049 0)
(-0.000547362 0.0012691 0)
(-0.000906132 0.00175285 0)
(-0.00135045 0.00225635 0)
(-0.00187858 0.00276702 0)
(-0.00248811 0.00327453 0)
(-0.00317613 0.00377052 0)
(-0.00393925 0.00424827 0)
(-0.00477361 0.00470242 0)
(-0.00567491 0.00512881 0)
(-0.00663846 0.00552423 0)
(-0.00765929 0.00588633 0)
(-0.00873214 0.00621343 0)
(-0.00985158 0.00650446 0)
(-0.011012 0.00675879 0)
(-0.0122078 0.00697622 0)
(-0.0134332 0.00715689 0)
(-0.0146826 0.00730117 0)
(-0.0159503 0.0074097 0)
(-0.0172307 0.00748328 0)
(-0.0185184 0.00752286 0)
(-0.0198079 0.00752951 0)
(-0.0210942 0.00750439 0)
(-0.0223721 0.00744872 0)
(-0.0236368 0.0073638 0)
(-0.0248837 0.00725093 0)
(-0.0261083 0.00711144 0)
(-0.0273063 0.00694669 0)
(-0.0284737 0.00675802 0)
(-0.0296066 0.00654676 0)
(-0.0307013 0.00631424 0)
(-0.0317545 0.00606176 0)
(-0.0327629 0.00579061 0)
(-0.0337234 0.00550203 0)
(-0.0346334 0.00519727 0)
(-0.0354901 0.00487751 0)
(-0.036291 0.00454392 0)
(-0.0370341 0.00419765 0)
(-0.0377172 0.00383982 0)
(-0.0383385 0.00347151 0)
(-0.0388963 0.00309379 0)
(-0.0393891 0.00270772 0)
(-0.0398156 0.00231431 0)
(-0.0401746 0.00191459 0)
(-0.0404651 0.00150956 0)
(-0.0406864 0.00110022 0)
(-0.0408378 0.000687571 0)
(-0.0409188 0.00027261 0)
(-0.0409292 -0.000143659 0)
(-0.0408688 -0.000560224 0)
(-0.0407377 -0.000976057 0)
(-0.040536 -0.00139012 0)
(-0.0402642 -0.00180134 0)
(-0.0399229 -0.00220865 0)
(-0.0395128 -0.00261092 0)
(-0.039035 -0.00300702 0)