/*--------------------------------*- C++ -*----------------------------------*\
| =========                 |                                                 |
| \\      /  F ield         | OpenFOAM: The Open Source CFD Toolbox           |
|  \\    /   O peration     | Version:  2212                                  |
|   \\  /    A nd           | Website:  www.openfoam.com                      |
|    \\/     M anipulation  |                                                 |
\*---------------------------------------------------------------------------*/
FoamFile
{
    version     2.0;
    format      ascii;
    arch        "LSB;label=32;scalar=64";
    class       volScalarField;
    location    "0.006";
    object      p;
}
// * * * * * * * * * * * * * * * * * * * * * * * * * * * * * * * * * * * * * //

dimensions      [0 2 -2 0 0 0 0];

internalField   nonuniform List<scalar> 
10000
(
2.64911e-07
-6.57432e-05
-0.000271163
-0.00046583
-0.000700662
-0.00101424
-0.00138096
-0.00175708
-0.00210455
-0.00238973
-0.00258389
-0.0026673
-0.00262303
-0.00243651
-0.00209743
-0.00160057
-0.000946929
-0.000139937
0.000821099
0.00193842
0.00320813
0.00462309
0.00617609
0.00786104
0.00967364
0.0116104
0.0136669
0.0158372
0.0181148
0.020496
0.0229789
0.0255619
0.028242
0.0310159
0.0338801
0.0368302
0.0398616
0.0429705
0.0461529
0.0494041
0.0527173
0.0560854
0.0595037
0.0629679
0.0664721
0.0700108
0.0735788
0.0771718
0.0807855
0.0844135
0.0880484
0.0916846
0.095316
0.0989353
0.102535
0.106107
0.109645
0.113145
0.116602
0.120009
0.12336
0.126651
0.129876
0.133029
0.136106
0.1391
0.142005
0.144819
0.14754
0.150164
0.152686
0.155103
0.157412
0.159609
0.161688
0.163642
0.165464
0.167149
0.168689
0.17008
0.171319
0.172402
0.173325
0.174082
0.174674
0.175098
0.175354
0.175441
0.175362
0.175124
0.174739
0.174223
0.173596
0.172882
0.172115
0.171338
0.170607
0.169994
0.169594
0.169478
0.000166847
0.000348926
0.000320318
0.000234054
7.581e-05
-0.000165033
-0.000447726
-0.000734674
-0.00099282
-0.00119382
-0.00131374
-0.00133076
-0.00123043
-0.00100086
-0.000629194
-0.000107605
0.000563999
0.00138306
0.00234691
0.00345396
0.00470394
0.00609409
0.00761937
0.00927423
0.0110538
0.0129546
0.0149726
0.017103
0.0193397
0.0216782
0.0241154
0.026649
0.0292774
0.0319993
0.0348116
0.0377094
0.0406871
0.0437399
0.0468641
0.0500549
0.053307
0.0566155
0.0599747
0.0633785
0.0668209
0.070296
0.0738003
0.077331
0.0808821
0.084446
0.0880168
0.0915889
0.0951558
0.0987109
0.102247
0.105755
0.10923
0.112669
0.116065
0.119411
0.122702
0.125934
0.129099
0.132194
0.135214
0.138152
0.141003
0.143765
0.146435
0.149009
0.151483
0.153853
0.156117
0.158272
0.160312
0.162228
0.164015
0.16567
0.167184
0.168555
0.16978
0.170856
0.171778
0.172542
0.173147
0.173595
0.173887
0.174023
0.174007
0.173848
0.173561
0.173161
0.172664
0.172095
0.171483
0.170866
0.170289
0.169803
0.169475
0.169362
0.000734757
0.000966949
0.000991722
0.000929518
0.000790553
0.000583154
0.000344188
0.000109311
-9.26143e-05
-0.000240226
-0.000309845
-0.000280886
-0.000140607
0.000122541
0.000518765
0.00105584
0.0017388
0.00256605
0.00353277
0.00463533
0.00587297
0.0072451
0.00874944
0.0103815
0.0121361
0.0140093
0.0159973
0.0180955
0.0202996
0.0226052
0.0250081
0.027505
0.0300947
0.0327764
0.0355475
0.0384029
0.0413376
0.0443463
0.0474244
0.0505671
0.0537703
0.057031
0.0603439
0.0637005
0.0670941
0.0705205
0.0739758
0.0774572
0.0809588
0.0844717
0.0879905
0.0915114
0.0950275
0.0985309
0.102015
0.105474
0.108901
0.112291
0.11564
0.118939
0.122182
0.125366
0.128486
0.131535
0.134509
0.137402
0.140212
0.142935
0.145567
0.148103
0.15054
0.152873
0.155102
0.157224
0.159231
0.161118
0.16288
0.164512
0.16601
0.167369
0.168586
0.169658
0.17058
0.171349
0.171965
0.172431
0.17275
0.172922
0.172954
0.172856
0.17264
0.172321
0.171914
0.171439
0.170922
0.170397
0.169898
0.169464
0.169138
0.168956
0.00174729
0.00184051
0.0017904
0.00167099
0.00149601
0.00127858
0.0010478
0.000833387
0.000658383
0.000542473
0.000505029
0.000562538
0.000731374
0.00102144
0.00143826
0.00198837
0.00267722
0.0035061
0.00447237
0.00557239
0.00680284
0.00816286
0.00965132
0.0112651
0.0130004
0.0148529
0.0168177
0.0188903
0.0210676
0.0233462
0.025722
0.0281917
0.0307533
0.0334049
0.0361431
0.0389632
0.0418618
0.0448342
0.0478747
0.0509791
0.054144
0.0573662
0.0606407
0.0639592
0.0673142
0.0707024
0.0741202
0.0775621
0.0810218
0.0844926
0.0879692
0.0914474
0.0949211
0.0983824
0.101825
0.105243
0.108631
0.111984
0.115293
0.118553
0.121758
0.124905
0.127987
0.130998
0.133935
0.136794
0.139571
0.142263
0.144866
0.147374
0.149782
0.152086
0.154286
0.15638
0.158362
0.160225
0.161967
0.163585
0.165073
0.166425
0.167638
0.168707
0.169628
0.170399
0.171023
0.171502
0.171842
0.172043
0.172112
0.172057
0.171893
0.171629
0.17128
0.170861
0.170396
0.169914
0.169442
0.169009
0.168631
0.168324
0.00296965
0.00283444
0.00264665
0.00243725
0.00220482
0.00195639
0.00171654
0.00150446
0.00134129
0.00124517
0.00122868
0.00130734
0.00149596
0.0018046
0.00223932
0.00280323
0.00349842
0.00432738
0.00529022
0.00638498
0.00760866
0.00895894
0.0104338
0.0120314
0.0137493
0.0155835
0.0175287
0.0195808
0.0217359
0.0239908
0.0263423
0.0287884
0.0313265
0.0339529
0.0366634
0.0394537
0.0423201
0.0452594
0.0482664
0.0513377
0.0544706
0.0576608
0.0609014
0.0641855
0.0675077
0.0708635
0.0742482
0.0776557
0.0810785
0.084511
0.0879502
0.0913913
0.0948266
0.0982495
0.101655
0.105038
0.108392
0.11171
0.114986
0.118211
0.121382
0.124496
0.127545
0.130523
0.133429
0.136258
0.139009
0.141675
0.144252
0.146734
0.149117
0.151397
0.153573
0.155643
0.157602
0.159446
0.161172
0.162779
0.164259
0.165606
0.166813
0.167879
0.168798
0.169572
0.170203
0.170694
0.171051
0.171276
0.171375
0.171355
0.171229
0.171005
0.170694
0.170311
0.169875
0.16941
0.168938
0.168478
0.168022
0.167561
0.00421638
0.00383367
0.00349325
0.00318404
0.00288105
0.00259103
0.00232821
0.00210784
0.00194602
0.00185739
0.00185481
0.00194974
0.00215211
0.00247224
0.00291787
0.00349143
0.00419315
0.00502346
0.00598321
0.00707171
0.00828779
0.00962906
0.0110929
0.0126774
0.0143801
0.0161975
0.0181257
0.0201608
0.0222983
0.0245342
0.026866
0.0292923
0.03181
0.0344146
0.0371018
0.039868
0.0427083
0.0456188
0.0485971
0.0516409
0.0547469
0.05791
0.0611223
0.0643771
0.0676711
0.0709999
0.0743559
0.0777324
0.0811239
0.0845251
0.0879321
0.0913404
0.0947432
0.0981339
0.101508
0.104861
0.108185
0.111473
0.114718
0.117915
0.121059
0.124145
0.127166
0.130118
0.132998
0.135804
0.138532
0.141176
0.14373
0.14619
0.148551
0.150811
0.152969
0.155021
0.156964
0.158793
0.160507
0.162103
0.163575
0.164914
0.166116
0.167178
0.168097
0.168875
0.169513
0.170016
0.170387
0.170631
0.170751
0.170756
0.170654
0.170456
0.170169
0.169805
0.169381
0.168913
0.16842
0.167915
0.167366
0.166744
0.00540747
0.00479368
0.00429979
0.00388783
0.00350953
0.00316571
0.00287119
0.00263427
0.00246421
0.00237409
0.00237712
0.00248168
0.00269458
0.00302332
0.0034744
0.00405156
0.00475588
0.00558683
0.00654407
0.00762727
0.00883595
0.0101686
0.0116235
0.013198
0.0148888
0.0166928
0.0186068
0.0206273
0.0227497
0.0249707
0.0272882
0.0296992
0.0321999
0.0347864
0.0374547
0.0402008
0.0430202
0.0459084
0.0488639
0.0518859
0.0549699
0.0581091
0.0612974
0.0645292
0.0678002
0.0711053
0.0744369
0.077788
0.0811536
0.0845297
0.0879115
0.0912935
0.0946692
0.0980336
0.101383
0.10471
0.108009
0.111272
0.114493
0.117669
0.120792
0.123856
0.126857
0.129788
0.132649
0.135437
0.138146
0.140771
0.143307
0.145748
0.148093
0.150339
0.152484
0.154524
0.156455
0.158274
0.159978
0.161564
0.163026
0.164357
0.165553
0.166612
0.167533
0.168316
0.168962
0.169474
0.169856
0.170112
0.170246
0.170265
0.170179
0.169995
0.16972
0.169363
0.168935
0.16845
0.167922
0.167359
0.16671
0.16593
0.00650045
0.00568046
0.0050425
0.00452989
0.00407328
0.00367155
0.00333741
0.00307603
0.00289276
0.00279628
0.00279685
0.00290328
0.00312179
0.00345635
0.00391056
0.00448819
0.00519124
0.00602029
0.00697438
0.00805305
0.00925557
0.0105811
0.0120284
0.0135948
0.0152769
0.0170715
0.0189749
0.0209834
0.0230937
0.0253031
0.0276093
0.0300088
0.0324968
0.0350697
0.0377237
0.0404537
0.0432558
0.0461278
0.0490675
0.0520727
0.0551385
0.0582582
0.0614263
0.0646392
0.067892
0.0711777
0.0744886
0.0778194
0.081166
0.0845234
0.0878859
0.0912477
0.0946033
0.0979478
0.101277
0.104584
0.107863
0.111107
0.114311
0.117471
0.12058
0.12363
0.126616
0.129534
0.132381
0.135154
0.137848
0.140458
0.142978
0.145407
0.147741
0.149978
0.152115
0.154147
0.156071
0.157881
0.159576
0.161152
0.162604
0.163927
0.165117
0.166175
0.167099
0.167888
0.168542
0.169061
0.16945
0.169713
0.169855
0.169883
0.169805
0.169628
0.169356
0.168995
0.168554
0.168042
0.16747
0.166843
0.166093
0.165163
0.00746832
0.00647011
0.00570148
0.00509087
0.00455769
0.00409808
0.00371915
0.00342705
0.0032262
0.00311991
0.00311412
0.00321706
0.00343475
0.00376997
0.00422478
0.00480127
0.00550121
0.00632611
0.00727601
0.00835028
0.00954816
0.0108688
0.0123105
0.0138706
0.0155463
0.0173343
0.0192303
0.0212302
0.023332
0.0255334
0.027831
0.0302217
0.0327011
0.035265
0.0379089
0.0406277
0.043418
0.0462787
0.0492083
0.0522019
0.0552533
0.0583575
0.0615109
0.0647094
0.0679472
0.0712171
0.0745125
0.077829
0.0811624
0.0845068
0.0878557
0.0912035
0.0945453
0.0978758
0.10119
0.104482
0.107746
0.110977
0.114171
0.117321
0.120421
0.123462
0.126439
0.129348
0.132186
0.134949
0.137632
0.140229
0.142739
0.145159
0.147488
0.149721
0.151854
0.153881
0.155799
0.157603
0.159289
0.160856
0.162299
0.163616
0.164804
0.165862
0.16679
0.167584
0.168243
0.168767
0.169159
0.169426
0.169573
0.169607
0.169534
0.169359
0.169082
0.16871
0.168247
0.167702
0.167081
0.166388
0.165541
0.164474
0.00829393
0.00714411
0.00625784
0.00555619
0.00494978
0.00443241
0.00400885
0.00368309
0.00345888
0.00333836
0.00332442
0.00342127
0.00363352
0.00396468
0.00441648
0.00498963
0.0056856
0.00650547
0.00745039
0.00852025
0.00971459
0.0110321
0.0124703
0.0140268
0.0156987
0.0174819
0.0193726
0.0213675
0.0234645
0.0256613
0.027954
0.0303392
0.0328138
0.0353729
0.0380109
0.0407233
0.0435084
0.0463645
0.0492881
0.0522738
0.0553157
0.05841
0.0615537
0.0647421
0.0679688
0.0712273
0.0745123
0.0778201
0.0811457
0.0844822
0.0878227
0.0911622
0.0944958
0.0978179
0.101122
0.104405
0.10766
0.110883
0.114071
0.117217
0.120312
0.123348
0.126321
0.129226
0.132059
0.134816
0.137491
0.140083
0.142588
0.145005
0.147332
0.149564
0.151695
0.15372
0.155634
0.157433
0.159114
0.160674
0.162112
0.163426
0.164613
0.165673
0.166604
0.167401
0.168061
0.168587
0.168983
0.169253
0.169404
0.169442
0.169369
0.169189
0.168902
0.168512
0.168023
0.16744
0.166768
0.166009
0.165071
0.16388
0.00896736
0.00768688
0.00669906
0.00591539
0.00523703
0.0046638
0.00419802
0.00383812
0.00358699
0.00344792
0.00342228
0.00351082
0.00371567
0.00403995
0.00448552
0.00505318
0.00574398
0.00655878
0.0074989
0.00856492
0.00975635
0.0110716
0.0125083
0.0140637
0.015734
0.0175147
0.0194026
0.0213959
0.0234916
0.0256867
0.0279783
0.0303631
0.0328368
0.0353943
0.0380309
0.0407428
0.0435285
0.0463852
0.0493075
0.0522896
0.0553271
0.0584173
0.0615566
0.0647394
0.0679594
0.0712115
0.0744917
0.0777959
0.0811183
0.0844514
0.0877887
0.0911254
0.0944564
0.0977751
0.101075
0.104353
0.107605
0.110828
0.114015
0.11716
0.120254
0.123289
0.126262
0.129167
0.132001
0.134756
0.137431
0.140022
0.142529
0.144948
0.147277
0.14951
0.15164
0.153664
0.155577
0.157376
0.159055
0.160613
0.16205
0.163363
0.164551
0.165612
0.166543
0.167339
0.168
0.168528
0.168926
0.169201
0.169355
0.169392
0.169314
0.169124
0.168821
0.168409
0.16789
0.167267
0.166543
0.165719
0.164696
0.163394
0.00948286
0.00809041
0.00701434
0.00615685
0.0054128
0.00478502
0.00427684
0.00388377
0.00360597
0.00344564
0.00340408
0.00348143
0.00367749
0.00399346
0.00443112
0.00499191
0.00567645
0.00648618
0.00742235
0.00848557
0.00967495
0.0109891
0.012426
0.0139818
0.0156521
0.0174332
0.0193222
0.0213168
0.0234143
0.0256116
0.027906
0.0302943
0.0327712
0.0353312
0.0379707
0.0406876
0.043479
0.0463402
0.049265
0.0522484
0.0552875
0.0583794
0.0615193
0.0647012
0.0679198
0.0711713
0.0744522
0.0777574
0.0810807
0.0844151
0.0877547
0.0910943
0.0944282
0.0977492
0.101051
0.104332
0.107587
0.110814
0.114004
0.117152
0.120249
0.123288
0.126265
0.129176
0.132014
0.134775
0.137456
0.140054
0.142567
0.144992
0.147325
0.14956
0.151692
0.153718
0.155634
0.157436
0.159118
0.160678
0.162116
0.163431
0.164619
0.165679
0.166608
0.167403
0.168064
0.168594
0.168996
0.169273
0.169428
0.16946
0.169373
0.169168
0.168846
0.168409
0.167858
0.167193
0.166417
0.165531
0.16443
0.16303
0.00984105
0.00834959
0.00719361
0.00627271
0.00547063
0.00478996
0.00423863
0.00381271
0.00350882
0.00332643
0.00326679
0.00333022
0.00351557
0.00382238
0.00425171
0.00480496
0.00548329
0.00628834
0.00722129
0.00828265
0.00947155
0.0107863
0.0122246
0.0137822
0.0154546
0.0172389
0.0191326
0.0211321
0.0232348
0.0254384
0.0277399
0.030135
0.0326181
0.0351846
0.0378322
0.0405585
0.0433589
0.0462275
0.0491587
0.0521489
0.0551955
0.0582944
0.0614398
0.0646262
0.0678496
0.0711066
0.0743934
0.0777042
0.081033
0.084374
0.0877217
0.09107
0.0944125
0.097742
0.101053
0.104342
0.107608
0.110843
0.114041
0.117195
0.120299
0.123346
0.126332
0.129253
0.132102
0.134875
0.137567
0.140177
0.142701
0.145134
0.147473
0.149712
0.151848
0.153879
0.155802
0.15761
0.159299
0.160864
0.162305
0.163621
0.164809
0.165868
0.166795
0.167589
0.168252
0.168785
0.169191
0.169469
0.16962
0.169644
0.169544
0.169323
0.16898
0.168516
0.167932
0.167224
0.166398
0.165454
0.164282
0.162794
0.0100422
0.00846239
0.00723427
0.0062558
0.00540173
0.00467302
0.00407944
0.00361931
0.00328849
0.00308426
0.00300613
0.00305406
0.00322709
0.00352402
0.00394504
0.00449106
0.00516409
0.00596551
0.00689625
0.00795669
0.00914664
0.010464
0.0119049
0.0134657
0.0151432
0.0169341
0.0188351
0.0208429
0.0229552
0.0251695
0.0274815
0.0298862
0.0323787
0.0349562
0.0376165
0.0403553
0.043167
0.0460459
0.048988
0.0519905
0.0550499
0.0581608
0.061317
0.0645142
0.0677489
0.0710174
0.074315
0.0776363
0.0809759
0.0843292
0.0876906
0.0910532
0.09441
0.0977541
0.10108
0.104386
0.107666
0.110915
0.114124
0.117288
0.120403
0.123462
0.126462
0.129397
0.132261
0.135049
0.137758
0.140384
0.142922
0.145365
0.147711
0.149958
0.152102
0.154142
0.156075
0.157892
0.159589
0.16116
0.162605
0.163923
0.165113
0.166172
0.167099
0.167896
0.168562
0.169099
0.169506
0.169781
0.169924
0.169938
0.169825
0.169586
0.169221
0.16873
0.168112
0.167364
0.166488
0.16549
0.164255
0.162689
0.010083
0.00842874
0.00713577
0.00610133
0.00519907
0.0044274
0.0037941
0.00329903
0.00294003
0.00271361
0.00261688
0.00264901
0.00280916
0.00309579
0.00350862
0.00404883
0.00471784
0.00551666
0.0064466
0.00750811
0.00870034
0.0100209
0.0114661
0.0130329
0.0147184
0.0165187
0.0184302
0.0204501
0.0225763
0.0248049
0.0271303
0.0295479
0.0320543
0.0346472
0.0373236
0.0400774
0.0429028
0.045796
0.0487542
0.0517742
0.0548511
0.0579788
0.0611519
0.0643664
0.0676188
0.0709042
0.0742177
0.0775546
0.0809109
0.0842824
0.0876628
0.0910446
0.0944208
0.0977853
0.101133
0.104459
0.107759
0.111024
0.114249
0.117429
0.120559
0.123635
0.126652
0.129605
0.132488
0.135295
0.138024
0.140668
0.143222
0.145678
0.148037
0.150296
0.152454
0.154508
0.156452
0.15828
0.159985
0.161563
0.163013
0.164337
0.165531
0.166593
0.167524
0.168325
0.168995
0.169534
0.169938
0.170208
0.170342
0.170345
0.170218
0.169961
0.169573
0.169055
0.168403
0.167614
0.166693
0.165646
0.164353
0.162718
0.00996096
0.00824501
0.00689475
0.00580791
0.00485845
0.00404582
0.00337587
0.00284743
0.00245961
0.00220998
0.00209469
0.00211124
0.0022584
0.0025352
0.00294087
0.00347634
0.0041425
0.00494041
0.0058712
0.00693522
0.00813089
0.00945572
0.0109073
0.0124828
0.0141788
0.0159912
0.0179168
0.0199532
0.0220968
0.0243424
0.0266845
0.0291194
0.0316448
0.0342575
0.0369526
0.0397239
0.0425669
0.0454794
0.0484589
0.0515009
0.0545997
0.0577494
0.0609454
0.0641837
0.0674595
0.070767
0.0741018
0.0774605
0.0808396
0.0842348
0.0876391
0.0910446
0.0944453
0.0978354
0.101209
0.10456
0.107884
0.111171
0.114416
0.117617
0.12077
0.123867
0.126905
0.129879
0.132784
0.135614
0.138365
0.14103
0.143603
0.146079
0.148457
0.150735
0.152911
0.15498
0.156939
0.158778
0.160493
0.162079
0.163538
0.16487
0.166072
0.167142
0.168078
0.168883
0.169556
0.170093
0.170494
0.170757
0.170883
0.170875
0.170734
0.170458
0.170047
0.1695
0.168814
0.167986
0.167022
0.165929
0.164584
0.162888
0.0096754
0.00790522
0.00650624
0.00537212
0.00437662
0.00352342
0.00281854
0.0022591
0.00184337
0.00157001
0.00143584
0.00143726
0.00157218
0.00183988
0.00223975
0.00277159
0.00343611
0.00423472
0.00516798
0.00623536
0.00743542
0.00876657
0.0102269
0.0118133
0.013522
0.0153495
0.0172932
0.0193496
0.0215133
0.0237786
0.0261414
0.0285991
0.0311484
0.0337843
0.036501
0.0392936
0.0421593
0.0450966
0.0481019
0.0511698
0.054295
0.0574724
0.0606974
0.0639651
0.0672694
0.0706045
0.073967
0.0773543
0.0807626
0.0841869
0.0876197
0.0910539
0.0944841
0.0979048
0.101309
0.10469
0.108042
0.111356
0.114629
0.117859
0.121039
0.124162
0.127225
0.130224
0.133154
0.13601
0.138786
0.141477
0.144075
0.146575
0.148978
0.15128
0.153478
0.155566
0.157539
0.159391
0.161117
0.162715
0.164186
0.16553
0.166743
0.167821
0.168764
0.169571
0.170245
0.170782
0.17118
0.171438
0.171557
0.171539
0.171383
0.171088
0.170652
0.170076
0.169356
0.16849
0.167485
0.16635
0.164958
0.163205
0.00922737
0.00740682
0.00596379
0.00478754
0.00374962
0.00285681
0.00211767
0.0015287
0.00108665
0.000790277
0.000637112
0.000623782
0.000747813
0.00100757
0.00140245
0.00193188
0.00259657
0.00339719
0.0043337
0.00540545
0.00661173
0.00795163
0.00942291
0.0110221
0.0127461
0.0145923
0.0165572
0.0186356
0.0208216
0.0231103
0.0254988
0.0279842
0.0305611
0.0332233
0.0359655
0.0387846
0.0416786
0.0446453
0.0476803
0.0507781
0.0539346
0.0571453
0.0604048
0.0637069
0.0670451
0.0704141
0.0738115
0.0772346
0.0806785
0.0841372
0.0876039
0.0910721
0.0945374
0.0979935
0.101432
0.104848
0.108233
0.111583
0.114891
0.118155
0.121369
0.124524
0.127617
0.130644
0.133603
0.136487
0.139292
0.142012
0.144639
0.14717
0.149602
0.151932
0.154154
0.156261
0.158251
0.160118
0.161859
0.163472
0.164959
0.166317
0.167542
0.168628
0.169575
0.170386
0.171061
0.171599
0.171996
0.172251
0.172365
0.172337
0.172167
0.171852
0.171392
0.170787
0.170035
0.169133
0.16809
0.166915
0.165479
0.163673
0.0086198
0.00674975
0.00526304
0.00404814
0.00297233
0.00204234
0.00126941
0.000651653
0.000184693
-0.00013354
-0.000304846
-0.000332044
-0.000218031
3.49387e-05
0.000425863
0.000954453
0.00162073
0.00242431
0.00336509
0.00444318
0.00565836
0.00700931
0.00849346
0.0101081
0.0118509
0.0137186
0.0157063
0.017808
0.0200188
0.0223354
0.0247543
0.0272709
0.0298783
0.0325702
0.035343
0.0381944
0.0411218
0.044122
0.0471905
0.0503229
0.0535161
0.0567654
0.0600641
0.0634054
0.0667833
0.0701933
0.0736331
0.0770988
0.0805841
0.084083
0.0875892
0.0910973
0.0946029
0.098099
0.101577
0.105031
0.108457
0.111848
0.115199
0.118504
0.121756
0.124947
0.128074
0.131135
0.134127
0.137043
0.13988
0.142632
0.145293
0.147858
0.150324
0.152684
0.154931
0.15706
0.15907
0.160958
0.162719
0.164352
0.165857
0.16723
0.168465
0.169558
0.170511
0.171326
0.172006
0.172547
0.172946
0.173199
0.173307
0.17327
0.173085
0.172752
0.172269
0.171636
0.170853
0.169917
0.168838
0.167625
0.166146
0.164291
0.00785313
0.00593329
0.00440321
0.0031505
0.00203953
0.00107565
0.000270233
-0.000376056
-0.000866967
-0.00120566
-0.00139378
-0.00143378
-0.001329
-0.00108168
-0.000693215
-0.000164096
0.000504619
0.00131238
0.00225967
0.00334702
0.00457381
0.00593814
0.00743797
0.00907157
0.0108362
0.0127272
0.0147385
0.0168654
0.0191048
0.0214533
0.023906
0.0264562
0.029097
0.0318234
0.0346327
0.0375218
0.0404869
0.0435245
0.0466312
0.0498038
0.053039
0.0563314
0.0596735
0.063059
0.0664828
0.0699409
0.0734295
0.0769435
0.0804756
0.0840203
0.087572
0.0911256
0.0946763
0.0982167
0.101738
0.105238
0.10871
0.112148
0.115546
0.118897
0.122192
0.125425
0.128592
0.131692
0.134721
0.137675
0.140549
0.143338
0.146036
0.148638
0.151139
0.153531
0.155807
0.157964
0.160001
0.161915
0.163702
0.165358
0.166882
0.16827
0.169516
0.170617
0.171578
0.172401
0.173088
0.173634
0.174034
0.174285
0.174387
0.174341
0.174143
0.173792
0.173287
0.172628
0.171815
0.170845
0.169731
0.168481
0.166961
0.165058
0.00692299
0.00495587
0.00338409
0.00209328
0.000947534
-4.77611e-05
-0.000883408
-0.00155772
-0.00207206
-0.00242976
-0.00263339
-0.0026854
-0.00258872
-0.00234578
-0.00195842
-0.00142802
-0.000755723
5.85423e-05
0.00101545
0.00211502
0.00335605
0.004737
0.00625653
0.00791256
0.00970092
0.0116159
0.0136528
0.0158085
0.0180805
0.0204642
0.0229527
0.0255391
0.0282178
0.0309844
0.0338357
0.0367671
0.0397741
0.042854
0.0460046
0.0492229
0.0525049
0.0558444
0.0592342
0.0626693
0.0661453
0.0696572
0.0731997
0.0767664
0.0803505
0.0839467
0.0875497
0.091154
0.0947545
0.0983438
0.101915
0.105464
0.108988
0.112479
0.115928
0.119329
0.122673
0.125953
0.129168
0.132315
0.135388
0.138384
0.1413
0.144132
0.146871
0.149513
0.152051
0.15448
0.156791
0.158982
0.161052
0.162998
0.164814
0.166496
0.16804
0.169443
0.170703
0.171817
0.172789
0.173623
0.174319
0.174869
0.175269
0.175516
0.175613
0.175559
0.17535
0.174982
0.174455
0.17377
0.172926
0.171924
0.170774
0.169488
0.167926
0.165976
0.00582705
0.0038152
0.00220393
0.000876029
-0.000305099
-0.00133164
-0.00219565
-0.00289628
-0.00343322
-0.00380913
-0.00402733
-0.00409032
-0.00400048
-0.00376096
-0.0033741
-0.00284152
-0.0021635
-0.00133978
-0.000370376
0.000744121
0.00200273
0.00340456
0.00494781
0.00662863
0.0084419
0.010383
0.0124492
0.0146383
0.0169463
0.0193672
0.021894
0.0245208
0.0272429
0.0300553
0.0329531
0.0359311
0.0389851
0.0421133
0.0453141
0.0485834
0.0519164
0.0553073
0.0587499
0.0622403
0.0657738
0.0693439
0.0729443
0.076568
0.0802091
0.0838629
0.0875232
0.0911835
0.0948388
0.0984826
0.102109
0.105714
0.109295
0.112842
0.116346
0.119801
0.1232
0.126536
0.129806
0.133007
0.136132
0.139178
0.142141
0.145019
0.147804
0.150489
0.153069
0.155538
0.157889
0.16012
0.16223
0.164212
0.16606
0.167767
0.169333
0.170755
0.172033
0.173163
0.174151
0.174997
0.1757
0.176253
0.176651
0.176896
0.176989
0.176928
0.176708
0.176323
0.175775
0.175063
0.174189
0.173154
0.17197
0.170647
0.169044
0.167046
0.00456728
0.00250985
0.000860454
-0.000502746
-0.00171952
-0.00277804
-0.00366935
-0.00439443
-0.00495309
-0.00534675
-0.00557853
-0.00565125
-0.00556773
-0.0053313
-0.0049443
-0.0044077
-0.00372144
-0.00288588
-0.00190159
-0.000769024
0.000511305
0.00193799
0.00350746
0.00521465
0.00705527
0.00902675
0.0111272
0.0133534
0.0156999
0.0181605
0.0207295
0.0234021
0.0261728
0.0290355
0.031984
0.0350135
0.0381206
0.0413039
0.0445608
0.0478861
0.051275
0.0547226
0.0582242
0.0617755
0.0653709
0.0690029
0.0726651
0.0763509
0.080055
0.0837724
0.0874958
0.091218
0.0949342
0.098639
0.102327
0.105994
0.109636
0.113242
0.116806
0.120321
0.123781
0.12718
0.130513
0.133774
0.136957
0.140058
0.143075
0.146004
0.148838
0.15157
0.154196
0.15671
0.159107
0.161383
0.163535
0.165555
0.167434
0.169169
0.17076
0.172207
0.173507
0.174659
0.175663
0.17652
0.177228
0.177782
0.17818
0.178424
0.178515
0.178448
0.178215
0.177813
0.177242
0.176505
0.175603
0.174536
0.173316
0.171957
0.170314
0.168268
0.00314655
0.00103995
-0.000648768
-0.00204595
-0.00329706
-0.00438755
-0.00530608
-0.0060548
-0.00663426
-0.00704485
-0.00728934
-0.00737128
-0.0072941
-0.00706027
-0.00667164
-0.00612887
-0.00543256
-0.0045834
-0.00358161
-0.0024273
-0.00112172
0.000331951
0.00192893
0.00366486
0.00553725
0.0075443
0.00968311
0.0119491
0.0143368
0.0168411
0.0194574
0.0221807
0.0250043
0.0279208
0.0309246
0.0340115
0.0371786
0.0404234
0.043742
0.0471288
0.0505797
0.0540909
0.0576578
0.0612754
0.0649368
0.0686348
0.0723637
0.0761176
0.0798908
0.0836777
0.08747
0.0912604
0.0950445
0.0988175
0.102574
0.106308
0.110014
0.113683
0.11731
0.120891
0.124419
0.127887
0.131288
0.134616
0.137862
0.141024
0.1441
0.147085
0.149973
0.152757
0.155435
0.157999
0.160445
0.162769
0.164963
0.167022
0.168936
0.170704
0.172326
0.173802
0.17513
0.176304
0.177324
0.178192
0.178905
0.179462
0.179861
0.180106
0.180194
0.180118
0.179873
0.179452
0.17886
0.178098
0.177168
0.176069
0.174816
0.17342
0.171737
0.169643
0.00156579
-0.000593525
-0.00232459
-0.00375571
-0.00503939
-0.00616144
-0.00710768
-0.00787972
-0.00847886
-0.00890568
-0.0091628
-0.00925405
-0.00918248
-0.00894992
-0.00855787
-0.00800748
-0.00729978
-0.00643494
-0.00541271
-0.0042339
-0.00290157
-0.00142018
0.000206164
0.00197486
0.00388409
0.0059309
0.00811086
0.0104193
0.012852
0.015405
0.0180735
0.0208514
0.0237309
0.0267053
0.0297698
0.0329206
0.0361539
0.039466
0.0428521
0.0463071
0.0498273
0.0534094
0.0570479
0.0607367
0.0644686
0.0682376
0.072039
0.0758672
0.0797156
0.0835774
0.0874443
0.0913096
0.095169
0.0990172
0.102847
0.106653
0.110428
0.114166
0.117862
0.121514
0.125115
0.128656
0.13213
0.135528
0.138843
0.142072
0.145213
0.148261
0.15121
0.154052
0.156786
0.159406
0.161905
0.164278
0.166518
0.168618
0.170572
0.172378
0.174037
0.175548
0.176905
0.178102
0.179139
0.180018
0.180739
0.181301
0.181705
0.18195
0.182033
0.181948
0.181688
0.181249
0.180636
0.17985
0.178892
0.177763
0.176475
0.175044
0.173318
0.171176
-0.000176535
-0.00239001
-0.00416609
-0.00563305
-0.00694912
-0.00810228
-0.00907642
-0.00987153
-0.0104899
-0.0109329
-0.0112028
-0.0113027
-0.011235
-0.011002
-0.0106053
-0.0100461
-0.00932505
-0.00844199
-0.00739733
-0.00619336
-0.00483419
-0.00332374
-0.00166452
0.000141496
0.00209138
0.00418056
0.00640428
0.00875905
0.0112418
0.0138483
0.0165729
0.0194083
0.0223474
0.0253846
0.0285156
0.0317363
0.0350413
0.0384259
0.0418858
0.0454163
0.0490136
0.0526732
0.0563887
0.0601537
0.0639616
0.0678076
0.071688
0.0755963
0.079525
0.0834669
0.0874144
0.0913614
0.0953034
0.0992334
0.103143
0.107026
0.110877
0.114689
0.118461
0.12219
0.125869
0.129488
0.133037
0.136509
0.139899
0.143201
0.146415
0.149534
0.15255
0.155457
0.158253
0.160932
0.163488
0.165913
0.168202
0.170349
0.172347
0.174197
0.175899
0.177446
0.178833
0.180053
0.181109
0.182003
0.182737
0.183309
0.183717
0.183962
0.184039
0.183943
0.183667
0.183212
0.182579
0.181771
0.180786
0.179625
0.178303
0.176833
0.175065
0.172871
-0.00208355
-0.00435109
-0.0061736
-0.00767944
-0.00902934
-0.0102132
-0.0112152
-0.012034
-0.0126721
-0.0131313
-0.0134132
-0.01352
-0.0134546
-0.0132197
-0.0128169
-0.012247
-0.0115101
-0.0106071
-0.00953974
-0.00831094
-0.00692402
-0.00538139
-0.00368507
-0.00183825
0.000154607
0.00228865
0.00456013
0.00696656
0.00950455
0.0121687
0.0149524
0.0178489
0.0208524
0.0239578
0.0271608
0.0304561
0.0338375
0.0373004
0.0408408
0.044454
0.048135
0.0518776
0.0556753
0.0595222
0.0634127
0.0673426
0.071308
0.0753017
0.0793157
0.083343
0.0873772
0.0914128
0.095444
0.0994622
0.103458
0.107425
0.111358
0.115254
0.119109
0.122921
0.126682
0.130381
0.13401
0.137562
0.141031
0.144415
0.147709
0.150905
0.153995
0.156972
0.159835
0.162578
0.165194
0.167677
0.17002
0.172218
0.174266
0.176164
0.177908
0.179493
0.18091
0.182156
0.183235
0.184149
0.1849
0.185482
0.185895
0.186138
0.186209
0.186103
0.185814
0.185344
0.184692
0.183861
0.18285
0.181658
0.1803
0.178792
0.176978
0.174729
-0.00415883
-0.00648054
-0.00835002
-0.00989714
-0.011283
-0.0124982
-0.0135287
-0.0143725
-0.0150309
-0.0155055
-0.0157979
-0.0159102
-0.0158457
-0.0156072
-0.0151962
-0.0146131
-0.013859
-0.0129357
-0.0118457
-0.010591
-0.00917329
-0.00759448
-0.00585773
-0.0039678
-0.00192944
0.000253537
0.00257832
0.00504201
0.00763981
0.0103653
0.0132121
0.0161747
0.0192481
0.0224273
0.0257068
0.0290808
0.0325436
0.0360908
0.0397183
0.0434204
0.0471904
0.0510212
0.0549067
0.0588422
0.0628226
0.0668434
0.0708997
0.0749839
0.0790885
0.0832073
0.0873345
0.0914646
0.095591
0.0997034
0.103792
0.107851
0.111876
0.115863
0.11981
0.12371
0.127556
0.131339
0.135053
0.138691
0.142247
0.145718
0.149097
0.152376
0.155545
0.158598
0.161533
0.164345
0.167026
0.169571
0.171974
0.174229
0.17633
0.178276
0.180064
0.181687
0.183138
0.184415
0.185522
0.186461
0.187229
0.187823
0.18824
0.188482
0.188548
0.188433
0.188133
0.187647
0.186977
0.186124
0.185085
0.183861
0.182466
0.180917
0.179056
0.176751
-0.00640478
-0.00878236
-0.0106992
-0.012289
-0.0137135
-0.0149622
-0.0160225
-0.0168922
-0.0175709
-0.0180599
-0.0183616
-0.0184786
-0.0184138
-0.0181696
-0.017748
-0.0171504
-0.0163786
-0.0154349
-0.0143206
-0.0130364
-0.0115838
-0.0099655
-0.00818606
-0.00625043
-0.00416234
-0.00192471
0.000459189
0.00298501
0.00564677
0.00843805
0.0113535
0.0143884
0.0175376
0.0207953
0.0241557
0.0276134
0.0311632
0.0348009
0.0385213
0.0423173
0.0461812
0.0501058
0.0540859
0.0581176
0.0621955
0.0663139
0.0704668
0.0746469
0.078848
0.0830646
0.087291
0.0915211
0.0957479
0.0999608
0.10415
0.10831
0.112435
0.116522
0.120565
0.12456
0.128497
0.13237
0.136174
0.139904
0.143553
0.147116
0.150585
0.153951
0.157204
0.160338
0.16335
0.166237
0.168991
0.171604
0.174072
0.176387
0.178544
0.180541
0.182374
0.184039
0.185529
0.186842
0.187981
0.188945
0.189733
0.190338
0.190761
0.191005
0.191068
0.190946
0.190634
0.190133
0.189444
0.188566
0.187498
0.18624
0.184806
0.183216
0.181305
0.17894
-0.00882205
-0.0112595
-0.0132254
-0.014859
-0.016325
-0.0176102
-0.0187014
-0.0195971
-0.0202961
-0.0207997
-0.0211104
-0.0212312
-0.0211645
-0.0209131
-0.0204798
-0.0198672
-0.0190773
-0.018111
-0.0169686
-0.0156506
-0.0141595
-0.0124993
-0.0106746
-0.00868912
-0.00654565
-0.00424756
-0.00179964
0.000792616
0.00352316
0.00638627
0.00937714
0.0124907
0.0157212
0.0190624
0.0225089
0.0260562
0.0296996
0.0334338
0.0372521
0.0411465
0.0451094
0.0491344
0.0532168
0.0573523
0.0615347
0.0657571
0.0700128
0.0742952
0.0785992
0.08292
0.0872513
0.0915867
0.0959191
0.100239
0.104536
0.108805
0.113038
0.117231
0.121378
0.125473
0.129508
0.133478
0.13738
0.141208
0.144955
0.148614
0.152176
0.155633
0.158973
0.162194
0.165292
0.168261
0.171093
0.17378
0.176317
0.178695
0.180911
0.182962