/*--------------------------------*- C++ -*----------------------------------*\
| =========                 |                                                 |
| \\      /  F ield         | OpenFOAM: The Open Source CFD Toolbox           |
|  \\    /   O peration     | Version:  2212                                  |
|   \\  /    A nd           | Website:  www.openfoam.com                      |
|    \\/     M anipulation  |                                                 |
\*---------------------------------------------------------------------------*/
FoamFile
{
    version     2.0;
    format      ascii;
    arch        "LSB;label=32;scalar=64";
    class       surfaceScalarField;
    location    "0.006";
    object      phi_0;
}
// * * * * * * * * * * * * * * * * * * * * * * * * * * * * * * * * * * * * * //

dimensions      [0 3 -1 0 0 0 0];

oriented        oriented;

internalField   nonuniform List<scalar> 
19800
(
7.46599e-11
-7.46091e-11
2.34208e-10
-1.59538e-10
2.51281e-10
-1.70775e-11
1.7081e-10
8.04745e-11
-1.83047e-11
1.89113e-10
-3.06985e-10
2.88683e-10
-6.83098e-10
3.76113e-10
-1.13467e-09
4.51575e-10
-1.65052e-09
5.15852e-10
-2.21986e-09
5.69336e-10
-2.83245e-09
6.12591e-10
-3.47905e-09
6.46599e-10
-4.15169e-09
6.72637e-10
-4.84347e-09
6.91782e-10
-5.54837e-09
7.04899e-10
-6.26107e-09
7.12704e-10
-6.97697e-09
7.15901e-10
-7.69214e-09
7.15161e-10
-8.40315e-09
7.11008e-10
-9.10708e-09
7.0393e-10
-9.80146e-09
6.94383e-10
-1.04842e-08
6.82772e-10
-1.11536e-08
6.69364e-10
-1.18079e-08
6.54276e-10
-1.24455e-08
6.37592e-10
-1.30649e-08
6.19453e-10
-1.36651e-08
6.00122e-10
-1.42449e-08
5.79873e-10
-1.48038e-08
5.5883e-10
-1.53408e-08
5.37063e-10
-1.58555e-08
5.14669e-10
-1.63472e-08
4.91681e-10
-1.68153e-08
4.6809e-10
-1.72593e-08
4.43966e-10
-1.76787e-08
4.1941e-10
-1.80731e-08
3.94424e-10
-1.84421e-08
3.68982e-10
-1.87852e-08
3.4314e-10
-1.91022e-08
3.1699e-10
-1.93928e-08
2.90567e-10
-1.96566e-08
2.63851e-10
-1.98935e-08
2.36832e-10
-2.0103e-08
2.09506e-10
-2.02848e-08
1.8186e-10
-2.04387e-08
1.53904e-10
-2.05644e-08
1.25713e-10
-2.06618e-08
9.73943e-11
-2.07309e-08
6.90246e-11
-2.07715e-08
4.0619e-11
-2.07837e-08
1.2172e-11
-2.07674e-08
-1.6272e-11
-2.07227e-08
-4.46391e-11
-2.06499e-08
-7.28813e-11
-2.05489e-08
-1.00991e-10
-2.04199e-08
-1.28991e-10
-2.0263e-08
-1.56898e-10
-2.00783e-08
-1.84691e-10
-1.9866e-08
-2.12309e-10
-1.96263e-08
-2.39705e-10
-1.93594e-08
-2.66867e-10
-1.90656e-08
-2.93777e-10
-1.87452e-08
-3.20385e-10
-1.83986e-08
-3.46637e-10
-1.80261e-08
-3.72463e-10
-1.76283e-08
-3.97784e-10
-1.72058e-08
-4.22587e-10
-1.67588e-08
-4.46919e-10
-1.6288e-08
-4.70816e-10
-1.57938e-08
-4.94272e-10
-1.52765e-08
-5.17253e-10
-1.47368e-08
-5.39686e-10
-1.41754e-08
-5.61454e-10
-1.35929e-08
-5.82412e-10
-1.29905e-08
-6.02398e-10
-1.23693e-08
-6.21267e-10
-1.17304e-08
-6.38881e-10
-1.10753e-08
-6.55096e-10
-1.04055e-08
-6.69765e-10
-9.72281e-09
-6.82738e-10
-9.02898e-09
-6.93824e-10
-8.32624e-09
-7.02755e-10
-7.61707e-09
-7.09165e-10
-6.90447e-09
-7.126e-10
-6.19196e-09
-7.12509e-10
-5.48371e-09
-7.08259e-10
-4.78455e-09
-6.99159e-10
-4.10008e-09
-6.84467e-10
-3.43666e-09
-6.63421e-10
-2.8014e-09
-6.35254e-10
-2.20221e-09
-5.99195e-10
-1.64778e-09
-5.5443e-10
-1.14765e-09
-5.00131e-10
-7.12084e-10
-4.35572e-10
-3.51779e-10
-3.60303e-10
-7.72915e-11
-2.74481e-10
1.02228e-10
-1.79516e-10
1.81608e-10
-7.93834e-11
1.6487e-10
1.67265e-11
7.80208e-11
8.68125e-11
7.7978e-11
4.60234e-13
-7.50585e-11
1.77517e-11
-1.76842e-10
-9.77439e-11
9.84285e-11
-4.51933e-10
4.34662e-10
-1.05007e-09
7.87262e-10
-1.88699e-09
1.1256e-09
-2.94441e-09
1.43354e-09
-4.19786e-09
1.70502e-09
-5.62091e-09
1.93891e-09
-7.18746e-09
2.13589e-09
-8.8726e-09
2.29773e-09
-1.06531e-08
2.42711e-09
-1.25078e-08
2.52733e-09
-1.44177e-08
2.60169e-09
-1.6366e-08
2.65322e-09
-1.8338e-08
2.68468e-09
-2.03208e-08
2.69867e-09
-2.23032e-08
2.69759e-09
-2.42757e-08
2.68352e-09
-2.62301e-08
2.65824e-09
-2.8159e-08
2.62335e-09
-3.00565e-08
2.58024e-09
-3.19172e-08
2.53001e-09
-3.37363e-08
2.47344e-09
-3.55099e-08
2.4112e-09
-3.72344e-08
2.34394e-09
-3.89066e-08
2.2723e-09
-4.05237e-08
2.19694e-09
-4.20833e-08
2.11842e-09
-4.35833e-08
2.03709e-09
-4.50218e-08
1.95315e-09
-4.63969e-08
1.86679e-09
-4.7707e-08
1.7782e-09
-4.89506e-08
1.68755e-09
-5.01262e-08
1.59498e-09
-5.12324e-08
1.50063e-09
-5.2268e-08
1.4046e-09
-5.32319e-08
1.30703e-09
-5.4123e-08
1.20807e-09
-5.49403e-08
1.10783e-09
-5.56828e-08
1.00639e-09
-5.63498e-08
9.03793e-10
-5.69403e-08
8.00073e-10
-5.74537e-08
6.95262e-10
-5.78893e-08
5.89473e-10
-5.82465e-08
4.82888e-10
-5.85248e-08
3.75719e-10
-5.87239e-08
2.6816e-10
-5.88437e-08
1.60348e-10
-5.88839e-08
5.23891e-11
-5.88446e-08
-5.55719e-11
-5.87258e-08
-1.63381e-10
-5.85278e-08
-2.7093e-10
-5.82506e-08
-3.78135e-10
-5.78947e-08
-4.8493e-10
-5.74603e-08
-5.91257e-10
-5.6948e-08
-6.97028e-10
-5.63582e-08
-8.02118e-10
-5.56915e-08
-9.064e-10
-5.49486e-08
-1.00976e-09
-5.41303e-08
-1.11207e-09
-5.32375e-08
-1.21317e-09
-5.22713e-08
-1.31288e-09
-5.12327e-08
-1.41105e-09
-5.01229e-08
-1.50751e-09
-4.89433e-08
-1.60218e-09
-4.76952e-08
-1.69503e-09
-4.638e-08
-1.78602e-09
-4.49992e-08
-1.87509e-09
-4.35544e-08
-1.96207e-09
-4.20474e-08
-2.04672e-09
-4.04801e-08
-2.12869e-09
-3.8855e-08
-2.20757e-09
-3.71745e-08
-2.28291e-09
-3.54415e-08
-2.35419e-09
-3.36595e-08
-2.4209e-09
-3.18321e-08
-2.48247e-09
-2.99636e-08
-2.53831e-09
-2.80586e-08
-2.58768e-09
-2.61228e-08
-2.62968e-09
-2.41623e-08
-2.66321e-09
-2.21846e-08
-2.68689e-09
-2.01982e-08
-2.69905e-09
-1.8213e-08
-2.69772e-09
-1.62405e-08
-2.68072e-09
-1.4294e-08
-2.64566e-09
-1.23885e-08
-2.58998e-09
-1.05409e-08
-2.511e-09
-8.77013e-09
-2.40604e-09
-7.09684e-09
-2.27248e-09
-5.54346e-09
-2.10781e-09
-4.13377e-09
-1.90982e-09
-2.89231e-09
-1.67703e-09
-1.84329e-09
-1.40933e-09
-1.00861e-09
-1.10917e-09
-4.04547e-10
-7.83583e-10
-3.62181e-11
-4.47686e-10
1.10957e-10
-1.30382e-10
8.5176e-11
1.12671e-10
1.63131e-10
4.19197e-12
-7.92555e-11
-1.87838e-10
1.51906e-11
-6.08754e-10
5.19342e-10
-1.34264e-09
1.16855e-09
-2.4136e-09
1.85822e-09
-3.81897e-09
2.53097e-09
-5.53873e-09
3.1533e-09
-7.54303e-09
3.70932e-09
-9.79729e-09
4.19318e-09
-1.22658e-08
4.60439e-09
-1.49134e-08
4.94534e-09
-1.77067e-08
5.22045e-09
-2.06147e-08
5.43525e-09
-2.36087e-08
5.59573e-09
-2.66633e-08
5.70782e-09
-2.97558e-08
5.77715e-09
-3.28662e-08
5.80906e-09
-3.5977e-08
5.80845e-09
-3.90733e-08
5.77974e-09
-4.21418e-08
5.72679e-09
-4.51715e-08
5.65297e-09
-4.81524e-08
5.56115e-09
-5.10761e-08
5.45375e-09
-5.39354e-08
5.33273e-09
-5.67239e-08
5.19971e-09
-5.94361e-08
5.05613e-09
-6.20671e-08
4.90334e-09
-6.46127e-08
4.74251e-09
-6.70689e-08
4.57458e-09
-6.94321e-08
4.40029e-09
-7.16992e-08
4.22023e-09
-7.38672e-08
4.03483e-09
-7.59335e-08
3.84446e-09
-7.78954e-08
3.64949e-09
-7.97507e-08
3.45028e-09
-8.14972e-08
3.2471e-09
-8.31328e-08
3.04021e-09
-8.46557e-08
2.82989e-09
-8.6064e-08
2.6164e-09
-8.73562e-08
2.4e-09
-8.85307e-08
2.18088e-09
-8.95861e-08
1.95921e-09
-9.05212e-08
1.73516e-09
-9.13348e-08
1.50893e-09
-9.20261e-08
1.28076e-09
-9.25942e-08
1.05096e-09
-9.30383e-08
8.1985e-10
-9.33579e-08
5.87762e-10
-9.35526e-08
3.54999e-10
-9.3622e-08
1.21843e-10
-9.35662e-08
-1.11423e-10
-9.3385e-08
-3.44519e-10
-9.30787e-08
-5.77206e-10
-9.26476e-08
-8.09267e-10
-9.2092e-08
-1.04049e-09
-9.14126e-08
-1.27069e-09
-9.061e-08
-1.49963e-09
-8.96851e-08
-1.72705e-09
-8.86388e-08
-1.95269e-09
-8.74723e-08
-2.17629e-09
-8.61868e-08
-2.39755e-09
-8.47837e-08
-2.61619e-09
-8.32647e-08
-2.83189e-09
-8.16315e-08
-3.04433e-09
-7.98857e-08
-3.25323e-09
-7.80296e-08
-3.45836e-09
-7.60651e-08
-3.6595e-09
-7.39947e-08
-3.85647e-09
-7.18208e-08
-4.04896e-09
-6.95462e-08
-4.23661e-09
-6.7174e-08
-4.41892e-09
-6.47075e-08
-4.59527e-09
-6.21501e-08
-4.76489e-09
-5.95061e-08
-4.92691e-09
-5.678e-08
-5.08037e-09
-5.39767e-08
-5.22417e-09
-5.11021e-08
-5.35706e-09
-4.81628e-08
-5.4776e-09
-4.51664e-08
-5.58409e-09
-4.21216e-08
-5.6745e-09
-3.90385e-08
-5.74632e-09
-3.59288e-08
-5.79659e-09
-3.2806e-08
-5.82183e-09
-2.96857e-08
-5.81802e-09
-2.65857e-08
-5.78071e-09
-2.35263e-08
-5.70505e-09
-2.05304e-08
-5.58589e-09
-1.76235e-08
-5.41788e-09
-1.48339e-08
-5.1957e-09
-1.21921e-08
-4.91423e-09
-9.73105e-09
-4.5689e-09
-7.48476e-09
-4.15613e-09
-5.48759e-09
-3.6742e-09
-3.77231e-09
-3.12459e-09
-2.36743e-09
-2.51406e-09
-1.29298e-09
-1.85806e-09
-5.5464e-10
-1.18608e-09
-1.35701e-10
-5.4937e-10
1.38354e-11
-3.68092e-11
1.76951e-10
-8.87611e-11
9.51307e-12
-4.80848e-10
4.0727e-10
-1.22282e-09
1.26132e-09
-2.36401e-09
2.30973e-09
-3.92187e-09
3.41609e-09
-5.88952e-09
4.49862e-09
-8.24326e-09
5.50704e-09
-1.09488e-08
6.41487e-09
-1.39662e-08
7.21056e-09
-1.72532e-08
7.89139e-09
-2.07676e-08
8.45976e-09
-2.44685e-08
8.92134e-09
-2.83171e-08
9.28386e-09
-3.22776e-08
9.55623e-09
-3.63174e-08
9.74764e-09
-4.04074e-08
9.86714e-09
-4.45218e-08
9.9234e-09
-4.86377e-08
9.9244e-09
-5.27354e-08
9.87741e-09
-5.67975e-08
9.78888e-09
-6.0809e-08
9.66451e-09
-6.47571e-08
9.5092e-09
-6.86304e-08
9.32709e-09
-7.24193e-08
9.12163e-09
-7.61154e-08
8.89577e-09
-7.97113e-08
8.652e-09
-8.32004e-08
8.39244e-09
-8.65768e-08
8.11895e-09
-8.98354e-08
7.83314e-09
-9.29713e-08
7.53622e-09
-9.59802e-08
7.22915e-09
-9.88581e-08
6.91274e-09
-1.01601e-07
6.5877e-09
-1.04207e-07
6.25466e-09
-1.0667e-07
5.91418e-09
-1.0899e-07
5.56677e-09
-1.11163e-07
5.21293e-09
-1.13186e-07
4.8531e-09
-1.15057e-07
4.48772e-09
-1.16775e-07
4.1172e-09
-1.18336e-07
3.74195e-09
-1.19739e-07
3.36233e-09
-1.20982e-07
2.9787e-09
-1.22065e-07
2.59143e-09
-1.22985e-07
2.20095e-09
-1.23742e-07
1.80774e-09
-1.24334e-07
1.4123e-09
-1.24762e-07
1.01513e-09
-1.25023e-07
6.16697e-10
-1.25119e-07
2.17483e-10
-1.25048e-07
-1.82045e-10
-1.24811e-07
-5.81428e-10
-1.24408e-07
-9.80241e-10
-1.2384e-07
-1.37808e-09
-1.23105e-07
-1.77454e-09
-1.22207e-07
-2.16924e-09
-1.21145e-07
-2.56177e-09
-1.1992e-07
-2.95168e-09
-1.18534e-07
-3.33851e-09
-1.16989e-07
-3.72181e-09
-1.15285e-07
-4.10109e-09
-1.13426e-07
-4.47586e-09
-1.11412e-07
-4.84563e-09
-1.09246e-07
-5.2099e-09
-1.06931e-07
-5.56819e-09
-1.0447e-07
-5.92003e-09
-1.01864e-07
-6.26499e-09
-9.91181e-08
-6.60256e-09
-9.62349e-08
-6.93219e-09
-9.32183e-08
-7.25321e-09
-9.00724e-08
-7.56479e-09
-8.68018e-08
-7.86591e-09
-8.34113e-08
-8.1554e-09
-7.99063e-08
-8.43187e-09
-7.6293e-08
-8.69372e-09
-7.2578e-08
-8.9391e-09
-6.87692e-08
-9.16586e-09
-6.48754e-08
-9.37146e-09
-6.09066e-08
-9.55289e-09
-5.68745e-08
-9.70655e-09
-5.27926e-08
-9.82819e-09
-4.86764e-08
-9.9128e-09
-4.45437e-08
-9.95457e-09
-4.04147e-08
-9.94697e-09
-3.63127e-08
-9.88273e-09
-3.22638e-08
-9.75399e-09
-2.82972e-08
-9.55248e-09
-2.44454e-08
-9.26972e-09
-2.07437e-08
-8.89734e-09
-1.72305e-08
-8.42749e-09
-1.39459e-08
-7.85349e-09
-1.09314e-08
-7.17061e-09
-8.22815e-09
-6.37748e-09
-5.87474e-09
-5.478e-09
-3.90452e-09
-4.48428e-09
-2.34146e-09
-3.42109e-09
-1.19517e-09
-2.33238e-09
-4.54929e-10
-1.28963e-09
-8.26488e-11
-4.09083e-10
9.42981e-11
-1.79248e-10
1.88759e-10
-7.96202e-10
1.02422e-09
-1.86985e-09
2.33496e-09
-3.42423e-09
3.86411e-09
-5.46444e-09
5.45629e-09
-7.97632e-09
7.0105e-09
-1.09313e-08
8.46203e-09
-1.42909e-08
9.77443e-09
-1.80105e-08
1.09302e-08
-2.2043e-08
1.19239e-08
-2.63406e-08
1.27574e-08
-3.08569e-08
1.34376e-08
-3.55474e-08
1.39744e-08
-4.03707e-08
1.43796e-08
-4.52888e-08
1.46657e-08
-5.02672e-08
1.48456e-08
-5.52753e-08
1.49315e-08
-6.02859e-08
1.4935e-08
-6.5275e-08
1.48666e-08
-7.02219e-08
1.47358e-08
-7.51084e-08
1.4551e-08
-7.99187e-08
1.43194e-08
-8.46389e-08
1.40473e-08
-8.92573e-08
1.374e-08
-9.37634e-08
1.34019e-08
-9.81481e-08
1.30367e-08
-1.02403e-07
1.26477e-08
-1.06522e-07
1.22375e-08
-1.10497e-07
1.18084e-08
-1.14323e-07
1.13623e-08
-1.17995e-07
1.09006e-08
-1.21507e-07
1.04247e-08
-1.24855e-07
9.93559e-09
-1.28034e-07
9.43424e-09
-1.31042e-07
8.92153e-09
-1.33873e-07
8.39825e-09
-1.36525e-07
7.86514e-09
-1.38995e-07
7.32289e-09
-1.4128e-07
6.77218e-09
-1.43376e-07
6.21364e-09
-1.45282e-07
5.64791e-09
-1.46995e-07
5.07559e-09
-1.48514e-07
4.49726e-09
-1.49836e-07
3.91355e-09
-1.5096e-07
3.32509e-09
-1.51885e-07
2.73258e-09
-1.52609e-07
2.1367e-09
-1.53132e-07
1.53816e-09
-1.53453e-07
9.37677e-10
-1.53572e-07
3.35932e-10
-1.53487e-07
-2.66391e-10
-1.532e-07
-8.68624e-10
-1.5271e-07
-1.47011e-09
-1.52018e-07
-2.07022e-09
-1.51124e-07
-2.66832e-09
-1.5003e-07
-3.26376e-09
-1.48736e-07
-3.85591e-09
-1.47243e-07
-4.44411e-09
-1.45554e-07
-5.02767e-09
-1.4367e-07
-5.60589e-09
-1.41593e-07
-6.17804e-09
-1.39326e-07
-6.7434e-09
-1.3687e-07
-7.30124e-09
-1.34229e-07
-7.85081e-09
-1.31406e-07
-8.39138e-09
-1.28404e-07
-8.92221e-09
-1.25226e-07
-9.44254e-09
-1.21877e-07
-9.95154e-09
-1.18361e-07
-1.04483e-08
-1.14682e-07
-1.09318e-08
-1.10847e-07
-1.14007e-08
-1.06859e-07
-1.18536e-08
-1.02726e-07
-1.22888e-08
-9.84532e-08
-1.27042e-08
-9.40493e-08
-1.30975e-08
-8.95224e-08
-1.3466e-08
-8.4882e-08
-1.38063e-08
-8.01388e-08
-1.41146e-08
-7.53054e-08
-1.43864e-08
-7.03958e-08
-1.46161e-08
-6.54266e-08
-1.47974e-08
-6.04164e-08
-1.4923e-08
-5.53866e-08
-1.49844e-08
-5.03615e-08
-1.4972e-08
-4.53688e-08
-1.48755e-08
-4.04391e-08
-1.46836e-08
-3.5607e-08
-1.43846e-08
-3.09101e-08
-1.39666e-08
-2.63895e-08
-1.34179e-08
-2.2089e-08
-1.2728e-08
-1.80544e-08
-1.18881e-08
-1.43324e-08
-1.08926e-08
-1.09691e-08
-9.74071e-09
-8.00809e-09
-8.43908e-09
-5.48711e-09
-7.00525e-09
-3.43548e-09
-5.47271e-09
-1.87007e-09
-3.89777e-09
-7.91906e-10
-2.3678e-09
-1.8274e-10
-1.01826e-09
-8.84329e-11
-2.68359e-10
4.57119e-10
-1.1063e-09
1.86216e-09
-2.50521e-09
3.73387e-09
-4.46367e-09
5.82257e-09
-6.97088e-09
7.9635e-09
-1.00028e-08
1.00424e-08
-1.35244e-08
1.19836e-08
-1.74925e-08
1.37425e-08
-2.18585e-08
1.52962e-08
-2.6571e-08
1.66364e-08
-3.1578e-08
1.77644e-08
-3.68287e-08
1.86882e-08
-4.22742e-08
1.94199e-08
-4.78688e-08
1.99742e-08
-5.35703e-08
2.03672e-08
-5.93401e-08
2.06154e-08
-6.51436e-08
2.0735e-08
-7.095e-08
2.07414e-08
-7.6732e-08
2.06487e-08
-8.24659e-08
2.04696e-08
-8.81306e-08
2.02157e-08
-9.3708e-08
1.98968e-08
-9.9182e-08
1.95214e-08
-1.04539e-07
1.90968e-08
-1.09766e-07
1.86293e-08
-1.14854e-07
1.81241e-08
-1.19791e-07
1.75855e-08
-1.24571e-07
1.70172e-08
-1.29185e-07
1.64223e-08
-1.33626e-07
1.58034e-08
-1.37888e-07
1.51626e-08
-1.41965e-07
1.45017e-08
-1.45851e-07
1.38222e-08
-1.49543e-07
1.31256e-08
-1.53034e-07
1.2413e-08
-1.56322e-07
1.16856e-08
-1.59401e-07
1.09444e-08
-1.62268e-07
1.01904e-08
-1.64921e-07
9.42449e-09
-1.67355e-07
8.64768e-09
-1.69568e-07
7.86084e-09
-1.71557e-07
7.06482e-09
-1.7332e-07
6.26051e-09
-1.74855e-07
5.44878e-09
-1.76161e-07
4.63054e-09
-1.77235e-07
3.8067e-09
-1.78076e-07
2.9782e-09
-1.78684e-07
2.146e-09
-1.79058e-07
1.31103e-09
-1.79196e-07
4.74242e-10
-1.79099e-07
-3.63419e-10
-1.78766e-07
-1.20104e-09
-1.78199e-07
-2.03772e-09
-1.77396e-07
-2.87256e-09
-1.7636e-07
-3.70464e-09
-1.75091e-07
-4.53307e-09
-1.7359e-07
-5.35692e-09
-1.71859e-07
-6.17527e-09
-1.69899e-07
-6.98715e-09
-1.67713e-07
-7.7916e-09
-1.65304e-07
-8.58762e-09
-1.62673e-07
-9.3742e-09
-1.59824e-07
-1.01503e-08
-1.5676e-07
-1.09149e-08
-1.53484e-07
-1.1667e-08
-1.50001e-07
-1.24055e-08
-1.46314e-07
-1.31292e-08
-1.42429e-07
-1.3837e-08
-1.3835e-07
-1.45275e-08
-1.34082e-07
-1.51992e-08
-1.29632e-07
-1.58504e-08
-1.25007e-07
-1.64791e-08
-1.20213e-07
-1.70828e-08
-1.15258e-07
-1.76589e-08
-1.10152e-07
-1.82041e-08
-1.04903e-07
-1.87145e-08
-9.95239e-08
-1.91857e-08
-9.40263e-08
-1.96122e-08
-8.8425e-08
-1.99877e-08
-8.27363e-08
-2.03047e-08
-7.69792e-08
-2.05546e-08
-7.1175e-08
-2.07272e-08
-6.53482e-08
-2.08112e-08
-5.95264e-08
-2.07938e-08
-5.37407e-08
-2.06612e-08
-4.80257e-08
-2.03986e-08
-4.24198e-08
-1.99905e-08
-3.69648e-08
-1.94215e-08
-3.17062e-08
-1.86766e-08
-2.66918e-08
-1.77424e-08
-2.19719e-08
-1.66081e-08
-1.75972e-08
-1.52672e-08
-1.36183e-08
-1.37197e-08
-1.00827e-08
-1.19746e-08
-7.03382e-09
-1.00542e-08
-4.50752e-09
-7.99903e-09
-2.53057e-09
-5.8747e-09
-1.11903e-09
-3.77935e-09
-2.77713e-10
-1.85958e-09
-3.66143e-10
-3.51913e-10
8.09029e-10
-1.39818e-09
2.90843e-09
-3.10542e-09
5.4411e-09
-5.44817e-09
8.16532e-09
-8.39849e-09
1.09138e-08
-1.19209e-08
1.35648e-08
-1.59726e-08
1.60353e-08
-2.0505e-08
1.82749e-08
-2.54652e-08
2.02564e-08
-3.07982e-08
2.19694e-08
-3.64484e-08
2.34147e-08
-4.23615e-08
2.46013e-08
-4.84851e-08
2.55435e-08
-5.47702e-08
2.62592e-08
-6.11711e-08
2.6768e-08
-6.76461e-08
2.70904e-08
-7.41576e-08
2.72465e-08
-8.06718e-08
2.72555e-08
-8.71587e-08
2.71355e-08
-9.35918e-08
2.69028e-08
-9.99481e-08
2.6572e-08
-1.06207e-07
2.61557e-08
-1.12351e-07
2.56652e-08
-1.18364e-07
2.51099e-08
-1.24232e-07
2.44979e-08
-1.29944e-07
2.3836e-08
-1.35489e-07
2.31299e-08
-1.40856e-07
2.23845e-08
-1.46038e-07
2.16038e-08
-1.51025e-07
2.07912e-08
-1.55812e-07
1.99494e-08
-1.60392e-07
1.90809e-08
-1.64757e-07
1.81878e-08
-1.68903e-07
1.72719e-08
-1.72825e-07
1.63348e-08
-1.76518e-07
1.53781e-08
-1.79976e-07
1.44031e-08
-1.83197e-07
1.34112e-08
-1.86176e-07
1.24036e-08
-1.8891e-07
1.13816e-08
-1.91396e-07
1.03464e-08
-1.9363e-07
9.29916e-09
-1.95611e-07
8.24102e-09
-1.97335e-07
7.17318e-09
-1.98801e-07
6.09684e-09
-2.00008e-07
5.0132e-09
-2.00953e-07
3.92347e-09
-2.01636e-07
2.82885e-09
-2.02056e-07
1.73058e-09
-2.02211e-07
6.29883e-10
-2.02103e-07
-4.72036e-10
-2.0173e-07
-1.57396e-09
-2.01093e-07
-2.67471e-09
-2.00192e-07
-3.77308e-09
-1.99029e-07
-4.86788e-09
-1.97604e-07
-5.9579e-09
-1.95919e-07
-7.04191e-09
-1.93976e-07
-8.11868e-09
-1.91776e-07
-9.18694e-09
-1.89322e-07
-1.02454e-08
-1.86617e-07
-1.12928e-08
-1.83663e-07
-1.23278e-08
-1.80465e-07
-1.33489e-08
-1.77025e-07
-1.4355e-08
-1.73347e-07
-1.53445e-08
-1.69437e-07
-1.6316e-08
-1.65298e-07
-1.7268e-08
-1.60936e-07
-1.81988e-08
-1.56357e-07
-1.91067e-08
-1.51567e-07
-1.99895e-08
-1.46572e-07
-2.0845e-08
-1.41381e-07
-2.16706e-08
-1.36e-07
-2.24632e-08
-1.3044e-07
-2.32191e-08
-1.2471e-07
-2.39342e-08
-1.18821e-07
-2.46034e-08
-1.12786e-07
-2.52207e-08
-1.06619e-07
-2.57791e-08
-1.00336e-07
-2.62704e-08
-9.39561e-08
-2.66849e-08
-8.74994e-08
-2.70112e-08
-8.099e-08
-2.72366e-08
-7.44546e-08
-2.73465e-08
-6.79237e-08
-2.73248e-08
-6.1431e-08
-2.71539e-08
-5.50142e-08
-2.68154e-08
-4.87149e-08
-2.62898e-08
-4.25783e-08
-2.55582e-08
-3.66528e-08
-2.46021e-08
-3.09899e-08
-2.34053e-08
-2.56432e-08
-2.19548e-08
-2.06671e-08
-2.02433e-08
-1.6116e-08
-1.82708e-08
-1.20423e-08
-1.60483e-08
-8.49503e-09
-1.36015e-08
-5.51818e-09
-1.09759e-08
-3.1499e-09
-8.24297e-09
-1.42255e-09
-5.50671e-09
-3.64051e-10
-2.91807e-09
-7.30203e-10
-4.27415e-10
1.23645e-09
-1.66518e-09
4.14619e-09
-3.65793e-09
7.43385e-09
-6.35873e-09
1.08661e-08
-9.72254e-09
1.42776e-08
-1.3702e-08
1.75443e-08
-1.82458e-08
2.05792e-08
-2.32992e-08
2.33282e-08
-2.88047e-08
2.57619e-08
-3.47036e-08
2.78684e-08
-4.09374e-08
2.96485e-08
-4.74486e-08
3.11125e-08
-5.41821e-08
3.22771e-08
-6.10862e-08
3.31633e-08
-6.81125e-08
3.37943e-08
-7.52167e-08
3.41947e-08
-8.23589e-08
3.43886e-08
-8.95027e-08
3.43994e-08
-9.66162e-08
3.4249e-08
-1.03671e-07
3.39573e-08
-1.10641e-07
3.35423e-08
-1.17505e-07
3.30198e-08
-1.24244e-07
3.24036e-08
-1.30839e-07
3.17055e-08
-1.37277e-07
3.09355e-08
-1.43543e-07
3.01023e-08
-1.49626e-07
2.9213e-08
-1.55515e-07
2.82736e-08
-1.61201e-07
2.72893e-08
-1.66674e-07
2.62642e-08
-1.71926e-07
2.52021e-08
-1.76952e-07
2.41059e-08
-1.81742e-07
2.29784e-08
-1.86292e-07
2.18219e-08
-1.90596e-07
2.06385e-08
-1.94648e-07
1.94301e-08
-1.98443e-07
1.81986e-08
-2.01978e-07
1.69456e-08
-2.05247e-07
1.56727e-08
-2.08247e-07
1.43816e-08
-2.10974e-07
1.30738e-08
-2.13426e-07
1.17508e-08
-2.15599e-07
1.04141e-08
-2.17491e-07
9.06526e-09
-2.191e-07
7.7057e-09
-2.20424e-07
6.33697e-09
-2.21461e-07
4.96058e-09
-2.2221e-07
3.57805e-09
-2.2267e-07
2.1909e-09
-2.22841e-07
8.00661e-10
-2.22722e-07
-5.91155e-10
-2.22313e-07
-1.98303e-09
-2.21614e-07
-3.37345e-09
-2.20626e-07
-4.76091e-09
-2.1935e-07
-6.14388e-09
-2.17787e-07
-7.52083e-09
-2.15939e-07
-8.89022e-09
-2.13807e-07
-1.02504e-08
-2.11394e-07
-1.15999e-08
-2.08703e-07
-1.29371e-08
-2.05735e-07
-1.42602e-08
-2.02496e-07
-1.55676e-08
-1.98987e-07
-1.68576e-08
-1.95214e-07
-1.81284e-08
-1.9118e-07
-1.93783e-08
-1.8689e-07
-2.06054e-08
-1.82351e-07
-2.18076e-08
-1.77567e-07
-2.2983e-08
-1.72544e-07
-2.4129e-08
-1.67291e-07
-2.52433e-08
-1.61813e-07
-2.63227e-08
-1.56119e-07
-2.73641e-08
-1.50219e-07
-2.83635e-08
-1.44122e-07
-2.93163e-08
-1.37839e-07
-3.02173e-08
-1.31382e-07
-3.106e-08
-1.24766e-07
-3.18372e-08
-1.18005e-07
-3.25398e-08
-1.11118e-07
-3.31578e-08
-1.04124e-07
-3.36789e-08
-9.70456e-08
-3.40893e-08
-8.99092e-08
-3.43731e-08
-8.27432e-08
-3.45125e-08
-7.558e-08
-3.44879e-08
-6.84559e-08
-3.4278e-08
-6.1411e-08
-3.38604e-08
-5.44891e-08
-3.32117e-08
-4.7738e-08
-3.23092e-08
-4.12091e-08
-3.1131e-08
-3.49566e-08
-2.96578e-08
-2.90369e-08
-2.78745e-08
-2.35081e-08
-2.57721e-08
-1.84283e-08
-2.33505e-08
-1.38551e-08
-2.06216e-08
-9.84372e-09
-1.76128e-08
-6.4471e-09
-1.43725e-08
-3.71528e-09
-1.09748e-08
-1.69673e-09
-7.52525e-09
-4.40728e-10
-4.17407e-09
-1.17093e-09
-4.9372e-10
1.73016e-09
-1.90436e-09
5.55682e-09
-4.15714e-09
9.68664e-09
-7.18637e-09
1.38953e-08
-1.09311e-08
1.80223e-08
-1.5332e-08
2.19451e-08
-2.03291e-08
2.55763e-08
-2.58613e-08
2.88604e-08
-3.18661e-08
3.17668e-08
-3.82811e-08
3.42834e-08
-4.50446e-08
3.6412e-08
-5.20967e-08
3.81645e-08
-5.93797e-08
3.95601e-08
-6.68397e-08
4.06232e-08
-7.44261e-08
4.13808e-08
-8.20929e-08
4.18614e-08
-8.97976e-08
4.20934e-08
-9.75026e-08
4.21043e-08
-1.05174e-07
4.19201e-08
-1.12781e-07
4.15643e-08
-1.20297e-07
4.10585e-08
-1.27698e-07
4.04215e-08
-1.34965e-07
3.967e-08
-1.42077e-07
3.88181e-08
-1.4902e-07
3.78782e-08
-1.55778e-07
3.68605e-08
-1.62339e-07
3.57738e-08
-1.68691e-07
3.46255e-08
-1.74824e-07
3.34218e-08
-1.80727e-07
3.21678e-08
-1.86393e-07
3.08681e-08
-1.91814e-07
2.95264e-08
-1.96981e-07
2.81461e-08
-2.01889e-07
2.673e-08
-2.06532e-07
2.52808e-08
-2.10902e-07
2.38009e-08
-2.14996e-07
2.22926e-08
-2.18809e-07
2.07579e-08
-2.22335e-07
1.91988e-08
-2.25571e-07
1.76174e-08
-2.28512e-07
1.60155e-08
-2.31157e-07
1.43951e-08
-2.335e-07
1.27579e-08
-2.35541e-07
1.11059e-08
-2.37276e-07
9.44079e-09
-2.38704e-07
7.76455e-09
-2.39822e-07
6.07898e-09
-2.4063e-07
4.38591e-09
-2.41126e-07
2.68721e-09
-2.4131e-07
9.84722e-10
-2.41182e-07
-7.19712e-10
-2.4074e-07
-2.42424e-09
-2.39987e-07
-4.12703e-09
-2.38922e-07
-5.8262e-09
-2.37546e-07
-7.5199e-09
-2.3586e-07
-9.20623e-09
-2.33867e-07
-1.08833e-08
-2.31568e-07
-1.25492e-08
-2.28966e-07
-1.42019e-08
-2.26064e-07
-1.58395e-08
-2.22864e-07
-1.74599e-08
-2.19371e-07
-1.9061e-08
-2.15588e-07
-2.06409e-08
-2.11519e-07
-2.21972e-08
-2.07169e-07
-2.37278e-08
-2.02544e-07
-2.52304e-08
-1.9765e-07
-2.67024e-08
-1.92491e-07
-2.81413e-08
-1.87076e-07
-2.95441e-08
-1.81412e-07
-3.09078e-08
-1.75506e-07
-3.22286e-08
-1.69367e-07
-3.35024e-08
-1.63006e-07
-3.47246e-08
-1.56433e-07
-3.58895e-08
-1.4966e-07
-3.69907e-08
-1.42699e-07
-3.80204e-08
-1.35567e-07
-3.89696e-08
-1.28279e-07
-3.98276e-08
-1.20855e-07
-4.05821e-08
-1.13315e-07
-4.12184e-08
-1.05685e-07
-4.172e-08
-9.79898e-08
-4.20679e-08
-9.02614e-08
-4.22409e-08
-8.25335e-08
-4.22158e-08
-7.48443e-08
-4.19673e-08
-6.72356e-08
-4.1469e-08
-5.97535e-08
-4.06939e-08
-5.24478e-08
-3.96149e-08
-4.53722e-08
-3.82067e-08
-3.85833e-08
-3.64467e-08
-3.21406e-08
-3.43172e-08
-2.61054e-08
-3.18074e-08
-2.05399e-08
-2.8916e-08
-1.55067e-08
-2.56547e-08
-1.10683e-08
-2.20513e-08
-7.2862e-09
-1.81546e-08
-4.22236e-09
-1.40387e-08
-1.94027e-09
-9.80733e-09
-5.07881e-10
-5.60646e-09
-1.67881e-09
-5.512e-10
2.28136e-09
-2.11567e-09
7.12129e-09
-4.60234e-09
1.21733e-08
-7.92929e-09
1.72223e-08
-1.20213e-08
2.21143e-08
-1.68077e-08
2.67316e-08
-2.222e-08
3.09886e-08
-2.81904e-08
3.48307e-08
-3.46514e-08
3.82278e-08
-4.15368e-08
4.11688e-08
-4.87817e-08
4.36568e-08
-5.63235e-08
4.57063e-08
-6.41028e-08
4.73394e-08
-7.20633e-08
4.85837e-08
-8.01529e-08
4.94704e-08
-8.83236e-08
5.00321e-08
-9.65317e-08
5.03015e-08
-1.04738e-07
5.03103e-08
-1.12906e-07
5.00884e-08
-1.21005e-07
4.96635e-08
-1.29007e-07
4.90605e-08
-1.36887e-07
4.83014e-08
-1.44623e-07
4.74058e-08
-1.52195e-07
4.63903e-08
-1.59587e-07
4.52695e-08
-1.66782e-07
4.40556e-08
-1.73767e-07
4.2759e-08
-1.8053e-07
4.13883e-08
-1.87059e-07
3.9951e-08
-1.93344e-07
3.84534e-08
-1.99377e-07
3.69008e-08
-2.05148e-07
3.52977e-08
-2.1065e-07
3.36481e-08
-2.15876e-07
3.19557e-08
-2.20819e-07
3.02235e-08
-2.25472e-07
2.84545e-08
-2.29831e-07
2.66513e-08
-2.3389e-07
2.48166e-08
-2.37644e-07
2.29528e-08
-2.41089e-07
2.10622e-08
-2.4422e-07
1.91472e-08
-2.47035e-07
1.721e-08
-2.4953e-07
1.52529e-08
-2.51702e-07
1.32781e-08
-2.53549e-07
1.12877e-08
-2.55069e-07
9.28412e-09
-2.56259e-07
7.26939e-09
-2.57119e-07
5.24575e-09
-2.57647e-07
3.21539e-09
-2.57843e-07
1.18052e-09
-2.57706e-07
-8.56674e-10
-2.57236e-07
-2.89399e-09
-2.56434e-07
-4.92922e-09
-2.553e-07
-6.96016e-09
-2.53836e-07
-8.98456e-09
-2.52042e-07
-1.10002e-08
-2.4992e-07
-1.30047e-08
-2.47474e-07
-1.49959e-08
-2.44704e-07
-1.69713e-08
-2.41615e-07
-1.89286e-08
-2.38209e-07
-2.08654e-08
-2.34491e-07
-2.27792e-08
-2.30465e-07
-2.46675e-08
-2.26134e-07
-2.65277e-08
-2.21505e-07
-2.83571e-08
-2.16582e-07
-3.01529e-08
-2.11373e-07
-3.1912e-08
-2.05882e-07
-3.36314e-08
-2.00119e-07
-3.53076e-08
-1.9409e-07
-3.69366e-08
-1.87805e-07
-3.85142e-08
-1.81272e-07
-4.00355e-08
-1.74501e-07
-4.14947e-08
-1.67506e-07
-4.28853e-08
-1.60297e-07
-4.41995e-08
-1.52889e-07
-4.54281e-08
-1.45298e-07
-4.65605e-08
-1.37542e-07
-4.75842e-08
-1.29639e-07
-4.84843e-08
-1.21614e-07
-4.9244e-08
-1.1349e-07
-4.98437e-08
-1.05297e-07
-5.02613e-08
-9.70653e-08
-5.04723e-08
-8.88316e-08
-5.04495e-08
-8.0635e-08
-5.01639e-08
-7.25191e-08
-4.9585e-08
-6.45316e-08
-4.86814e-08
-5.67242e-08
-4.74222e-08
-4.91527e-08
-4.57782e-08
-4.1876e-08
-4.37233e-08
-3.49564e-08
-4.12368e-08
-2.84584e-08
-3.83053e-08
-2.24488e-08
-3.49257e-08
-1.69953e-08
-3.11081e-08
-1.21672e-08
-2.68794e-08
-8.03512e-09
-2.22867e-08
-4.67176e-09
-1.7402e-08
-2.15419e-09
-1.23249e-08
-5.66139e-10
-7.19451e-09
-2.24494e-09
-6.01001e-10
2.88236e-09
-2.30111e-09
8.8214e-09
-4.99626e-09
1.48684e-08
-8.59069e-09
2.08167e-08
-1.2997e-08
2.65207e-08
-1.81341e-08
3.18686e-08
-2.39249e-08
3.67795e-08
-3.02952e-08
4.1201e-08
-3.71726e-08
4.51052e-08
-4.44866e-08
4.84828e-08
-5.21695e-08
5.13397e-08
-6.0156e-08
5.36929e-08
-6.83846e-08
5.5568e-08
-7.67974e-08
5.69965e-08
-8.53405e-08
5.80136e-08
-9.39647e-08
5.86563e-08
-1.02625e-07
5.89615e-08
-1.1128e-07
5.89654e-08
-1.19893e-07
5.8702e-08
-1.28433e-07
5.82028e-08
-1.36869e-07
5.74964e-08
-1.45175e-07
5.6608e-08
-1.5333e-07
5.55601e-08
-1.61311e-07
5.43721e-08
-1.69102e-07
5.30606e-08
-1.76687e-07
5.16398e-08
-1.84049e-07
5.01217e-08
-1.91178e-07
4.85167e-08
-1.9806e-07
4.68332e-08
-2.04685e-07
4.50788e-08
-2.11044e-07
4.32595e-08
-2.17127e-07
4.13808e-08
-2.22926e-07
3.94474e-08
-2.28434e-07
3.74636e-08
-2.33644e-07
3.5433e-08
-2.38548e-07
3.33591e-08
-2.43142e-07
3.12452e-08
-2.4742e-07
2.90942e-08
-2.51376e-07
2.69091e-08
-2.55006e-07
2.46926e-08
-2.58307e-07
2.24475e-08
-2.61273e-07
2.01765e-08
-2.63903e-07
1.78822e-08
-2.66192e-07
1.55671e-08
-2.68138e-07
1.3234e-08
-2.69739e-07
1.08853e-08
-2.70993e-07
8.52374e-09
-2.71899e-07
6.15173e-09
-2.72456e-07
3.77188e-09
-2.72662e-07
1.38677e-09
-2.72518e-07
-1.00105e-09
-2.72023e-07
-3.389e-09
-2.71177e-07
-5.77452e-09
-2.69983e-07
-8.155e-09
-2.68439e-07
-1.05278e-08
-2.66549e-07
-1.28903e-08
-2.64314e-07
-1.52399e-08
-2.61736e-07
-1.75738e-08
-2.58818e-07
-1.98892e-08
-2.55563e-07
-2.21835e-08
-2.51975e-07
-2.44537e-08
-2.48057e-07
-2.66969e-08
-2.43815e-07
-2.89103e-08
-2.39252e-07
-3.10906e-08
-2.34374e-07
-3.32348e-08
-2.29187e-07
-3.53395e-08
-2.23698e-07
-3.74013e-08
-2.17913e-07
-3.94163e-08
-2.1184e-07
-4.13805e-08
-2.05488e-07
-4.32892e-08
-1.98864e-07
-4.51376e-08
-1.9198e-07
-4.69196e-08
-1.84846e-07
-4.86288e-08
-1.77474e-07
-5.02573e-08
-1.69877e-07
-5.17961e-08
-1.62071e-07
-5.32347e-08
-1.54071e-07
-5.45605e-08
-1.45896e-07
-5.57591e-08
-1.37567e-07
-5.68135e-08
-1.29107e-07
-5.77042e-08
-1.20542e-07
-5.84087e-08
-1.11901e-07
-5.89018e-08
-1.03218e-07
-5.91552e-08
-9.45293e-08
-5.91383e-08
-8.58754e-08
-5.88178e-08
-7.73014e-08
-5.8159e-08
-6.88565e-08
-5.71263e-08
-6.05942e-08
-5.56846e-08
-5.25719e-08
-5.38005e-08
-4.48512e-08
-5.14441e-08
-3.74969e-08
-4.85911e-08
-3.05772e-08
-4.52251e-08
-2.41627e-08
-4.13401e-08
-1.8327e-08
-3.69439e-08
-1.31459e-08
-3.20605e-08
-8.69827e-09
-2.67344e-08
-5.06695e-09
-2.10333e-08
-2.3407e-09
-1.50511e-08
-6.16326e-10
-8.91887e-09
-2.86128e-09
-6.44285e-10
3.52664e-09
-2.4635e-09
1.06406e-08
-5.34345e-09
1.77484e-08
-9.17702e-09
2.46503e-08
-1.38664e-08
3.121e-08
-1.93211e-08
3.73233e-08
-2.54563e-08
4.29146e-08
-3.21912e-08
4.7936e-08
-3.94485e-08
5.23625e-08
-4.71538e-08
5.61881e-08
-5.52361e-08
5.94219e-08
-6.36276e-08
6.20844e-08
-7.22648e-08
6.42051e-08
-8.1088e-08
6.58197e-08
-9.00421e-08
6.69676e-08
-9.90762e-08
6.76904e-08
-1.08144e-07
6.80294e-08
-1.17204e-07
6.80253e-08
-1.26218e-07
6.77163e-08
-1.35153e-07
6.71377e-08
-1.43978e-07
6.63218e-08
-1.52668e-07
6.52973e-08
-1.61197e-07
6.40895e-08
-1.69546e-07
6.27205e-08
-1.77694e-07
6.12092e-08
-1.85626e-07
5.95717e-08
-1.93326e-07
5.7822e-08
-2.00781e-07
5.59716e-08
-2.07979e-07
5.40306e-08
-2.14907e-07
5.20074e-08
-2.21557e-07
4.99091e-08
-2.27918e-07
4.77421e-08
-2.33983e-07
4.55118e-08
-2.39742e-07
4.32231e-08
-2.4519e-07
4.08804e-08
-2.50318e-07
3.84876e-08
-2.55121e-07
3.60486e-08
-2.59594e-07
3.35668e-08
-2.63731e-07
3.10456e-08
-2.67526e-07
2.84883e-08
-2.70977e-07
2.58981e-08
-2.74078e-07
2.3278e-08
-2.76827e-07
2.0631e-08
-2.7922e-07
1.79603e-08
-2.81255e-07
1.52687e-08
-2.82929e-07
1.25593e-08
-2.8424e-07
9.83508e-09
-2.85188e-07
7.09887e-09
-2.85769e-07
4.35367e-09
-2.85985e-07
1.60243e-09
-2.85834e-07
-1.15191e-09
-2.85317e-07
-3.9064e-09
-2.84433e-07
-6.65806e-09
-2.83184e-07
-9.40391e-09
-2.81571e-07
-1.21409e-08
-2.79595e-07
-1.48661e-08
-2.77259e-07
-1.75763e-08
-2.74564e-07