/*--------------------------------*- C++ -*----------------------------------*\
| =========                 |                                                 |
| \\      /  F ield         | OpenFOAM: The Open Source CFD Toolbox           |
|  \\    /   O peration     | Version:  2212                                  |
|   \\  /    A nd           | Website:  www.openfoam.com                      |
|    \\/     M anipulation  |                                                 |
\*---------------------------------------------------------------------------*/
FoamFile
{
    version     2.0;
    format      ascii;
    arch        "LSB;label=32;scalar=64";
    class       surfaceScalarField;
    location    "0.03";
    object      phi_0;
}
// * * * * * * * * * * * * * * * * * * * * * * * * * * * * * * * * * * * * * //

dimensions      [0 3 -1 0 0 0 0];

oriented        oriented;

internalField   nonuniform List<scalar> 
19800
(
6.0645e-11
-6.06735e-11
1.9598e-10
-1.35323e-10
3.29004e-10
-1.33025e-10
4.18515e-10
-8.95011e-11
4.40234e-10
-2.17176e-11
3.82209e-10
5.80262e-11
2.39519e-10
1.42688e-10
1.14679e-11
2.28052e-10
-3.00028e-10
3.11495e-10
-6.91526e-10
3.91502e-10
-1.15857e-09
4.67052e-10
-1.6961e-09
5.3753e-10
-2.29866e-09
6.02557e-10
-2.96061e-09
6.61944e-10
-3.67623e-09
7.15613e-10
-4.43979e-09
7.63565e-10
-5.24561e-09
8.0583e-10
-6.08807e-09
8.4246e-10
-6.96165e-09
8.73579e-10
-7.86097e-09
8.99325e-10
-8.78083e-09
9.19856e-10
-9.71617e-09
9.3534e-10
-1.06621e-08
9.45949e-10
-1.1614e-08
9.51853e-10
-1.25672e-08
9.5323e-10
-1.35175e-08
9.50282e-10
-1.44607e-08
9.43192e-10
-1.53928e-08
9.32109e-10
-1.631e-08
9.17218e-10
-1.72087e-08
8.98733e-10
-1.80856e-08
8.76824e-10
-1.89372e-08
8.51664e-10
-1.97607e-08
8.23469e-10
-2.05531e-08
7.92436e-10
-2.13118e-08
7.58703e-10
-2.20343e-08
7.2242e-10
-2.2718e-08
6.83773e-10
-2.3361e-08
6.42934e-10
-2.3961e-08
6.00042e-10
-2.45163e-08
5.55246e-10
-2.5025e-08
5.08728e-10
-2.54857e-08
4.60659e-10
-2.58968e-08
4.11176e-10
-2.62572e-08
3.60406e-10
-2.65657e-08
3.08493e-10
-2.68213e-08
2.55599e-10
-2.70232e-08
2.01875e-10
-2.71707e-08
1.47459e-10
-2.72632e-08
9.24994e-11
-2.73003e-08
3.71576e-11
-2.72819e-08
-1.84044e-11
-2.72079e-08
-7.4028e-11
-2.70783e-08
-1.29571e-10
-2.68935e-08
-1.84883e-10
-2.66537e-08
-2.39787e-10
-2.63596e-08
-2.94099e-10
-2.60119e-08
-3.47641e-10
-2.56117e-08
-4.00239e-10
-2.516e-08
-4.51729e-10
-2.4658e-08
-5.01948e-10
-2.41073e-08
-5.50707e-10
-2.35095e-08
-5.9781e-10
-2.28665e-08
-6.43062e-10
-2.21802e-08
-6.86268e-10
-2.1453e-08
-7.2723e-10
-2.06872e-08
-7.65755e-10
-1.98856e-08
-8.01636e-10
-1.90509e-08
-8.3466e-10
-1.81863e-08
-8.64615e-10
-1.7295e-08
-8.91287e-10
-1.63806e-08
-9.14462e-10
-1.54466e-08
-9.33933e-10
-1.44971e-08
-9.49501e-10
-1.35362e-08
-9.60964e-10
-1.2568e-08
-9.68119e-10
-1.15973e-08
-9.70774e-10
-1.06285e-08
-9.68738e-10
-9.66671e-09
-9.61825e-10
-8.71685e-09
-9.49865e-10
-7.78413e-09
-9.32715e-10
-6.87388e-09
-9.10246e-10
-5.99154e-09
-8.82337e-10
-5.14266e-09
-8.48883e-10
-4.33285e-09
-8.09803e-10
-3.56781e-09
-7.65038e-10
-2.85326e-09
-7.14559e-10
-2.19487e-09
-6.58384e-10
-1.59827e-09
-5.96599e-10
-1.0689e-09
-5.29374e-10
-6.11907e-10
-4.56994e-10
-2.31989e-10
-3.79918e-10
6.68756e-11
-2.98863e-10
2.81802e-10
-2.14925e-10
4.11596e-10
-1.29795e-10
4.57755e-10
-4.61579e-11
4.26093e-10
3.16632e-11
3.2944e-10
9.66525e-11
1.92331e-10
1.37108e-10
5.95165e-11
1.32809e-10
5.95129e-11
1.27601e-10
-1.88261e-10
3.379e-10
-3.45652e-10
5.14317e-10
-3.09437e-10
5.75489e-10
-1.50682e-10
4.70028e-10
8.37481e-11
1.6688e-10
3.61167e-10
-3.49936e-10
6.59509e-10
-1.08604e-09
9.64156e-10
-2.03999e-09
1.26543e-09
-3.20544e-09
1.55695e-09
-4.5728e-09
1.83442e-09
-6.13028e-09
2.09502e-09
-7.86457e-09
2.33687e-09
-9.76144e-09
2.55882e-09
-1.1806e-08
2.76022e-09
-1.39832e-08
2.94074e-09
-1.62777e-08
3.10034e-09
-1.86744e-08
3.23912e-09
-2.11582e-08
3.35735e-09
-2.37143e-08
3.45543e-09
-2.63283e-08
3.53386e-09
-2.89861e-08
3.59317e-09
-3.16741e-08
3.63394e-09
-3.4379e-08
3.65683e-09
-3.70883e-08
3.66245e-09
-3.97895e-08
3.65148e-09
-4.24708e-08
3.62459e-09
-4.51212e-08
3.58246e-09
-4.77298e-08
3.52576e-09
-5.02862e-08
3.45519e-09
-5.27809e-08
3.37145e-09
-5.52045e-08
3.27526e-09
-5.75483e-08
3.1673e-09
-5.98041e-08
3.04823e-09
-6.19641e-08
2.91871e-09
-6.4021e-08
2.77938e-09
-6.59682e-08
2.63088e-09
-6.77991e-08
2.47383e-09
-6.95079e-08
2.30885e-09
-7.10892e-08
2.13656e-09
-7.2538e-08
1.95757e-09
-7.38499e-08
1.77248e-09
-7.50206e-08
1.58187e-09
-7.60465e-08
1.38632e-09
-7.69244e-08
1.1864e-09
-7.76515e-08
9.82682e-10
-7.82254e-08
7.75749e-10
-7.86441e-08
5.66177e-10
-7.89061e-08
3.54555e-10
-7.90105e-08
1.41487e-10
-7.89564e-08
-7.24259e-11
-7.87439e-08
-2.86586e-10
-7.83731e-08
-5.00383e-10
-7.78448e-08
-7.132e-10
-7.71602e-08
-9.24387e-10
-7.6321e-08
-1.13327e-09
-7.53295e-08
-1.33918e-09
-7.41883e-08
-1.54146e-09
-7.29006e-08
-1.73943e-09
-7.14701e-08
-1.93239e-09
-6.99012e-08
-2.11965e-09
-6.81985e-08
-2.30048e-09
-6.63675e-08
-2.47411e-09
-6.44139e-08
-2.63982e-09
-6.23443e-08
-2.79682e-09
-6.01657e-08
-2.94436e-09
-5.78857e-08
-3.08164e-09
-5.55125e-08
-3.2079e-09
-5.30548e-08
-3.32233e-09
-5.05219e-08
-3.42413e-09
-4.79239e-08
-3.51251e-09
-4.52711e-08
-3.5867e-09
-4.25747e-08
-3.64591e-09
-3.98463e-08
-3.6894e-09
-3.70979e-08
-3.71645e-09
-3.43424e-08
-3.72633e-09
-3.15928e-08
-3.71837e-09
-2.88627e-08
-3.6919e-09
-2.61662e-08
-3.64635e-09
-2.35177e-08
-3.58118e-09
-2.09321e-08
-3.49591e-09
-1.84242e-08
-3.39017e-09
-1.60095e-08
-3.26364e-09
-1.37032e-08
-3.11612e-09
-1.15207e-08
-2.94751e-09
-9.47733e-09
-2.75792e-09
-7.58809e-09
-2.54762e-09
-5.86748e-09
-2.31721e-09
-4.32924e-09
-2.06761e-09
-2.98593e-09
-1.8003e-09
-1.84839e-09
-1.51746e-09
-9.25008e-10
-1.22225e-09
-2.2064e-10
-9.19293e-10
2.6489e-10
-6.15322e-10
5.38991e-10
-3.20259e-10
6.19453e-10
-4.88002e-11
5.38884e-10
1.77226e-10
3.50283e-10
3.25711e-10
1.3267e-10
3.5042e-10
1.9219e-10
1.32273e-10
-3.20535e-10
3.05701e-10
-5.19073e-10
3.87541e-10
-3.91279e-10
2.82755e-10
-4.58963e-11
-7.38886e-11
4.4039e-10
-7.2421e-10
1.01149e-09
-1.69183e-09
1.62713e-09
-2.98674e-09
2.25907e-09
-4.60895e-09
2.88765e-09
-6.55116e-09
3.49915e-09
-8.80079e-09
4.08405e-09
-1.13415e-08
4.63573e-09
-1.41543e-08
5.14968e-09
-1.72184e-08
5.6229e-09
-2.05117e-08
6.0535e-09
-2.40114e-08
6.44043e-09
-2.76942e-08
6.78322e-09
-3.1537e-08
7.08188e-09
-3.55164e-08
7.33679e-09
-3.96096e-08
7.5486e-09
-4.3794e-08
7.71819e-09
-4.80474e-08
7.84662e-09
-5.23485e-08
7.93503e-09
-5.66763e-08
7.98468e-09
-6.10108e-08
7.99691e-09
-6.53324e-08
7.97312e-09
-6.96225e-08
7.91471e-09
-7.38632e-08
7.82309e-09
-7.80372e-08
7.69976e-09
-8.21282e-08
7.5462e-09
-8.61206e-08
7.36389e-09
-8.99997e-08
7.1543e-09
-9.37513e-08
6.91894e-09
-9.73623e-08
6.65925e-09
-1.0082e-07
6.37663e-09
-1.04113e-07
6.0725e-09
-1.07231e-07
5.74823e-09
-1.10162e-07
5.40522e-09
-1.12898e-07
5.04482e-09
-1.1543e-07
4.66836e-09
-1.17749e-07
4.27718e-09
-1.1985e-07
3.87259e-09
-1.21724e-07
3.45588e-09
-1.23366e-07
3.02833e-09
-1.2477e-07
2.59121e-09
-1.25934e-07
2.14579e-09
-1.26851e-07
1.69336e-09
-1.2752e-07
1.23519e-09
-1.27938e-07
7.72572e-10
-1.28104e-07
3.06817e-10
-1.28015e-07
-1.60755e-10
-1.27673e-07
-6.28819e-10
-1.27077e-07
-1.09603e-09
-1.2623e-07
-1.561e-09
-1.25132e-07
-2.02235e-09
-1.23786e-07
-2.47862e-09
-1.22197e-07
-2.92835e-09
-1.20368e-07
-3.37008e-09
-1.18306e-07
-3.80231e-09
-1.16014e-07
-4.22352e-09
-1.13502e-07
-4.63214e-09
-1.10776e-07
-5.02661e-09
-1.07845e-07
-5.40529e-09
-1.04718e-07
-5.76654e-09
-1.01406e-07
-6.10871e-09
-9.79203e-08
-6.43012e-09
-9.42729e-08
-6.72907e-09
-9.04769e-08
-7.00387e-09
-8.65464e-08
-7.25283e-09
-8.24963e-08
-7.47423e-09
-7.83425e-08
-7.66636e-09
-7.41016e-08
-7.82757e-09
-6.97913e-08
-7.95623e-09
-6.543e-08
-8.05071e-09
-6.1037e-08
-8.10947e-09
-5.66323e-08
-8.13103e-09
-5.22367e-08
-8.11396e-09
-4.78717e-08
-8.05692e-09
-4.35593e-08
-7.95869e-09
-3.93223e-08
-7.8182e-09
-3.51837e-08
-7.63453e-09
-3.11669e-08
-7.40693e-09
-2.72957e-08
-7.13487e-09
-2.35937e-08
-6.81807e-09
-2.00846e-08
-6.45659e-09
-1.67917e-08
-6.05086e-09
-1.37375e-08
-5.60184e-09
-1.09436e-08
-5.11111e-09
-8.43002e-09
-4.58116e-09
-6.21474e-09
-4.01558e-09
-4.31269e-09
-3.41952e-09
-2.7347e-09
-2.80022e-09
-1.48611e-09
-2.16788e-09
-5.64675e-10
-1.53676e-09
4.19851e-11
-9.26927e-10
3.59845e-10
-3.66657e-10
4.32707e-10
1.04371e-10
3.27087e-10
4.31326e-10
1.37375e-10
5.40138e-10
3.29566e-10
9.02684e-11
-4.10794e-10
1.52896e-10
-5.8171e-10
5.07323e-11
-2.89111e-10
-3.1397e-10
3.18801e-10
-1.01055e-09
1.13697e-09
-2.0851e-09
2.08604e-09
-3.56488e-09
3.1069e-09
-5.46228e-09
4.15647e-09
-7.77819e-09
5.20357e-09
-1.05047e-08
6.22565e-09
-1.36271e-08
7.20652e-09
-1.7126e-08
8.13454e-09
-2.09778e-08
9.00154e-09
-2.51568e-08
9.80185e-09
-2.9635e-08
1.05317e-08
-3.43833e-08
1.11888e-08
-3.9372e-08
1.17719e-08
-4.45709e-08
1.22808e-08
-4.99497e-08
1.27156e-08
-5.54784e-08
1.30773e-08
-6.11274e-08
1.33672e-08
-6.68674e-08
1.35867e-08
-7.26702e-08
1.37378e-08
-7.85079e-08
1.38224e-08
-8.43538e-08
1.38428e-08
-9.01818e-08
1.38011e-08
-9.5967e-08
1.36999e-08
-1.01685e-07
1.35415e-08
-1.07314e-07
1.33283e-08
-1.12831e-07
1.30629e-08
-1.18214e-07
1.27477e-08
-1.23446e-07
1.23854e-08
-1.28505e-07
1.19784e-08
-1.33375e-07
1.15292e-08
-1.38038e-07
1.10402e-08
-1.4248e-07
1.05139e-08
-1.46684e-07
9.95263e-09
-1.50638e-07
9.35882e-09
-1.54328e-07
8.73481e-09
-1.57742e-07
8.08291e-09
-1.60871e-07
7.40543e-09
-1.63703e-07
6.70465e-09
-1.6623e-07
5.98281e-09
-1.68443e-07
5.24215e-09
-1.70337e-07
4.4849e-09
-1.71905e-07
3.71328e-09
-1.73141e-07
2.92951e-09
-1.74041e-07
2.13584e-09
-1.74603e-07
1.33451e-09
-1.74824e-07
5.27796e-10
-1.74703e-07
-2.82013e-10
-1.74239e-07
-1.0926e-09
-1.73434e-07
-1.90161e-09
-1.72288e-07
-2.70667e-09
-1.70805e-07
-3.50533e-09
-1.68989e-07
-4.29511e-09
-1.66843e-07
-5.0735e-09
-1.64376e-07
-5.83793e-09
-1.61592e-07
-6.58581e-09
-1.58501e-07
-7.31447e-09
-1.55112e-07
-8.02124e-09
-1.51435e-07
-8.70335e-09
-1.47483e-07
-9.35803e-09
-1.43267e-07
-9.98244e-09
-1.38802e-07
-1.05737e-08
-1.34103e-07
-1.1129e-08
-1.29187e-07
-1.16454e-08
-1.24071e-07
-1.21199e-08
-1.18774e-07
-1.25497e-08
-1.13316e-07
-1.29319e-08
-1.07719e-07
-1.32636e-08
-1.02004e-07
-1.35419e-08
-9.61967e-08
-1.3764e-08
-9.032e-08
-1.39274e-08
-8.44003e-08
-1.40293e-08
-7.84641e-08
-1.40672e-08
-7.25392e-08
-1.40389e-08
-6.6654e-08
-1.39421e-08
-6.08379e-08
-1.37748e-08
-5.51208e-08
-1.35354e-08
-4.9533e-08
-1.32223e-08
-4.41054e-08
-1.28345e-08
-3.8869e-08
-1.23713e-08
-3.38546e-08
-1.18324e-08
-2.90929e-08
-1.12183e-08
-2.46137e-08
-1.05301e-08
-2.04458e-08
-9.76969e-09
-1.66165e-08
-8.9404e-09
-1.31508e-08
-8.04689e-09
-1.00706e-08
-7.09578e-09
-7.39384e-09
-6.09629e-09
-5.13304e-09
-5.06102e-09
-3.29375e-09
-4.00717e-09
-1.87241e-09
-2.95811e-09
-8.53767e-10
-1.94556e-09
-2.07801e-10
-1.01261e-09
1.14062e-10
-2.17495e-10
1.83078e-10
3.62304e-10
9.82927e-11
6.24927e-10
4.27853e-10
2.55562e-11
-4.36353e-10
-7.33226e-11
-4.8283e-10
-4.22304e-10
5.98706e-11
-1.114e-09
1.0105e-09
-2.21554e-09
2.23851e-09
-3.77252e-09
3.64302e-09
-5.81247e-09
5.14685e-09
-8.3481e-09
6.69208e-09
-1.138e-08
8.23551e-09
-1.48994e-08
9.74501e-09
-1.88897e-08
1.11968e-08
-2.33286e-08
1.25735e-08
-2.81894e-08
1.38624e-08
-3.3442e-08
1.50544e-08
-3.90537e-08
1.61434e-08
-4.49903e-08
1.71254e-08
-5.12164e-08
1.7998e-08
-5.7696e-08
1.87603e-08
-6.43928e-08
1.94124e-08
-7.12705e-08
1.99551e-08
-7.82934e-08
2.03901e-08
-8.54261e-08
2.07194e-08
-9.2634e-08
2.09456e-08
-9.98833e-08
2.10716e-08
-1.07141e-07
2.11005e-08
-1.14375e-07
2.10356e-08
-1.21556e-07
2.08803e-08
-1.28653e-07
2.06383e-08
-1.35638e-07
2.03132e-08
-1.42483e-07
1.99087e-08
-1.49164e-07
1.94285e-08
-1.55655e-07
1.88765e-08
-1.61933e-07
1.82565e-08
-1.67976e-07
1.7572e-08
-1.73763e-07
1.68269e-08
-1.79274e-07
1.60249e-08
-1.84491e-07
1.51695e-08
-1.89396e-07
1.42644e-08
-1.93975e-07
1.33132e-08
-1.98211e-07
1.23194e-08
-2.02093e-07
1.12866e-08
-2.05606e-07
1.02181e-08
-2.08741e-07
9.11744e-09
-2.11487e-07
7.98807e-09
-2.13835e-07
6.83339e-09
-2.15779e-07
5.6568e-09
-2.17311e-07
4.46172e-09
-2.18426e-07
3.25157e-09
-2.19122e-07
2.0298e-09
-2.19394e-07
7.99888e-10
-2.19241e-07
-4.34662e-10
-2.18664e-07
-1.6703e-09
-2.17662e-07
-2.90343e-09
-2.16238e-07
-4.13041e-09
-2.14396e-07
-5.34751e-09
-2.1214e-07
-6.55096e-09
-2.09477e-07
-7.73691e-09
-2.06413e-07
-8.90147e-09
-2.02958e-07
-1.00407e-08
-1.99122e-07
-1.11504e-08
-1.94917e-07
-1.22267e-08
-1.90355e-07
-1.32653e-08
-1.85451e-07
-1.42619e-08
-1.80221e-07
-1.52123e-08
-1.74683e-07
-1.61122e-08
-1.68855e-07
-1.69571e-08
-1.62757e-07
-1.77428e-08
-1.56412e-07
-1.84647e-08
-1.49843e-07
-1.91186e-08
-1.43075e-07
-1.97001e-08
-1.36134e-07
-2.02048e-08
-1.29047e-07
-2.06285e-08
-1.21844e-07
-2.0967e-08
-1.14555e-07
-2.12164e-08
-1.07212e-07
-2.13728e-08
-9.98467e-08
-2.14324e-08
-9.24935e-08
-2.1392e-08
-8.51874e-08
-2.12483e-08
-7.79638e-08
-2.09984e-08
-7.08592e-08
-2.064e-08
-6.39104e-08
-2.0171e-08
-5.71548e-08
-1.95901e-08
-5.06295e-08
-1.88966e-08
-4.43717e-08
-1.80903e-08
-3.84178e-08
-1.71722e-08
-3.28033e-08
-1.61445e-08
-2.75622e-08
-1.50107e-08
-2.27265e-08
-1.37762e-08
-1.8325e-08
-1.24483e-08
-1.43831e-08
-1.10377e-08
-1.09211e-08
-9.55828e-09
-7.95315e-09
-8.02902e-09
-5.48534e-09
-6.47498e-09
-3.51404e-09
-4.92941e-09
-2.02337e-09
-3.43622e-09
-9.8265e-10
-2.05334e-09
-3.43292e-10
-8.56865e-10
-3.55395e-11
5.45511e-11
3.56666e-11
5.53719e-10
4.63516e-10
-5.0909e-11
-3.85442e-10
-3.41734e-10
-1.92018e-10
-9.78832e-10
6.96973e-10
-2.04362e-09
2.07528e-09
-3.59633e-09
3.79121e-09
-5.67837e-09
5.72507e-09
-8.31474e-09
7.78323e-09
-1.15164e-08
9.89374e-09
-1.52825e-08
1.20016e-08
-1.96025e-08
1.4065e-08
-2.44578e-08
1.60522e-08
-2.98237e-08
1.79393e-08
-3.56701e-08
1.97088e-08
-4.19635e-08
2.13478e-08
-4.86673e-08
2.28471e-08
-5.57426e-08
2.42007e-08
-6.31494e-08
2.54048e-08
-7.08467e-08
2.64575e-08
-7.87928e-08
2.73585e-08
-8.69463e-08
2.81086e-08
-9.52658e-08
2.87096e-08
-1.03711e-07
2.91641e-08
-1.1224e-07
2.94754e-08
-1.20816e-07
2.96472e-08
-1.29399e-07
2.96836e-08
-1.37953e-07
2.95892e-08
-1.46441e-07
2.93685e-08
-1.54829e-07
2.90264e-08
-1.63084e-07
2.8568e-08
-1.71173e-07
2.79984e-08
-1.79068e-07
2.73227e-08
-1.86737e-07
2.65462e-08
-1.94155e-07
2.5674e-08
-2.01294e-07
2.47114e-08
-2.08131e-07
2.36635e-08
-2.14641e-07
2.25354e-08
-2.20804e-07
2.13324e-08
-2.26599e-07
2.00594e-08
-2.32007e-07
1.87215e-08
-2.37012e-07
1.73236e-08
-2.41596e-07
1.58707e-08
-2.45745e-07
1.43677e-08
-2.49447e-07
1.28194e-08
-2.5269e-07
1.12306e-08
-2.55463e-07
9.6063e-09
-2.57757e-07
7.95114e-09
-2.59565e-07
6.27001e-09
-2.60882e-07
4.56775e-09
-2.61701e-07
2.8492e-09
-2.6202e-07
1.1193e-09
-2.61838e-07
-6.17028e-10
-2.61154e-07
-2.35478e-09
-2.59968e-07
-4.08887e-09
-2.58284e-07
-5.81416e-09
-2.56107e-07
-7.52542e-09
-2.5344e-07
-9.21733e-09
-2.50293e-07
-1.08845e-08
-2.46673e-07
-1.25214e-08
-2.42591e-07
-1.41225e-08
-2.38059e-07
-1.56822e-08
-2.33091e-07
-1.71945e-08
-2.27703e-07
-1.86537e-08
-2.21911e-07
-2.00539e-08
-2.15734e-07
-2.1389e-08
-2.09193e-07
-2.26531e-08
-2.0231e-07
-2.38399e-08
-1.9511e-07
-2.49435e-08
-1.87617e-07
-2.59576e-08
-1.79859e-07
-2.68762e-08
-1.71866e-07
-2.76932e-08
-1.63668e-07
-2.84027e-08
-1.55298e-07
-2.89987e-08
-1.46789e-07
-2.94757e-08
-1.38177e-07
-2.98281e-08
-1.295e-07
-3.00506e-08
-1.20794e-07
-3.01381e-08
-1.121e-07
-3.00862e-08
-1.03458e-07
-2.98904e-08
-9.49088e-08
-2.95472e-08
-8.64955e-08
-2.90533e-08
-7.82602e-08
-2.84063e-08
-7.02458e-08
-2.76045e-08
-6.24952e-08
-2.66472e-08
-5.50507e-08
-2.55347e-08
-4.7954e-08
-2.42689e-08
-4.12453e-08
-2.28532e-08
-3.4963e-08
-2.1293e-08
-2.91431e-08
-1.95961e-08
-2.3818e-08
-1.77735e-08
-1.90158e-08
-1.58399e-08
-1.47593e-08
-1.38148e-08
-1.10643e-08
-1.17239e-08
-7.93864e-09
-9.6007e-09
-5.37969e-09
-7.48836e-09
-3.37305e-09
-5.44286e-09
-1.89017e-09
-3.53622e-09
-8.86137e-10
-1.8609e-09
-2.97365e-10
-5.34216e-10
-3.89866e-11
2.95335e-10
4.24533e-10
-1.32559e-10
-2.52883e-10
-6.32028e-10
3.07446e-10
-1.58227e-09
1.64722e-09
-3.04982e-09
3.54283e-09
-5.08473e-09
5.82612e-09
-7.72146e-09
8.36179e-09
-1.09802e-08
1.10419e-08
-1.48683e-08
1.37819e-08
-1.93822e-08
1.65155e-08
-2.45088e-08
1.91916e-08
-3.02271e-08
2.17704e-08
-3.65095e-08
2.42217e-08
-4.33232e-08
2.65225e-08
-5.06312e-08
2.86558e-08
-5.83933e-08
3.06092e-08
-6.65668e-08
3.23743e-08
-7.51075e-08
3.39456e-08
-8.397e-08
3.532e-08
-9.3108e-08
3.64965e-08
-1.02475e-07
3.74759e-08
-1.12026e-07
3.826e-08
-1.21714e-07
3.8852e-08
-1.31494e-07
3.92557e-08
-1.41322e-07
3.94757e-08
-1.51156e-07
3.95173e-08
-1.60953e-07
3.93861e-08
-1.70673e-07
3.90882e-08
-1.80276e-07
3.86297e-08
-1.89725e-07
3.80172e-08
-1.98984e-07
3.72573e-08
-2.08018e-07
3.63568e-08
-2.16794e-07
3.53225e-08
-2.25282e-07
3.41611e-08
-2.3345e-07
3.28796e-08
-2.41271e-07
3.14848e-08
-2.48719e-07
2.99835e-08
-2.55769e-07
2.83824e-08
-2.62398e-07
2.66882e-08
-2.68584e-07
2.49076e-08
-2.74308e-07
2.30473e-08
-2.79551e-07
2.11137e-08
-2.84296e-07
1.91134e-08
-2.8853e-07
1.70528e-08
-2.92238e-07
1.49384e-08
-2.95408e-07
1.27767e-08
-2.98031e-07
1.0574e-08
-3.00098e-07
8.33682e-09
-3.01602e-07
6.07157e-09
-3.02537e-07
3.78477e-09
-3.02901e-07
1.48294e-09
-3.0269e-07
-8.27317e-10
-3.01906e-07
-3.13932e-09
-3.00548e-07
-5.44632e-09
-2.98621e-07
-7.74146e-09
-2.96129e-07
-1.00178e-08
-2.93078e-07
-1.22682e-08
-2.89477e-07
-1.44856e-08
-2.85336e-07
-1.66625e-08
-2.80667e-07
-1.87917e-08
-2.75483e-07
-2.08656e-08
-2.69801e-07
-2.28765e-08
-2.63638e-07
-2.48166e-08
-2.57014e-07
-2.66781e-08
-2.4995e-07
-2.84531e-08
-2.4247e-07
-3.01336e-08
-2.34598e-07
-3.17115e-08
-2.26363e-07
-3.31787e-08
-2.17793e-07
-3.45273e-08
-2.0892e-07
-3.57491e-08
-1.99777e-07
-3.68363e-08
-1.90399e-07
-3.77809e-08
-1.80822e-07
-3.85755e-08
-1.71085e-07
-3.92125e-08
-1.61229e-07
-3.96847e-08
-1.51294e-07
-3.99854e-08
-1.41324e-07
-4.0108e-08
-1.31364e-07
-4.00467e-08
-1.21458e-07
-3.97961e-08
-1.11654e-07
-3.93515e-08
-1.01998e-07
-3.8709e-08
-9.25385e-08
-3.78657e-08
-8.33232e-08
-3.68198e-08
-7.43998e-08
-3.55706e-08
-6.58153e-08
-3.41192e-08
-5.76159e-08
-3.24684e-08
-4.9846e-08
-3.06231e-08
-4.25481e-08
-2.8591e-08
-3.57614e-08
-2.63827e-08
-2.95218e-08
-2.40131e-08
-2.38602e-08
-2.15014e-08
-1.8802e-08
-1.8873e-08
-1.43653e-08
-1.61606e-08
-1.05601e-08
-1.34059e-08
-7.38656e-09
-1.06619e-08
-4.83336e-09
-7.99606e-09
-2.87642e-09
-5.49316e-09
-1.47725e-09
-3.26006e-09
-5.81733e-10
-1.42974e-09
-1.18975e-10
-1.67424e-10
3.05564e-10
-2.15512e-10
-3.73662e-11
-9.31211e-10
1.02313e-09
-2.2079e-09
2.92391e-09
-4.09544e-09
5.43038e-09
-6.63168e-09
8.36235e-09
-9.84211e-09
1.15722e-08
-1.37403e-08
1.49401e-08
-1.83287e-08
1.83703e-08
-2.35996e-08
2.17865e-08
-2.95366e-08
2.51286e-08
-3.61156e-08
2.83494e-08
-4.3306e-08
3.14121e-08
-5.10719e-08
3.42884e-08
-5.93732e-08
3.69571e-08
-6.81662e-08
3.94023e-08
-7.74047e-08
4.16129e-08
-8.70407e-08
4.35815e-08
-9.70246e-08
4.53039e-08
-1.07306e-07
4.67783e-08
-1.17835e-07
4.80049e-08
-1.28561e-07
4.89858e-08
-1.39434e-07
4.97245e-08
-1.50404e-07
5.02255e-08
-1.61422e-07
5.04943e-08
-1.72442e-07
5.05372e-08
-1.83417e-07
5.03612e-08
-1.94303e-07
4.99735e-08
-2.05055e-07
4.93821e-08
-2.15633e-07
4.85949e-08
-2.25996e-07
4.76202e-08
-2.36105e-07
4.64666e-08
-2.45925e-07
4.51425e-08
-2.55421e-07
4.36566e-08
-2.64559e-07
4.20175e-08
-2.73308e-07
4.02338e-08
-2.81638e-07
3.83143e-08
-2.89524e-07
3.62674e-08
-2.96937e-07
3.41017e-08
-3.03855e-07
3.18257e-08
-3.10256e-07
2.94478e-08
-3.16118e-07
2.69763e-08
-3.21424e-07
2.44196e-08
-3.26158e-07
2.1786e-08
-3.30303e-07
1.90837e-08
-3.33847e-07
1.63209e-08
-3.36779e-07
1.35058e-08
-3.39089e-07
1.06468e-08
-3.40769e-07
7.75195e-09
-3.41814e-07
4.8297e-09
-3.4222e-07
1.88837e-09
-3.41983e-07
-1.06359e-09
-3.41105e-07
-4.01764e-09
-3.39586e-07
-6.96515e-09
-3.3743e-07
-9.89735e-09
-3.34643e-07
-1.28053e-08
-3.31231e-07
-1.56801e-08
-3.27204e-07
-1.85125e-08
-3.22573e-07
-2.12932e-08
-3.17352e-07
-2.40127e-08
-3.11556e-07
-2.66614e-08
-3.05203e-07
-2.92296e-08
-2.98312e-07
-3.17074e-08
-2.90906e-07
-3.40849e-08
-2.83007e-07
-3.63518e-08
-2.74642e-07
-3.84982e-08
-2.6584e-07
-4.05137e-08
-2.56631e-07
-4.23882e-08
-2.47046e-07
-4.41115e-08
-2.37122e-07
-4.56734e-08
-2.26894e-07
-4.7064e-08
-2.16402e-07
-4.82733e-08
-2.05686e-07
-4.92918e-08
-1.94788e-07
-5.01101e-08
-1.83753e-07
-5.07194e-08
-1.72628e-07
-5.1111e-08
-1.61459e-07
-5.1277e-08
-1.50295e-07
-5.12101e-08
-1.39188e-07
-5.09038e-08
-1.28187e-07
-5.03524e-08
-1.17345e-07
-4.95513e-08
-1.06713e-07
-4.84971e-08
-9.63449e-08
-4.7188e-08
-8.6292e-08
-4.56235e-08
-7.66057e-08
-4.38055e-08
-6.73361e-08
-4.17379e-08
-5.85317e-08
-3.94275e-08
-5.02384e-08
-3.68843e-08
-4.24991e-08
-3.41221e-08
-3.53525e-08
-3.11596e-08
-2.88328e-08
-2.80212e-08
-2.2968e-08
-2.47378e-08
-1.77793e-08
-2.13492e-08
-1.328e-08
-1.79052e-08
-9.47384e-09
-1.44681e-08
-6.35432e-09
-1.11156e-08
-3.90354e-09
-7.94393e-09
-2.09144e-09
-5.07216e-09
-8.75393e-10
-2.64579e-09
-2.0039e-10
-8.42424e-10
1.05171e-10
-2.97608e-10
2.60241e-10
-1.23115e-09
1.95667e-09
-2.83937e-09
4.53213e-09
-5.15497e-09
7.74598e-09
-8.2025e-09
1.14099e-08
-1.19972e-08
1.5367e-08
-1.65449e-08
1.94877e-08
-2.18415e-08
2.3667e-08
-2.78747e-08
2.78196e-08
-3.46235e-08
3.18775e-08
-4.20604e-08
3.57862e-08
-5.01512e-08
3.95029e-08
-5.88568e-08
4.29941e-08
-6.81338e-08
4.62341e-08
-7.79353e-08
4.92037e-08
-8.82115e-08
5.18891e-08
-9.89109e-08
5.42809e-08
-1.0998e-07
5.63734e-08
-1.21366e-07
5.81638e-08
-1.33013e-07
5.96522e-08
-1.44868e-07
6.08405e-08
-1.56876e-07
6.17325e-08
-1.68984e-07
6.23333e-08
-1.81139e-07
6.26495e-08
-1.9329e-07
6.26885e-08
-2.05387e-07
6.24583e-08
-2.17381e-07
6.19679e-08
-2.29226e-07
6.12266e-08
-2.40875e-07
6.02441e-08
-2.52286e-07
5.90306e-08
-2.63415e-07
5.75962e-08
-2.74224e-07
5.59515e-08
-2.84674e-07
5.41069e-08
-2.9473e-07
5.2073e-08
-3.04357e-07
4.98606e-08
-3.13522e-07
4.748e-08
-3.22197e-07
4.4942e-08
-3.30352e-07
4.22569e-08
-3.37962e-07
3.94354e-08
-3.45002e-07
3.64877e-08
-3.5145e-07
3.34243e-08
-3.57286e-07
3.02554e-08
-3.62491e-07
2.69913e-08
-3.67049e-07
2.36421e-08
-3.70947e-07
2.02182e-08
-3.7417e-07
1.67296e-08
-3.7671e-07
1.31866e-08
-3.78558e-07
9.59938e-09
-3.79706e-07
5.97833e-09
-3.80152e-07
2.33378e-09
-3.79891e-07
-1.32379e-09
-3.78925e-07
-4.98382e-09
-3.77255e-07
-8.63558e-09
-3.74884e-07
-1.22682e-08
-3.71819e-07
-1.58708e-08
-3.68067e-07
-1.9432e-08
-3.63638e-07
-2.29407e-08
-3.58546e-07
-2.63852e-08
-3.52805e-07
-2.97538e-08
-3.46432e-07
-3.30348e-08
-3.39446e-07
-3.6216e-08
-3.31868e-07
-3.92853e-08
-3.23722e-07
-4.22304e-08
-3.15035e-07
-4.50389e-08
-3.05835e-07
-4.76982e-08
-2.96153e-07
-5.01959e-08
-2.86022e-07
-5.25193e-08
-2.75477e-07
-5.4656e-08
-2.64557e-07
-5.65936e-08
-2.53301e-07
-5.83197e-08
-2.41752e-07
-5.98224e-08
-2.29954e-07
-6.109e-08
-2.17953e-07
-6.21111e-08
-2.05797e-07
-6.28749e-08
-1.93537e-07
-6.3371e-08
-1.81225e-07
-6.35899e-08
-1.68912e-07
-6.35228e-08
-1.56654e-07
-6.3162e-08
-1.44505e-07
-6.25008e-08
-1.32523e-07
-6.15339e-08
-1.20762e-07
-6.02575e-08
-1.09281e-07
-5.86697e-08
-9.81336e-08
-5.67706e-08
-8.73765e-08
-5.45626e-08
-7.70632e-08
-5.20512e-08
-6.72458e-08
-4.92449e-08
-5.79737e-08
-4.61564e-08
-4.92931e-08
-4.28027e-08
-4.12461e-08
-3.92067e-08
-3.387e-08
-3.53973e-08
-2.71962e-08
-3.14116e-08
-2.12495e-08
-2.72959e-08
-1.60472e-08
-2.31076e-08
-1.15978e-08
-1.89175e-08
-7.90072e-09
-1.48126e-08
-4.94561e-09
-1.0899e-08
-2.71207e-09
-7.30571e-09
-1.17007e-09
-4.18779e-09
-2.81012e-10
-1.73148e-09
-1.75848e-10
-3.77695e-10
6.37938e-10
-1.52697e-09
3.10595e-09
-3.46622e-09
6.47137e-09
-6.21137e-09
1.04911e-08
-9.77338e-09
1.49719e-08
-1.41566e-08
1.97502e-08
-1.93578e-08
2.4689e-08
-2.53662e-08
2.96754e-08
-3.21633e-08
3.46167e-08
-3.97234e-08
3.94376e-08
-4.80145e-08
4.40773e-08
-5.69988e-08
4.84871e-08
-6.66334e-08
5.26287e-08
-7.68716e-08
5.64722e-08
-8.76629e-08
5.99951e-08
-9.89545e-08
6.31806e-08
-1.10691e-07
6.60175e-08
-1.22816e-07
6.84985e-08
-1.35273e-07
7.06201e-08
-1.48002e-07
7.23816e-08
-1.60947e-07
7.3785e-08
-1.74049e-07
7.48345e-08
-1.87251e-07
7.55358e-08
-2.00498e-07
7.58963e-08
-2.13734e-07
7.59245e-08
-2.26905e-07
7.56299e-08
-2.3996e-07
7.50229e-08
-2.52848e-07
7.41145e-08
-2.6552e-07
7.29161e-08
-2.77929e-07
7.14398e-08
-2.90031e-07
6.96976e-08
-3.01781e-07
6.77021e-08
-3.1314e-07
6.54658e-08
-3.24069e-07
6.30014e-08
-3.3453e-07
6.03216e-08
-3.44489e-07
5.7439e-08
-3.53913e-07
5.43664e-08
-3.62773e-07
5.11164e-08
-3.71039e-07
4.77016e-08
-3.78686e-07
4.41346e-08
-3.85689e-07
4.04278e-08
-3.92027e-07
3.65937e-08
-3.97681e-07
3.26445e-08
-4.02631e-07
2.85928e-08
-4.06864e-07
2.44507e-08
-4.10365e-07
2.02306e-08
-4.13123e-07
1.59448e-08
-4.15129e-07
1.16058e-08
-4.16377e-07
7.226e-09
-4.16861e-07
2.81793e-09
-4.16579e-07
-1.60575e-09
-4.15531e-07
-6.03225e-09
-4.13718e-07
-1.04486e-08
-4.11144e-07
-1.48418e-08
-4.07817e-07
-1.91984e-08
-4.03744e-07
-2.35051e-08
-3.98936e-07
-2.7748e-08
-3.93408e-07
-3.19134e-08
-3.87175e-07
-3.59871e-08
-3.80255e-07
-3.99548e-08
-3.72669e-07
-4.38021e-08
-3.6444e-07
-4.75142e-08
-3.55594e-07
-5.10764e-08
-3.46159e-07
-5.44738e-08
-3.36166e-07
-5.76912e-08
-3.25648e-07
-6.07137e-08
-3.14641e-07
-6.35263e-08
-3.03183e-07
-6.61139e-08
-2.91315e-07
-6.84616e-08
-2.7908e-07
-7.05549e-08
-2.66523e-07
-7.23794e-08
-2.53692e-07
-7.39211e-08
-2.40636e-07
-7.51665e-08
-2.27408e-07
-7.61028e-08
-2.14062e-07
-7.67179e-08
-2.00651e-07
-7.70003e-08
-1.87234e-07
-7.69399e-08
-1.73868e-07
-7.65277e-08
-1.60613e-07
-7.57559e-08
-1.47528e-07
-7.46186e-08
-1.34674e-07
-7.31116e-08
-1.22111e-07
-7.12329e-08
-1.09899e-07
-6.89831e-08
-9.80956e-08
-6.63655e-08
-8.67599e-08
-6.33869e-08
-7.59468e-08
-6.0058e-08
-6.57092e-08
-5.63939e-08
-5.60969e-08
-5.24151e-08
-4.71553e-08
-4.81483e-08
-3.89253e-08
-4.36273e-08
-3.14422e-08
-3.88947e-08
-2.47349e-08
-3.40032e-08
-1.88253e-08
-2.90171e-08
-1.37278e-08
-2.4015e-08
-9.44849e-09
-1.90919e-08
-5.98539e-09
-1.43622e-08
-3.32851e-09
-9.9626e-09
-1.46077e-09
-6.05553e-09
-3.59637e-10
-2.83262e-09
-5.35483e-10
-4.55175e-10
1.09311e-09
-1.81587e-09
4.46665e-09
-4.08206e-09
8.73756e-09
-7.2538e-09
1.36629e-08
-1.13286e-08
1.90467e-08
-1.62996e-08
2.47212e-08
-2.21544e-08
3.05438e-08
-2.88743e-08
3.63952e-08
-3.64343e-08
4.21767e-08
-4.48033e-08
4.78066e-08
-5.39443e-08
5.32184e-08
-6.38154e-08
5.83582e-08
-7.43697e-08
6.31831e-08
-8.55569e-08
6.76594e-08
-9.73229e-08
7.17611e-08
-1.09611e-07
7.54692e-08
-1.22364e-07
7.87701e-08
-1.35521e-07
8.16552e-08
-1.49021e-07
8.412e-08
-1.62802e-07
8.61635e-08
-1.76805e-07
8.77875e-08
-1.90967e-07
8.89964e-08
-2.05228e-07
8.97968e-08
-2.19528e-07
9.01968e-08
-2.3381e-07
9.02062e-08
-2.48016e-07
8.98358e-08
-2.62091e-07
8.90977e-08
-2.75981e-07
8.80044e-08
-2.89634e-07
8.65693e-08
-3.03001e-07
8.48064e-08
-3.16033e-07
8.27297e-08
-3.28684e-07
8.03539e-08
-3.40912e-07
7.76937e-08
-3.52675e-07
7.47639e-08
-3.63933e-07
7.15795e-08
-3.74649e-07
6.81554e-08
-3.84789e-07
6.45065e-08
-3.94321e-07
6.06478e-08
-4.03213e-07
5.65941e-08
-4.11439e-07
5.23603e-08
-4.18972e-07
4.7961e-08
-4.2579e-07
4.3411e-08
-4.3187e-07
3.8725e-08
-4.37195e-07
3.39174e-08
-4.41747e-07
2.9003e-08
-4.45513e-07
2.39963e-08
-4.4848e-07
1.8912e-08
-4.50639e-07
1.37646e-08
-4.51982e-07
8.56906e-09
-4.52504e-07
3.34015e-09
-4.52203e-07
-1.90714e-09
-4.51077e-07
-7.15764e-09
-4.4913e-07
-1.2396e-08
-4.46365e-07
-1.76068e-08
-4.42789e-07
-2.27742e-08
-4.38412e-07
-2.78824e-08
-4.33245e-07
-3.2915e-08
-4.27303e-07
-3.78557e-08
-4.20602e-07
-4.26878e-08
-4.13162e-07
-4.73944e-08
-4.05006e-07
-5.19585e-08
-3.96157e-07
-5.63626e-08
-3.86644e-07
-6.05894e-08
-3.76497e-07
-6.46212e-08
-3.65748e-07
-6.84404e-08
-3.54433e-07
-7.20291e-08
-3.42589e-07
-7.53698e-08
-3.30258e-07
-7.84448e-08
-3.17483e-07
-8.12366e-08
-3.0431e-07
-8.37281e-08
-2.90787e-07
-8.59025e-08
-2.76964e-07
-8.77435e-08
-2.62896e-07
-8.92352e-08
-2.48636e-07
-9.03628e-08
-2.34242e-07
-9.1112e-08
-2.19772e-07
-9.14699e-08
-2.05287e-07
-9.14246e-08
-1.90849e-07
-9.09658e-08
-1.76521e-07
-9.00847e-08
-1.62365e-07
-8.87746e-08
-1.48445e-07
-8.7031e-08
-1.34826e-07
-8.48519e-08
-1.21571e-07
-8.22382e-08
-1.08742e-07
-7.91943e-08
-9.64009e-08
-7.57284e-08
-8.46058e-08
-7.18531e-08
-7.34136e-08
-6.75861e-08
-6.28775e-08
-6.29513e-08
-5.30466e-08
-5.79791e-08
-4.39659e-08
-5.2708e-08
-3.56748e-08
-4.71859e-08
-2.82069e-08
-4.1471e-08
-2.15896e-08
-3.56344e-08
-1.58434e-08
-2.97613e-08
-1.09818e-08
-2.39534e-08
-7.01193e-09
-1.83321e-08
-3.93429e-09
-1.30402e-08
-1.74465e-09
-8.24517e-09
-4.35654e-10
-4.14161e-09
-9.7113e-10
-5.29791e-10
1.6229e-09
-2.09642e-09
6.03329e-09
-4.68331e-09
1.13245e-08
-8.27582e-09
1.72554e-08
-1.28585e-08
2.36294e-08
-1.84134e-08
3.02761e-08
-2.49185e-08
3.70488e-08
-3.23469e-08
4.38237e-08
-4.06667e-08
5.04965e-08
-4.98409e-08
5.69807e-08
-5.98271e-08
6.32046e-08
-7.05786e-08
6.91097e-08
-8.20446e-08
7.46491e-08
-9.41705e-08
7.97853e-08
-1.06899e-07
8.44894e-08
-1.2017e-07
8.87399e-08
-1.33921e-07
9.25214e-08
-1.48089e-07
9.58238e-08
-1.62611e-07
9.86417e-08
-1.77421e-07
1.00974e-07
-1.92455e-07
1.02822e-07
-2.07649e-07
1.0419e-07
-2.22939e-07
1.05087e-07
-2.38262e-07
1.0552e-07
-2.53557e-07
1.05501e-07
-2.68764e-07
1.05043e-07
-2.83825e-07
1.04158e-07
-2.98682e-07
1.02862e-07
-3.13282e-07
1.01169e-07
-3.27571e-07
9.90955e-08
-3.41499e-07
9.66578e-08
-3.55018e-07
9.38726e-08
-3.68081e-07
9.07569e-08
-3.80645e-07
8.73278e-08
-3.92668e-07
8.36026e-08
-4.04111e-07
7.95986e-08
-4.14938e-07
7.53331e-08
-4.25113e-07
7.08235e-08
-4.34606e-07
6.6087e-08
-4.43387e-07
6.11408e-08
-4.51428e-07
5.6002e-08
-4.58704e-07
5.06877e-08
-4.65194e-07
4.5215e-08
-4.70878e-07
3.96009e-08
-4.75737e-07
3.38624e-08
-4.79757e-07
2.80164e-08
-4.82925e-07
2.20801e-08
-4.85231e-07
1.60705e-08
-4.86667e-07
1.00048e-08
-4.87227e-07
3.90029e-09
-4.86909e-07
-2.22548e-09
-4.85711e-07
-8.35491e-09
-4.83637e-07
-1.44701e-08
-4.80691e-07
-2.05531e-08
-4.7688e-07
-2.65856e-08
-4.72213e-07
-3.25488e-08
-4.66704e-07
-3.84241e-08
-4.60367e-07