/*--------------------------------*- C++ -*----------------------------------*\
| =========                 |                                                 |
| \\      /  F ield         | OpenFOAM: The Open Source CFD Toolbox           |
|  \\    /   O peration     | Version:  2212                                  |
|   \\  /    A nd           | Website:  www.openfoam.com                      |
|    \\/     M anipulation  |                                                 |
\*---------------------------------------------------------------------------*/
FoamFile
{
    version     2.0;
    format      ascii;
    arch        "LSB;label=32;scalar=64";
    class       volScalarField;
    location    "0.0885";
    object      p;
}
// * * * * * * * * * * * * * * * * * * * * * * * * * * * * * * * * * * * * * //

dimensions      [0 2 -2 0 0 0 0];

internalField   nonuniform List<scalar> 
10000
(
-2.79413e-08
9.33143e-05
-0.000126821
-0.000704734
-0.00159178
-0.0027326
-0.00407103
-0.00555336
-0.00713093
-0.00876062
-0.0104046
-0.0120299
-0.0136077
-0.0151132
-0.0165248
-0.0178239
-0.0189947
-0.0200237
-0.0208994
-0.0216125
-0.0221554
-0.0225219
-0.0227074
-0.0227088
-0.0225239
-0.0221518
-0.0215925
-0.0208472
-0.0199177
-0.0188067
-0.0175177
-0.0160549
-0.0144232
-0.012628
-0.0106753
-0.00857178
-0.00632434
-0.0039405
-0.0014281
0.00120454
0.00394878
0.00679563
0.00973566
0.0127593
0.0158565
0.0190172
0.022231
0.0254873
0.0287752
0.032084
0.0354024
0.0387194
0.0420238
0.0453044
0.0485499
0.0517491
0.0548908
0.0579641
0.0609578
0.0638613
0.0666639
0.0693555
0.0719263
0.0743666
0.0766674
0.07882
0.0808163
0.0826486
0.0843099
0.085794
0.0870954
0.0882095
0.0891323
0.089861
0.0903939
0.09073
0.0908697
0.0908147
0.090568
0.090134
0.0895185
0.0887292
0.0877751
0.0866675
0.0854193
0.0840458
0.0825648
0.0809967
0.0793644
0.0776944
0.0760165
0.0743646
0.072777
0.0712966
0.0699714
0.0688535
0.0679959
0.0674493
0.0672558
0.0673639
-9.26846e-05
1.04253e-06
-0.000212568
-0.00072864
-0.00149718
-0.00247939
-0.00363405
-0.00491865
-0.00629281
-0.0077195
-0.00916528
-0.0106002
-0.0119979
-0.0133348
-0.0145906
-0.0157474
-0.01679
-0.0177049
-0.0184811
-0.0191089
-0.0195807
-0.0198903
-0.0200329
-0.0200048
-0.0198036
-0.0194282
-0.0188782
-0.0181542
-0.0172577
-0.0161909
-0.014957
-0.0135595
-0.0120031
-0.0102926
-0.00843364
-0.00643227
-0.00429498
-0.00202877
0.000359005
0.00286052
0.00546763
0.00817183
0.0109642
0.0138357
0.0167769
0.0197781
0.0228295
0.025921
0.0290424
0.0321832
0.0353332
0.0384815
0.0416177
0.0447311
0.0478111
0.0508471
0.0538284
0.0567446
0.0595854
0.0623406
0.0650002
0.0675548
0.069995
0.072312
0.0744972
0.0765426
0.0784406
0.0801843
0.0817671
0.0831833
0.0844281
0.0854973
0.0863876
0.0870964
0.0876225
0.0879653
0.0881257
0.0881055
0.0879079
0.0875376
0.0870007
0.0863045
0.0854583
0.084473
0.0833613
0.0821379
0.08082
0.0794268
0.0779802
0.0765046
0.0750274
0.0735794
0.0721941
0.0709084
0.069762
0.0687959
0.0680487
0.0675559
0.0673633
0.0674719
0.000127602
0.000215951
2.53354e-06
-0.000481855
-0.00118309
-0.00206892
-0.00310599
-0.00425885
-0.00549308
-0.00677648
-0.00807939
-0.00937479
-0.0106384
-0.0118485
-0.0129859
-0.0140337
-0.0149771
-0.0158035
-0.0165017
-0.0170627
-0.0174785
-0.0177431
-0.0178514
-0.0177999
-0.0175858
-0.0172078
-0.0166652
-0.0159585
-0.0150887
-0.0140578
-0.0128685
-0.0115242
-0.010029
-0.00838751
-0.00660488
-0.00468682
-0.00263941
-0.000469229
0.00181675
0.00421113
0.00670614
0.00929371
0.0119654
0.0147125
0.017526
0.0203968
0.0233154
0.0262722
0.0292575
0.0322612
0.0352735
0.0382841
0.0412831
0.0442601
0.0472052
0.0501081
0.0529588
0.0557472
0.0584636
0.0610983
0.0636418
0.0660852
0.0684196
0.0706367
0.0727284
0.0746871
0.0765057
0.0781778
0.0796972
0.0810588
0.082258
0.0832912
0.0841552
0.084848
0.0853685
0.0857165
0.085893
0.0859
0.0857411
0.0854208
0.0849451
0.0843215
0.0835588
0.0826678
0.0816607
0.0805518
0.0793572
0.0780951
0.076786
0.0754526
0.0741199
0.0728156
0.0715696
0.070414
0.0693825
0.0685093
0.0678258
0.0673619
0.0671701
0.0672794
0.000705048
0.000733455
0.000488294
3.04262e-06
-0.000672313
-0.00150857
-0.00247666
-0.00354608
-0.00468692
-0.00587087
-0.00707156
-0.00826468
-0.00942811
-0.0105419
-0.0115882
-0.012551
-0.0134166
-0.0141727
-0.0148088
-0.015316
-0.0156867
-0.0159148
-0.0159955
-0.015925
-0.0157006
-0.0153208
-0.0147848
-0.0140928
-0.0132457
-0.0122452
-0.0110938
-0.00979463
-0.00835141
-0.0067685
-0.00505075
-0.00320351
-0.00123257
0.000855868
0.00305516
0.00535826
0.00775777
0.0102459
0.0128147
0.0154558
0.0181605
0.0209201
0.0237256
0.0265676
0.0294369
0.0323239
0.035219
0.0381125
0.0409947
0.043856
0.0466864
0.0494764
0.0522163
0.0548965
0.0575075
0.0600402
0.0624857
0.0648351
0.0670802
0.069213
0.0712259
0.0731117
0.0748636
0.0764755
0.0779418
0.0792575
0.0804185
0.0814213
0.0822632
0.0829424
0.0834578
0.0838096
0.0839988
0.0840276
0.0838995
0.0836191
0.0831923
0.0826262
0.0819296
0.0811126
0.080187
0.0791664
0.0780661
0.0769031
0.0756964
0.0744667
0.0732372
0.0720326
0.0708798
0.0698069
0.0688432
0.0680184
0.0673603
0.0668964
0.0666769
0.0667354
0.00159259
0.00150508
0.00119217
0.000678018
1.47838e-07
-0.000815353
-0.00174298
-0.00275647
-0.00383006
-0.004939
-0.00605999
-0.0071713
-0.008253
-0.00928692
-0.0102566
-0.0111475
-0.0119463
-0.0126418
-0.0132239
-0.0136842
-0.0140154
-0.0142116
-0.014268
-0.0141811
-0.013948
-0.0135671
-0.0130377
-0.0123596
-0.0115338
-0.0105617
-0.00944563
-0.00818841
-0.00679357
-0.00526517
-0.00360778
-0.00182644
7.33577e-05
0.0020857
0.0042043
0.0064224
0.00873296
0.0111286
0.0136015
0.0161438
0.0187472
0.0214033
0.0241033
0.0268386
0.0296
0.0323783
0.0351645
0.0379492
0.040723
0.0434767
0.0462008
0.0488861
0.0515233
0.0541031
0.0566166
0.059055
0.0614097
0.0636723
0.0658351
0.0678902
0.0698304
0.0716489
0.0733394
0.0748959
0.0763132
0.0775867
0.0787124
0.0796872
0.0805086
0.0811747
0.081685
0.0820395
0.0822395
0.0822871
0.0821858
0.08194
0.0815554
0.0810391
0.0803992
0.0796456
0.0787893
0.0778433
0.0768217
0.0757403
0.0746166
0.0734698
0.0723204
0.0711911
0.0701054
0.069088
0.0681645
0.0673606
0.0667009
0.0662103
0.0659284
0.0658807
0.00273812
0.00249448
0.00208397
0.00151583
0.000810272
-9.86187e-06
-0.000922186
-0.00190431
-0.00293415
-0.00399029
-0.0050523
-0.00610096
-0.00711839
-0.0080882
-0.00899545
-0.0098267
-0.0105699
-0.0112143
-0.0117507
-0.0121711
-0.0124685
-0.0126374
-0.0126732
-0.0125724
-0.0123323
-0.0119513
-0.0114284
-0.0107637
-0.00995784
-0.00901218
-0.0079288
-0.00671039
-0.00536024
-0.00388217
-0.00228052
-0.000560024
0.0012741
0.0032162
0.00526028
0.0073999
0.00962831
0.0119384
0.0143228
0.0167739
0.0192838
0.0218443
0.0244471
0.0270838
0.0297457
0.0324239
0.0351097
0.0377941
0.0404682
0.0431229
0.0457492
0.0483383
0.0508811
0.0533688
0.0557929
0.0581448
0.0604164
0.0625996
0.064687
0.066671
0.0685449
0.0703019
0.0719362
0.0734422
0.0748148
0.0760497
0.0771432
0.0780922
0.0788945
0.0795484
0.0800533
0.0804094
0.080618
0.0806813
0.0806026
0.0803861
0.0800373
0.0795628
0.0789706
0.0782698
0.0774711
0.0765861
0.0756281
0.0746118
0.0735531
0.0724692
0.0713791
0.0703025
0.0692604
0.0682744
0.0673664
0.0665587
0.0658731
0.0653316
0.0649577
0.0647633
0.00408981
0.00366392
0.00313312
0.00248984
0.00173483
0.000887766
-3.16067e-05
-0.0010045
-0.00201213
-0.00303602
-0.00405842
-0.00506245
-0.00603228
-0.00695321
-0.00781178
-0.00859577
-0.00929417
-0.00989717
-0.0103961
-0.0107836
-0.0110531
-0.0111995
-0.0112185
-0.0111065
-0.0108612
-0.0104809
-0.00996485
-0.00931284
-0.00852556
-0.0076043
-0.00655096
-0.0053681
-0.00405882
-0.00262673
-0.00107594
0.00058903
0.00236322
0.00424122
0.00621731
0.00828532
0.0104388
0.0126709
0.0149745
0.0173425
0.019767
0.0222404
0.0247546
0.0273015
0.0298727
0.0324598
0.0350543
0.0376475
0.0402308
0.0427956
0.0453332
0.0478349
0.0502921
0.0526964
0.0550395
0.0573132
0.0595097
0.0616212
0.0636405
0.0655604
0.0673744
0.0690762
0.0706599
0.0721204
0.0734527
0.0746528
0.075717
0.0766426
0.0774273
0.0780695
0.0785688
0.0789255
0.0791407
0.0792166
0.0791562
0.0789636
0.078644
0.0782036
0.07765
0.0769917
0.0762385
0.0754014
0.0744925
0.0735253
0.0725142
0.0714748
0.0704241
0.0693795
0.0683594
0.0673827
0.0664683
0.0656348
0.0649019
0.0642886
0.0638001
0.0634325
0.00559876
0.00497483
0.00430756
0.00357242
0.00275016
0.00185765
0.0009124
-7.00578e-05
-0.00107396
-0.00208351
-0.00308335
-0.0040588
-0.00499594
-0.00588173
-0.00670415
-0.00745215
-0.00811581
-0.0086862
-0.00915542
-0.00951658
-0.00976384
-0.00989226
-0.00989784
-0.00977744
-0.00952873
-0.00915017
-0.00864102
-0.00800119
-0.00723126
-0.0063325
-0.00530674
-0.00415636
-0.00288433
-0.00149409
1.04436e-05
0.00162493
0.00334464
0.00516444
0.00707877
0.00908171
0.0111671
0.0133284
0.0155587
0.0178511
0.0201982
0.0225925
0.0250264
0.0274919
0.0299809
0.0324855
0.0349973
0.037508
0.0400093
0.0424928
0.0449503
0.0473732
0.0497532
0.0520824
0.0543526
0.056556
0.0586849
0.060732
0.0626902
0.0645528
0.0663131
0.0679653
0.0695038
0.0709235
0.0722197
0.0733885
0.0744265
0.0753308
0.0760993
0.0767306
0.0772241
0.0775803
0.0778001
0.0778855
0.0778395
0.0776658
0.0773692
0.0769558
0.0764323
0.0758069
0.0750885
0.0742872
0.0734142
0.0724816
0.0715027
0.0704913
0.0694625
0.0684318
0.0674151
0.0664288
0.065489
0.0646115
0.0638136
0.0631119
0.0624925
0.061935
0.00722144
0.00639097
0.00557638
0.00473677
0.0038332
0.00288021
0.00189348
0.000885624
-0.000130297
-0.0011409
-0.00213303
-0.00309399
-0.00401165
-0.00487457
-0.00567208
-0.00639436
-0.00703246
-0.00757839
-0.00802499
-0.00836599
-0.00859608
-0.00871077
-0.00870636
-0.00857999
-0.00832957
-0.00795369
-0.00745166
-0.0068235
-0.0060698
-0.00519179
-0.00419123
-0.00307043
-0.00183222
-0.000479926
0.000982706
0.00255155
0.00422202
0.00598915
0.00784766
0.00979183
0.0118157
0.013913
0.0160771
0.0183013
0.0205785
0.0229015
0.0252629
0.027655
0.0300701
0.0325003
0.0349377
0.0373743
0.0398019
0.0422125
0.044598
0.0469502
0.0492612
0.0515231
0.0537282
0.0558688
0.0579375
0.0599272
0.061831
0.0636425
0.0653552
0.0669633
0.0684615
0.069845
0.0711091
0.0722501
0.0732645
0.0741496
0.0749033
0.0755243
0.0760121
0.0763668
0.0765894
0.0766817
0.0766463
0.0764868
0.0762077
0.0758145
0.0753136
0.0747123
0.0740188
0.0732425
0.0723935
0.0714828
0.0705222
0.0695242
0.0685021
0.0674695
0.0664402
0.0654284
0.0644475
0.0635108
0.0626337
0.0618309
0.0610693
0.0603129
0.00892014
0.00787962
0.00691097
0.00595776
0.00496201
0.00393647
0.00289539
0.0018489
0.000807618
-0.000217265
-0.00121456
-0.0021734
-0.00308329
-0.00393429
-0.004717
-0.00542278
-0.0060437
-0.00657259
-0.00700311
-0.00732963
-0.00754733
-0.00765219
-0.00764092
-0.00751094
-0.00726035
-0.00688798
-0.00639327
-0.00577632
-0.00503775
-0.00417878
-0.00320116
-0.00210714
-0.00089948
0.000418659
0.00184363
0.00337145
0.00499768
0.00671756
0.00852597
0.0104174
0.0123861
0.0144261
0.0165308
0.018694
0.0209086
0.0231678
0.0254643
0.0277908
0.0301398
0.0325036
0.0348746
0.037245
0.039607
0.0419527
0.0442742
0.0465637
0.0488134
0.0510157
0.0531631
0.0552481
0.0572636
0.0592027
0.0610587
0.0628251
0.0644959
0.0660653
0.0675282
0.0688798
0.0701158
0.0712322
0.0722257
0.0730937
0.0738342
0.0744456
0.0749275
0.0752799
0.0755037
0.0756004
0.0755723
0.0754229
0.0751562
0.0747771
0.0742917
0.0737065
0.0730291
0.072268
0.0714322
0.0705319
0.0695775
0.0685802
0.0675514
0.0665032
0.0654476
0.0643967
0.0633618
0.0623535
0.0613862
0.0604728
0.0595619
0.0586024
0.0106623
0.00941153
0.00828507
0.00721186
0.00611577
0.00500821
0.00390239
0.00280624
0.00172832
0.000677865
-0.000335711
-0.00130319
-0.00221558
-0.00306432
-0.00384126
-0.00453881
-0.00515006
-0.00566869
-0.00608905
-0.0064062
-0.0066159
-0.00671457
-0.00669927
-0.00656778
-0.00631849
-0.00595039
-0.00546311
-0.00485684
-0.00413228
-0.00329071
-0.00233384
-0.0012639
-8.35673e-05
0.00120406
0.00259545
0.00408671
0.00567359
0.00735145
0.00911532
0.0109599
0.0128796
0.0148686
0.0169207
0.0190296
0.0211887
0.0233913
0.0256304
0.0278988
0.0301893
0.0324945
0.0348069
0.037119
0.039423
0.0417115
0.0439768
0.0462112
0.0484072
0.0505573
0.0526543
0.0546908
0.05666
0.058555
0.0603693
0.0620967
0.063731
0.0652669
0.0666993
0.0680234
0.0692349
0.07033
0.0713054
0.0721585
0.0728871
0.0734898
0.073966
0.0743155
0.074539
0.0746378
0.0746142
0.074471
0.0742119
0.0738416
0.0733654
0.0727891
0.0721198
0.0713651
0.0705332
0.0696331
0.0686741
0.0676661
0.0666191
0.0655436
0.0644501
0.0633487
0.0622489
0.0611594
0.0600934
0.0590626
0.0579983
0.056835
0.0124199
0.0109608
0.00967494
0.00847744
0.00727504
0.00607814
0.00489924
0.00374442
0.00262043
0.00153486
0.000495495
-0.000489924
-0.00141379
-0.00226875
-0.00304787
-0.0037446
-0.00435287
-0.00486725
-0.00528282
-0.00559528
-0.00580089
-0.00589658
-0.00587984
-0.00574875
-0.005502
-0.00513882
-0.00465898
-0.00406282
-0.00335118
-0.00252534
-0.00158705
-0.000538519
0.000617587
0.00187824
0.00324001
0.00469909
0.00625133
0.00789221
0.00961695
0.0114203
0.013297
0.0152413
0.0172471
0.0193085
0.0214191
0.0235721
0.0257609
0.0279785
0.0302179
0.032472
0.0347333
0.0369946
0.0392484
0.0414872
0.0437038
0.0458906
0.0480401
0.0501452
0.0521988
0.0541937
0.0561232
0.0579805
0.0597592
0.0614532
0.0630567
0.0645642
0.0659707
0.0672715
0.0684623
0.0695393
0.0704993
0.0713396
0.0720579
0.0726529
0.0731235
0.0734697
0.0736918
0.073791
0.0737691
0.0736288
0.0733734
0.0730069
0.0725341
0.0719605
0.0712922
0.0705361
0.0696997
0.0687908
0.0678178
0.0667891
0.0657139
0.0646012
0.0634599
0.0622987
0.0611253
0.0599467
0.0587756
0.0576228
0.0564031
0.0550374
0.0141687
0.0125044
0.0110592
0.0097348
0.00842175
0.00712993
0.00587138
0.00465061
0.00347278
0.00234403
0.00127078
0.000259466
-0.000683627
-0.00155228
-0.00234055
-0.00304288
-0.00365415
-0.00416965
-0.00458519
-0.00489707
-0.00510212
-0.00519771
-0.00518179
-0.00505277
-0.0048096
-0.00445179
-0.00397932
-0.00339268
-0.00269277
-0.00188098
-0.000959126
7.05915e-05
0.00120555
0.00244274
0.00377876
0.00520989
0.0067321
0.00834098
0.0100318
0.0117996
0.013639
0.0155446
0.0175106
0.0195309
0.0215995
0.0237098
0.0258553
0.0280293
0.0302249
0.032435
0.0346526
0.0368705
0.0390814
0.041278
0.0434531
0.0455994
0.0477097
0.0497768
0.0517939
0.0537539
0.0556501
0.0574759
0.059225
0.0608914
0.0624693
0.0639533
0.0653385
0.0666202
0.0677941
0.0688563
0.0698037
0.0706334
0.0713432
0.0719314
0.0723969
0.0727395
0.0729594
0.0730574
0.0730351
0.0728948
0.0726394
0.0722724
0.0717981
0.0712215
0.070548
0.0697837
0.0689353
0.0680098
0.0670144
0.0659568
0.0648448
0.0636862
0.0624889
0.0612601
0.0600061
0.0587324
0.0574515
0.0561738
0.0547981
0.0532328
0.0158879
0.0140222
0.0124185
0.0109658
0.00953922
0.0081483
0.00680494
0.00551232
0.00427427
0.0030957
0.00198174
0.000937678
-3.12601e-05
-0.000919975
-0.00172349
-0.00243713
-0.00305659
-0.00357793
-0.0039976
-0.00431252
-0.00452009
-0.00461813
-0.00460495
-0.00447936
-0.00424064
-0.00388853
-0.0034232
-0.00284531
-0.00215592
-0.00135651
-0.000448905
0.000564639
0.00168147
0.00289859
0.00421267
0.00562007
0.00711677
0.00869845
0.0103605
0.012098
0.0139059
0.0157788
0.017711
0.0196967
0.0217298
0.0238041
0.0259132
0.0280505
0.0302092
0.0323826
0.0345636
0.0367452
0.0389204
0.0410819
0.0432227
0.0453357
0.0474137
0.0494497
0.0514369
0.0533685
0.0552377
0.0570381
0.0587635
0.0604079
0.0619656
0.0634311
0.0647996
0.0660663
0.067227
0.0682778
0.0692153
0.0700367
0.0707397
0.0713224
0.0717835
0.0721226
0.0723396
0.0724353
0.0724108
0.0722681
0.0720095
0.0716383
0.0711582
0.0705736
0.0698894
0.069111
0.0682441
0.067295
0.0662702
0.0651763
0.0640203
0.0628088
0.0615485
0.0602458
0.0589055
0.057532
0.0561379
0.0547333
0.0532022
0.0514406
0.017559
0.0154962
0.0137355
0.0121541
0.010612
0.0091189
0.00768673
0.00631761
0.00501414
0.0037802
0.00261986
0.00153732
0.000536841
-0.000377405
-0.00120138
-0.00193124
-0.0025634
-0.00309463
-0.00352209
-0.00384324
-0.00405594
-0.00415853
-0.00414976
-0.00402876
-0.00379509
-0.00344876
-0.00299021
-0.00242026
-0.00174007
-0.000951227
-5.56672e-05
0.000944287
0.00204599
0.00324647
0.0045424
0.00593016
0.00740577
0.00896499
0.0106033
0.012316
0.0140979
0.0159439
0.0178482
0.0198054
0.0218095
0.0238544
0.0259337
0.0280411
0.0301699
0.0323134
0.0344648
0.0366173
0.0387637
0.0408972
0.0430107
0.0450972
0.0471497
0.0491614
0.0511254
0.053035
0.0548835
0.0566645
0.058372
0.0599999
0.0615425
0.0629945
0.0643508
0.0656068
0.066758
0.0678007
0.0687313
0.0695469
0.070245
0.0708235
0.071281
0.071617
0.071831
0.0719235
0.0718954
0.0717481
0.0714838
0.0711053
0.0706157
0.0700189
0.0693192
0.0685214
0.0676304
0.066652
0.0655916
0.0644552
0.0632489
0.0619784
0.0606495
0.0592675
0.0578364
0.0563597
0.0548499
0.0533175
0.051632
0.0496779
0.019166
0.0169103
0.0149946
0.0132845
0.0116258
0.0100284
0.00850441
0.00705505
0.00568198
0.00438812
0.00317664
0.00205085
0.00101405
6.95673e-05
-0.000779313
-0.00152953
-0.00217827
-0.00272296
-0.00316127
-0.00349127
-0.00371138
-0.00382033
-0.00381725
-0.00370164
-0.00347342
-0.00313283
-0.00268052
-0.00211749
-0.00144506
-0.000664976
0.00022076
0.00120978
0.00229942
0.00348667
0.00476816
0.00614031
0.00759921
0.00914068
0.0107603
0.0124533
0.0142147
0.0160394
0.0179219
0.0198567
0.0218381
0.0238598
0.0259159
0.028
0.0301056
0.0322261
0.0343548
0.036485
0.0386096
0.0407219
0.042815
0.0448819
0.0469157
0.0489096
0.0508569
0.0527508
0.0545847
0.0563524
0.0580477
0.0596647
0.0611975
0.0626408
0.0639895
0.0652389
0.0663846
0.0674226
0.0683493
0.0691617
0.0698569
0.0704328
0.0708879
0.0712213
0.0714324
0.0715213
0.0714884
0.0713351
0.071063
0.0706745
0.0701723
0.0695597
0.0688405
0.0680187
0.0670989
0.066086
0.0649849
0.0638008
0.062539
0.0612044
0.0598021
0.0583366
0.0568111
0.0552284
0.0536013
0.0519406
0.0501021
0.0479592
0.0206947
0.0182501
0.0161815
0.0143432
0.0125674
0.0108642
0.00924615
0.00771366
0.00626763
0.0049102
0.0036437
0.0024706
0.00139349
0.000414924
-0.000462645
-0.00123681
-0.00190538
-0.00246641
-0.0029182
-0.00325932
-0.00348863
-0.00360532
-0.00360893
-0.00349931
-0.00327667
-0.00294152
-0.00249472
-0.00193747
-0.00127131
-0.000498055
0.000380199
0.00136101
0.00244162
0.00361899
0.00488976
0.00625036
0.00769692
0.00922526
0.010831
0.0125094
0.0142557
0.0160648
0.0179313
0.0198498
0.0218145
0.0238195
0.0258588
0.0279262
0.0300152
0.0321194
0.0342321
0.0363467
0.0384564
0.0405543
0.0426337
0.0446877
0.0467095
0.0486922
0.0506291
0.0525136
0.0543391
0.0560994
0.0577883
0.0593998
0.060928
0.0623675
0.0637132
0.0649604
0.0661045
0.0671414
0.0680673
0.0688791
0.0695737
0.070149
0.0706031
0.0709348
0.0711433
0.0712284
0.0711902
0.0710297
0.0707481
0.0703475
0.0698302
0.0691988
0.0684566
0.0676071
0.0666545
0.0656029
0.0644567
0.0632204
0.0618986
0.0604958
0.0590161
0.0574636
0.0558409
0.05415
0.0524044
0.0506154
0.0486255
0.0462973
0.0221323
0.0195028
0.0172833
0.0153176
0.0134244
0.0116145
0.0099007
0.00828293
0.0067613
0.00533727
0.0040126
0.00278899
0.00166826
0.000652298
-0.000257051
-0.00105806
-0.00174917
-0.00232901
-0.00279641
-0.00315041
-0.00339036
-0.00351586
-0.00352686
-0.00342351
-0.00320632
-0.00287608
-0.00243391
-0.00188121
-0.00121963
-0.000451138
0.000422044
0.00139737
0.00247201
0.00364292
0.00490671
0.00625981
0.00769832
0.00921812
0.0108148
0.0124839
0.0142204
0.0160194
0.0178756
0.0197836
0.0217377
0.0237322
0.025761
0.0278181
0.0298971
0.0319916
0.0340951
0.0362008
0.0383022
0.0403926
0.042465
0.0445127
0.046529
0.0485069
0.0504399
0.0523212
0.0541445
0.0559033
0.0575915
0.0592029
0.0607317
0.0621725
0.06352
0.0647693
0.0659158
0.0669552
0.0678837
0.0686977
0.0693943
0.069971
0.0704257
0.0707569
0.0709635
0.071045
0.0710013
0.0708329
0.0705408
0.0701265
0.0695919
0.0689392
0.0681712
0.0672911
0.0663022
0.0652084
0.0640134
0.0627212
0.0613358
0.059861
0.0583008
0.0566584
0.0549361
0.0531355
0.0512707
0.0493534
0.0472136
0.0447032
0.0234674
0.0206563
0.0182881
0.0161958
0.0141854
0.0122682
0.0104575
0.00875268
0.00715342
0.00566053
0.00427509
0.00299827
0.00183125
0.00077529
-0.000168389
-0.000998654
-0.00171451
-0.00231511
-0.00279977
-0.00316803
-0.00341969
-0.00355474
-0.00357348
-0.0034764
-0.00326431
-0.0029383
-0.00249968
-0.00195006
-0.00129124
-0.000525364
0.000345214
0.00131786
0.00238969
0.0035576
0.00481817
0.00616779
0.00760256
0.00911838
0.0107109
0.0123756
0.0141076
0.015902
0.0177536
0.0196569
0.0216066
0.0235967
0.0256213
0.0276745
0.0297499
0.0318412
0.033942
0.0360455
0.0381453
0.0402347
0.0423068
0.0443549
0.0463721
0.0483517
0.0502871
0.0521716
0.0539987
0.0557619
0.0574551
0.059072
0.0606067
0.0620538
0.0634078
0.0646637
0.0658168
0.0668626
0.067797
0.0686165
0.0693178
0.0698982
0.0703554
0.0706876
0.0708933
0.0709718
0.0709227
0.0707462
0.0704428
0.0700136
0.0694602
0.0687844
0.0679884
0.067075
0.0660472
0.0649082
0.0636614
0.0623101
0.060858
0.0593085
0.0576649
0.0559304
0.0541066
0.052195
0.0502103
0.0481649
0.0458766
0.0431868
0.0246894
0.0216999
0.0191849
0.0169669
0.0148396
0.0128147
0.0109062
0.00911325
0.00743474
0.00587113
0.00442294
0.0030908
0.00187536
0.000777281
-0.000202772
-0.00106419
-0.0018065
-0.00242935
-0.00293255
-0.00331608
-0.00358015
-0.00372512
-0.00375165
-0.00366059
-0.00345304
-0.00313032
-0.00269397
-0.0021458
-0.00148781
-0.000722294
0.000148266
0.00112115
0.00219339
0.0033618
0.00462293
0.00597312
0.00740848
0.00892492
0.0105181
0.0121835
0.0139162
0.0157115
0.017564
0.0194686
0.0214196
0.0234114
0.0254381
0.0274937
0.0295719
0.0316665
0.0337711
0.035879
0.0379838
0.0400788
0.0421572
0.0442121
0.0462368
0.0482246
0.0501688
0.0520626
0.0538996
0.0556732
0.0573771
0.0590051
0.0605512
0.0620097
0.0633751
0.0646423
0.0658062
0.0668623
0.0678064
0.0686347
0.0693437
0.0699304
0.0703922
0.070727
0.0709333
0.0710098
0.0709559
0.0707713
0.0704563
0.0700116
0.0694384
0.068738
0.0679124
0.0669638
0.0658948
0.0647083
0.0634071
0.0619942
0.0604729
0.0588461
0.0571171
0.0552884
0.0533616
0.0513379
0.0492328
0.0470596
0.0446237
0.0417567
0.0257886
0.0226235
0.0199633
0.0176205
0.0153766
0.013244
0.0112373
0.00935516
0.00759622
0.00596047
0.004448
0.00305892
0.00179337
0.000651522
-0.000366459
-0.00126046
-0.0020305
-0.00267671
-0.00319933
-0.00359875
-0.00387557
-0.00403055
-0.00406468
-0.00397913
-0.00377527
-0.00345467
-0.00301912
-0.00247062
-0.00181139
-0.00104383
-0.000170572
0.000805561
0.0018815
0.00305397
0.00431948
0.00567434
0.00711465
0.00863629
0.0102349
0.011906
0.0136448
0.0154463
0.0173054
0.0192169
0.0211753
0.0231748
0.0252097
0.0272739
0.0293613
0.0314656
0.0335805
0.0356994
0.0378158
0.0399229
0.0420141
0.0440825
0.0461212
0.0481236
0.0500828
0.0519923
0.0538453
0.0556353
0.0573558
0.0590006
0.0605634
0.0620386
0.0634204
0.0647036
0.0658828
0.0669535
0.0679112
0.0687518
0.0694717
0.0700675
0.0705364
0.070876
0.0710845
0.0711603
0.0711024
0.0709103
0.0705838
0.0701234
0.0695298
0.0688039
0.0679475
0.0669622
0.0658504
0.0646144
0.0632568
0.0617803
0.0601877
0.0584817
0.0566653
0.0547409
0.0527098
0.0505731
0.0483472
0.0460461
0.0434635
0.040421
0.0267561
0.0234175
0.0206136
0.0181468
0.0157868
0.0135464
0.0114411
0.00946925
0.00762903
0.00592011
0.00434218
0.0028949
0.001578
0.000391182
-0.000665866
-0.00159349
-0.00239216
-0.00306243
-0.00360497
-0.00402055
-0.00431016
-0.00447494
-0.00451618
-0.00443535
-0.00423411
-0.00391428
-0.00347787
-0.00292711
-0.00226437
-0.00149222
-0.00061343
0.000369049
0.00145205
0.00263222
0.00390601
0.0052697
0.00671934
0.00825079
0.0098597
0.0115415
0.0132915
0.0151047
0.016976
0.0189002
0.0208717
0.022885
0.0249342
0.0270133
0.0291163
0.0312367
0.0333684
0.0355048
0.0376392
0.0397651
0.0418756
0.0439639
0.0460232
0.0480466
0.0500274
0.0519588
0.053834
0.0556464
0.0573894
0.0590567
0.060642
0.0621392
0.0635426
0.0648466
0.0660459
0.0671356
0.0681109
0.0689676
0.0697018
0.0703098
0.0707885
0.0711354
0.0713481
0.0714249
0.0713644
0.0711657
0.0708283
0.0703524
0.0697381
0.0689864
0.0680983
0.0670754
0.0659195
0.0646326
0.0632171
0.0616753
0.0600097
0.0582229
0.0563175
0.054296
0.0521594
0.0499088
0.0475616
0.0451325
0.0424037
0.0391869
0.0275833
0.024073
0.0211266
0.0185366
0.0160607
0.0137127
0.0115086
0.00944658
0.00752447
0.00574163
0.0040974
0.00259106
0.00122194
-1.06987e-05
-0.00110759
-0.00206951
-0.00289733
-0.00359201
-0.00415462
-0.00458633
-0.00488847
-0.00506252
-0.0051101
-0.00503295
-0.00483303
-0.00451239
-0.00407329
-0.00351812
-0.00284946
-0.00207005
-0.00118278
-0.000190752
0.000902775
0.00209437
0.00338041
0.00475713
0.00622052
0.00776642
0.00939046
0.0110881
0.0128545
0.0146848
0.0165738
0.0185164
0.020507
0.0225401
0.0246097
0.0267099
0.0288347
0.0309777
0.0331326
0.0352929
0.037452
0.0396032
0.0417396
0.0438545
0.0459408
0.0479918
0.0500006
0.0519602
0.0538639
0.0557049
0.0574765
0.0591722
0.0607855
0.0623103
0.0637406
0.0650706
0.0662948
0.0674081
0.0684054
0.0692823
0.0700344
0.0706581
0.0711497
0.0715065
0.0717259
0.0718056
0.0717442
0.0715401
0.0711929
0.070702
0.0700675
0.0692898
0.0683698
0.0673086
0.0661077
0.064769
0.0632943
0.0616859
0.059946
0.058077
0.0560814
0.0539616
0.0517185
0.0493531
0.0468839
0.0443267
0.0414518
0.0380612
0.0282619
0.0245813
0.0214933
0.0187807
0.0161894
0.0137338
0.0114308
0.00927836
0.00727396
0.0054167
0.00370563
0.00213967
0.00071775
-0.000561224
-0.00169838
-0.00269491
-0.00355205
-0.00427117
-0.0048537
-0.0053012
-0.00561531
-0.00579783
-0.0058507
-0.00577597
-0.00557583
-0.00525261
-0.00480875
-0.00424687
-0.00356972
-0.00278022
-0.00188141
-0.000876512
0.000231115
0.00143795
0.00274028
0.00413427
0.0056159
0.00718095
0.00882501
0.0105435
0.0123316
0.0141844
0.0160968
0.0180635
0.0200791
0.0221378
0.024234
0.0263616
0.0285144
0.0306864
0.032871
0.0350618
0.0372521
0.0394351
0.0416041
0.0437521
0.0458721
0.0479572
0.0500004
0.0519948
0.0539333
0.0558091
0.0576154
0.0593455
0.0609928
0.0625509
0.0640136
0.0653749
0.0666291
0.0677708
0.0687947
0.069696
0.0704702
0.0711131
0.0716211
0.0719909
0.0722196
0.0723048
0.0722443
0.0720367
0.0716809
0.071176
0.070522
0.0697188
0.0687668
0.0676671
0.0664209
0.0650296
0.063495
0.061819
0.0600037
0.0580514
0.0559645
0.0537452
0.0513946
0.0489137
0.0463219
0.043636
0.0406147
0.0370503
0.0287839
0.0249341
0.0217052
0.0188703
0.0161639
0.0136008
0.011199
0.00895591
0.006869
0.00493705
0.00315881
0.00153291
5.79177e-05
-0.00126761
-0.00244515
-0.00347628
-0.00436263
-0.00510591
-0.00570792
-0.00617054
-0.00649576
-0.00668569
-0.00674259
-0.00666875
-0.00646665
-0.00613883
-0.00568797
-0.0051169
-0.00442854
-0.00362599
-0.00271243
-0.0016912
-0.000565792
0.000660175
0.00198293
0.00339855
0.00490296
0.00649189
0.0081609
0.00990533
0.0117204
0.0136012
0.0155425
0.0175391
0.0195855
0.021676
0.0238048
0.025966
0.0281533
0.0303606
0.0325814
0.0348091
0.0370372
0.0392588
0.0414669
0.0436547
0.0458151
0.0479409
0.0500251
0.0520607
0.0540405
0.0559575
0.0578048
0.0595755
0.0612628
0.06286
0.0643608
0.065759
0.0670485
0.0682236
0.0692789
0.0702093
0.0710098
0.0716761
0.0722041
0.0725903
0.0728315
0.0729248
0.0728678
0.0726587
0.072296
0.0717786
0.0711061
0.070278
0.0692947
0.0681567
0.066865
0.0654208
0.0638258
0.0620815
0.06019
0.0581535
0.0559742
0.0536546
0.0511955
0.0485982
0.0458829
0.0430676
0.0398993
0.0361606
0.0291416
0.0251231
0.0217538
0.0187969
0.0159754
0.0133051
0.0108043
0.00847063
0.00630111
0.00429434
0.00244884
0.000762916
-0.000765167
-0.00213718
-0.00335497
-0.00442044
-0.00533558
-0.00610245
-0.00672319
-0.00720001
-0.00753522
-0.00773125
-0.00779063
-0.00771594
-0.00750988
-0.00717526
-0.00671496
-0.00613204
-0.00542958
-0.00461085
-0.00367918
-0.00263806
-0.00149108
-0.000241968
0.00110542
0.0025471
0.00407891
0.00569652
0.00739546
0.00917103
0.0110184
0.0129326
0.0149085
0.0169407
0.0190238
0.0211521
0.0233197
0.0255207
0.0277488
0.0299979
0.0322614
0.0345327
0.0368051
0.0390719
0.0413259
0.0435602
0.0457675
0.0479407
0.0500727
0.0521561
0.0541838
0.0561486
0.0580434
0.059861
0.0615944
0.0632368
0.0647816
0.0662224
0.0675528
0.0687668
0.0698586
0.0708228
0.0716543
0.0723483
0.0729004
0.0733068
0.0735638
0.0736683
0.0736177
0.0734095
0.0730421
0.072514
0.0718244
0.0709727
0.0699588
0.068783
0.0674461
0.0659491
0.0642933
0.0624804
0.0605121
0.0583906
0.0561182
0.0536972
0.0511287
0.0484139
0.0455742
0.0426284
0.0393122
0.035398
0.0293272
0.0251402
0.0216306
0.0185519
0.0156155
0.0128379
0.0102382
0.00781391
0.00556179
0.00348025
0.00156754
-0.000178277
-0.00175924
-0.00317745
-0.00443507
-0.00553434
-0.00647759
-0.00726722
-0.00790568
-0.00839551
-0.00873935
-0.00893991
-0.00899999
-0.00892244
-0.00871024
-0.00836641
-0.00789405
-0.00729641
-0.00657679
-0.0057386
-0.00478533
-0.0037206
-0.00254814
-0.00127176
0.000104588
0.00157683
0.00314073
0.00479191
0.00652582
0.00833773
0.0102228
0.0121759
0.014192
0.0162657
0.0183914
0.0205635
0.0227761
0.0250232
0.0272985
0.0295958
0.0319085
0.03423
0.0365535
0.0388722
0.0411788
0.0434664
0.0457275
0.0479549
0.0501413
0.0522794
0.0543618
0.056381
0.0583298
0.0602007
0.0619867
0.0636807
0.0652757
0.066765
0.0681421
0.0694005
0.0705343
0.0715375
0.0724049
0.0731312
0.0737119
0.0741425
0.0744192
0.0745385
0.0744973
0.074293
0.0739234
0.0733868
0.072682
0.0718081
0.0707648
0.0695521
0.0681706
0.066621
0.0649046
0.0630227
0.0609772
0.0587701
0.0564038
0.0538807
0.0512018
0.0483683
0.045403
0.0423256
0.0388599
0.0347686
0.0293329
0.0249774
0.0213274
0.0181269
0.0150755
0.0121905
0.00949205
0.00697715
0.00464253
0.00248636
0.00050667
-0.00129873
-0.00293217
-0.00439606
-0.00569287
-0.00682516
-0.00779559
-0.00860687
-0.0092618
-0.00976322
-0.0101141
-0.0103173
-0.0103761
-0.0102935
-0.0100727
-0.00971704
-0.0092298
-0.00861441
-0.00787438
-0.00701328
-0.00603476
-0.00494258
-0.00374058
-0.00243269
-0.00102297
0.000484436
0.00208521
0.00377489
0.00554888
0.00740239
0.00933052
0.0113282
0.0133902
0.0155111
0.0176855
0.0199075
0.0221713
0.0244708
0.0267997
0.0291516
0.0315202
0.0338985
0.0362799
0.0386572
0.0410233
0.0433709
0.0456927
0.0479813
0.0502292
0.0524288
0.0545727
0.0566531
0.0586627
0.0605938
0.062439
0.064191
0.0658425
0.0673867
0.0688165
0.0701253
0.0713067
0.0723545
0.0732631
0.0740268
0.0746407