/*--------------------------------*- C++ -*----------------------------------*\
| =========                 |                                                 |
| \\      /  F ield         | OpenFOAM: The Open Source CFD Toolbox           |
|  \\    /   O peration     | Version:  2212                                  |
|   \\  /    A nd           | Website:  www.openfoam.com                      |
|    \\/     M anipulation  |                                                 |
\*---------------------------------------------------------------------------*/
FoamFile
{
    version     2.0;
    format      ascii;
    arch        "LSB;label=32;scalar=64";
    class       surfaceScalarField;
    location    "0.0885";
    object      phi;
}
// * * * * * * * * * * * * * * * * * * * * * * * * * * * * * * * * * * * * * //

dimensions      [0 3 -1 0 0 0 0];

oriented        oriented;

internalField   nonuniform List<scalar> 
19800
(
7.05127e-11
-7.05046e-11
2.42313e-10
-1.71794e-10
4.31593e-10
-1.89281e-10
5.80226e-10
-1.48636e-10
6.54914e-10
-7.469e-11
6.37273e-10
1.76385e-11
5.18107e-10
1.1917e-10
2.94005e-10
2.24106e-10
-3.47596e-11
3.28759e-10
-4.65504e-10
4.30748e-10
-9.94017e-10
5.28511e-10
-1.61503e-09
6.21006e-10
-2.32258e-09
7.07546e-10
-3.11026e-09
7.87681e-10
-3.97139e-09
8.61127e-10
-4.89912e-09
9.27726e-10
-5.88652e-09
9.87403e-10
-6.92667e-09
1.04015e-09
-8.01268e-09
1.08601e-09
-9.13774e-09
1.12506e-09
-1.02952e-08
1.15744e-09
-1.14784e-08
1.18327e-09
-1.26811e-08
1.2027e-09
-1.3897e-08
1.2159e-09
-1.51201e-08
1.22306e-09
-1.63445e-08
1.22437e-09
-1.75645e-08
1.22003e-09
-1.87747e-08
1.21023e-09
-1.99699e-08
1.19516e-09
-2.11449e-08
1.17505e-09
-2.2295e-08
1.1501e-09
-2.34156e-08
1.12052e-09
-2.45021e-08
1.08653e-09
-2.55504e-08
1.04835e-09
-2.65566e-08
1.00619e-09
-2.75169e-08
9.60269e-10
-2.84277e-08
9.10806e-10
-2.92857e-08
8.58016e-10
-3.00878e-08
8.02113e-10
-3.08311e-08
7.43315e-10
-3.1513e-08
6.81846e-10
-3.21309e-08
6.17927e-10
-3.26827e-08
5.51786e-10
-3.31664e-08
4.83652e-10
-3.35801e-08
4.13747e-10
-3.39224e-08
3.42304e-10
-3.4192e-08
2.69563e-10
-3.43877e-08
1.95751e-10
-3.45088e-08
1.21114e-10
-3.45548e-08
4.59031e-11
-3.45251e-08
-2.96433e-11
-3.44198e-08
-1.05274e-10
-3.42391e-08
-1.80722e-10
-3.39834e-08
-2.55737e-10
-3.36533e-08
-3.30061e-10
-3.32499e-08
-4.03418e-10
-3.27744e-08
-4.75541e-10
-3.22282e-08
-5.46169e-10
-3.16132e-08
-6.1502e-10
-3.09314e-08
-6.81806e-10
-3.01851e-08
-7.46252e-10
-2.9377e-08
-8.0808e-10
-2.851e-08
-8.67005e-10
-2.75873e-08
-9.22748e-10
-2.66122e-08
-9.75034e-10
-2.55887e-08
-1.02358e-09
-2.45205e-08
-1.06811e-09
-2.34122e-08
-1.10836e-09
-2.22681e-08
-1.14406e-09
-2.10932e-08
-1.17496e-09
-1.98924e-08
-1.20078e-09
-1.86711e-08
-1.22129e-09
-1.74348e-08
-1.23626e-09
-1.61894e-08
-1.24547e-09
-1.49407e-08
-1.24869e-09
-1.36949e-08
-1.24574e-09
-1.24585e-08
-1.23643e-09
-1.12379e-08
-1.2206e-09
-1.00398e-08
-1.19811e-09
-8.87096e-09
-1.16883e-09
-7.73827e-09
-1.13268e-09
-6.64867e-09
-1.0896e-09
-5.60912e-09
-1.03956e-09
-4.62656e-09
-9.82554e-10
-3.70791e-09
-9.18654e-10
-2.85993e-09
-8.4798e-10
-2.08922e-09
-7.70723e-10
-1.40206e-09
-6.87163e-10
-8.04351e-10
-5.97712e-10
-3.0139e-10
-5.02956e-10
1.02333e-10
-4.03721e-10
4.03504e-10
-3.01176e-10
6.00506e-10
-1.97004e-10
6.94213e-10
-9.37066e-11
6.89288e-10
4.9255e-12
5.96255e-10
9.3026e-11
4.34742e-10
1.61504e-10
2.38989e-10
1.95753e-10
6.71086e-11
1.71885e-10
6.71067e-11
1.7183e-10
-2.42334e-10
4.7238e-10
-4.7234e-10
7.60788e-10
-4.77677e-10
9.34993e-10
-3.2284e-10
9.24111e-10
-6.37977e-11
6.82673e-10
2.59068e-10
1.84183e-10
6.1765e-10
-5.84272e-10
9.9256e-10
-1.62598e-09
1.37046e-09
-2.93735e-09
1.74212e-09
-4.50998e-09
2.10114e-09
-6.332e-09
2.44302e-09
-8.3891e-09
2.76464e-09
-1.06653e-08
3.06384e-09
-1.31433e-08
3.33917e-09
-1.58053e-08
3.58967e-09
-1.86327e-08
3.81482e-09
-2.16069e-08
4.01436e-09
-2.47092e-08
4.18827e-09
-2.79208e-08
4.33672e-09
-3.12234e-08
4.45999e-09
-3.45986e-08
4.55851e-09
-3.80287e-08
4.63278e-09
-4.14962e-08
4.68336e-09
-4.49839e-08
4.71087e-09
-4.84755e-08
4.71598e-09
-5.19549e-08
4.6994e-09
-5.54066e-08
4.66187e-09
-5.88155e-08
4.60413e-09
-6.21674e-08
4.52695e-09
-6.54485e-08
4.43112e-09
-6.86454e-08
4.31744e-09
-7.17456e-08
4.18673e-09
-7.47371e-08
4.03981e-09
-7.76084e-08
3.8775e-09
-8.03487e-08
3.70062e-09
-8.29479e-08
3.51002e-09
-8.53965e-08
3.30654e-09
-8.76854e-08
3.09101e-09
-8.98063e-08
2.86428e-09
-9.17517e-08
2.62722e-09
-9.35145e-08
2.38069e-09
-9.50882e-08
2.12556e-09
-9.64673e-08
1.86271e-09
-9.76466e-08
1.59304e-09
-9.86217e-08
1.31744e-09
-9.9389e-08
1.03683e-09
-9.99454e-08
7.52139e-10
-1.00289e-07
4.64287e-10
-1.00417e-07
1.74235e-10
-1.0033e-07
-1.17045e-10
-1.00026e-07
-4.08585e-10
-9.95075e-08
-6.99397e-10
-9.87748e-08
-9.88468e-10
-9.78301e-08
-1.27479e-09
-9.66761e-08
-1.55734e-09
-9.53166e-08
-1.83506e-09
-9.37559e-08
-2.10691e-09
-9.1999e-08
-2.37184e-09
-9.00521e-08
-2.62876e-09
-8.79218e-08
-2.87659e-09
-8.56156e-08
-3.11426e-09
-8.31419e-08
-3.34069e-09
-8.05098e-08
-3.55481e-09
-7.77293e-08
-3.75556e-09
-7.4811e-08
-3.94187e-09
-7.17664e-08
-4.11271e-09
-6.86077e-08
-4.26704e-09
-6.53479e-08
-4.40384e-09
-6.20007e-08
-4.52214e-09
-5.85805e-08
-4.621e-09
-5.51023e-08
-4.69948e-09
-5.15819e-08
-4.75672e-09
-4.80354e-08
-4.79188e-09
-4.44799e-08
-4.80421e-09
-4.09327e-08
-4.79298e-09
-3.74116e-08
-4.75754e-09
-3.39348e-08
-4.69733e-09
-3.0521e-08
-4.61188e-09
-2.71891e-08
-4.50079e-09
-2.3958e-08
-4.3638e-09
-2.08468e-08
-4.20077e-09
-1.78747e-08
-4.01169e-09
-1.50604e-08
-3.79678e-09
-1.24227e-08
-3.55642e-09
-9.97941e-09
-3.29125e-09
-7.74788e-09
-3.00226e-09
-5.74422e-09
-2.69082e-09
-3.98308e-09
-2.35886e-09
-2.47707e-09
-2.00898e-09
-1.23604e-09
-1.64476e-09
-2.66077e-10
-1.27113e-09
4.3184e-10
-8.94906e-10
8.63771e-10
-5.25636e-10
1.04555e-09
-1.76862e-10
1.00654e-09
1.32038e-10
7.94661e-10
3.73385e-10
4.82429e-10
5.07989e-10
1.71779e-10
4.82523e-10
2.38879e-10
1.8998e-10
-4.32317e-10
4.79887e-10
-7.62252e-10
6.96457e-10
-6.94241e-10
7.16763e-10
-3.43153e-10
4.51761e-10
2.01206e-10
-1.59342e-10
8.70169e-10
-1.15458e-09
1.61289e-09
-2.55443e-09
2.39241e-09
-4.36602e-09
3.18204e-09
-6.58637e-09
3.96247e-09
-9.20498e-09
4.71976e-09
-1.22058e-08
5.4438e-09
-1.55684e-08
6.12733e-09
-1.92698e-08
6.76518e-09
-2.32843e-08
7.35371e-09
-2.75851e-08
7.89045e-09
-3.21441e-08
8.37383e-09
-3.69328e-08
8.803e-09
-4.19222e-08
9.17762e-09
-4.70833e-08
9.4978e-09
-5.23872e-08
9.76397e-09
-5.78056e-08
9.97685e-09
-6.33102e-08
1.01374e-08
-6.88735e-08
1.02466e-08
-7.44685e-08
1.03059e-08
-8.0069e-08
1.03165e-08
-8.56495e-08
1.02799e-08
-9.11853e-08
1.01977e-08
-9.66525e-08
1.00714e-08
-1.02028e-07
9.9026e-09
-1.0729e-07
9.69311e-09
-1.12417e-07
9.44458e-09
-1.17389e-07
9.15878e-09
-1.22187e-07
8.83747e-09
-1.26792e-07
8.48244e-09
-1.31187e-07
8.0955e-09
-1.35355e-07
7.67846e-09
-1.39282e-07
7.23316e-09
-1.42952e-07
6.76146e-09
-1.46353e-07
6.26521e-09
-1.49472e-07
5.7463e-09
-1.52298e-07
5.20664e-09
-1.54821e-07
4.64814e-09
-1.57031e-07
4.07274e-09
-1.5892e-07
3.48241e-09
-1.60482e-07
2.87913e-09
-1.6171e-07
2.2649e-09
-1.626e-07
1.64176e-09
-1.63147e-07
1.01178e-09
-1.6335e-07
3.77029e-10
-1.63207e-07
-2.60356e-10
-1.62717e-07
-8.98222e-10
-1.61882e-07
-1.5344e-09
-1.60704e-07
-2.1667e-09
-1.59186e-07
-2.79287e-09
-1.57332e-07
-3.41066e-09
-1.5515e-07
-4.01781e-09
-1.52645e-07
-4.61201e-09
-1.49825e-07
-5.19093e-09
-1.46702e-07
-5.75224e-09
-1.43285e-07
-6.29361e-09
-1.39587e-07
-6.81267e-09
-1.3562e-07
-7.30708e-09
-1.314e-07
-7.77451e-09
-1.26943e-07
-8.21264e-09
-1.22266e-07
-8.61919e-09
-1.17387e-07
-8.99189e-09
-1.12325e-07
-9.3285e-09
-1.07102e-07
-9.62687e-09
-1.0174e-07
-9.88487e-09
-9.62602e-08
-1.01005e-08
-9.0688e-08
-1.02717e-08
-8.5048e-08
-1.03967e-08
-7.93661e-08
-1.04738e-08
-7.36691e-08
-1.05012e-08
-6.79845e-08
-1.04776e-08
-6.23405e-08
-1.04015e-08
-5.67659e-08
-1.0272e-08
-5.12898e-08
-1.00879e-08
-4.5942e-08
-9.84864e-09
-4.07521e-08
-9.55372e-09
-3.57498e-08
-9.20301e-09
-3.09648e-08
-8.79672e-09
-2.64261e-08
-8.33546e-09
-2.21622e-08
-7.82034e-09
-1.82004e-08
-7.25308e-09
-1.45665e-08
-6.63612e-09
-1.12845e-08
-5.97285e-09
-8.3755e-09
-5.26783e-09
-5.8573e-09
-4.52718e-09
-3.74302e-09
-3.75906e-09
-2.03976e-09
-2.9744e-09
-7.46777e-10
-2.18789e-09
1.46985e-10
-1.4194e-09
6.66029e-10
-6.9591e-10
8.52261e-10
-5.41939e-11
7.69772e-10
4.55875e-10
5.09918e-10
7.67841e-10
1.96213e-10
7.9622e-10
4.3509e-10
1.50998e-10
-5.83306e-10
3.30016e-10
-9.41274e-10
3.54188e-10
-7.18405e-10
9.24526e-11
-8.14151e-11
-5.51423e-10
8.45088e-10
-1.64512e-09
1.96386e-09
-3.23259e-09
3.20037e-09
-5.33873e-09
4.49854e-09
-7.9731e-09
5.8164e-09
-1.11332e-08
7.1226e-09
-1.48073e-08
8.39378e-09
-1.89761e-08
9.6126e-09
-2.36149e-08
1.07662e-08
-2.8695e-08
1.18452e-08
-3.41842e-08
1.28429e-08
-4.00481e-08
1.37544e-08
-4.62509e-08
1.45766e-08
-5.27555e-08
1.53076e-08
-5.95242e-08
1.59464e-08
-6.65192e-08
1.64928e-08
-7.37025e-08
1.69473e-08
-8.10364e-08
1.73108e-08
-8.84838e-08
1.75847e-08
-9.60079e-08
1.77708e-08
-1.03573e-07
1.7871e-08
-1.11144e-07
1.78874e-08
-1.18687e-07
1.78226e-08
-1.26168e-07
1.7679e-08
-1.33556e-07
1.74594e-08
-1.4082e-07
1.71663e-08
-1.47929e-07
1.68029e-08
-1.54857e-07
1.63718e-08
-1.61574e-07
1.58762e-08
-1.68056e-07
1.5319e-08
-1.74277e-07
1.47034e-08
-1.80214e-07
1.40324e-08
-1.85844e-07
1.33092e-08
-1.91148e-07
1.2537e-08
-1.96106e-07
1.1719e-08
-2.00699e-07
1.08583e-08
-2.04911e-07
9.95839e-09
-2.08727e-07
9.02243e-09
-2.12132e-07
8.05381e-09
-2.15115e-07
7.0559e-09
-2.17665e-07
6.03211e-09
-2.19772e-07
4.9859e-09
-2.21428e-07
3.92077e-09
-2.22626e-07
2.84025e-09
-2.23363e-07
1.74793e-09
-2.23633e-07
6.47469e-10
-2.23436e-07
-4.57469e-10
-2.22771e-07
-1.56315e-09
-2.2164e-07
-2.66578e-09
-2.20045e-07
-3.76154e-09
-2.17991e-07
-4.84656e-09
-2.15485e-07
-5.91692e-09
-2.12534e-07
-6.96868e-09
-2.09148e-07
-7.99784e-09
-2.05339e-07
-9.00041e-09
-2.01118e-07
-9.97234e-09
-1.96502e-07
-1.09096e-08
-1.91507e-07
-1.18081e-08
-1.8615e-07
-1.26638e-08
-1.80452e-07
-1.34728e-08
-1.74434e-07
-1.42309e-08
-1.68119e-07
-1.49344e-08
-1.61531e-07
-1.55792e-08
-1.54698e-07
-1.61616e-08
-1.47647e-07
-1.66779e-08
-1.40407e-07
-1.71245e-08
-1.3301e-07
-1.74978e-08
-1.25487e-07
-1.77947e-08
-1.17872e-07
-1.80119e-08
-1.10199e-07
-1.81464e-08
-1.02505e-07
-1.81957e-08
-9.48251e-08
-1.81573e-08
-8.71978e-08
-1.80289e-08
-7.96611e-08
-1.78087e-08
-7.22537e-08
-1.74953e-08
-6.50147e-08
-1.70877e-08
-5.79832e-08
-1.65852e-08
-5.11984e-08
-1.59878e-08
-4.46989e-08
-1.52963e-08
-3.85225e-08
-1.45118e-08
-3.2706e-08
-1.36368e-08
-2.72846e-08
-1.26745e-08
-2.22911e-08
-1.16296e-08
-1.77557e-08
-1.05083e-08
-1.37046e-08
-9.31891e-09
-1.01594e-08
-8.07235e-09
-7.13556e-09
-6.78288e-09
-4.64079e-09
-5.46917e-09
-2.67299e-09
-4.15569e-09
-1.21779e-09
-2.8746e-09
-2.45476e-10
-1.66822e-09
2.92593e-10
-5.92268e-10
4.68223e-10
2.80236e-10
3.80905e-10
8.55151e-10
1.63676e-10
1.01345e-09
5.98769e-10
7.95285e-11
-6.62829e-10
7.81314e-11
-9.39872e-10
-1.7772e-10
-4.62553e-10
-8.16376e-10
5.57236e-10
-1.9335e-09
1.96221e-09
-3.59751e-09
3.62787e-09
-5.85383e-09
5.45669e-09
-8.72857e-09
7.3733e-09
-1.2232e-08
9.31982e-09
-1.63613e-08
1.12519e-08
-2.11031e-08
1.31356e-08
-2.64357e-08
1.49452e-08
-3.23308e-08
1.66613e-08
-3.87549e-08
1.82693e-08
-4.56704e-08
1.97584e-08
-5.30369e-08
2.11209e-08
-6.08117e-08
2.23514e-08
-6.89506e-08
2.34465e-08
-7.74084e-08
2.44042e-08
-8.61395e-08
2.52238e-08
-9.50978e-08
2.59056e-08
-1.04238e-07
2.64507e-08
-1.13514e-07
2.68609e-08
-1.22882e-07
2.71385e-08
-1.32297e-07
2.72863e-08
-1.41717e-07
2.73074e-08
-1.511e-07
2.72053e-08
-1.60404e-07
2.69836e-08
-1.69591e-07
2.66464e-08
-1.78623e-07
2.61978e-08
-1.87462e-07
2.56418e-08
-1.96073e-07
2.49831e-08
-2.04423e-07
2.4226e-08
-2.12479e-07
2.33751e-08
-2.2021e-07
2.2435e-08
-2.27588e-07
2.14105e-08
-2.34586e-07
2.03064e-08
-2.41176e-07
1.91274e-08
-2.47336e-07
1.78786e-08
-2.53042e-07
1.65647e-08
-2.58275e-07
1.51909e-08
-2.63014e-07
1.37621e-08
-2.67244e-07
1.22835e-08
-2.70948e-07
1.07602e-08
-2.74114e-07
9.1975e-09
-2.76728e-07
7.60063e-09
-2.78782e-07
5.97498e-09
-2.80268e-07
4.32595e-09
-2.81179e-07
2.65905e-09
-2.81512e-07
9.79816e-10
-2.81263e-07
-7.06092e-10
-2.80433e-07
-2.39297e-09
-2.79024e-07
-4.07506e-09
-2.77039e-07
-5.74649e-09
-2.74484e-07
-7.40137e-09
-2.71367e-07
-9.03371e-09
-2.67699e-07
-1.06375e-08
-2.6349e-07
-1.22067e-08
-2.58755e-07
-1.37352e-08
-2.53511e-07
-1.52168e-08
-2.47775e-07
-1.66453e-08
-2.41568e-07
-1.80148e-08
-2.34913e-07
-1.93189e-08
-2.27834e-07
-2.05517e-08
-2.20358e-07
-2.17071e-08
-2.12513e-07
-2.27791e-08
-2.04331e-07
-2.37618e-08
-1.95843e-07
-2.46496e-08
-1.87084e-07
-2.54368e-08
-1.7809e-07
-2.6118e-08
-1.689e-07
-2.66881e-08
-1.59552e-07
-2.71421e-08
-1.50089e-07
-2.74752e-08
-1.40552e-07
-2.76833e-08
-1.30986e-07
-2.77622e-08
-1.21435e-07
-2.77083e-08
-1.11945e-07
-2.75187e-08
-1.02563e-07
-2.71906e-08
-9.33361e-08
-2.67222e-08
-8.43118e-08
-2.61119e-08
-7.55378e-08
-2.53593e-08
-6.7061e-08
-2.44646e-08
-5.89282e-08
-2.34291e-08
-5.11847e-08
-2.22553e-08
-4.38745e-08
-2.0947e-08
-3.70392e-08
-1.95098e-08
-3.07178e-08
-1.79511e-08
-2.49454e-08
-1.62807e-08
-1.97525e-08
-1.45118e-08
-1.51639e-08
-1.26609e-08
-1.11971e-08
-1.07497e-08
-7.86062e-09
-8.80564e-09
-5.15211e-09
-6.8642e-09
-3.05588e-09
-4.97083e-09
-1.54021e-09
-3.18388e-09
-5.543e-10
-1.57818e-09
-2.46605e-11
-2.49409e-10
1.48809e-10
6.81676e-10
9.81236e-11
1.06414e-09
6.96896e-10
-9.87963e-12
-6.52948e-10
-2.36704e-10
-7.13046e-10
-8.33397e-10
1.34147e-10
-1.91738e-09
1.64122e-09
-3.5777e-09
3.62253e-09
-5.87884e-09
5.92902e-09
-8.86392e-09
8.44175e-09
-1.25576e-08
1.1067e-08
-1.69688e-08
1.3731e-08
-2.20933e-08
1.63763e-08
-2.79157e-08
1.8958e-08
-3.44117e-08
2.14412e-08
-4.15495e-08
2.37992e-08
-4.92916e-08
2.60114e-08
-5.75958e-08
2.80626e-08
-6.64163e-08
2.99414e-08
-7.57047e-08
3.16397e-08
-8.54104e-08
3.31522e-08
-9.54819e-08
3.44756e-08
-1.05866e-07
3.56084e-08
-1.16511e-07
3.65504e-08
-1.27363e-07
3.73029e-08
-1.3837e-07
3.78679e-08
-1.4948e-07
3.82483e-08
-1.60642e-07
3.84478e-08
-1.71805e-07
3.84704e-08
-1.8292e-07
3.83208e-08
-1.93941e-07
3.8004e-08
-2.04819e-07
3.75253e-08
-2.15512e-07
3.68904e-08
-2.25975e-07
3.61051e-08
-2.36168e-07
3.51754e-08
-2.46049e-07
3.41077e-08
-2.55583e-07
3.29081e-08
-2.64731e-07
3.15833e-08
-2.7346e-07
3.01397e-08
-2.81738e-07
2.85842e-08
-2.89534e-07
2.69234e-08
-2.96819e-07
2.51642e-08
-3.03568e-07
2.33137e-08
-3.09756e-07
2.13787e-08
-3.15361e-07
1.93665e-08
-3.20361e-07
1.72842e-08
-3.2474e-07
1.51392e-08
-3.28482e-07
1.29387e-08
-3.31571e-07
1.06902e-08
-3.33998e-07
8.40139e-09
-3.35751e-07
6.07978e-09
-3.36825e-07
3.73315e-09
-3.37215e-07
1.36936e-09
-3.36917e-07
-1.00366e-09
-3.35933e-07
-3.37787e-09
-3.34262e-07
-5.74513e-09
-3.31912e-07
-8.09721e-09
-3.28887e-07
-1.04258e-08
-3.25199e-07
-1.27225e-08
-3.20857e-07
-1.49788e-08
-3.15878e-07
-1.71863e-08
-3.10276e-07
-1.93363e-08
-3.04073e-07
-2.14203e-08
-2.97289e-07
-2.34296e-08
-2.89948e-07
-2.53557e-08
-2.82077e-07
-2.71899e-08
-2.73705e-07
-2.89237e-08
-2.64863e-07
-3.05488e-08
-2.55585e-07
-3.20567e-08
-2.45908e-07
-3.34394e-08
-2.35869e-07
-3.46888e-08
-2.25508e-07
-3.57972e-08
-2.14869e-07
-3.67572e-08
-2.03996e-07
-3.75614e-08
-1.92935e-07
-3.82031e-08
-1.81734e-07
-3.86759e-08
-1.70443e-07
-3.89738e-08
-1.59114e-07
-3.90915e-08
-1.47798e-07
-3.9024e-08
-1.3655e-07
-3.87672e-08
-1.25423e-07
-3.83178e-08
-1.14472e-07
-3.76731e-08
-1.03752e-07
-3.68317e-08
-9.33183e-08
-3.57931e-08
-8.32249e-08
-3.45579e-08
-7.35256e-08
-3.31284e-08
-6.42723e-08
-3.15086e-08
-5.55151e-08
-2.97042e-08
-4.73015e-08
-2.77234e-08
-3.96755e-08
-2.55771e-08
-3.26766e-08
-2.32796e-08
-2.63394e-08
-2.08491e-08
-2.06914e-08
-1.8309e-08
-1.57523e-08
-1.56887e-08
-1.15324e-08
-1.30256e-08
-8.03016e-09
-1.03665e-08
-5.23059e-09
-7.77041e-09
-3.1028e-09
-5.31167e-09
-1.59748e-09
-3.0835e-09
-6.4411e-10
-1.20278e-09
-1.47915e-10
1.85481e-10
1.39695e-11
9.02255e-10
7.10866e-10
-1.08543e-10
-5.44404e-10
-5.88083e-10
-2.33504e-10
-1.56557e-09
1.11163e-09
-3.14212e-09
3.21777e-09
-5.39575e-09
5.87615e-09
-8.38331e-09
8.91659e-09
-1.21426e-08
1.22011e-08
-1.66944e-08
1.56188e-08
-2.20447e-08
1.90813e-08
-2.81862e-08
2.25179e-08
-3.51009e-08
2.58727e-08
-4.27615e-08
2.91017e-08
-5.11327e-08
3.21704e-08
-6.01732e-08
3.50519e-08
-6.98365e-08
3.77259e-08
-8.00721e-08
4.0177e-08
-9.08263e-08
4.2394e-08
-1.02043e-07
4.43692e-08
-1.13665e-07
4.60978e-08
-1.25634e-07
4.75772e-08
-1.37891e-07
4.88067e-08
-1.50375e-07
4.97875e-08
-1.63029e-07
5.05217e-08
-1.75793e-07
5.10128e-08
-1.88611e-07
5.12653e-08
-2.01425e-07
5.12843e-08
-2.1418e-07
5.10758e-08
-2.26822e-07
5.0646e-08
-2.39298e-07
5.00018e-08
-2.51559e-07
4.91506e-08
-2.63553e-07
4.81e-08
-2.75236e-07
4.68579e-08
-2.86561e-07
4.54323e-08
-2.97484e-07
4.38318e-08
-3.07966e-07
4.20647e-08
-3.17966e-07
4.01399e-08
-3.27448e-07
3.80662e-08
-3.36377e-07
3.58526e-08
-3.44721e-07
3.35082e-08
-3.5245e-07
3.10422e-08
-3.59535e-07
2.8464e-08
-3.65952e-07
2.57831e-08
-3.71676e-07
2.3009e-08
-3.76689e-07
2.01515e-08
-3.8097e-07
1.72203e-08
-3.84505e-07
1.42254e-08
-3.87281e-07
1.11769e-08
-3.89286e-07
8.08501e-09
-3.90513e-07
4.95999e-09
-3.90956e-07
1.81231e-09
-3.90612e-07
-1.34743e-09
-3.89481e-07
-4.50854e-09
-3.87566e-07
-7.66018e-09
-3.84872e-07
-1.07914e-08
-3.81407e-07
-1.38911e-08
-3.77181e-07
-1.69483e-08
-3.72208e-07
-1.99515e-08
-3.66505e-07
-2.28895e-08
-3.60091e-07
-2.5751e-08
-3.52986e-07
-2.85244e-08
-3.45218e-07
-3.11985e-08
-3.36812e-07
-3.37618e-08
-3.27798e-07
-3.62029e-08
-3.18211e-07
-3.85107e-08
-3.08086e-07
-4.06739e-08
-2.97461e-07
-4.26816e-08
-2.86378e-07
-4.45231e-08
-2.74879e-07
-4.61878e-08
-2.6301e-07
-4.76655e-08
-2.50821e-07
-4.89465e-08
-2.38361e-07
-5.00213e-08
-2.25683e-07
-5.0881e-08
-2.12842e-07
-5.15173e-08
-1.99893e-07
-5.19224e-08
-1.86895e-07
-5.20894e-08
-1.73907e-07
-5.20122e-08
-1.60989e-07
-5.16854e-08
-1.48202e-07
-5.11049e-08
-1.35607e-07
-5.02676e-08
-1.23267e-07
-4.91719e-08
-1.11243e-07
-4.78173e-08
-9.95954e-08
-4.62055e-08
-8.83842e-08
-4.43396e-08
-7.76674e-08
-4.22255e-08
-6.75004e-08
-3.98712e-08
-5.79359e-08
-3.72879e-08
-4.90226e-08
-3.44905e-08
-4.08041e-08
-3.1498e-08
-3.33186e-08
-2.83346e-08
-2.65968e-08
-2.50308e-08
-2.06611e-08
-2.16244e-08
-1.55241e-08
-1.81626e-08
-1.11866e-08
-1.47039e-08
-7.63624e-09
-1.13208e-08
-4.84526e-09
-8.10265e-09
-2.76887e-09
-5.1599e-09
-1.3431e-09
-2.62854e-09
-4.82913e-10
-6.74709e-10
-8.00524e-11
4.99393e-10
6.30814e-10
-2.11201e-10
-3.332e-10
-9.58537e-10
5.13837e-10
-2.3413e-09
2.4944e-09
-4.44126e-09
5.31775e-09
-7.32241e-09
8.75729e-09
-1.10313e-08
1.26255e-08
-1.55979e-08
1.67677e-08
-2.10372e-08
2.10581e-08
-2.73504e-08
2.53944e-08
-3.45262e-08
2.96937e-08
-4.25429e-08
3.38895e-08
-5.13696e-08
3.79284e-08
-6.09675e-08
4.17682e-08
-7.12912e-08
4.53757e-08
-8.22902e-08
4.87249e-08
-9.39094e-08
5.17962e-08
-1.06091e-07
5.45752e-08
-1.18773e-07
5.70515e-08
-1.31894e-07
5.92184e-08
-1.45388e-07
6.10721e-08
-1.59193e-07
6.26112e-08
-1.73242e-07
6.38365e-08
-1.87471e-07
6.47504e-08
-2.01815e-07
6.53569e-08
-2.16211e-07
6.56612e-08
-2.30596e-07
6.56695e-08
-2.44909e-07
6.5389e-08
-2.59091e-07
6.48276e-08
-2.73082e-07
6.39937e-08
-2.86828e-07
6.28964e-08
-3.00273e-07
6.15452e-08
-3.13366e-07
5.99502e-08
-3.26055e-07
5.81214e-08
-3.38293e-07
5.60696e-08
-3.50034e-07
5.38055e-08
-3.61234e-07
5.13402e-08
-3.71853e-07
4.86849e-08
-3.81851e-07
4.58511e-08
-3.91193e-07
4.28503e-08
-3.99845e-07
3.96944e-08
-4.07777e-07
3.63953e-08
-4.14959e-07
3.29651e-08
-4.21366e-07
2.9416e-08
-4.26975e-07
2.57604e-08
-4.31765e-07
2.2011e-08
-4.3572e-07
1.81803e-08
-4.38825e-07
1.42814e-08
-4.41067e-07
1.03271e-08
-4.42438e-07
6.33083e-09
-4.42931e-07
2.3058e-09
-4.42544e-07
-1.73442e-09
-4.41277e-07
-5.77614e-09
-4.39131e-07
-9.80553e-09
-4.36114e-07
-1.38086e-08
-4.32234e-07
-1.77713e-08
-4.27503e-07
-2.16792e-08
-4.21936e-07
-2.55182e-08
-4.15552e-07
-2.92737e-08
-4.08372e-07
-3.29313e-08
-4.0042e-07
-3.64765e-08
-3.91723e-07
-3.98947e-08
-3.82314e-07
-4.31715e-08
-3.72224e-07
-4.62924e-08
-3.61492e-07
-4.92431e-08
-3.50156e-07
-5.20096e-08
-3.3826e-07
-5.45779e-08
-3.25848e-07
-5.69345e-08
-3.1297e-07
-5.90659e-08
-2.99676e-07
-6.09595e-08
-2.8602e-07
-6.26027e-08
-2.72058e-07
-6.39837e-08
-2.57847e-07
-6.50915e-08
-2.43449e-07
-6.59156e-08
-2.28925e-07
-6.64463e-08
-2.14339e-07
-6.66751e-08
-1.99757e-07
-6.65943e-08
-1.85245e-07
-6.61975e-08
-1.7087e-07
-6.54799e-08
-1.567e-07
-6.44377e-08
-1.42803e-07
-6.30693e-08
-1.29245e-07
-6.13746e-08
-1.16095e-07
-5.9356e-08
-1.03416e-07
-5.70182e-08
-9.12731e-08
-5.43687e-08
-7.97258e-08
-5.14184e-08
-6.88318e-08
-4.81819e-08
-5.86441e-08
-4.46782e-08
-4.92105e-08
-4.09316e-08
-4.05727e-08
-3.69724e-08
-3.2765e-08
-3.28385e-08
-2.58132e-08
-2.85762e-08
-1.9733e-08
-2.42427e-08
-1.4529e-08
-1.99079e-08
-1.01928e-08
-1.56569e-08
-6.70213e-09
-1.15934e-08
-4.0189e-09
-7.84313e-09
-2.08847e-09
-4.55897e-09
-8.3852e-10
-1.92466e-09
-1.78569e-10
-1.60556e-10
4.52246e-10
-3.1472e-10
-1.84802e-11
-1.33673e-09
1.53583e-09
-3.13804e-09
4.29571e-09
-5.77983e-09
7.95954e-09
-9.31023e-09
1.22877e-08
-1.37636e-08
1.70788e-08
-1.91604e-08
2.21645e-08
-2.55079e-08
2.74057e-08
-3.28013e-08
3.26877e-08
-4.10241e-08
3.79165e-08
-5.01501e-08
4.30155e-08
-6.0144e-08
4.79224e-08
-7.09631e-08
5.25873e-08
-8.25578e-08
5.69704e-08
-9.48736e-08
6.10406e-08
-1.07851e-07
6.47737e-08
-1.21427e-07
6.81516e-08
-1.35537e-07
7.11612e-08
-1.50113e-07
7.37939e-08
-1.65085e-07
7.60444e-08
-1.80384e-07
7.79104e-08
-1.9594e-07
7.93924e-08
-2.11682e-07
8.04929e-08
-2.27542e-07
8.12164e-08
-2.43449e-07
8.15687e-08
-2.59337e-07
8.15572e-08
-2.75138e-07
8.11904e-08
-2.90789e-07
8.04776e-08
-3.06224e-07
7.94292e-08
-3.21384e-07
7.8056e-08
-3.36208e-07
7.63696e-08
-3.5064e-07
7.43822e-08
-3.64625e-07
7.21062e-08
-3.7811e-07
6.95546e-08
-3.91045e-07
6.67407e-08
-4.03383e-07
6.3678e-08
-4.15078e-07
6.03805e-08
-4.26089e-07
5.68622e-08
-4.36377e-07
5.31375e-08
-4.45903e-07
4.92209e-08
-4.54635e-07
4.51272e-08
-4.62541e-07
4.08713e-08
-4.69594e-07
3.64684e-08
-4.75767e-07
3.19339e-08
-4.81039e-07
2.72834e-08
-4.85392e-07
2.25325e-08
-4.88807e-07
1.76972e-08
-4.91274e-07
1.27937e-08
-4.92782e-07
7.83839e-09
-4.93323e-07
2.84775e-09
-4.92896e-07
-2.16144e-09
-4.915e-07
-7.17225e-09
-4.89138e-07
-1.21676e-08
-4.85817e-07
-1.713e-08
-4.81546e-07
-2.20423e-08
-4.76338e-07
-2.68866e-08
-4.70211e-07
-3.16454e-08
-4.63184e-07
-3.63007e-08
-4.55281e-07
-4.08347e-08
-4.46528e-07
-4.52295e-08
-4.36956e-07
-4.94672e-08
-4.26597e-07
-5.35299e-08
-4.1549e-07
-5.73999e-08
-4.03673e-07
-6.10595e-08
-3.91191e-07
-6.44915e-08
-3.78091e-07
-6.76788e-08
-3.6442e-07
-7.06045e-08
-3.50234e-07
-7.32525e-08
-3.35586e-07
-7.5607e-08
-3.20536e-07
-7.76529e-08
-3.05144e-07
-7.93757e-08
-2.89474e-07
-8.07618e-08
-2.73591e-07
-8.17986e-08
-2.57563e-07
-8.24745e-08
-2.41459e-07
-8.27791e-08
-2.2535e-07
-8.27032e-08
-2.09308e-07
-8.22394e-08
-1.93406e-07
-8.13819e-08
-1.77717e-07
-8.01265e-08
-1.62315e-07
-7.84715e-08
-1.47272e-07
-7.64174e-08
-1.32661e-07
-7.39674e-08
-1.18551e-07
-7.11278e-08
-1.05011e-07
-6.79083e-08
-9.21074e-08
-6.43225e-08
-7.99005e-08
-6.03888e-08
-6.84482e-08
-5.61305e-08
-5.78025e-08
-5.15773e-08
-4.8009e-08
-4.67659e-08
-3.9106e-08
-4.17415e-08
-3.11231e-08
-3.65591e-08
-2.40804e-08
-3.12854e-08
-1.79872e-08
-2.60012e-08
-1.28407e-08
-2.08034e-08
-8.62549e-09
-1.58086e-08
-5.31219e-09
-1.11564e-08
-2.85733e-09
-7.01384e-09
-1.20315e-09
-3.57883e-09
-2.78341e-10
-1.08536e-09
1.73908e-10
-4.17272e-10
3.988e-10
-1.71542e-09
2.83398e-09
-3.94068e-09
6.52097e-09
-7.13348e-09
1.11523e-08
-1.13253e-08
1.64795e-08
-1.65369e-08
2.22904e-08
-2.27782e-08
2.84058e-08
-3.00475e-08
3.4675e-08
-3.83326e-08
4.09728e-08
-4.76109e-08
4.71949e-08
-5.78508e-08
5.32553e-08
-6.90121e-08
5.90837e-08
-8.10475e-08
6.46227e-08
-9.39032e-08
6.98262e-08
-1.0752e-07
7.46576e-08
-1.21835e-07
7.90883e-08
-1.3678e-07
8.30968e-08
-1.52286e-07
8.6667e-08
-1.6828e-07
8.97881e-08
-1.84689e-07
9.24533e-08
-2.01438e-07
9.46595e-08
-2.18452e-07
9.64067e-08
-2.35657e-07
9.76974e-08
-2.52977e-07
9.85365e-08
-2.70339e-07
9.89307e-08
-2.8767e-07
9.88883e-08
-3.04899e-07
9.84193e-08
-3.21956e-07
9.75346e-08
-3.38773e-07
9.62462e-08
-3.55284e-07
9.45671e-08
-3.71426e-07
9.25111e-08
-3.87136e-07
9.00925e-08
-4.02356e-07
8.73262e-08
-4.17029e-07
8.42278e-08
-4.31102e-07
8.08131e-08
-4.44522e-07
7.70985e-08
-4.57242e-07
7.31006e-08
-4.69216e-07
6.88363e-08
-4.80402e-07
6.4323e-08
-4.90759e-07
5.95782e-08
-5.00252e-07
5.46197e-08
-5.08846e-07
4.94655e-08
-5.16511e-07
4.4134e-08
-5.23221e-07
3.86437e-08
-5.28951e-07
3.30134e-08
-5.33681e-07
2.72622e-08
-5.37393e-07
2.14093e-08
-5.40074e-07
1.54742e-08
-5.41712e-07
9.47677e-09
-5.42301e-07
3.43692e-09
-5.41837e-07
-2.6251e-09
-5.40321e-07
-8.68883e-09
-5.37755e-07
-1.47336e-08
-5.34146e-07
-2.07385e-08
-5.29506e-07
-2.66824e-08
-5.23849e-07
-3.25443e-08
-5.17191e-07
-3.83026e-08
-5.09556e-07
-4.39359e-08
-5.00968e-07
-4.94227e-08
-4.91456e-07
-5.47413e-08
-4.81053e-07
-5.98703e-08
-4.69795e-07
-6.47882e-08
-4.57721e-07
-6.94736e-08
-4.44875e-07
-7.39054e-08
-4.31304e-07
-7.80628e-08
-4.17058e-07
-8.19252e-08
-4.02189e-07
-8.54727e-08
-3.86756e-07
-8.86858e-08
-3.70818e-07
-9.15455e-08
-3.54437e-07
-9.40339e-08
-3.37678e-07
-9.61338e-08
-3.20611e-07
-9.7829e-08
-3.03305e-07
-9.91043e-08
-2.85834e-07
-9.99463e-08
-2.6827e-07
-1.00342e-07
-2.50691e-07
-1.00282e-07
-2.33174e-07
-9.9757e-08
-2.15796e-07
-9.87599e-08
-1.98636e-07
-9.72866e-08
-1.81772e-07
-9.53351e-08
-1.65283e-07
-9.29067e-08
-1.49245e-07
-9.00054e-08
-1.33733e-07
-8.66393e-08
-1.18821e-07
-8.28203e-08
-1.04579e-07
-7.8565e-08
-9.10719e-08
-7.38955e-08
-7.83627e-08
-6.88397e-08
-6.65073e-08
-6.34327e-08
-5.55556e-08
-5.77176e-08
-4.55502e-08
-5.17469e-08
-3.65256e-08
-4.55837e-08
-2.85068e-08
-3.93042e-08
-2.1509e-08
-3.2999e-08
-1.55362e-08
-2.67762e-08
-1.05809e-08
-2.07638e-08
-6.62397e-09
-1.51134e-08
-3.63419e-09
-1.00036e-08
-1.56933e-09
-5.64369e-09
-3.77446e-10
-2.27724e-09
-2.03537e-10
-5.17837e-10
9.16641e-10
-2.09012e-09
4.40626e-09
-4.7393e-09
9.17013e-09
-8.48564e-09
1.48987e-08
-1.33437e-08
2.13376e-08
-1.93204e-08
2.82671e-08
-2.64137e-08
3.54991e-08
-3.46123e-08
4.28736e-08
-4.38957e-08
5.02561e-08
-5.42342e-08
5.75334e-08
-6.55901e-08
6.46112e-08
-7.79178e-08
7.14113e-08
-9.11648e-08
7.78697e-08
-1.05273e-07
8.39341e-08
-1.20178e-07
8.95628e-08
-1.35812e-07
9.47229e-08
-1.52105e-07
9.93891e-08
-1.68981e-07
1.03543e-07
-1.86363e-07
1.07171e-07
-2.04175e-07
1.10265e-07
-2.22336e-07
1.12821e-07
-2.40768e-07
1.14838e-07
-2.5939e-07
1.1632e-07
-2.78125e-07
1.17271e-07
-2.96892e-07
1.17698e-07
-3.15617e-07
1.17612e-07
-3.34221e-07
1.17024e-07
-3.52632e-07
1.15945e-07
-3.70777e-07
1.14391e-07
-3.88586e-07
1.12376e-07
-4.05991e-07
1.09916e-07
-4.22926e-07
1.07028e-07
-4.39329e-07
1.03729e-07
-4.55139e-07
1.00038e-07
-4.70299e-07
9.59731e-08
-4.84754e-07
9.15536e-08
-4.98453e-07
8.67992e-08
-5.11346e-07
8.17299e-08
-5.23389e-07
7.6366e-08
-5.34539e-07
7.07284e-08
-5.44758e-07
6.48379e-08
-5.54008e-07
5.87161e-08
-5.62259e-07
5.23846e-08
-5.6948e-07
4.58653e-08
-5.75647e-07
3.91805e-08
-5.80738e-07
3.23527e-08
-5.84734e-07
2.54048e-08
-5.87619e-07
1.83599e-08
-5.89384e-07
1.12413e-08
-5.9002e-07
4.07276e-09
-5.89523e-07
-3.12177e-09
-5.87894e-07
-1.03181e-08
-5.85135e-07
-1.74917e-08
-5.81256e-07
-2.4618e-08
-5.76266e-07
-3.1672e-08
-5.70182e-07
-3.86285e-08
-5.63022e-07
-4.54624e-08
-5.5481e-07
-5.21484e-08
-5.45572e-07
-5.86608e-08
-5.35339e-07
-6.49743e-08
-5.24146e-07
-7.10635e-08
-5.12031e-07
-7.6903e-08
-4.99037e-07
-8.24677e-08
-4.85209e-07
-8.77327e-08
-4.70599e-07
-9.26734e-08
-4.55258e-07
-9.72658e-08
-4.39245e-07
-1.01486e-07
-4.22619e-07
-1.05312e-07
-4.05444e-07
-1.08721e-07
-3.87786e-07
-1.11691e-07
-3.69716e-07
-1.14204e-07
-3.51306e-07
-1.16239e-07
-3.32631e-07
-1.1778e-07
-3.13767e-07
-1.1881e-07
-2.94794e-07
-1.19315e-07
-2.75793e-07
-1.19284e-07
-2.56845e-07
-1.18705e-07
-2.38033e-07
-1.17572e-07
-2.19441e-07
-1.15879e-07
-2.01151e-07
-1.13625e-07
-1.83247e-07
-1.10811e-07
-1.6581e-07
-1.07442e-07
-1.4892e-07
-1.03529e-07
-1.32655e-07
-9.90856e-08
-1.17089e-07
-9.41312e-08
-1.02293e-07
-8.86917e-08
-8.83324e-08
-8.27998e-08
-7.52693e-08
-7.64959e-08
-6.31577e-08
-6.98291e-08
-5.20454e-08
-6.28592e-08
-4.1972e-08
-5.56572e-08
-3.29684e-08
-4.83077e-08
-2.50565e-08
-4.0911e-08
-1.82479e-08
-3.35848e-08
-1.25443e-08
-2.64674e-08
-7.93732e-09
-1.97204e-08
-4.40888e-09
-1.35321e-08
-1.93239e-09
-8.12018e-09
-4.74782e-10
-3.73485e-09
-6.7832e-10
-6.15854e-10
1.53249e-09
-2.45815e-09
6.24857e-09
-5.52763e-09
1.22396e-08
-9.82542e-09
1.91965e-08
-1.53495e-08
2.68617e-08
-2.20924e-08
3.50101e-08
-3.00401e-08
4.34467e-08
-3.91707e-08
5.20043e-08
-4.94549e-08
6.05403e-08
-6.08552e-08
6.89338e-08
-7.33271e-08
7.70831e-08
-8.68189e-08
8.49031e-08
-1.01273e-07
9.23234e-08
-1.16625e-07
9.92863e-08
-1.32807e-07
1.05745e-07
-1.49747e-07
1.11663e-07
-1.67368e-07
1.17011e-07
-1.85593e-07
1.21767e-07
-2.04339e-07
1.25917e-07
-2.23525e-07
1.29451e-07
-2.43067e-07
1.32363e-07
-2.62881e-07
1.34653e-07
-2.82885e-07
1.36324e-07
-3.02994e-07
1.3738e-07
-3.23126e-07
1.37831e-07
-3.432e-07
1.37686e-07
-3.63136e-07
1.36959e-07
-3.82855e-07
1.35665e-07
-4.02282e-07
1.33818e-07
-4.21342e-07
1.31436e-07
-4.39964e-07
1.28538e-07
-4.58078e-07
1.25142e-07
-4.75618e-07
1.21269e-07
-4.92521e-07
1.16941e-07
-5.08725e-07
1.12177e-07
-5.24173e-07
1.07002e-07
-5.3881e-07
1.01436e-07
-5.52585e-07
9.5505e-08
-5.6545e-07
8.92309e-08
-5.7736e-07
8.26383e-08
-5.88274e-07
7.57516e-08
-5.98154e-07
6.85958e-08
-6.06965e-07
6.11959e-08
-6.14677e-07
5.35776e-08
-6.21264e-07
4.57668e-08
-6.26701e-07
3.77898e-08
-6.30969e-07
2.9673e-08
-6.34052e-07
2.14435e-08
-6.3594e-07
1.31285e-08
-6.36622e-07
4.75548e-09
-6.36096e-07
-3.64758e-09
-6.34362e-07
-1.20525e-08
-6.31423e-07
-2.04309e-08
-6.27287e-07
-2.87539e-08
-6.21966e-07
-3.69926e-08
-6.15477e-07
-4.51178e-08
-6.07839e-07
-5.31002e-08
-5.99077e-07