/*--------------------------------*- C++ -*----------------------------------*\
| =========                 |                                                 |
| \\      /  F ield         | OpenFOAM: The Open Source CFD Toolbox           |
|  \\    /   O peration     | Version:  2212                                  |
|   \\  /    A nd           | Website:  www.openfoam.com                      |
|    \\/     M anipulation  |                                                 |
\*---------------------------------------------------------------------------*/
FoamFile
{
    version     2.0;
    format      ascii;
    arch        "LSB;label=32;scalar=64";
    class       volVectorField;
    location    "0.084";
    object      U;
}
// * * * * * * * * * * * * * * * * * * * * * * * * * * * * * * * * * * * * * //

dimensions      [0 1 -1 0 0 0 0];

internalField   nonuniform List<vector> 
10000
(
(2.99532e-06 -2.98553e-06 0)
(1.48773e-05 -7.69001e-06 0)
(3.3804e-05 -8.88216e-06 0)
(5.16086e-05 -7.66226e-06 0)
(6.32876e-05 -5.16532e-06 0)
(6.6416e-05 -2.04783e-06 0)
(5.97345e-05 1.32764e-06 0)
(4.26674e-05 4.75519e-06 0)
(1.50933e-05 8.1173e-06 0)
(-2.28162e-05 1.13462e-05 0)
(-7.07024e-05 1.44036e-05 0)
(-0.000128083 1.7266e-05 0)
(-0.00019439 1.99191e-05 0)
(-0.000269003 2.23559e-05 0)
(-0.000351267 2.45742e-05 0)
(-0.000440505 2.65743e-05 0)
(-0.000536028 2.83571e-05 0)
(-0.000637146 2.99257e-05 0)
(-0.000743168 3.12834e-05 0)
(-0.000853414 3.24355e-05 0)
(-0.000967212 3.33868e-05 0)
(-0.0010839 3.41427e-05 0)
(-0.00120284 3.47098e-05 0)
(-0.00132339 3.5093e-05 0)
(-0.00144496 3.52985e-05 0)
(-0.00156693 3.53333e-05 0)
(-0.00168876 3.5204e-05 0)
(-0.00180986 3.49171e-05 0)
(-0.00192973 3.44782e-05 0)
(-0.00204784 3.38933e-05 0)
(-0.0021637 3.31691e-05 0)
(-0.00227684 3.23124e-05 0)
(-0.00238681 3.13291e-05 0)
(-0.00249318 3.02253e-05 0)
(-0.00259555 2.90074e-05 0)
(-0.00269353 2.76821e-05 0)
(-0.00278676 2.62557e-05 0)
(-0.00287489 2.4734e-05 0)
(-0.00295761 2.31237e-05 0)
(-0.00303461 2.14311e-05 0)
(-0.00310562 1.96621e-05 0)
(-0.00317039 1.78233e-05 0)
(-0.00322868 1.59208e-05 0)
(-0.00328028 1.39608e-05 0)
(-0.003325 1.19505e-05 0)
(-0.00336269 9.89581e-06 0)
(-0.00339319 7.80282e-06 0)
(-0.0034164 5.67896e-06 0)
(-0.00343221 3.53135e-06 0)
(-0.00344056 1.36626e-06 0)
(-0.00344139 -8.09255e-07 0)
(-0.0034347 -2.98775e-06 0)
(-0.00342048 -5.16212e-06 0)
(-0.00339877 -7.32496e-06 0)
(-0.00336961 -9.46849e-06 0)
(-0.0033331 -1.15851e-05 0)
(-0.00328934 -1.36673e-05 0)
(-0.00323847 -1.57071e-05 0)
(-0.00318065 -1.76967e-05 0)
(-0.00311607 -1.96282e-05 0)
(-0.00304495 -2.14936e-05 0)
(-0.00296753 -2.32844e-05 0)
(-0.00288409 -2.49924e-05 0)
(-0.00279494 -2.66096e-05 0)
(-0.0027004 -2.8128e-05 0)
(-0.00260083 -2.95391e-05 0)
(-0.00249662 -3.08348e-05 0)
(-0.00238818 -3.20072e-05 0)
(-0.00227595 -3.30482e-05 0)
(-0.00216039 -3.39499e-05 0)
(-0.002042 -3.47048e-05 0)
(-0.00192129 -3.53055e-05 0)
(-0.00179881 -3.57449e-05 0)
(-0.00167511 -3.60159e-05 0)
(-0.00155079 -3.61119e-05 0)
(-0.00142644 -3.60267e-05 0)
(-0.0013027 -3.57547e-05 0)
(-0.0011802 -3.52902e-05 0)
(-0.0010596 -3.46283e-05 0)
(-0.000941568 -3.37645e-05 0)
(-0.000826786 -3.26948e-05 0)
(-0.000715944 -3.14154e-05 0)
(-0.000609733 -2.99238e-05 0)
(-0.000508849 -2.82187e-05 0)
(-0.000413983 -2.63e-05 0)
(-0.000325819 -2.41684e-05 0)
(-0.000245025 -2.18253e-05 0)
(-0.000172245 -1.92749e-05 0)
(-0.000108091 -1.6525e-05 0)
(-5.31279e-05 -1.35877e-05 0)
(-7.85099e-06 -1.04808e-05 0)
(2.73406e-05 -7.23178e-06 0)
(5.21856e-05 -3.88455e-06 0)
(6.66236e-05 -5.12208e-07 0)
(7.08969e-05 2.76221e-06 0)
(6.57113e-05 5.72892e-06 0)
(5.24588e-05 8.02431e-06 0)
(3.36807e-05 9.00194e-06 0)
(1.4432e-05 7.56972e-06 0)
(2.77218e-06 2.77207e-06 0)
(7.69088e-06 -1.48564e-05 0)
(3.11949e-05 -3.11741e-05 0)
(6.27306e-05 -3.33139e-05 0)
(8.79758e-05 -2.54393e-05 0)
(9.74426e-05 -1.13933e-05 0)
(8.56417e-05 6.22206e-06 0)
(4.91964e-05 2.57065e-05 0)
(-1.37562e-05 4.59512e-05 0)
(-0.000103946 6.62268e-05 0)
(-0.000221303 8.60526e-05 0)
(-0.000365188 0.000105107 0)
(-0.000534561 0.000123174 0)
(-0.000728097 0.000140107 0)
(-0.00094427 0.000155807 0)
(-0.00118142 0.000170213 0)
(-0.00143778 0.000183288 0)
(-0.00171153 0.000195015 0)
(-0.00200083 0.000205387 0)
(-0.0023038 0.000214413 0)
(-0.00261858 0.000222104 0)
(-0.00294332 0.000228483 0)
(-0.00327619 0.000233574 0)
(-0.00361539 0.000237408 0)
(-0.00395917 0.000240017 0)
(-0.00430581 0.000241433 0)
(-0.00465363 0.000241696 0)
(-0.00500101 0.000240842 0)
(-0.00534639 0.000238911 0)
(-0.00568825 0.000235944 0)
(-0.00602512 0.000231981 0)
(-0.00635561 0.000227062 0)
(-0.00667838 0.00022123 0)
(-0.00699212 0.000214527 0)
(-0.00729563 0.000206994 0)
(-0.00758773 0.000198675 0)
(-0.00786731 0.000189611 0)
(-0.00813334 0.000179846 0)
(-0.00838483 0.000169423 0)
(-0.00862086 0.000158386 0)
(-0.00884057 0.000146777 0)
(-0.00904317 0.000134641 0)
(-0.00922794 0.000122022 0)
(-0.00939419 0.000108963 0)
(-0.00954133 9.55101e-05 0)
(-0.00966883 8.17075e-05 0)
(-0.00977621 6.76013e-05 0)
(-0.00986307 5.32376e-05 0)
(-0.00992908 3.8663e-05 0)
(-0.00997396 2.39252e-05 0)
(-0.00999753 9.07339e-06 0)
(-0.00999965 -5.84319e-06 0)
(-0.00998027 -2.07755e-05 0)
(-0.0099394 -3.56729e-05 0)
(-0.00987715 -5.04835e-05 0)
(-0.00979368 -6.51558e-05 0)
(-0.00968922 -7.96379e-05 0)
(-0.0095641 -9.3876e-05 0)
(-0.00941871 -0.000107816 0)
(-0.00925352 -0.000121404 0)
(-0.00906909 -0.000134585 0)
(-0.00886605 -0.000147305 0)
(-0.0086451 -0.000159506 0)
(-0.00840704 -0.000171135 0)
(-0.00815273 -0.000182136 0)
(-0.00788313 -0.000192454 0)
(-0.00759924 -0.000202034 0)
(-0.00730219 -0.000210821 0)
(-0.00699314 -0.000218762 0)
(-0.00667336 -0.000225804 0)
(-0.00634416 -0.000231897 0)
(-0.00600694 -0.000236991 0)
(-0.00566318 -0.000241037 0)
(-0.0053144 -0.00024399 0)
(-0.0049622 -0.000245806 0)
(-0.00460822 -0.000246443 0)
(-0.00425418 -0.000245864 0)
(-0.00390183 -0.000244034 0)
(-0.00355296 -0.000240921 0)
(-0.00320941 -0.000236498 0)
(-0.00287306 -0.000230743 0)
(-0.00254578 -0.000223637 0)
(-0.00222947 -0.000215169 0)
(-0.00192605 -0.000205334 0)
(-0.00163741 -0.000194139 0)
(-0.00136541 -0.000181596 0)
(-0.0011119 -0.000167731 0)
(-0.000878616 -0.000152586 0)
(-0.000667249 -0.000136221 0)
(-0.00047934 -0.000118724 0)
(-0.000316266 -0.000100218 0)
(-0.000179168 -8.08741e-05 0)
(-6.88679e-05 -6.09345e-05 0)
(1.42399e-05 -4.07451e-05 0)
(7.03521e-05 -2.08089e-05 0)
(0.000100486 -1.86985e-06 0)
(0.000106798 1.49566e-05 0)
(9.29378e-05 2.79908e-05 0)
(6.46122e-05 3.46968e-05 0)
(3.14105e-05 3.14078e-05 0)
(7.56164e-06 1.44207e-05 0)
(8.90287e-06 -3.38009e-05 0)
(3.34553e-05 -6.27439e-05 0)
(6.158e-05 -6.13092e-05 0)
(7.61545e-05 -3.828e-05 0)
(6.57256e-05 -8.32269e-07 0)
(2.31768e-05 4.5675e-05 0)
(-5.61976e-05 9.73874e-05 0)
(-0.000175208 0.000151582 0)
(-0.000335139 0.000206342 0)
(-0.000536122 0.000260319 0)
(-0.000777434 0.000312559 0)
(-0.00105771 0.000362389 0)
(-0.0013751 0.000409331 0)
(-0.00172742 0.000453052 0)
(-0.00211222 0.000493324 0)
(-0.00252688 0.000529999 0)
(-0.00296865 0.000562985 0)
(-0.00343471 0.000592238 0)
(-0.00392219 0.000617747 0)
(-0.00442819 0.000639532 0)
(-0.00494984 0.000657629 0)
(-0.00548428 0.000672097 0)
(-0.00602868 0.000683006 0)
(-0.00658027 0.000690435 0)
(-0.00713634 0.000694473 0)
(-0.00769424 0.000695217 0)
(-0.0082514 0.000692768 0)
(-0.0088053 0.000687234 0)
(-0.00935355 0.000678725 0)
(-0.00989379 0.000667352 0)
(-0.0104238 0.000653233 0)
(-0.0109414 0.000636484 0)
(-0.0114446 0.000617224 0)
(-0.0119313 0.000595572 0)
(-0.0123997 0.000571649 0)
(-0.0128481 0.000545579 0)
(-0.0132747 0.000517483 0)
(-0.013678 0.000487487 0)
(-0.0140565 0.000455714 0)
(-0.0144088 0.000422291 0)
(-0.0147337 0.000387343 0)
(-0.0150299 0.000351 0)
(-0.0152964 0.000313388 0)
(-0.0155322 0.000274639 0)
(-0.0157365 0.000234884 0)
(-0.0159085 0.000194256 0)
(-0.0160476 0.000152888 0)
(-0.0161532 0.000110917 0)
(-0.0162249 6.84824e-05 0)
(-0.0162624 2.5723e-05 0)
(-0.0162655 -1.72175e-05 0)
(-0.0162341 -6.01943e-05 0)
(-0.0161682 -0.000103062 0)
(-0.0160681 -0.000145674 0)
(-0.0159339 -0.000187877 0)
(-0.0157661 -0.000229521 0)
(-0.0155652 -0.000270454 0)
(-0.0153318 -0.00031052 0)
(-0.0150667 -0.000349562 0)
(-0.0147708 -0.000387423 0)
(-0.0144452 -0.000423945 0)
(-0.0140908 -0.00045897 0)
(-0.0137091 -0.000492339 0)
(-0.0133014 -0.000523894 0)
(-0.0128692 -0.000553478 0)
(-0.0124142 -0.000580935 0)
(-0.0119381 -0.000606111 0)
(-0.0114429 -0.000628854 0)
(-0.0109306 -0.000649017 0)
(-0.0104031 -0.000666455 0)
(-0.00986292 -0.000681029 0)
(-0.00931222 -0.000692605 0)
(-0.00875349 -0.000701054 0)
(-0.00818925 -0.000706257 0)
(-0.00762214 -0.0007081 0)
(-0.00705485 -0.000706481 0)
(-0.00649016 -0.000701306 0)
(-0.00593091 -0.000692494 0)
(-0.00537999 -0.000679976 0)
(-0.00484033 -0.000663698 0)
(-0.00431489 -0.000643624 0)
(-0.00380664 -0.000619734 0)
(-0.00331853 -0.000592036 0)
(-0.00285349 -0.000560562 0)
(-0.0024144 -0.000525375 0)
(-0.00200405 -0.000486579 0)
(-0.00162509 -0.000444325 0)
(-0.00128002 -0.000398828 0)
(-0.000971105 -0.00035038 0)
(-0.000700314 -0.000299381 0)
(-0.000469216 -0.000246372 0)
(-0.000278861 -0.00019209 0)
(-0.000129624 -0.000137543 0)
(-2.09879e-05 -8.41257e-05 0)
(4.87324e-05 -3.37792e-05 0)
(8.27452e-05 1.07811e-05 0)
(8.61215e-05 4.57687e-05 0)
(6.62624e-05 6.59948e-05 0)
(3.48183e-05 6.4636e-05 0)
(9.01111e-06 3.36707e-05 0)
(7.75149e-06 -5.17394e-05 0)
(2.58896e-05 -8.82618e-05 0)
(3.92307e-05 -7.60246e-05 0)
(3.03264e-05 -2.91243e-05 0)
(-1.28367e-05 4.17217e-05 0)
(-9.81174e-05 0.000128239 0)
(-0.000230885 0.000224191 0)
(-0.000414471 0.000324967 0)
(-0.000650501 0.00042718 0)
(-0.000939255 0.000528346 0)
(-0.00127996 0.000626644 0)
(-0.00167102 0.000720748 0)
(-0.00211022 0.000809686 0)
(-0.00259485 0.000892761 0)
(-0.00312186 0.000969477 0)
(-0.00368793 0.0010395 0)
(-0.00428954 0.00110259 0)
(-0.00492304 0.00115864 0)
(-0.00558471 0.00120759 0)
(-0.00627079 0.00124944 0)
(-0.00697748 0.00128424 0)
(-0.00770102 0.00131207 0)
(-0.00843768 0.00133305 0)
(-0.00918378 0.00134732 0)
(-0.00993572 0.00135504 0)
(-0.0106899 0.00135638 0)
(-0.011443 0.00135154 0)
(-0.0121916 0.0013407 0)
(-0.0129325 0.00132407 0)
(-0.0136625 0.00130188 0)
(-0.0143786 0.00127433 0)
(-0.015078 0.00124166 0)
(-0.0157577 0.00120409 0)
(-0.0164153 0.00116185 0)
(-0.0170481 0.00111518 0)
(-0.0176538 0.00106431 0)
(-0.0182301 0.00100949 0)
(-0.0187749 0.000950948 0)
(-0.0192861 0.000888937 0)
(-0.0197619 0.0008237 0)
(-0.0202006 0.000755483 0)
(-0.0206005 0.000684538 0)
(-0.0209604 0.000611118 0)
(-0.0212787 0.000535476 0)
(-0.0215544 0.000457871 0)
(-0.0217865 0.000378564 0)
(-0.0219741 0.00029782 0)
(-0.0221164 0.000215904 0)
(-0.0222129 0.00013309 0)
(-0.0222632 4.96512e-05 0)
(-0.0222671 -3.41332e-05 0)
(-0.0222243 -0.00011798 0)
(-0.022135 -0.000201603 0)
(-0.0219994 -0.000284713 0)
(-0.0218179 -0.000367016 0)
(-0.0215909 -0.000448217 0)
(-0.0213193 -0.000528015 0)
(-0.0210038 -0.000606108 0)
(-0.0206456 -0.000682193 0)
(-0.0202458 -0.000755963 0)
(-0.0198058 -0.00082711 0)
(-0.0193272 -0.000895327 0)
(-0.0188116 -0.000960306 0)
(-0.018261 -0.00102174 0)
(-0.0176775 -0.00107933 0)
(-0.0170631 -0.00113276 0)
(-0.0164204 -0.00118176 0)
(-0.0157519 -0.00122601 0)
(-0.0150602 -0.00126524 0)
(-0.0143482 -0.00129918 0)
(-0.013619 -0.00132755 0)
(-0.0128755 -0.00135009 0)
(-0.0121212 -0.00136658 0)
(-0.0113593 -0.00137677 0)
(-0.0105935 -0.00138047 0)
(-0.00982721 -0.00137747 0)
(-0.00906426 -0.0013676 0)
(-0.00830837 -0.00135073 0)
(-0.00756339 -0.00132673 0)
(-0.00683319 -0.0012955 0)
(-0.00612168 -0.00125701 0)
(-0.00543276 -0.00121123 0)
(-0.0047703 -0.0011582 0)
(-0.00413814 -0.00109801 0)
(-0.00353999 -0.00103081 0)
(-0.00297945 -0.000956851 0)
(-0.00245992 -0.000876453 0)
(-0.00198457 -0.00079008 0)
(-0.00155623 -0.000698345 0)
(-0.00117732 -0.000602067 0)
(-0.000849716 -0.000502329 0)
(-0.000574624 -0.000400568 0)
(-0.000352384 -0.000298696 0)
(-0.000182252 -0.000199264 0)
(-6.21168e-05 -0.000105693 0)
(1.18326e-05 -2.2566e-05 0)
(4.54079e-05 4.40043e-05 0)
(4.68263e-05 8.60139e-05 0)
(2.84422e-05 9.3248e-05 0)
(8.09684e-06 5.25594e-05 0)
(5.36127e-06 -6.37635e-05 0)
(1.22996e-05 -9.84198e-05 0)
(2.76139e-06 -6.62273e-05 0)
(-3.9004e-05 1.3787e-05 0)
(-0.0001245 0.000127478 0)
(-0.000261698 0.000263749 0)
(-0.000456123 0.000414004 0)
(-0.000711249 0.00057169 0)
(-0.00102881 0.000731844 0)
(-0.0014091 0.00089071 0)
(-0.00185125 0.00104546 0)
(-0.00235348 0.00119398 0)
(-0.00291325 0.00133467 0)
(-0.00352745 0.00146637 0)
(-0.00419251 0.00158823 0)
(-0.00490453 0.00169963 0)
(-0.00565934 0.00180018 0)
(-0.00645262 0.0018896 0)
(-0.0072799 0.00196777 0)
(-0.00813665 0.00203465 0)
(-0.00901829 0.00209029 0)
(-0.00992027 0.00213478 0)
(-0.010838 0.00216829 0)
(-0.0117671 0.00219101 0)
(-0.0127031 0.00220319 0)
(-0.0136416 0.00220509 0)
(-0.0145785 0.002197 0)
(-0.0155096 0.00217922 0)
(-0.0164309 0.00215208 0)
(-0.0173386 0.00211592 0)
(-0.0182289 0.00207109 0)
(-0.0190983 0.00201794 0)
(-0.0199433 0.00195683 0)
(-0.0207606 0.00188815 0)
(-0.0215471 0.00181226 0)
(-0.0222999 0.00172956 0)
(-0.023016 0.00164042 0)
(-0.0236929 0.00154524 0)
(-0.0243281 0.00144441 0)
(-0.0249193 0.00133834 0)
(-0.0254643 0.00122743 0)
(-0.0259611 0.00111207 0)
(-0.026408 0.000992698 0)
(-0.0268033 0.000869714 0)
(-0.0271457 0.000743541 0)
(-0.0274338 0.000614607 0)
(-0.0276665 0.000483342 0)
(-0.027843 0.000350184 0)
(-0.0279626 0.000215573 0)
(-0.0280247 7.99601e-05 0)
(-0.0280291 -5.62013e-05 0)
(-0.0279756 -0.000192452 0)
(-0.0278644 -0.000328325 0)
(-0.0276955 -0.000463349 0)
(-0.0274696 -0.000597046 0)
(-0.0271874 -0.000728936 0)
(-0.0268496 -0.000858532 0)
(-0.0264575 -0.000985342 0)
(-0.0260122 -0.00110887 0)
(-0.0255153 -0.00122863 0)
(-0.0249686 -0.00134412 0)
(-0.0243739 -0.00145483 0)
(-0.0237334 -0.00156028 0)
(-0.0230494 -0.00165997 0)
(-0.0223244 -0.0017534 0)
(-0.0215613 -0.0018401 0)
(-0.020763 -0.00191959 0)
(-0.0199325 -0.0019914 0)
(-0.0190733 -0.00205507 0)
(-0.0181889 -0.00211016 0)
(-0.0172829 -0.00215625 0)
(-0.0163593 -0.00219293 0)
(-0.0154219 -0.00221982 0)
(-0.0144751 -0.00223656 0)
(-0.0135231 -0.00224282 0)
(-0.0125703 -0.0022383 0)
(-0.0116213 -0.00222274 0)
(-0.0106806 -0.00219592 0)
(-0.00975299 -0.00215766 0)
(-0.00884313 -0.00210786 0)
(-0.00795578 -0.00204643 0)
(-0.00709566 -0.0019734 0)
(-0.00626745 -0.00188884 0)
(-0.00547575 -0.00179295 0)
(-0.00472502 -0.00168601 0)
(-0.00401954 -0.00156844 0)
(-0.00336335 -0.00144084 0)
(-0.00276014 -0.00130398 0)
(-0.00221324 -0.00115891 0)
(-0.00172543 -0.00100698 0)
(-0.00129885 -0.000849941 0)
(-0.000934853 -0.000690077 0)
(-0.000633808 -0.000530346 0)
(-0.000394885 -0.000374597 0)
(-0.000215801 -0.000227834 0)
(-9.25288e-05 -9.65667e-05 0)
(-1.9025e-05 1.07796e-05 0)
(1.31322e-05 8.34538e-05 0)
(1.59593e-05 0.000107912 0)
(5.91454e-06 6.61556e-05 0)
(2.37382e-06 -6.75187e-05 0)
(-4.78451e-06 -8.78286e-05 0)
(-4.26649e-05 -2.48824e-05 0)
(-0.000123935 9.82686e-05 0)
(-0.000258782 0.000264412 0)
(-0.000454802 0.000459848 0)
(-0.000717267 0.000673751 0)
(-0.00104947 0.000897674 0)
(-0.00145302 0.00112506 0)
(-0.00192809 0.00135083 0)
(-0.00247363 0.00157108 0)
(-0.00308764 0.0017828 0)
(-0.00376727 0.00198371 0)
(-0.00450904 0.00217208 0)
(-0.00530895 0.00234661 0)
(-0.00616261 0.00250639 0)
(-0.00706528 0.00265075 0)
(-0.00801204 0.00277926 0)
(-0.00899779 0.00289168 0)
(-0.0100173 0.00298789 0)
(-0.0110654 0.00306792 0)
(-0.0121367 0.00313187 0)
(-0.013226 0.00317996 0)
(-0.0143281 0.00321243 0)
(-0.0154379 0.0032296 0)
(-0.0165503 0.00323184 0)
(-0.0176603 0.00321955 0)
(-0.0187632 0.00319316 0)
(-0.0198543 0.00315313 0)
(-0.020929 0.00309994 0)
(-0.021983 0.00303408 0)
(-0.0230121 0.00295607 0)
(-0.0240121 0.00286644 0)
(-0.0249793 0.00276572 0)
(-0.02591 0.00265446 0)
(-0.0268006 0.00253323 0)
(-0.0276479 0.00240258 0)
(-0.0284486 0.00226308 0)
(-0.0292 0.00211532 0)
(-0.0298992 0.00195987 0)
(-0.0305437 0.00179733 0)
(-0.0311312 0.0016283 0)
(-0.0316596 0.00145337 0)
(-0.032127 0.00127316 0)
(-0.0325317 0.0010883 0)
(-0.0328721 0.000899393 0)
(-0.0331471 0.000707084 0)
(-0.0333555 0.000512015 0)
(-0.0334966 0.000314834 0)
(-0.0335698 0.000116198 0)
(-0.0335746 -8.32251e-05 0)
(-0.033511 -0.000282761 0)
(-0.033379 -0.000481725 0)
(-0.0331791 -0.000679429 0)
(-0.0329116 -0.000875172 0)
(-0.0325775 -0.00106825 0)
(-0.0321778 -0.00125795 0)
(-0.0317138 -0.00144355 0)
(-0.031187 -0.00162434 0)
(-0.0305993 -0.00179959 0)
(-0.0299526 -0.00196858 0)
(-0.0292492 -0.00213057 0)
(-0.0284916 -0.00228486 0)
(-0.0276827 -0.0024307 0)
(-0.0268254 -0.00256741 0)
(-0.0259229 -0.00269426 0)
(-0.0249787 -0.00281058 0)
(-0.0239965 -0.00291568 0)
(-0.0229803 -0.00300891 0)
(-0.0219341 -0.00308963 0)
(-0.0208623 -0.00315723 0)
(-0.0197694 -0.00321113 0)
(-0.0186601 -0.00325077 0)
(-0.0175394 -0.00327566 0)
(-0.0164121 -0.00328532 0)
(-0.0152836 -0.00327934 0)
(-0.014159 -0.00325736 0)
(-0.0130437 -0.00321908 0)
(-0.0119432 -0.00316426 0)
(-0.0108629 -0.00309277 0)
(-0.00980832 -0.00300454 0)
(-0.00878491 -0.00289961 0)
(-0.00779806 -0.00277817 0)
(-0.00685302 -0.0026405 0)
(-0.00595492 -0.00248708 0)
(-0.00510862 -0.00231859 0)
(-0.0043187 -0.00213591 0)
(-0.00358936 -0.00194024 0)
(-0.00292431 -0.00173311 0)
(-0.00232667 -0.0015165 0)
(-0.00179887 -0.00129294 0)
(-0.00134242 -0.00106564 0)
(-0.000957817 -0.000838679 0)
(-0.000644308 -0.000617273 0)
(-0.000399675 -0.000408026 0)
(-0.000219998 -0.000219334 0)
(-9.94032e-05 -6.18261e-05 0)
(-2.9741e-05 5.11899e-05 0)
(-1.31628e-07 0.000103149 0)
(3.10397e-06 7.20347e-05 0)
(-8.64782e-07 -6.1767e-05 0)
(-2.3759e-05 -5.31017e-05 0)
(-9.34423e-05 5.28064e-05 0)
(-0.000218698 0.000229885 0)
(-0.00040784 0.000458354 0)
(-0.000667706 0.000722231 0)
(-0.00100299 0.00100866 0)
(-0.00141654 0.00130743 0)
(-0.00190962 0.00161043 0)
(-0.00248212 0.00191129 0)
(-0.00313273 0.00220497 0)
(-0.00385916 0.00248756 0)
(-0.00465825 0.00275601 0)
(-0.00552615 0.00300798 0)
(-0.00645845 0.0032417 0)
(-0.00745031 0.00345586 0)
(-0.00849652 0.0036495 0)
(-0.00959161 0.00382199 0)
(-0.0107299 0.00397293 0)
(-0.0119056 0.00410211 0)
(-0.0131129 0.00420952 0)
(-0.0143459 0.00429526 0)
(-0.0155985 0.00435956 0)
(-0.0168651 0.00440273 0)
(-0.0181398 0.00442517 0)
(-0.019417 0.00442735 0)
(-0.0206909 0.00440978 0)
(-0.0219563 0.00437304 0)
(-0.0232078 0.00431773 0)
(-0.0244402 0.00424449 0)
(-0.0256486 0.00415398 0)
(-0.0268282 0.0040469 0)
(-0.0279743 0.00392396 0)
(-0.0290827 0.00378588 0)
(-0.030149 0.0036334 0)
(-0.0311694 0.00346729 0)
(-0.03214 0.00328831 0)
(-0.0330572 0.00309723 0)
(-0.0339177 0.00289485 0)
(-0.0347184 0.00268196 0)
(-0.0354565 0.00245938 0)
(-0.0361292 0.00222792 0)
(-0.0367341 0.0019884 0)
(-0.0372691 0.00174167 0)
(-0.0377323 0.00148858 0)
(-0.0381219 0.00122997 0)
(-0.0384364 0.000966718 0)
(-0.0386748 0.000699704 0)
(-0.0388361 0.000429818 0)
(-0.0389196 0.000157962 0)
(-0.0389248 -0.000114953 0)
(-0.0388517 -0.000388001 0)
(-0.0387003 -0.000660248 0)
(-0.0384711 -0.000930747 0)
(-0.0381646 -0.00119854 0)
(-0.0377818 -0.00146268 0)
(-0.037324 -0.00172217 0)
(-0.0367925 -0.00197604 0)
(-0.0361892 -0.00222332 0)
(-0.0355161 -0.002463 0)
(-0.0347756 -0.00269411 0)
(-0.0339701 -0.00291565 0)
(-0.0331026 -0.00312665 0)
(-0.0321763 -0.00332612 0)
(-0.0311945 -0.0035131 0)
(-0.030161 -0.00368664 0)
(-0.0290797 -0.0038458 0)
(-0.0279548 -0.00398966 0)
(-0.0267907 -0.00411734 0)
(-0.0255922 -0.00422798 0)
(-0.0243641 -0.00432076 0)
(-0.0231116 -0.0043949 0)
(-0.0218401 -0.00444967 0)
(-0.020555 -0.00448439 0)
(-0.019262 -0.00449845 0)
(-0.0179669 -0.00449129 0)
(-0.0166758 -0.00446245 0)
(-0.0153946 -0.00441156 0)
(-0.0141294 -0.00433832 0)
(-0.0128865 -0.00424258 0)
(-0.0116719 -0.00412428 0)
(-0.0104918 -0.00398353 0)
(-0.00935209 -0.00382061 0)
(-0.00825876 -0.00363597 0)
(-0.00721746 -0.00343031 0)
(-0.00623357 -0.00320457 0)
(-0.00531218 -0.00296002 0)
(-0.0044579 -0.00269831 0)
(-0.00367485 -0.00242154 0)
(-0.00296648 -0.00213238 0)
(-0.0023355 -0.00183416 0)
(-0.00178369 -0.0015311 0)
(-0.00131176 -0.00122844 0)
(-0.000919187 -0.000932726 0)
(-0.000604037 -0.000652138 0)
(-0.000362764 -0.00039685 0)
(-0.000189985 -0.000179511 0)
(-7.81981e-05 -1.57e-05 0)
(-1.82211e-05 7.54592e-05 0)
(1.64785e-08 6.88917e-05 0)
(-4.16539e-06 -4.59033e-05 0)
(-4.36159e-05 7.76692e-06 0)
(-0.000147125 0.000169938 0)
(-0.000319206 0.00041242 0)
(-0.00056595 0.00071341 0)
(-0.000893161 0.00105501 0)
(-0.0013047 0.00142258 0)
(-0.00180274 0.00180431 0)
(-0.00238804 0.00219065 0)
(-0.00306005 0.00257397 0)
(-0.0038171 0.00294815 0)
(-0.00465652 0.00330834 0)
(-0.0055748 0.00365072 0)
(-0.00656773 0.00397231 0)
(-0.0076305 0.00427081 0)
(-0.00875784 0.00454449 0)
(-0.00994408 0.00479208 0)
(-0.0111833 0.00501268 0)
(-0.0124692 0.00520573 0)
(-0.0137956 0.00537092 0)
(-0.0151561 0.00550815 0)
(-0.0165441 0.00561752 0)
(-0.0179532 0.00569925 0)
(-0.0193769 0.00575374 0)
(-0.020809 0.00578145 0)
(-0.022243 0.00578296 0)
(-0.0236729 0.00575891 0)
(-0.0250926 0.00571 0)
(-0.0264963 0.00563702 0)
(-0.0278782 0.00554075 0)
(-0.0292328 0.00542207 0)
(-0.0305549 0.00528184 0)
(-0.0318393 0.00512099 0)
(-0.0330811 0.00494045 0)
(-0.0342757 0.00474118 0)
(-0.0354186 0.00452415 0)
(-0.0365055 0.00429037 0)
(-0.0375326 0.00404083 0)
(-0.0384962 0.00377658 0)
(-0.0393927 0.00349864 0)
(-0.0402189 0.00320808 0)
(-0.0409719 0.00290595 0)
(-0.0416489 0.00259333 0)
(-0.0422477 0.00227132 0)
(-0.0427659 0.00194103 0)
(-0.0432018 0.00160356 0)
(-0.0435537 0.00126007 0)
(-0.0438204 0.000911681 0)
(-0.0440006 0.000559572 0)
(-0.0440938 0.000204915 0)
(-0.0440995 -0.000151098 0)
(-0.0440174 -0.000507263 0)
(-0.0438478 -0.00086236 0)
(-0.043591 -0.00121516 0)
(-0.0432478 -0.00156441 0)
(-0.0428193 -0.00190886 0)
(-0.0423067 -0.00224725 0)
(-0.0417118 -0.0025783 0)
(-0.0410365 -0.00290073 0)
(-0.040283 -0.00321327 0)
(-0.0394541 -0.00351462 0)
(-0.0385525 -0.00380351 0)
(-0.0375814 -0.00407866 0)
(-0.0365444 -0.00433881 0)
(-0.0354453 -0.0045827 0)
(-0.0342882 -0.00480912 0)
(-0.0330774 -0.00501684 0)
(-0.0318176 -0.00520468 0)
(-0.0305138 -0.00537152 0)
(-0.0291712 -0.00551624 0)
(-0.0277952 -0.00563779 0)
(-0.0263915 -0.00573517 0)
(-0.024966 -0.00580746 0)
(-0.0235248 -0.00585379 0)
(-0.0220743 -0.00587338 0)
(-0.0206207 -0.00586556 0)
(-0.0191707 -0.00582973 0)
(-0.0177309 -0.00576545 0)
(-0.0163081 -0.00567237 0)
(-0.0149091 -0.00555033 0)
(-0.0135405 -0.00539929 0)
(-0.012209 -0.00521944 0)
(-0.0109213 -0.00501118 0)
(-0.00968379 -0.00477516 0)
(-0.00850261 -0.0045123 0)
(-0.00738368 -0.0042239 0)
(-0.00633251 -0.00391161 0)
(-0.00535417 -0.00357759 0)
(-0.00445313 -0.00322455 0)
(-0.00363323 -0.00285587 0)
(-0.00289748 -0.00247575 0)
(-0.00224801 -0.00208939 0)
(-0.00168586 -0.00170318 0)
(-0.00121088 -0.00132499 0)
(-0.000821606 -0.000964452 0)
(-0.000515079 -0.000633378 0)
(-0.000286659 -0.000346207 0)
(-0.000129772 -0.000120449 0)
(-3.72852e-05 2.27257e-05 0)
(-3.15305e-06 5.60642e-05 0)
(-7.42949e-06 -1.97195e-05 0)
(-6.37357e-05 9.5795e-05 0)
(-0.000202088 0.000328302 0)
(-0.000422611 0.00064824 0)
(-0.000729003 0.00103229 0)
(-0.00112584 0.001461 0)
(-0.00161596 0.00191824 0)
(-0.00220071 0.00239077 0)
(-0.00288014 0.00286775 0)
(-0.00365319 0.00334036 0)
(-0.00451768 0.00380146 0)
(-0.00547052 0.00424529 0)
(-0.0065078 0.00466725 0)
(-0.00762489 0.00506372 0)
(-0.00881659 0.00543185 0)
(-0.0100772 0.00576947 0)
(-0.0114006 0.00607496 0)
(-0.0127804 0.00634718 0)
(-0.01421 0.00658534 0)
(-0.0156825 0.00678901 0)
(-0.017191 0.00695801 0)
(-0.0187286 0.0070924 0)
(-0.0202882 0.00719244 0)
(-0.0218628 0.00725855 0)
(-0.0234457 0.00729128 0)
(-0.0250299 0.0072913 0)
(-0.0266088 0.0072594 0)
(-0.0281758 0.00719643 0)
(-0.0297245 0.00710332 0)
(-0.0312488 0.00698108 0)
(-0.0327426 0.00683074 0)
(-0.0342001 0.0066534 0)
(-0.0356158 0.0064502 0)
(-0.0369843 0.00622229 0)
(-0.0383005 0.00597087 0)
(-0.0395596 0.00569716 0)
(-0.0407569 0.00540242 0)
(-0.0418881 0.00508789 0)
(-0.0429492 0.00475487 0)
(-0.0439363 0.00440467 0)
(-0.044846 0.0040386 0)
(-0.045675 0.00365801 0)
(-0.0464203 0.00326424 0)
(-0.0470793 0.00285869 0)
(-0.0476497 0.00244273 0)
(-0.0481294 0.00201777 0)
(-0.0485167 0.00158525 0)
(-0.04881 0.0011466 0)
(-0.0490083 0.000703298 0)
(-0.0491108 0.000256812 0)
(-0.0491169 -0.000191356 0)
(-0.0490265 -0.000639688 0)
(-0.0488397 -0.00108665 0)
(-0.048557 -0.0015307 0)
(-0.0481792 -0.00197028 0)
(-0.0477075 -0.00240379 0)
(-0.0471434 -0.00282967 0)
(-0.0464885 -0.0032463 0)
(-0.0457452 -0.00365209 0)
(-0.0449159 -0.00404543 0)
(-0.0440034 -0.00442471 0)
(-0.0430109 -0.00478833 0)
(-0.0419419 -0.0051347 0)
(-0.0408002 -0.00546224 0)
(-0.03959 -0.00576938 0)
(-0.0383158 -0.00605459 0)
(-0.0369823 -0.00631636 0)
(-0.0355947 -0.00655323 0)
(-0.0341583 -0.00676377 0)
(-0.0326788 -0.00694663 0)
(-0.0311621 -0.00710048 0)
(-0.0296145 -0.00722412 0)
(-0.0280423 -0.00731637 0)
(-0.0264522 -0.0073762 0)
(-0.0248509 -0.00740266 0)
(-0.0232456 -0.0073949 0)
(-0.0216433 -0.00735225 0)
(-0.0200512 -0.00727414 0)
(-0.0184766 -0.00716022 0)
(-0.0169269 -0.00701028 0)
(-0.0154093 -0.00682435 0)
(-0.013931 -0.0066027 0)
(-0.0124992 -0.00634588 0)
(-0.0111207 -0.00605472 0)
(-0.00980232 -0.00573046 0)
(-0.00855033 -0.0053747 0)
(-0.00737071 -0.00498956 0)
(-0.00626893 -0.00457772 0)
(-0.00524988 -0.0041425 0)
(-0.00431778 -0.00368805 0)
(-0.00347603 -0.0032194 0)
(-0.00272717 -0.00274274 0)
(-0.00207267 -0.00226556 0)
(-0.00151291 -0.00179697 0)
(-0.001047 -0.00134795 0)
(-0.000672788 -0.000931777 0)
(-0.000386541 -0.000564419 0)
(-0.000182805 -0.000264971 0)
(-5.66851e-05 -5.61649e-05 0)
(-6.2994e-06 3.3301e-05 0)
(-1.06074e-05 1.67574e-05 0)
(-8.37443e-05 0.000211342 0)
(-0.000257272 0.000528758 0)
(-0.000526976 0.000938645 0)
(-0.000894101 0.00141661 0)
(-0.00136189 0.001942 0)
(-0.00193204 0.00249744 0)
(-0.0026049 0.00306848 0)
(-0.00337975 0.00364314 0)
(-0.00425485 0.00421151 0)
(-0.00522746 0.0047655 0)
(-0.00629398 0.00529848 0)
(-0.00745004 0.00580512 0)
(-0.00869057 0.00628113 0)
(-0.0100099 0.00672314 0)
(-0.011402 0.00712852 0)
(-0.0128602 0.00749532 0)
(-0.0143778 0.00782208 0)
(-0.0159476 0.00810782 0)
(-0.0175624 0.00835197 0)
(-0.0192147 0.00855425 0)
(-0.0208972 0.00871469 0)
(-0.0226023 0.00883355 0)
(-0.0243226 0.00891128 0)
(-0.0260507 0.00894853 0)
(-0.0277793 0.00894607 0)
(-0.0295012 0.00890481 0)
(-0.0312094 0.00882576 0)
(-0.0328971 0.00871005 0)
(-0.0345576 0.00855885 0)
(-0.0361843 0.00837342 0)
(-0.0377712 0.00815508 0)
(-0.0393121 0.00790519 0)
(-0.0408014 0.00762516 0)
(-0.0422335 0.00731645 0)
(-0.0436031 0.00698052 0)
(-0.0449054 0.00661891 0)
(-0.0461357 0.00623314 0)
(-0.0472895 0.00582479 0)
(-0.0483628 0.00539545 0)
(-0.0493518 0.00494673 0)
(-0.0502529 0.00448027 0)
(-0.0510631 0.00399772 0)
(-0.0517795 0.00350077 0)
(-0.0523994 0.00299113 0)
(-0.0529208 0.0024705 0)
(-0.0533416 0.00194065 0)
(-0.0536604 0.00140333 0)
(-0.0538759 0.000860342 0)
(-0.0539873 0.000313487 0)
(-0.053994 -0.000235398 0)
(-0.0538958 -0.000784461 0)
(-0.0536928 -0.00133183 0)
(-0.0533857 -0.00187561 0)
(-0.0529753 -0.00241389 0)
(-0.0524628 -0.00294475 0)
(-0.0518498 -0.00346625 0)
(-0.0511384 -0.00397644 0)
(-0.0503307 -0.00447337 0)
(-0.0494295 -0.00495508 0)
(-0.0484378 -0.00541961 0)
(-0.0473591 -0.00586501 0)
(-0.0461972 -0.00628934 0)
(-0.0449561 -0.00669068 0)
(-0.0436404 -0.00706714 0)
(-0.0422548 -0.00741684 0)
(-0.0408046 -0.00773797 0)
(-0.0392951 -0.00802875 0)
(-0.0377323 -0.00828745 0)
(-0.0361222 -0.00851243 0)
(-0.0344711 -0.00870212 0)
(-0.0327858 -0.00885503 0)
(-0.0310731 -0.00896979 0)
(-0.0293401 -0.00904514 0)
(-0.0275943 -0.00907994 0)
(-0.0258429 -0.00907322 0)
(-0.0240938 -0.00902416 0)
(-0.0223546 -0.00893213 0)
(-0.0206332 -0.00879671 0)
(-0.0189373 -0.00861772 0)
(-0.0172747 -0.00839521 0)
(-0.0156532 -0.00812957 0)
(-0.0140804 -0.00782148 0)
(-0.0125637 -0.00747203 0)
(-0.0111102 -0.00708271 0)
(-0.00972673 -0.00665553 0)
(-0.00841967 -0.00619303 0)
(-0.00719495 -0.00569844 0)
(-0.00605786 -0.00517571 0)
(-0.00501307 -0.00462973 0)
(-0.00406442 -0.00406637 0)
(-0.00321493 -0.00349276 0)
(-0.00246662 -0.00291744 0)
(-0.00182046 -0.00235065 0)
(-0.00127633 -0.00180459 0)
(-0.000832948 -0.00129381 0)
(-0.00048765 -0.000835578 0)
(-0.000236207 -0.000450236 0)
(-7.60304e-05 -0.000161652 0)
(-9.3685e-06 5.9702e-07 0)
(-1.36764e-05 6.33644e-05 0)
(-0.000103423 0.000354343 0)
(-0.000312002 0.000771521 0)
(-0.000631006 0.00128417 0)
(-0.00105925 0.00186717 0)
(-0.00159859 0.00249897 0)
(-0.00224949 0.00316124 0)
(-0.00301125 0.00383847 0)
(-0.00388225 0.0045177 0)
(-0.00485999 0.00518807 0)
(-0.00594109 0.0058406 0)
(-0.00712137 0.00646788 0)
(-0.00839594 0.00706385 0)
(-0.00975924 0.00762362 0)
(-0.0112052 0.00814329 0)
(-0.0127272 0.00861979 0)
(-0.0143184 0.00905079 0)
(-0.0159713 0.00943457 0)
(-0.0176786 0.00976993 0)
(-0.0194324 0.0100561 0)
(-0.021225 0.0102928 0)
(-0.0230485 0.01048 0)
(-0.0248949 0.0106179 0)
(-0.0267563 0.010707 0)
(-0.0286249 0.010748 0)
(-0.030493 0.0107418 0)
(-0.0323529 0.0106896 0)
(-0.0341971 0.0105924 0)
(-0.0360184 0.0104515 0)
(-0.0378097 0.0102683 0)
(-0.0395641 0.0100444 0)
(-0.041275 0.0097812 0)
(-0.0429359 0.0094804 0)
(-0.0445407 0.00914363 0)
(-0.0460837 0.00877262 0)
(-0.0475591 0.00836914 0)
(-0.0489617 0.00793498 0)
(-0.0502865 0.00747198 0)
(-0.0515289 0.006982 0)
(-0.0526845 0.00646695 0)
(-0.0537491 0.00592876 0)
(-0.0547192 0.00536937 0)
(-0.0555913 0.00479077 0)
(-0.0563623 0.00419498 0)
(-0.0570295 0.00358402 0)
(-0.0575906 0.00295996 0)
(-0.0580436 0.00232489 0)
(-0.0583868 0.00168092 0)
(-0.0586188 0.00103018 0)
(-0.0587389 0.000374854 0)
(-0.0587463 -0.000282878 0)
(-0.0586408 -0.000940798 0)
(-0.0584228 -0.00159667 0)
(-0.0580926 -0.00224823 0)
(-0.0576513 -0.00289319 0)
(-0.0571002 -0.00352927 0)
(-0.056441 -0.00415414 0)
(-0.0556757 -0.00476549 0)
(-0.0548069 -0.00536098 0)
(-0.0538374 -0.00593827 0)
(-0.0527705 -0.00649504 0)
(-0.0516098 -0.00702897 0)
(-0.0503593 -0.00753773 0)
(-0.0490235 -0.00801906 0)