/*--------------------------------*- C++ -*----------------------------------*\
| =========                 |                                                 |
| \\      /  F ield         | OpenFOAM: The Open Source CFD Toolbox           |
|  \\    /   O peration     | Version:  2212                                  |
|   \\  /    A nd           | Website:  www.openfoam.com                      |
|    \\/     M anipulation  |                                                 |
\*---------------------------------------------------------------------------*/
FoamFile
{
    version     2.0;
    format      ascii;
    arch        "LSB;label=32;scalar=64";
    class       surfaceScalarField;
    location    "0.064";
    object      phi_0;
}
// * * * * * * * * * * * * * * * * * * * * * * * * * * * * * * * * * * * * * //

dimensions      [0 3 -1 0 0 0 0];

oriented        oriented;

internalField   nonuniform List<scalar> 
19800
(
6.79543e-11
-6.792e-11
2.33558e-10
-1.65602e-10
4.16117e-10
-1.82548e-10
5.58404e-10
-1.42287e-10
6.2828e-10
-6.98764e-11
6.08517e-10
1.97671e-11
4.90719e-10
1.17802e-10
2.71933e-10
2.18782e-10
-4.73029e-11
3.19237e-10
-4.64263e-10
4.16957e-10
-9.7475e-10
5.10497e-10
-1.57365e-09
5.98905e-10
-2.25519e-09
6.81545e-10
-3.01319e-09
7.58011e-10
-3.84121e-09
8.28033e-10
-4.73269e-09
8.91475e-10
-5.68096e-09
9.48281e-10
-6.67941e-09
9.98449e-10
-7.72145e-09
1.04203e-09
-8.80056e-09
1.07911e-09
-9.91035e-09
1.10979e-09
-1.10446e-08
1.13421e-09
-1.21971e-08
1.15253e-09
-1.3362e-08
1.16491e-09
-1.45335e-08
1.17151e-09
-1.57061e-08
1.17253e-09
-1.68742e-08
1.16814e-09
-1.80328e-08
1.15855e-09
-1.91767e-08
1.14395e-09
-2.03013e-08
1.12455e-09
-2.14018e-08
1.10054e-09
-2.24739e-08
1.07213e-09
-2.35135e-08
1.03953e-09
-2.45164e-08
1.00293e-09
-2.54789e-08
9.62556e-10
-2.63975e-08
9.186e-10
-2.72688e-08
8.71275e-10
-2.80896e-08
8.20793e-10
-2.8857e-08
7.67361e-10
-2.95682e-08
7.11183e-10
-3.02207e-08
6.52476e-10
-3.08121e-08
5.91449e-10
-3.13404e-08
5.28311e-10
-3.18037e-08
4.63279e-10
-3.22002e-08
3.96564e-10
-3.25286e-08
3.28387e-10
-3.27876e-08
2.58974e-10
-3.29762e-08
1.88548e-10
-3.30935e-08
1.17337e-10
-3.31391e-08
4.55689e-11
-3.31125e-08
-2.65239e-11
-3.30138e-08
-9.87021e-11
-3.28431e-08
-1.70727e-10
-3.26007e-08
-2.42358e-10
-3.22874e-08
-3.1334e-10
-3.1904e-08
-3.83419e-10
-3.14516e-08
-4.52351e-10
-3.09317e-08
-5.19876e-10
-3.0346e-08
-5.85725e-10
-2.96964e-08
-6.49639e-10
-2.8985e-08
-7.11354e-10
-2.82144e-08
-7.70594e-10
-2.73873e-08
-8.27093e-10
-2.65068e-08
-8.80593e-10
-2.55759e-08
-9.30824e-10
-2.45984e-08
-9.77518e-10
-2.3578e-08
-1.02041e-09
-2.25188e-08
-1.05924e-09
-2.1425e-08
-1.09375e-09
-2.03013e-08
-1.12367e-09
-1.91526e-08
-1.14879e-09
-1.79837e-08
-1.16886e-09
-1.68001e-08
-1.18365e-09
-1.56071e-08
-1.19294e-09
-1.44106e-08
-1.19654e-09
-1.32163e-08
-1.19423e-09
-1.20305e-08
-1.18584e-09
-1.08593e-08
-1.17122e-09
-9.70906e-09
-1.15022e-09
-8.58634e-09
-1.12272e-09
-7.49771e-09
-1.08863e-09
-6.44982e-09
-1.04788e-09
-5.44938e-09
-1.00044e-09
-4.50308e-09
-9.46306e-10
-3.61756e-09
-8.85515e-10
-2.79939e-09
-8.18169e-10
-2.05494e-09
-7.44444e-10
-1.39034e-09
-6.64604e-10
-8.11311e-10
-5.7903e-10
-3.23036e-10
-4.88273e-10
7.00777e-11
-3.93114e-10
3.64732e-10
-2.94659e-10
5.59234e-10
-1.94505e-10
6.5426e-10
-9.50225e-11
6.54109e-10
1.5681e-13
5.68611e-10
8.54979e-11
4.16372e-10
1.52232e-10
2.29997e-10
1.86371e-10
6.51318e-11
1.64869e-10
6.51318e-11
1.6265e-10
-2.30572e-10
4.48068e-10
-4.51035e-10
7.21877e-10
-4.56357e-10
8.84879e-10
-3.05286e-10
8.68657e-10
-5.36609e-11
6.29898e-10
2.58515e-10
1.43667e-10
6.04028e-10
-6.01913e-10
9.64363e-10
-1.60958e-09
1.32689e-09
-2.87555e-09
1.68292e-09
-4.39149e-09
2.02644e-09
-6.14585e-09
2.35324e-09
-8.12473e-09
2.66042e-09
-1.03127e-08
2.94597e-09
-1.26932e-08
3.20853e-09
-1.5249e-08
3.44725e-09
-1.79624e-08
3.66163e-09
-2.08154e-08
3.85148e-09
-2.37901e-08
4.01679e-09
-2.68687e-08
4.15773e-09
-3.00335e-08
4.27458e-09
-3.32671e-08
4.36778e-09
-3.65523e-08
4.4378e-09
-3.98726e-08
4.48519e-09
-4.32117e-08
4.51057e-09
-4.65537e-08
4.51458e-09
-4.98835e-08
4.49789e-09
-5.31861e-08
4.46123e-09
-5.64475e-08
4.40532e-09
-5.96539e-08
4.33091e-09
-6.27921e-08
4.23875e-09
-6.58495e-08
4.1296e-09
-6.88143e-08
4.00425e-09
-7.16748e-08
3.86349e-09
-7.44204e-08
3.70811e-09
-7.70407e-08
3.5389e-09
-7.9526e-08
3.35665e-09
-8.18674e-08
3.16217e-09
-8.40563e-08
2.95626e-09
-8.60848e-08
2.73972e-09
-8.79457e-08
2.51338e-09
-8.96324e-08
2.27806e-09
-9.11387e-08
2.03459e-09
-9.24592e-08
1.7838e-09
-9.35892e-08
1.52653e-09
-9.45244e-08
1.26363e-09
-9.52614e-08
9.95963e-10
-9.57972e-08
7.244e-10
-9.61297e-08
4.49824e-10
-9.62573e-08
1.73133e-10
-9.6179e-08
-1.04763e-10
-9.58948e-08
-3.82953e-10
-9.5405e-08
-6.60497e-10
-9.47109e-08
-9.36446e-10
-9.38144e-08
-1.20984e-09
-9.27181e-08
-1.4797e-09
-9.14254e-08
-1.74505e-09
-8.99404e-08
-2.00489e-09
-8.82679e-08
-2.25823e-09
-8.64135e-08
-2.50404e-09
-8.43835e-08
-2.74129e-09
-8.21852e-08
-2.96898e-09
-7.98262e-08
-3.18605e-09
-7.73153e-08
-3.3915e-09
-7.46618e-08
-3.58431e-09
-7.18759e-08
-3.76346e-09
-6.89683e-08
-3.92796e-09
-6.59508e-08
-4.07679e-09
-6.28355e-08
-4.209e-09
-5.96356e-08
-4.32363e-09
-5.63646e-08
-4.41976e-09
-5.30369e-08
-4.49651e-09
-4.96675e-08
-4.55305e-09
-4.62719e-08
-4.58856e-09
-4.28662e-08
-4.60227e-09
-3.94669e-08
-4.59348e-09
-3.60912e-08
-4.56157e-09
-3.27564e-08
-4.50596e-09
-2.94805e-08
-4.42617e-09
-2.62814e-08
-4.32181e-09
-2.31774e-08
-4.19261e-09
-2.01869e-08
-4.0384e-09
-1.73282e-08
-3.85915e-09
-1.46195e-08
-3.65501e-09
-1.20787e-08
-3.42631e-09
-9.72317e-09
-3.17365e-09
-7.56971e-09
-2.89791e-09
-5.63394e-09
-2.60037e-09
-3.93012e-09
-2.28284e-09
-2.4706e-09
-1.94779e-09
-1.26512e-09
-1.5986e-09
-3.1984e-10
-1.23994e-09
3.63935e-10
-8.78279e-10
7.91628e-10
-5.22713e-10
9.77951e-10
-1.8617e-10
9.50618e-10
1.12829e-10
7.55121e-10
3.47735e-10
4.6062e-10
4.8088e-10
1.6478e-10
4.60708e-10
2.2991e-10
1.77578e-10
-4.08139e-10
4.48369e-10
-7.21821e-10
6.48226e-10
-6.5622e-10
6.58924e-10
-3.15976e-10
3.94806e-10
2.10444e-10
-2.0223e-10
8.55542e-10
-1.16828e-09
1.57009e-09
-2.52254e-09
2.31861e-09
-4.27138e-09
3.07574e-09
-6.41159e-09
3.82314e-09
-8.93278e-09
4.54764e-09
-1.18193e-08
5.23974e-09
-1.50514e-08
5.89262e-09
-1.86069e-08
6.50139e-09
-2.2461e-08
7.06269e-09
-2.6588e-08
7.57422e-09
-3.09609e-08
8.03455e-09
-3.55523e-08
8.4429e-09
-4.03346e-08
8.79901e-09
-4.52799e-08
9.103e-09
-5.03607e-08
9.35535e-09
-5.55496e-08
9.55674e-09
-6.08199e-08
9.7081e-09
-6.61453e-08
9.81052e-09
-7.14999e-08
9.8652e-09
-7.68588e-08
9.87346e-09
-8.21976e-08
9.83672e-09
-8.74928e-08
9.75647e-09
-9.27218e-08
9.63424e-09
-9.78625e-08
9.47161e-09
-1.02894e-07
9.2702e-09
-1.07796e-07
9.03167e-09
-1.12549e-07
8.75769e-09
-1.17136e-07
8.44996e-09
-1.21538e-07
8.11019e-09
-1.25739e-07
7.74011e-09
-1.29724e-07
7.34147e-09
-1.33478e-07
6.91601e-09
-1.36987e-07
6.46549e-09
-1.40239e-07
5.99169e-09
-1.43222e-07
5.49639e-09
-1.45925e-07
4.9814e-09
-1.48339e-07
4.44854e-09
-1.50455e-07
3.89965e-09
-1.52265e-07
3.33658e-09
-1.53763e-07
2.76121e-09
-1.54942e-07
2.17541e-09
-1.55799e-07
1.58113e-09
-1.56329e-07
9.80301e-10
-1.56531e-07
3.74891e-10
-1.56403e-07
-2.33097e-10
-1.55944e-07
-8.41643e-10
-1.55156e-07
-1.4487e-09
-1.5404e-07
-2.05218e-09
-1.526e-07
-2.64997e-09
-1.5084e-07
-3.23996e-09
-1.48765e-07
-3.81997e-09
-1.46382e-07
-4.38783e-09
-1.43699e-07
-4.94135e-09
-1.40725e-07
-5.47832e-09
-1.37469e-07
-5.9965e-09
-1.33945e-07
-6.49366e-09
-1.30163e-07
-6.96757e-09
-1.26139e-07
-7.416e-09
-1.21886e-07
-7.83673e-09
-1.17422e-07
-8.22758e-09
-1.12764e-07
-8.58637e-09
-1.0793e-07
-8.91096e-09
-1.02939e-07
-9.19925e-09
-9.78137e-08
-9.4492e-09
-9.25747e-08
-9.65884e-09
-8.72449e-08
-9.82629e-09
-8.18482e-08
-9.94973e-09
-7.64093e-08
-1.00274e-08
-7.09537e-08
-1.00579e-08
-6.55077e-08
-1.00395e-08
-6.00982e-08
-9.97105e-09
-5.47528e-08
-9.85137e-09
-4.94995e-08
-9.67952e-09
-4.43665e-08
-9.45477e-09
-3.93825e-08
-9.17662e-09
-3.4576e-08
-8.84487e-09
-2.99755e-08
-8.45966e-09
-2.5609e-08
-8.02151e-09
-2.1504e-08
-7.5314e-09
-1.76867e-08
-6.99089e-09
-1.41823e-08
-6.40226e-09
-1.10141e-08
-5.76866e-09
-8.20253e-09
-5.09438e-09
-5.76511e-09
-4.38521e-09
-3.71484e-09
-3.64886e-09
-2.05903e-09
-2.89574e-09
-7.97488e-10
-2.13982e-09
7.98181e-11
-1.40002e-09
5.95781e-10
-7.02137e-10
7.89975e-10
-8.13639e-11
7.23284e-10
4.14434e-10
4.82835e-10
7.21329e-10
1.86854e-10
7.56685e-10
4.16768e-10
1.39723e-10
-5.47866e-10
3.01973e-10
-8.84055e-10
3.13929e-10
-6.68179e-10
5.05485e-11
-5.25766e-11
-5.8027e-10
8.41246e-10
-1.64307e-09
1.91835e-09
-3.17966e-09
3.10665e-09
-5.21341e-09
4.35237e-09
-7.75311e-09
5.61543e-09
-1.0796e-08
6.86601e-09
-1.43303e-08
8.082e-09
-1.83376e-08
9.24695e-09
-2.27937e-08
1.03488e-08
-2.76709e-08
1.13786e-08
-3.29384e-08
1.23301e-08
-3.8563e-08
1.31989e-08
-4.45104e-08
1.39819e-08
-5.07449e-08
1.46775e-08
-5.72306e-08
1.52847e-08
-6.3931e-08
1.58035e-08
-7.08101e-08
1.62344e-08
-7.78316e-08
1.65783e-08
-8.49602e-08
1.68366e-08
-9.21607e-08
1.70111e-08
-9.9399e-08
1.71035e-08
-1.06642e-07
1.71161e-08
-1.13856e-07
1.70512e-08
-1.21011e-07
1.69112e-08
-1.28075e-07
1.66987e-08
-1.3502e-07
1.64164e-08
-1.41817e-07
1.60671e-08
-1.48439e-07
1.56535e-08
-1.5486e-07
1.51785e-08
-1.61055e-07
1.46451e-08
-1.67001e-07
1.40561e-08
-1.72675e-07
1.34145e-08
-1.78057e-07
1.27233e-08
-1.83126e-07
1.19857e-08
-1.87866e-07
1.12045e-08
-1.92257e-07
1.0383e-08
-1.96285e-07
9.52416e-09
-1.99934e-07
8.63116e-09
-2.03193e-07
7.70718e-09
-2.06049e-07
6.7554e-09
-2.08491e-07
5.77904e-09
-2.10511e-07
4.78137e-09
-2.12102e-07
3.7657e-09
-2.13256e-07
2.73535e-09
-2.13969e-07
1.69373e-09
-2.14239e-07
6.44247e-10
-2.14062e-07
-4.0962e-10
-2.13439e-07
-1.46434e-09
-2.12372e-07
-2.51636e-09
-2.10862e-07
-3.56206e-09
-2.08914e-07
-4.59778e-09
-2.06534e-07
-5.61984e-09
-2.0373e-07
-6.62448e-09
-2.0051e-07
-7.60794e-09
-1.96885e-07
-8.56642e-09
-1.92867e-07
-9.49608e-09
-1.8847e-07
-1.03931e-08
-1.8371e-07
-1.12536e-08
-1.78604e-07
-1.20738e-08
-1.7317e-07
-1.28497e-08
-1.67429e-07
-1.35777e-08
-1.61403e-07
-1.42539e-08
-1.55115e-07
-1.48746e-08
-1.4859e-07
-1.54361e-08
-1.41854e-07
-1.59349e-08
-1.34936e-07
-1.63674e-08
-1.27864e-07
-1.67304e-08
-1.2067e-07
-1.70206e-08
-1.13385e-07
-1.72349e-08
-1.06042e-07
-1.73705e-08
-9.86748e-08
-1.74248e-08
-9.1319e-08
-1.73952e-08
-8.40103e-08
-1.72798e-08
-7.67852e-08
-1.70765e-08
-6.96808e-08
-1.67839e-08
-6.27346e-08
-1.6401e-08
-5.59841e-08
-1.59271e-08
-4.94669e-08
-1.53621e-08
-4.32202e-08
-1.47064e-08
-3.72805e-08
-1.39612e-08
-3.16832e-08
-1.31287e-08
-2.64622e-08
-1.22118e-08
-2.16495e-08
-1.12149e-08
-1.72743e-08
-1.01439e-08
-1.33622e-08
-9.00647e-09
-9.9344e-09
-7.81301e-09
-7.00623e-09
-6.57703e-09
-4.58568e-09
-5.3163e-09
-2.67139e-09
-4.0541e-09
-1.25027e-09
-2.82113e-09
-2.94545e-10
-1.65786e-09
2.4173e-10
-6.17635e-10
4.26725e-10
2.2944e-10
3.55247e-10
7.92803e-10
1.54417e-10
9.57515e-10
5.7119e-10
7.1554e-11
-6.19426e-10
6.00804e-11
-8.72581e-10
-1.98281e-10
-4.09828e-10
-8.25347e-10
5.74471e-10
-1.91215e-09
1.92807e-09
-3.52383e-09
3.53002e-09
-5.70342e-09
5.28625e-09
-8.47554e-09
7.12449e-09
-1.18495e-08
8.98942e-09
-1.58223e-08
1.08388e-08
-2.03808e-08
1.26405e-08
-2.55038e-08
1.437e-08
-3.1164e-08
1.60089e-08
-3.73289e-08
1.75436e-08
-4.39626e-08
1.89638e-08
-5.10262e-08
2.02624e-08
-5.84785e-08
2.14343e-08
-6.62774e-08
2.24763e-08
-7.43795e-08
2.33867e-08
-8.27409e-08
2.4165e-08
-9.1318e-08
2.48114e-08
-1.00067e-07
2.53271e-08
-1.08944e-07
2.5714e-08
-1.17907e-07
2.59742e-08
-1.26914e-07
2.61105e-08
-1.35924e-07
2.6126e-08
-1.44897e-07
2.6024e-08
-1.53794e-07
2.58081e-08
-1.62578e-07
2.54822e-08
-1.71211e-07
2.50501e-08
-1.7966e-07
2.4516e-08
-1.87891e-07
2.38841e-08
-1.95871e-07
2.31587e-08
-2.0357e-07
2.23441e-08
-2.10959e-07
2.14449e-08
-2.1801e-07
2.04655e-08
-2.24697e-07
1.94105e-08
-2.30996e-07
1.82845e-08
-2.36884e-07
1.70922e-08
-2.42339e-07
1.58382e-08
-2.47342e-07
1.45273e-08
-2.51875e-07
1.31643e-08
-2.55922e-07
1.1754e-08
-2.59468e-07
1.03014e-08
-2.625e-07
8.81122e-09
-2.65007e-07
7.28862e-09
-2.6698e-07
5.73863e-09
-2.68411e-07
4.16633e-09
-2.69295e-07
2.57692e-09
-2.69626e-07
9.75643e-10
-2.69403e-07
-6.3219e-10
-2.68627e-07
-2.2412e-09
-2.67297e-07
-3.84594e-09
-2.65418e-07
-5.44087e-09
-2.62995e-07
-7.02044e-09
-2.60036e-07
-8.579e-09
-2.5655e-07
-1.01108e-08
-2.52548e-07
-1.16102e-08
-2.48043e-07
-1.30713e-08
-2.4305e-07
-1.44884e-08
-2.37588e-07
-1.58556e-08
-2.31675e-07
-1.7167e-08
-2.25332e-07
-1.84168e-08
-2.18582e-07
-1.95992e-08
-2.11451e-07
-2.07085e-08
-2.03966e-07
-2.17388e-08
-1.96156e-07
-2.26847e-08
-1.88052e-07
-2.35405e-08
-1.79686e-07
-2.43009e-08
-1.71093e-07
-2.49606e-08
-1.62308e-07
-2.55147e-08
-1.5337e-07
-2.59584e-08
-1.44318e-07
-2.6287e-08
-1.35192e-07
-2.64964e-08
-1.26035e-07
-2.65825e-08
-1.16888e-07
-2.6542e-08
-1.07796e-07
-2.63716e-08
-9.88038e-08
-2.60688e-08
-8.99562e-08
-2.56315e-08
-8.12989e-08
-2.50583e-08
-7.28774e-08
-2.43485e-08
-6.47373e-08
-2.35022e-08
-5.69231e-08
-2.25205e-08
-4.94788e-08
-2.14055e-08
-4.24467e-08
-2.01608e-08
-3.58671e-08
-1.87915e-08
-2.97776e-08
-1.73044e-08
-2.42125e-08
-1.5709e-08
-1.92014e-08
-1.40175e-08
-1.47688e-08
-1.22456e-08
-1.0932e-08
-1.04139e-08
-7.69981e-09
-8.54845e-09
-5.07079e-09
-6.68312e-09
-3.03063e-09
-4.8613e-09
-1.54972e-09
-3.13877e-09
-5.80103e-10
-1.58725e-09
-5.21169e-11
-2.98545e-10
1.29478e-10
6.11208e-10
9.05733e-11
9.96424e-10
6.61764e-10
-1.36792e-11
-6.05745e-10
-2.4126e-10
-6.45008e-10
-8.27091e-10
1.76002e-10
-1.88221e-09
1.62959e-09
-3.491e-09
3.53685e-09
-5.71458e-09
5.75361e-09
-8.59372e-09
8.16538e-09
-1.21516e-08
1.06823e-08
-1.63962e-08
1.32341e-08
-2.13231e-08
1.57657e-08
-2.69173e-08
1.82346e-08
-3.3155e-08
2.06077e-08
-4.00056e-08
2.28595e-08
-4.74328e-08
2.49709e-08
-5.53962e-08
2.69272e-08
-6.38517e-08
2.87178e-08
-7.27527e-08
3.03353e-08
-8.20509e-08
3.17745e-08
-9.16968e-08
3.30326e-08
-1.0164e-07
3.41083e-08
-1.1183e-07
3.50015e-08
-1.22216e-07
3.57134e-08
-1.32749e-07
3.62463e-08
-1.43377e-07
3.66028e-08
-1.54054e-07
3.67867e-08
-1.64729e-07
3.68019e-08
-1.75358e-07
3.66529e-08
-1.85895e-07
3.63446e-08
-1.96295e-07
3.58822e-08
-2.06516e-07
3.5271e-08
-2.16516e-07
3.45167e-08
-2.26258e-07
3.36252e-08
-2.35701e-07
3.26023e-08
-2.44811e-07
3.14542e-08
-2.53553e-07
3.01872e-08
-2.61895e-07
2.88074e-08
-2.69806e-07
2.73213e-08
-2.77257e-07
2.57353e-08
-2.84221e-07
2.4056e-08
-2.90672e-07
2.229e-08
-2.96589e-07
2.04439e-08
-3.01949e-07
1.85245e-08
-3.06734e-07
1.65387e-08
-3.10926e-07
1.44932e-08
-3.1451e-07
1.23951e-08
-3.17472e-07
1.02514e-08
-3.19803e-07
8.06923e-09
-3.21492e-07
5.85582e-09
-3.22534e-07
3.61845e-09
-3.22923e-07
1.36452e-09
-3.22657e-07
-8.98473e-10
-3.21735e-07
-3.16294e-09
-3.2016e-07
-5.42122e-09
-3.17935e-07
-7.66554e-09
-3.15067e-07
-9.88805e-09
-3.11565e-07
-1.20808e-08
-3.0744e-07
-1.42358e-08
-3.02706e-07
-1.6345e-08
-2.97377e-07
-1.84002e-08
-2.91472e-07
-2.03933e-08
-2.85011e-07
-2.23161e-08
-2.78018e-07
-2.41605e-08
-2.70517e-07
-2.59182e-08
-2.62535e-07
-2.75811e-08
-2.54102e-07
-2.91411e-08
-2.4525e-07
-3.05904e-08
-2.36014e-07
-3.1921e-08
-2.26429e-07
-3.31254e-08
-2.16534e-07
-3.41959e-08
-2.06369e-07
-3.51254e-08
-1.95977e-07
-3.59069e-08
-1.85402e-07
-3.65338e-08
-1.74689e-07
-3.69999e-08
-1.63886e-07
-3.72993e-08
-1.53042e-07
-3.74267e-08
-1.42207e-07
-3.73773e-08
-1.31431e-07
-3.7147e-08
-1.20768e-07
-3.67324e-08
-1.10268e-07
-3.61308e-08
-9.99861e-08
-3.53406e-08
-8.99736e-08
-3.43611e-08
-8.02831e-08
-3.31927e-08
-7.09661e-08
-3.18375e-08
-6.20728e-08
-3.02989e-08
-5.36514e-08
-2.85822e-08
-4.57479e-08
-2.6695e-08
-3.84049e-08
-2.46475e-08
-3.16608e-08
-2.24531e-08
-2.55493e-08
-2.01291e-08
-2.00974e-08
-1.76975e-08
-1.53249e-08
-1.51864e-08
-1.1242e-08
-1.26313e-08
-7.84834e-09
-1.00768e-08
-5.13027e-09
-7.57937e-09
-3.05903e-09
-5.21001e-09
-1.5882e-09
-3.05807e-09
-6.51033e-10
-1.23571e-09
-1.57544e-10
1.17723e-10
9.14347e-12
8.29737e-10
6.70905e-10
-1.07818e-10
-4.97919e-10
-5.77239e-10
-1.75598e-10
-1.52807e-09
1.12685e-09
-3.05562e-09
3.15712e-09
-5.23348e-09
5.71471e-09
-8.11537e-09
8.63548e-09
-1.17368e-08
1.17869e-08
-1.61173e-08
1.50628e-08
-2.12618e-08
1.83786e-08
-2.71632e-08
2.16671e-08
-3.38038e-08
2.48752e-08
-4.11569e-08
2.79608e-08
-4.91886e-08
3.08913e-08
-5.78591e-08
3.36413e-08
-6.71236e-08
3.61916e-08
-7.69335e-08
3.85277e-08
-8.72374e-08
4.06392e-08
-9.79817e-08
4.25189e-08
-1.09111e-07
4.41622e-08
-1.2057e-07
4.55671e-08
-1.32302e-07
4.67329e-08
-1.44249e-07
4.76608e-08
-1.56356e-07
4.83532e-08
-1.68567e-07
4.88136e-08
-1.80826e-07
4.90461e-08
-1.9308e-07
4.9056e-08
-2.05276e-07
4.88489e-08
-2.17363e-07
4.8431e-08
-2.29289e-07
4.7809e-08
-2.41008e-07
4.69899e-08
-2.52473e-07
4.59811e-08
-2.63638e-07
4.47901e-08
-2.7446e-07
4.34248e-08
-2.84899e-07
4.18932e-08
-2.94915e-07
4.02034e-08
-3.04472e-07
3.83639e-08
-3.13533e-07
3.6383e-08
-3.22067e-07
3.42693e-08
-3.30043e-07
3.20315e-08
-3.37431e-07
2.96784e-08
-3.44206e-07
2.72188e-08
-3.50344e-07
2.46618e-08
-3.55821e-07
2.20163e-08
-3.6062e-07
1.92917e-08
-3.64722e-07
1.6497e-08
-3.68112e-07
1.36418e-08
-3.70778e-07
1.07356e-08
-3.7271e-07
7.78789e-09
-3.739e-07
4.80849e-09
-3.74343e-07
1.80723e-09
-3.74036e-07
-1.2059e-09
-3.72978e-07
-4.2208e-09
-3.71172e-07
-7.22726e-09
-3.68622e-07
-1.02149e-08
-3.65337e-07
-1.31734e-08
-3.61326e-07
-1.60921e-08
-3.56601e-07
-1.89603e-08
-3.51179e-07
-2.17675e-08
-3.45076e-07
-2.45027e-08
-3.38314e-07
-2.71552e-08
-3.30916e-07
-2.97141e-08
-3.22908e-07
-3.21686e-08
-3.14319e-07
-3.45078e-08
-3.05179e-07
-3.67211e-08
-2.95522e-07
-3.87977e-08
-2.85385e-07
-4.07272e-08
-2.74807e-07
-4.24992e-08
-2.63829e-07
-4.41037e-08
-2.52494e-07
-4.55308e-08
-2.40848e-07
-4.67709e-08
-2.2894e-07
-4.78151e-08
-2.16819e-07
-4.86547e-08
-2.04538e-07
-4.92815e-08
-1.92149e-07
-4.9688e-08
-1.79708e-07
-4.98673e-08
-1.67272e-07
-4.98134e-08
-1.54898e-07
-4.9521e-08
-1.42645e-07
-4.89857e-08
-1.30571e-07
-4.82046e-08
-1.18736e-07
-4.71756e-08
-1.07199e-07
-4.58983e-08
-9.60176e-08
-4.43737e-08
-8.52503e-08
-4.26048e-08
-7.49526e-08
-4.05967e-08
-6.5178e-08
-3.83568e-08
-5.59773e-08
-3.58956e-08
-4.73978e-08
-3.3227e-08
-3.9482e-08
-3.03689e-08
-3.22668e-08
-2.73442e-08
-2.57826e-08
-2.41817e-08
-2.00515e-08
-2.09175e-08
-1.50864e-08
-1.75964e-08
-1.0889e-08
-1.42742e-08
-7.44821e-09
-1.10202e-08
-4.73834e-09
-7.91987e-09
-2.7174e-09
-5.07902e-09
-1.325e-09
-2.62811e-09
-4.80604e-10
-7.26667e-10
-8.15332e-11
4.30662e-10
5.89371e-10
-2.05822e-10
-2.921e-10
-9.31304e-10
5.4989e-10
-2.27009e-09
2.46563e-09
-4.29895e-09
5.18599e-09
-7.078e-09
8.49376e-09
-1.0651e-08
1.22084e-08
-1.50459e-08
1.61818e-08
-2.02766e-08
2.02934e-08
-2.63435e-08
2.44455e-08
-3.32356e-08
2.85592e-08
-4.09315e-08
3.25711e-08
-4.94014e-08
3.64306e-08
-5.86077e-08
4.00976e-08
-6.85067e-08
4.35404e-08
-7.90499e-08
4.67348e-08
-9.01843e-08
4.96622e-08
-1.01854e-07
5.2309e-08
-1.14001e-07
5.46656e-08
-1.26564e-07
5.67257e-08
-1.39483e-07
5.8486e-08
-1.52696e-07
5.99454e-08
-1.6614e-07
6.11048e-08
-1.79753e-07
6.19667e-08
-1.93475e-07
6.25351e-08
-2.07244e-07
6.2815e-08
-2.21e-07
6.28127e-08
-2.34686e-07
6.2535e-08
-2.48245e-07
6.19895e-08
-2.61621e-07
6.11847e-08
-2.7476e-07
6.01291e-08
-2.87611e-07
5.8832e-08
-3.00123e-07
5.73029e-08
-3.1225e-07
5.55517e-08
-3.23946e-07
5.35885e-08
-3.35166e-07
5.14237e-08
-3.4587e-07
4.90678e-08
-3.56018e-07
4.65316e-08
-3.65575e-07
4.38259e-08
-3.74505e-07
4.09618e-08
-3.82777e-07
3.79505e-08
-3.90362e-07
3.48034e-08
-3.97232e-07
3.15319e-08
-4.03363e-07
2.81475e-08
-4.08734e-07
2.4662e-08
-4.13324e-07
2.10874e-08
-4.17118e-07
1.74355e-08
-4.20101e-07
1.37185e-08
-4.22261e-07
9.9488e-09
-4.23592e-07
6.13876e-09
-4.24085e-07
2.30101e-09
-4.2374e-07
-1.5517e-09
-4.22554e-07
-5.40646e-09
-4.20531e-07
-9.25022e-09
-4.17676e-07
-1.30698e-08
-4.13998e-07
-1.68518e-08
-4.09507e-07
-2.05828e-08
-4.04218e-07
-2.42493e-08
-3.98148e-07
-2.78375e-08
-3.91317e-07
-3.13338e-08
-3.83748e-07
-3.47243e-08
-3.75467e-07
-3.79953e-08
-3.66502e-07
-4.1133e-08
-3.56886e-07
-4.41236e-08
-3.46654e-07
-4.69535e-08
-3.35842e-07
-4.96092e-08
-3.24492e-07
-5.20774e-08
-3.12647e-07
-5.43449e-08
-3.00351e-07
-5.63991e-08
-2.87654e-07
-5.82275e-08
-2.74607e-07
-5.98182e-08
-2.61263e-07
-6.11597e-08
-2.47676e-07
-6.22412e-08
-2.33905e-07
-6.30524e-08
-2.20009e-07
-6.35841e-08
-2.06049e-07
-6.38276e-08
-1.92087e-07
-6.37756e-08
-1.78186e-07
-6.34215e-08
-1.64412e-07
-6.27603e-08
-1.50828e-07
-6.17883e-08
-1.375e-07
-6.05035e-08
-1.24493e-07
-5.89055e-08
-1.1187e-07
-5.69962e-08
-9.96953e-08
-5.47799e-08
-8.80288e-08
-5.22632e-08
-7.69292e-08
-4.94563e-08
-6.6452e-08
-4.63728e-08
-5.66486e-08
-4.30304e-08
-4.75654e-08
-3.94521e-08
-3.92431e-08
-3.56665e-08
-3.17153e-08
-3.17095e-08
-2.50075e-08
-2.76253e-08
-1.91356e-08
-2.34682e-08
-1.41049e-08
-1.93049e-08
-9.9083e-09
-1.52168e-08
-6.5253e-09
-1.13029e-08
-3.92047e-09
-7.68385e-09
-2.04241e-09
-4.50616e-09
-8.22881e-10
-1.94619e-09
-1.76348e-10
-2.15875e-10
4.13028e-10
-3.0468e-10
1.2582e-11
-1.29268e-09
1.53787e-09
-3.03181e-09
4.20476e-09
-5.57921e-09
7.73339e-09
-8.97982e-09
1.18944e-08
-1.32656e-08
1.64942e-08
-1.84555e-08
2.13717e-08
-2.4556e-08
2.63939e-08
-3.15617e-08
3.14512e-08
-3.94565e-08
3.6454e-08
-4.82148e-08
4.13294e-08
-5.78025e-08
4.60183e-08
-6.81782e-08
5.04733e-08
-7.92944e-08
5.46566e-08
-9.10985e-08
5.85388e-08
-1.03533e-07
6.20971e-08
-1.16539e-07
6.53145e-08
-1.30052e-07
6.81788e-08
-1.44008e-07
7.0682e-08
-1.58342e-07
7.28193e-08
-1.72985e-07
7.45888e-08
-1.87871e-07
7.59911e-08
-2.02934e-07
7.7029e-08
-2.18105e-07
7.77068e-08
-2.33321e-07
7.80304e-08
-2.48515e-07
7.8007e-08
-2.63625e-07
7.76448e-08
-2.78588e-07
7.6953e-08
-2.93345e-07
7.59414e-08
-3.07837e-07
7.46208e-08
-3.22007e-07
7.30022e-08
-3.35801e-07
7.10973e-08
-3.49168e-07
6.8918e-08
-3.62056e-07
6.64769e-08
-3.74419e-07
6.37866e-08
-3.86211e-07
6.08602e-08
-3.97391e-07
5.77107e-08
-4.07916e-07
5.43517e-08
-4.17751e-07
5.07968e-08
-4.26861e-07
4.70598e-08
-4.35212e-07
4.31548e-08
-4.42776e-07
3.90959e-08
-4.49526e-07
3.48974e-08
-4.55438e-07
3.0574e-08
-4.60491e-07
2.61402e-08
-4.64666e-07
2.1611e-08
-4.67949e-07
1.70015e-08
-4.70327e-07
1.23268e-08
-4.71791e-07
7.60239e-09
-4.72334e-07
2.8439e-09
-4.71952e-07
-1.9329e-09
-4.70647e-07
-6.71201e-09
-4.6842e-07
-1.14773e-08
-4.65277e-07
-1.62124e-08
-4.61228e-07
-2.09008e-08
-4.56285e-07
-2.55259e-08
-4.50463e-07
-3.00709e-08
-4.43782e-07
-3.4519e-08
-4.36263e-07
-3.88532e-08
-4.27931e-07
-4.30564e-08
-4.18814e-07
-4.71117e-08
-4.08945e-07
-5.1002e-08
-3.98358e-07
-5.47105e-08
-3.87091e-07
-5.82203e-08
-3.75186e-07
-6.15149e-08
-3.62685e-07
-6.45778e-08
-3.49637e-07
-6.7393e-08
-3.36091e-07
-6.9945e-08
-3.22101e-07
-7.22183e-08
-3.0772e-07
-7.41986e-08
-2.93008e-07
-7.58717e-08
-2.78025e-07
-7.72244e-08
-2.62833e-07
-7.82445e-08
-2.47497e-07
-7.89204e-08
-2.32082e-07
-7.92421e-08
-2.16657e-07
-7.92004e-08
-2.01291e-07
-7.87879e-08
-1.86053e-07
-7.79985e-08
-1.71013e-07
-7.68281e-08
-1.56242e-07
-7.52744e-08
-1.4181e-07
-7.33377e-08
-1.27786e-07
-7.10205e-08
-1.14237e-07
-6.83284e-08
-1.0123e-07
-6.52702e-08
-8.88276e-08
-6.18587e-08
-7.70896e-08
-5.81108e-08
-6.60716e-08
-5.40485e-08
-5.5824e-08
-4.96997e-08
-4.63912e-08
-4.50993e-08
-3.78108e-08
-4.02899e-08
-3.01121e-08
-3.53241e-08
-2.3315e-08
-3.02652e-08
-1.74296e-08
-2.51904e-08
-1.2454e-08
-2.01923e-08
-8.37445e-09
-1.53824e-08
-5.16384e-09
-1.08945e-08
-2.78156e-09
-6.88844e-09
-1.17339e-09
-3.55436e-09
-2.72237e-10
-1.11703e-09
1.40794e-10
-4.02593e-10
4.15182e-10
-1.65448e-09
2.78976e-09
-3.79897e-09
6.34924e-09
-6.87347e-09
1.08079e-08
-1.0907e-08
1.59279e-08
-1.59187e-08
2.15059e-08
-2.19172e-08
2.73702e-08
-2.89003e-08
3.3377e-08
-3.68558e-08
3.94066e-08
-4.57616e-08
4.53598e-08
-5.55868e-08
5.11547e-08
-6.62928e-08
5.67243e-08
-7.78338e-08
6.20143e-08
-9.0158e-08
6.69809e-08
-1.03209e-07
7.15894e-08
-1.16925e-07
7.58131e-08
-1.31242e-07
7.96314e-08
-1.46092e-07
8.30295e-08
-1.61407e-07
8.59973e-08
-1.77117e-07
8.85286e-08
-1.93149e-07
9.06209e-08
-2.09432e-07
9.22742e-08
-2.25894e-07
9.34914e-08
-2.42465e-07
9.42774e-08
-2.59073e-07
9.46386e-08
-2.7565e-07
9.45835e-08
-2.92127e-07
9.41216e-08
-3.08437e-07
9.32636e-08
-3.24517e-07
9.20211e-08
-3.40303e-07
9.04067e-08
-3.55734e-07
8.84336e-08
-3.70753e-07
8.61157e-08
-3.85302e-07
8.34673e-08
-3.99328e-07
8.05032e-08
-4.1278e-07
7.72388e-08
-4.2561e-07
7.36894e-08
-4.3777e-07
6.98711e-08
-4.49218e-07
6.58e-08
-4.59914e-07
6.14926e-08
-4.6982e-07
5.69654e-08
-4.78901e-07
5.22355e-08
-4.87125e-07
4.73198e-08
-4.94463e-07
4.22358e-08
-5.0089e-07
3.7001e-08
-5.06383e-07
3.16331e-08
-5.10922e-07
2.61501e-08
-5.14491e-07
2.05703e-08
-5.17076e-07
1.4912e-08
-5.18667e-07
9.19381e-09
-5.19258e-07
3.43469e-09
-5.18845e-07
-2.34631e-09
-5.17427e-07
-8.1299e-09
-5.15007e-07
-1.38966e-08
-5.11593e-07
-1.96266e-08
-5.07194e-07
-2.53e-08
-5.01823e-07
-3.08969e-08
-4.95497e-07
-3.63968e-08
-4.88237e-07
-4.17796e-08
-4.80065e-07
-4.70248e-08
-4.71009e-07
-5.21119e-08
-4.61101e-07
-5.70204e-08
-4.50373e-07
-6.17298e-08
-4.38864e-07
-6.62199e-08
-4.26613e-07
-7.04704e-08
-4.13667e-07
-7.44614e-08
-4.00071e-07
-7.81733e-08
-3.85878e-07
-8.15868e-08
-3.71139e-07
-8.46833e-08
-3.55913e-07
-8.74444e-08
-3.40259e-07
-8.98527e-08
-3.24239e-07
-9.18917e-08
-3.07918e-07
-9.35454e-08
-2.91363e-07
-9.47994e-08
-2.74643e-07
-9.56401e-08
-2.5783e-07
-9.60554e-08
-2.40996e-07
-9.60348e-08
-2.24214e-07
-9.55695e-08
-2.0756e-07
-9.46526e-08
-1.91109e-07
-9.32795e-08
-1.74935e-07
-9.1448e-08
-1.59114e-07
-8.91584e-08
-1.4372e-07
-8.64144e-08
-1.28826e-07
-8.32231e-08
-1.14501e-07
-7.95954e-08
-1.00813e-07
-7.55467e-08
-8.78257e-08
-7.10976e-08
-7.56e-08
-6.62743e-08
-6.41898e-08
-6.11098e-08
-5.3644e-08
-5.56451e-08
-4.40041e-08
-4.99298e-08
-3.53041e-08
-4.40241e-08
-2.75689e-08
-3.80004e-08
-2.08139e-08
-3.19454e-08
-1.50441e-08
-2.59622e-08
-1.02533e-08
-2.01732e-08
-6.42414e-09
-1.47236e-08
-3.52785e-09
-9.78472e-09
-1.52512e-09
-5.5571e-09
-3.67403e-10
-2.27474e-09
-2.2661e-10
-4.98637e-10
9.13832e-10
-2.01248e-09
4.30359e-09
-4.56225e-09
8.899e-09
-8.16623e-09
1.44119e-08
-1.28374e-08
2.05991e-08
-1.85814e-08
2.725e-08
-2.53958e-08
3.41846e-08
-3.3269e-08
4.12502e-08
-4.21808e-08
4.83184e-08
-5.21025e-08
5.52815e-08
-6.29972e-08
6.20495e-08
-7.4821e-08
6.85481e-08
-8.75234e-08
7.47166e-08
-1.01048e-07
8.05054e-08
-1.15334e-07
8.5875e-08
-1.30315e-07
9.07944e-08
-1.45923e-07
9.52398e-08
-1.62088e-07
9.91936e-08
-1.78734e-07
1.02644e-07
-1.95788e-07
1.05583e-07
-2.13174e-07
1.08007e-07
-2.30816e-07
1.09916e-07
-2.48638e-07
1.11313e-07
-2.66565e-07
1.12204e-07
-2.84521e-07
1.12595e-07
-3.02432e-07
1.12495e-07
-3.20228e-07
1.11917e-07
-3.37836e-07
1.10872e-07
-3.55189e-07
1.09374e-07
-3.72219e-07
1.07437e-07
-3.88861e-07
1.05076e-07
-4.05054e-07
1.02309e-07
-4.20737e-07
9.91505e-08
-4.35854e-07
9.56196e-08
-4.50349e-07
9.17336e-08
-4.6417e-07
8.75109e-08
-4.77269e-07
8.29701e-08
-4.89599e-07
7.81304e-08
-5.01118e-07
7.30111e-08
-5.11784e-07
6.7632e-08
-5.21562e-07
6.20129e-08
-5.30416e-07
5.61742e-08
-5.38317e-07
5.01364e-08
-5.45236e-07
4.39202e-08
-5.5115e-07
3.75467e-08
-5.56037e-07
3.10371e-08
-5.59879e-07
2.44129e-08
-5.62663e-07
1.76961e-08
-5.64378e-07
1.09087e-08
-5.65017e-07
4.07292e-09
-5.64574e-07
-2.78855e-09
-5.63051e-07
-9.65287e-09
-5.60451e-07
-1.6497e-08
-5.5678e-07
-2.32975e-08
-5.52049e-07
-3.00309e-08
-5.46272e-07
-3.66735e-08
-5.39468e-07
-4.32014e-08
-5.31657e-07
-4.95905e-08
-5.22865e-07
-5.58166e-08
-5.13121e-07
-6.18557e-08
-5.02458e-07
-6.76835e-08
-4.90912e-07
-7.3276e-08
-4.78523e-07
-7.8609e-08
-4.65334e-07
-8.3659e-08
-4.51394e-07
-8.84023e-08
-4.36751e-07
-9.28158e-08
-4.21461e-07
-9.6877e-08
-4.0558e-07
-1.00564e-07
-3.8917e-07
-1.03855e-07
-3.72293e-07
-1.0673e-07
-3.55015e-07
-1.09169e-07
-3.37407e-07
-1.11154e-07
-3.19538e-07
-1.12668e-07
-3.01483e-07
-1.13695e-07
-2.83318e-07
-1.14221e-07
-2.65118e-07
-1.14234e-07
-2.46963e-07
-1.13724e-07
-2.28933e-07
-1.12683e-07
-2.11106e-07
-1.11106e-07
-1.93562e-07
-1.08991e-07
-1.76383e-07
-1.06338e-07
-1.59644e-07
-1.03153e-07
-1.43425e-07
-9.94426e-08
-1.27799e-07
-9.52214e-08
-1.12838e-07
-9.05072e-08
-9.86117e-08
-8.53241e-08
-8.51832e-08
-7.97027e-08
-7.26119e-08
-7.36812e-08
-6.09509e-08
-6.73061e-08
-5.02467e-08
-6.0634e-08
-4.05383e-08
-5.37325e-08
-3.18563e-08
-4.66824e-08
-2.42225e-08
-3.95792e-08
-1.76493e-08
-3.25353e-08
-1.21393e-08
-2.56832e-08
-7.68556e-09
-1.91774e-08
-4.27177e-09
-1.31985e-08
-1.87368e-09
-7.95519e-09
-4.60823e-10
-3.68759e-09
-6.87435e-10
-5.92271e-10
1.50611e-09
-2.36419e-09
6.0755e-09
-5.31583e-09
1.18507e-08
-9.44738e-09
1.85434e-08
-1.4756e-08
2.59077e-08
-2.12338e-08
3.37278e-08
-2.88665e-08
4.18173e-08
-3.76328e-08
5.00165e-08
-4.75039e-08
5.81895e-08
-5.84436e-08
6.62211e-08
-7.04085e-08
7.40144e-08
-8.33489e-08
8.14885e-08
-9.72088e-08
8.85766e-08
-1.11927e-07
9.52238e-08
-1.27438e-07
1.01386e-07
-1.43672e-07
1.07028e-07
-1.60556e-07
1.12124e-07
-1.78014e-07
1.16652e-07
-1.9597e-07
1.20599e-07
-2.14343e-07
1.23956e-07
-2.33054e-07
1.26718e-07
-2.52024e-07
1.28886e-07
-2.71171e-07
1.30461e-07
-2.90417e-07
1.3145e-07
-3.09683e-07
1.3186e-07
-3.28891e-07
1.31703e-07
-3.47964e-07
1.3099e-07
-3.66828e-07
1.29736e-07
-3.85411e-07
1.27957e-07
-4.03642e-07
1.25668e-07
-4.21453e-07
1.22887e-07
-4.38778e-07
1.19633e-07
-4.55553e-07
1.15926e-07
-4.71718e-07
1.11785e-07
-4.87215e-07
1.07231e-07
-5.0199e-07
1.02286e-07
-5.15991e-07
9.69706e-08
-5.29168e-07
9.13076e-08
-5.41477e-07
8.53194e-08
-5.52873e-07
7.90288e-08
-5.63319e-07
7.24591e-08
-5.72779e-07
6.56337e-08
-5.81219e-07
5.85767e-08
-5.88611e-07
5.13121e-08
-5.94929e-07
4.38645e-08
-6.00151e-07
3.62586e-08
-6.04257e-07
2.85195e-08
-6.07234e-07
2.06727e-08
-6.09069e-07
1.27438e-08
-6.09755e-07
4.75878e-09
-6.09287e-07
-3.25598e-09
-6.07666e-07
-1.12739e-08
-6.04895e-07
-1.92681e-08
-6.00981e-07
-2.72115e-08
-5.95935e-07
-3.50766e-08
-5.89773e-07
-4.28359e-08
-5.82513e-07
-5.04615e-08
-5.74178e-07
-5.79256e-08
-5.64794e-07
-6.52e-08