/*--------------------------------*- C++ -*----------------------------------*\
| =========                 |                                                 |
| \\      /  F ield         | OpenFOAM: The Open Source CFD Toolbox           |
|  \\    /   O peration     | Version:  2212                                  |
|   \\  /    A nd           | Website:  www.openfoam.com                      |
|    \\/     M anipulation  |                                                 |
\*---------------------------------------------------------------------------*/
FoamFile
{
    version     2.0;
    format      ascii;
    arch        "LSB;label=32;scalar=64";
    class       surfaceScalarField;
    location    "0.038";
    object      phi;
}
// * * * * * * * * * * * * * * * * * * * * * * * * * * * * * * * * * * * * * //

dimensions      [0 3 -1 0 0 0 0];

oriented        oriented;

internalField   nonuniform List<scalar> 
19800
(
6.22222e-11
-6.22661e-11
1.99966e-10
-1.37739e-10
3.40925e-10
-1.40959e-10
4.4248e-10
-1.01571e-10
4.796e-10
-3.71283e-11
4.37695e-10
4.19174e-11
3.09486e-10
1.28208e-10
9.25263e-11
2.16975e-10
-2.12546e-10
3.05071e-10
-6.03051e-10
3.905e-10
-1.07503e-09
4.71981e-10
-1.62368e-09
5.48643e-10
-2.24365e-09
6.19969e-10
-2.92928e-09
6.85623e-10
-3.6747e-09
7.4543e-10
-4.47399e-09
7.99295e-10
-5.32116e-09
8.47168e-10
-6.21027e-09
8.89127e-10
-7.13549e-09
9.25229e-10
-8.09107e-09
9.55586e-10
-9.07139e-09
9.80324e-10
-1.0071e-08
9.996e-10
-1.10845e-08
1.01353e-09
-1.21068e-08
1.02233e-09
-1.3133e-08
1.02617e-09
-1.41582e-08
1.02521e-09
-1.51778e-08
1.01963e-09
-1.61875e-08
1.00963e-09
-1.71829e-08
9.95396e-10
-1.816e-08
9.77115e-10
-1.91149e-08
9.54964e-10
-2.00441e-08
9.29137e-10
-2.09439e-08
8.99815e-10
-2.18111e-08
8.67176e-10
-2.26425e-08
8.31396e-10
-2.34351e-08
7.92666e-10
-2.41863e-08
7.51173e-10
-2.48934e-08
7.07088e-10
-2.5554e-08
6.60584e-10
-2.61658e-08
6.11847e-10
-2.67269e-08
5.61059e-10
-2.72353e-08
5.08393e-10
-2.76893e-08
4.54018e-10
-2.80874e-08
3.98101e-10
-2.84282e-08
3.40825e-10
-2.87106e-08
2.82378e-10
-2.89335e-08
2.22936e-10
-2.90962e-08
1.62674e-10
-2.9198e-08
1.01772e-10
-2.92384e-08
4.04141e-11
-2.92172e-08
-2.12137e-11
-2.91343e-08
-8.29197e-11
-2.89897e-08
-1.44514e-10
-2.87839e-08
-2.0581e-10
-2.85173e-08
-2.66606e-10
-2.81907e-08
-3.26682e-10
-2.78048e-08
-3.85843e-10
-2.73609e-08
-4.43904e-10
-2.68603e-08
-5.00635e-10
-2.63045e-08
-5.55804e-10
-2.56953e-08
-6.09208e-10
-2.50346e-08
-6.60636e-10
-2.43248e-08
-7.09855e-10
-2.35681e-08
-7.56642e-10
-2.27674e-08
-8.00784e-10
-2.19253e-08
-8.42038e-10
-2.10452e-08
-8.80162e-10
-2.01302e-08
-9.14944e-10
-1.9184e-08
-9.46181e-10
-1.82104e-08
-9.73643e-10
-1.72133e-08
-9.97098e-10
-1.6197e-08
-1.01634e-09
-1.51658e-08
-1.03115e-09
-1.41245e-08
-1.04134e-09
-1.30778e-08
-1.0467e-09
-1.20308e-08
-1.04703e-09
-1.09886e-08
-1.04217e-09
-9.95663e-09
-1.03196e-09
-8.9404e-09
-1.01623e-09
-7.94555e-09
-9.94851e-10
-6.97785e-09
-9.677e-10
-6.04317e-09
-9.34679e-10
-5.14745e-09
-8.9571e-10
-4.29671e-09
-8.50746e-10
-3.49693e-09
-7.99786e-10
-2.75405e-09
-7.42881e-10
-2.07391e-09
-6.80137e-10
-1.46219e-09
-6.1172e-10
-9.24309e-10
-5.37885e-10
-4.65274e-10
-4.59032e-10
-8.95091e-11
-3.75762e-10
1.99443e-10
-2.88955e-10
3.99339e-10
-1.99903e-10
5.09891e-10
-1.10553e-10
5.33838e-10
-2.39407e-11
4.78686e-10
5.51546e-11
3.59538e-10
1.19142e-10
2.03938e-10
1.55597e-10
6.03463e-11
1.43598e-10
6.03495e-11
1.47375e-10
-2.09635e-10
3.85819e-10
-3.76193e-10
5.92105e-10
-3.47237e-10
6.87011e-10
-1.96461e-10
6.16041e-10
3.38319e-11
3.44481e-10
3.13484e-10
-1.47538e-10
6.20223e-10
-8.68875e-10
9.38305e-10
-1.8206e-09
1.25681e-09
-2.99828e-09
1.56818e-09
-4.3935e-09
1.86721e-09
-5.99521e-09
2.15037e-09
-7.79044e-09
2.4152e-09
-9.7649e-09
2.66011e-09
-1.19035e-08
2.88407e-09
-1.41907e-08
3.08648e-09
-1.66106e-08
3.26702e-09
-1.91472e-08
3.42568e-09
-2.17845e-08
3.56254e-09
-2.45068e-08
3.6779e-09
-2.72986e-08
3.77214e-09
-3.01447e-08
3.84569e-09
-3.30303e-08
3.89908e-09
-3.59408e-08
3.93291e-09
-3.88624e-08
3.94778e-09
-4.17816e-08
3.94431e-09
-4.46851e-08
3.92318e-09
-4.75605e-08
3.88505e-09
-5.03958e-08
3.83064e-09
-5.31793e-08
3.76061e-09
-5.59e-08
3.67568e-09
-5.85474e-08
3.57655e-09
-6.11115e-08
3.46392e-09
-6.35828e-08
3.33848e-09
-6.59524e-08
3.20092e-09
-6.82117e-08
3.05196e-09
-7.03528e-08
2.89229e-09
-7.23683e-08
2.7226e-09
-7.42512e-08
2.54356e-09
-7.59952e-08
2.35586e-09
-7.75944e-08
2.1602e-09
-7.90433e-08
1.95726e-09
-8.0337e-08
1.74771e-09
-8.14711e-08
1.53225e-09
-8.24419e-08
1.31156e-09
-8.32458e-08
1.08634e-09
-8.38801e-08
8.57271e-10
-8.43425e-08
6.25048e-10
-8.46311e-08
3.90375e-10
-8.47447e-08
1.53979e-10
-8.46825e-08
-8.34128e-11
-8.44443e-08
-3.21074e-10
-8.40306e-08
-5.58268e-10
-8.34422e-08
-7.94233e-10
-8.26806e-08
-1.0282e-09
-8.17479e-08
-1.25938e-09
-8.06467e-08
-1.487e-09
-7.93804e-08
-1.71025e-09
-7.79527e-08
-1.92832e-09
-7.63682e-08
-2.14036e-09
-7.46318e-08
-2.34554e-09
-7.27494e-08
-2.54302e-09
-7.07273e-08
-2.73196e-09
-6.85725e-08
-2.9115e-09
-6.62925e-08
-3.08077e-09
-6.38957e-08
-3.23889e-09
-6.13908e-08
-3.385e-09
-5.87875e-08
-3.51824e-09
-5.60959e-08
-3.63778e-09
-5.33268e-08
-3.74278e-09
-5.04915e-08
-3.83242e-09
-4.76019e-08
-3.90588e-09
-4.46707e-08
-3.96237e-09
-4.17109e-08
-4.00114e-09
-3.87362e-08
-4.02144e-09
-3.57606e-08
-4.0226e-09
-3.27988e-08
-4.00398e-09
-2.98658e-08
-3.96498e-09
-2.69769e-08
-3.90508e-09
-2.4148e-08
-3.82381e-09
-2.13949e-08
-3.72079e-09
-1.87338e-08
-3.59573e-09
-1.61811e-08
-3.44844e-09
-1.3753e-08
-3.27888e-09
-1.14656e-08
-3.08719e-09
-9.33475e-09
-2.87371e-09
-7.37587e-09
-2.63902e-09
-5.60357e-09
-2.38402e-09
-4.03141e-09
-2.11004e-09
-2.67149e-09
-1.81895e-09
-1.53381e-09
-1.51345e-09
-6.25486e-10
-1.19728e-09
5.04001e-11
-8.75788e-10
4.96456e-10
-5.56604e-10
7.23243e-10
-2.50726e-10
7.52591e-10
2.58022e-11
6.2209e-10
2.49642e-10
3.90648e-10
3.87051e-10
1.43559e-10
3.90693e-10
2.03907e-10
1.59858e-10
-3.69493e-10
3.82052e-10
-5.98379e-10
5.15372e-10
-4.80561e-10
4.61433e-10
-1.42523e-10
1.5102e-10
3.44246e-10
-4.62092e-10
9.26595e-10
-1.40582e-09
1.56395e-09
-2.69395e-09
2.22645e-09
-4.32959e-09
2.89244e-09
-6.30775e-09
3.54634e-09
-8.6175e-09
4.17697e-09
-1.12435e-08
4.77639e-09
-1.41673e-08
5.33897e-09
-1.7368e-08
5.86083e-09
-2.08233e-08
6.33933e-09
-2.45096e-08
6.7728e-09
-2.84028e-08
7.1603e-09
-3.24786e-08
7.50141e-09
-3.67122e-08
7.79621e-09
-4.10793e-08
8.04503e-09
-4.55557e-08
8.24852e-09
-5.01175e-08
8.40752e-09
-5.47415e-08
8.52303e-09
-5.94048e-08
8.5962e-09
-6.40853e-08
8.62826e-09
-6.87615e-08
8.62052e-09
-7.34126e-08
8.57436e-09
-7.80188e-08
8.49119e-09
-8.25606e-08
8.37247e-09
-8.70197e-08
8.21969e-09
-9.13783e-08
8.03433e-09
-9.56197e-08
7.81792e-09
-9.97277e-08
7.57195e-09
-1.03687e-07
7.29795e-09
-1.07484e-07
6.99742e-09
-1.11104e-07
6.67189e-09
-1.14534e-07
6.32288e-09
-1.17764e-07
5.9519e-09
-1.2078e-07
5.56044e-09
-1.23575e-07
5.15002e-09
-1.26137e-07
4.72213e-09
-1.28458e-07
4.27827e-09
-1.3053e-07
3.81994e-09
-1.32346e-07
3.34866e-09
-1.33901e-07
2.86593e-09
-1.35187e-07
2.37327e-09
-1.36202e-07
1.87222e-09
-1.36942e-07
1.3643e-09
-1.37402e-07
8.51074e-10
-1.37583e-07
3.34111e-10
-1.37481e-07
-1.84998e-10
-1.37097e-07
-7.04633e-10
-1.36432e-07
-1.22316e-09
-1.35488e-07
-1.73894e-09
-1.34266e-07
-2.25026e-09
-1.3277e-07
-2.75542e-09
-1.31004e-07
-3.2527e-09
-1.28974e-07
-3.74034e-09
-1.26686e-07
-4.21655e-09
-1.24147e-07
-4.67951e-09
-1.21365e-07
-5.1274e-09
-1.18349e-07
-5.55839e-09
-1.15111e-07
-5.97062e-09
-1.1166e-07
-6.36223e-09
-1.08009e-07
-6.73135e-09
-1.04172e-07
-7.07607e-09
-1.00163e-07
-7.39454e-09
-9.59959e-08
-7.68491e-09
-9.16884e-08
-7.94535e-09
-8.72571e-08
-8.17404e-09
-8.27203e-08
-8.36922e-09
-7.8097e-08
-8.52915e-09
-7.34073e-08
-8.65216e-09
-6.86718e-08
-8.73664e-09
-6.39122e-08
-8.78104e-09
-5.91509e-08
-8.78391e-09
-5.44109e-08
-8.74394e-09
-4.9716e-08
-8.65992e-09
-4.50903e-08
-8.53077e-09
-4.05585e-08
-8.3556e-09
-3.61456e-08
-8.13369e-09
-3.18767e-08
-7.86456e-09
-2.77772e-08
-7.54798e-09
-2.3872e-08
-7.18406e-09
-2.01859e-08
-6.7733e-09
-1.67429e-08
-6.31668e-09
-1.35662e-08
-5.81575e-09
-1.06774e-08
-5.27281e-09
-8.09635e-09
-4.69111e-09
-5.84015e-09
-4.07516e-09
-3.92244e-09
-3.43115e-09
-2.35213e-09
-2.76758e-09
-1.13183e-09
-2.09609e-09
-2.55768e-10
-1.43266e-09
2.92933e-10
-7.99426e-10
5.45746e-10
-2.27008e-10
5.53074e-10
2.42321e-10
3.88997e-10
5.51134e-10
1.56126e-10
6.23561e-10
3.60038e-10
1.19633e-10
-4.89143e-10
2.36984e-10
-7.15719e-10
1.95109e-10
-4.38688e-10
-1.12357e-10
1.64946e-10
-7.60982e-10
9.92888e-10
-1.80238e-09
1.96799e-09
-3.26865e-09
3.03024e-09
-5.17643e-09
4.13423e-09
-7.53004e-09
5.24605e-09
-1.03242e-08
6.34047e-09
-1.35461e-08
7.39889e-09
-1.71774e-08
8.40767e-09
-2.11953e-08
9.35689e-09
-2.55739e-08
1.02394e-08
-3.02849e-08
1.10503e-08
-3.52984e-08
1.17863e-08
-4.05834e-08
1.24453e-08
-4.61082e-08
1.30262e-08
-5.18408e-08
1.35288e-08
-5.77492e-08
1.39535e-08
-6.38017e-08
1.4301e-08
-6.99667e-08
1.45726e-08
-7.62134e-08
1.47698e-08
-8.25116e-08
1.48944e-08
-8.88318e-08
1.49484e-08
-9.51452e-08
1.4934e-08
-1.01424e-07
1.48534e-08
-1.07642e-07
1.47089e-08
-1.13773e-07
1.45031e-08
-1.19791e-07
1.42384e-08
-1.25674e-07
1.39174e-08
-1.31399e-07
1.35426e-08
-1.36944e-07
1.31167e-08
-1.42288e-07
1.26421e-08
-1.47412e-07
1.21216e-08
-1.52298e-07
1.15577e-08
-1.56928e-07
1.09531e-08
-1.61287e-07
1.03103e-08
-1.65358e-07
9.63205e-09
-1.69129e-07
8.92086e-09
-1.72586e-07
8.17936e-09
-1.75718e-07
7.41016e-09
-1.78514e-07
6.61586e-09
-1.80965e-07
5.79909e-09
-1.83061e-07
4.96249e-09
-1.84797e-07
4.10868e-09
-1.86165e-07
3.24035e-09
-1.87161e-07
2.36016e-09
-1.8778e-07
1.47081e-09
-1.88021e-07
5.75061e-10
-1.87882e-07
-3.24325e-10
-1.87362e-07
-1.22455e-09
-1.86462e-07
-2.12278e-09
-1.85185e-07
-3.01611e-09
-1.83534e-07
-3.90163e-09
-1.81513e-07
-4.77638e-09
-1.79128e-07
-5.63734e-09
-1.76387e-07
-6.48148e-09
-1.73298e-07
-7.30571e-09
-1.69871e-07
-8.10689e-09
-1.66116e-07
-8.88187e-09
-1.62047e-07
-9.62749e-09
-1.57677e-07
-1.03405e-08
-1.53022e-07
-1.10178e-08
-1.48097e-07
-1.1656e-08
-1.42921e-07
-1.2252e-08
-1.37513e-07
-1.28026e-08
-1.31893e-07
-1.33045e-08
-1.26084e-07
-1.37547e-08
-1.20108e-07
-1.415e-08
-1.1399e-07
-1.44874e-08
-1.07755e-07
-1.4764e-08
-1.0143e-07
-1.4977e-08
-9.5043e-08
-1.51236e-08
-8.86228e-08
-1.52013e-08
-8.21991e-08
-1.52076e-08
-7.58027e-08
-1.51404e-08
-6.94649e-08
-1.49977e-08
-6.3218e-08
-1.47777e-08
-5.70944e-08
-1.44792e-08
-5.11271e-08
-1.4101e-08
-4.53491e-08
-1.36425e-08
-3.97934e-08
-1.31036e-08
-3.44927e-08
-1.24848e-08
-2.94789e-08
-1.17871e-08
-2.4783e-08
-1.10126e-08
-2.04343e-08
-1.01644e-08
-1.64603e-08
-9.24682e-09
-1.28855e-08
-8.26585e-09
-9.73102e-09
-7.22967e-09
-7.01294e-09
-6.14923e-09
-4.74137e-09
-5.03915e-09
-2.91851e-09
-3.91895e-09
-1.53649e-09
-2.81468e-09
-5.74729e-10
-1.76119e-09
3.27311e-12
-8.05009e-10
2.5375e-10
-8.15212e-12
2.56697e-10
5.48184e-10
1.21243e-10
7.59021e-10
4.81286e-10
5.18792e-11
-5.41026e-10
5.47976e-12
-6.69332e-10
-2.84787e-10
-1.48423e-10
-9.23137e-10
8.03312e-10
-1.98491e-09
2.05464e-09
-3.52223e-09
3.50531e-09
-5.56815e-09
5.07615e-09
-8.1399e-09
6.70598e-09
-1.12419e-08
8.34801e-09
-1.4868e-08
9.96657e-09
-1.90038e-08
1.15347e-08
-2.36283e-08
1.30322e-08
-2.87153e-08
1.44439e-08
-3.42346e-08
1.57588e-08
-4.01532e-08
1.69689e-08
-4.64358e-08
1.80688e-08
-5.30454e-08
1.90549e-08
-5.99444e-08
1.99252e-08
-6.70942e-08
2.06787e-08
-7.44564e-08
2.13157e-08
-8.19925e-08
2.1837e-08
-8.96642e-08
2.22443e-08
-9.7434e-08
2.25396e-08
-1.05265e-07
2.27254e-08
-1.13121e-07
2.28045e-08
-1.20967e-07
2.278e-08
-1.28769e-07
2.26552e-08
-1.36494e-07
2.24336e-08
-1.44109e-07
2.21188e-08
-1.51585e-07
2.17144e-08
-1.58892e-07
2.12244e-08
-1.66002e-07
2.06525e-08
-1.72888e-07
2.00027e-08
-1.79525e-07
1.92788e-08
-1.85888e-07
1.84849e-08
-1.91955e-07
1.76248e-08
-1.97705e-07
1.67026e-08
-2.03117e-07
1.57222e-08
-2.08172e-07
1.46875e-08
-2.12854e-07
1.36026e-08
-2.17146e-07
1.24715e-08
-2.21034e-07
1.12981e-08
-2.24505e-07
1.00864e-08
-2.27546e-07
8.84043e-09
-2.30148e-07
7.56421e-09
-2.32301e-07
6.26179e-09
-2.33998e-07
4.93723e-09
-2.35232e-07
3.59464e-09
-2.35999e-07
2.23817e-09
-2.36296e-07
8.72013e-10
-2.36121e-07
-4.99601e-10
-2.35473e-07
-1.87239e-09
-2.34354e-07
-3.24199e-09
-2.32766e-07
-4.60402e-09
-2.30714e-07
-5.95398e-09
-2.28203e-07
-7.2874e-09
-2.25241e-07
-8.59966e-09
-2.21836e-07
-9.88612e-09
-2.17999e-07
-1.11421e-08
-2.13744e-07
-1.23628e-08
-2.09082e-07
-1.35435e-08
-2.0403e-07
-1.46793e-08
-1.98605e-07
-1.57654e-08
-1.92826e-07
-1.67968e-08
-1.86714e-07
-1.77688e-08
-1.80289e-07
-1.86764e-08
-1.73577e-07
-1.95148e-08
-1.66602e-07
-2.02791e-08
-1.59392e-07
-2.09648e-08
-1.51975e-07
-2.1567e-08
-1.44381e-07
-2.20813e-08
-1.36642e-07
-2.25033e-08
-1.2879e-07
-2.28288e-08
-1.2086e-07
-2.30537e-08
-1.12887e-07
-2.31742e-08
-1.04908e-07
-2.31868e-08
-9.69602e-08
-2.30884e-08
-8.90819e-08
-2.2876e-08
-8.13123e-08
-2.25473e-08
-7.36911e-08
-2.21004e-08
-6.62582e-08
-2.15339e-08
-5.90535e-08
-2.08472e-08
-5.21168e-08
-2.00403e-08
-4.54872e-08
-1.91144e-08
-3.92029e-08
-1.80714e-08
-3.33006e-08
-1.69149e-08
-2.7815e-08
-1.565e-08
-2.27783e-08
-1.42835e-08
-1.82189e-08
-1.28252e-08
-1.41611e-08
-1.12876e-08
-1.0623e-08
-9.68725e-09
-7.61618e-09
-8.04601e-09
-5.14291e-09
-6.39221e-09
-3.19476e-09
-4.76283e-09
-1.74997e-09
-3.20598e-09
-7.70759e-10
-1.78422e-09
-2.00223e-10
-5.78689e-10
4.11418e-11
3.06815e-10
5.98892e-11
7.40285e-10
5.41174e-10
-2.90819e-11
-5.11934e-10
-2.75111e-10
-4.23295e-10
-8.62888e-10
4.39347e-10
-1.88681e-09
1.82723e-09
-3.41659e-09
3.58444e-09
-5.50106e-09
5.58977e-09
-8.17116e-09
7.74625e-09
-1.14427e-08
9.97756e-09
-1.53188e-08
1.2224e-08
-1.97917e-08
1.44395e-08
-2.4845e-08
1.65881e-08
-3.04552e-08
1.86424e-08
-3.65931e-08
2.05817e-08
-4.32248e-08
2.23905e-08
-5.03129e-08
2.40571e-08
-5.78177e-08
2.55736e-08
-6.56973e-08
2.69345e-08
-7.39086e-08
2.81364e-08
-8.24075e-08
2.91776e-08
-9.11498e-08
3.0058e-08
-1.00091e-07
3.07783e-08
-1.09187e-07
3.13405e-08
-1.18395e-07
3.17471e-08
-1.27671e-07
3.20012e-08
-1.36973e-07
3.21067e-08
-1.4626e-07
3.20676e-08
-1.55494e-07
3.18883e-08
-1.64634e-07
3.15736e-08
-1.73643e-07
3.11283e-08
-1.82486e-07
3.05577e-08
-1.91129e-07
2.98668e-08
-1.99537e-07
2.9061e-08
-2.0768e-07
2.81458e-08
-2.15528e-07
2.71266e-08
-2.23052e-07
2.60089e-08
-2.30225e-07
2.47982e-08
-2.37023e-07
2.35e-08
-2.43421e-07
2.212e-08
-2.49397e-07
2.06638e-08
-2.54931e-07
1.91369e-08
-2.60005e-07
1.75448e-08
-2.646e-07
1.58933e-08
-2.68701e-07
1.41879e-08
-2.72295e-07
1.24344e-08
-2.75369e-07
1.06382e-08
-2.77913e-07
8.80531e-09
-2.79917e-07
6.9413e-09
-2.81374e-07
5.052e-09
-2.82279e-07
3.14326e-09
-2.82628e-07
1.22099e-09
-2.82419e-07
-7.08838e-10
-2.81651e-07
-2.64017e-09
-2.80326e-07
-4.56689e-09
-2.78448e-07
-6.4828e-09
-2.7602e-07
-8.38162e-09
-2.7305e-07
-1.0257e-08
-2.69548e-07
-1.21024e-08
-2.65522e-07
-1.39114e-08
-2.60987e-07
-1.56774e-08
-2.55956e-07
-1.73937e-08
-2.50446e-07
-1.90536e-08
-2.44475e-07
-2.06503e-08
-2.38063e-07
-2.2177e-08
-2.31233e-07
-2.36269e-08
-2.24009e-07
-2.49931e-08
-2.16416e-07
-2.62689e-08
-2.08483e-07
-2.74476e-08
-2.0024e-07
-2.85223e-08
-1.91718e-07
-2.94867e-08
-1.82951e-07
-3.03341e-08
-1.73974e-07
-3.10584e-08
-1.64824e-07
-3.16534e-08
-1.5554e-07
-3.21134e-08
-1.4616e-07
-3.24328e-08
-1.36728e-07
-3.26065e-08
-1.27285e-07
-3.26296e-08
-1.17876e-07
-3.24979e-08
-1.08544e-07
-3.22077e-08
-9.93356e-08
-3.17558e-08
-9.02962e-08
-3.11398e-08
-8.1472e-08
-3.03581e-08
-7.29091e-08
-2.94101e-08
-6.4653e-08
-2.82964e-08
-5.67487e-08
-2.70187e-08
-4.92396e-08
-2.55805e-08
-4.21676e-08
-2.3987e-08
-3.55719e-08
-2.22457e-08
-2.94886e-08
-2.03668e-08
-2.39498e-08
-1.8364e-08
-1.89825e-08
-1.62549e-08
-1.46071e-08
-1.40626e-08
-1.08368e-08
-1.18164e-08
-7.67501e-09
-9.55398e-09
-5.11432e-09
-7.32352e-09
-3.13405e-09
-5.18624e-09
-1.6982e-09
-3.22007e-09
-7.53045e-10
-1.52385e-09
-2.24617e-10
-2.21614e-10
-1.56934e-11
5.31364e-10
5.25474e-10
-1.15884e-10
-3.96053e-10
-5.81672e-10
4.24919e-11
-1.49767e-09
1.35534e-09
-2.9437e-09
3.27327e-09
-4.97992e-09
5.62065e-09
-7.64862e-09
8.25849e-09
-1.09763e-08
1.10739e-08
-1.49753e-08
1.39766e-08
-1.9646e-08
1.68948e-08
-2.49783e-08
1.97717e-08
-3.09531e-08
2.25629e-08
-3.75444e-08
2.52336e-08
-4.47196e-08
2.7757e-08
-5.24416e-08
3.01125e-08
-6.06694e-08
3.22849e-08
-6.93589e-08
3.42632e-08
-7.84639e-08
3.60395e-08
-8.79366e-08
3.7609e-08
-9.7728e-08
3.89691e-08
-1.07789e-07
4.01188e-08
-1.18069e-07
4.10589e-08
-1.2852e-07
4.17914e-08
-1.39093e-07
4.23194e-08
-1.49738e-07
4.26467e-08
-1.60409e-07
4.27779e-08
-1.7106e-07
4.27183e-08
-1.81645e-07
4.24734e-08
-1.92121e-07
4.20494e-08
-2.02445e-07
4.14525e-08
-2.12577e-07
4.06894e-08
-2.22477e-07
3.9767e-08
-2.32108e-07
3.86921e-08
-2.41434e-07
3.74719e-08
-2.50421e-07
3.61135e-08
-2.59036e-07
3.46242e-08
-2.6725e-07
3.30114e-08
-2.75032e-07
3.12823e-08
-2.82356e-07
2.94444e-08
-2.89198e-07
2.75051e-08
-2.95532e-07
2.54717e-08
-3.01339e-07
2.33517e-08
-3.06599e-07
2.11526e-08
-3.11292e-07
1.88818e-08
-3.15405e-07
1.6547e-08
-3.18922e-07
1.41556e-08
-3.21832e-07
1.17153e-08
-3.24125e-07
9.23366e-09
-3.25791e-07
6.71851e-09
-3.26826e-07
4.1776e-09
-3.27223e-07
1.61883e-09
-3.26982e-07
-9.49869e-10
-3.26102e-07
-3.52043e-09
-3.24584e-07
-6.0847e-09
-3.22433e-07
-8.63441e-09
-3.19653e-07
-1.11612e-08
-3.16253e-07
-1.36567e-08
-3.12244e-07
-1.61122e-08
-3.07636e-07
-1.8519e-08
-3.02445e-07
-2.08685e-08
-2.96687e-07
-2.31518e-08
-2.9038e-07
-2.536e-08
-2.83547e-07
-2.74841e-08
-2.76209e-07
-2.9515e-08
-2.68392e-07
-3.14438e-08
-2.60123e-07
-3.32615e-08
-2.51433e-07
-3.4959e-08
-2.42353e-07
-3.65276e-08
-2.32917e-07
-3.79583e-08
-2.23161e-07
-3.92425e-08
-2.13124e-07
-4.03718e-08
-2.02844e-07
-4.13379e-08
-1.92365e-07
-4.2133e-08
-1.81729e-07
-4.27493e-08
-1.70982e-07
-4.31799e-08
-1.6017e-07
-4.34179e-08
-1.49342e-07
-4.34573e-08
-1.38548e-07
-4.32926e-08
-1.27837e-07
-4.2919e-08
-1.1726e-07
-4.23328e-08
-1.06868e-07
-4.1531e-08
-9.67147e-08
-4.05118e-08
-8.68499e-08
-3.92749e-08
-7.73249e-08
-3.78214e-08
-6.81896e-08
-3.6154e-08
-5.94923e-08
-3.42778e-08
-5.12792e-08
-3.22001e-08
-4.35936e-08
-2.99312e-08
-3.64755e-08
-2.74849e-08
-2.99602e-08
-2.48794e-08
-2.40773e-08
-2.21378e-08
-1.88502e-08
-1.92897e-08
-1.4294e-08
-1.63726e-08
-1.04145e-08
-1.34335e-08
-7.2067e-09
-1.05313e-08
-4.65297e-09
-7.73996e-09
-2.7216e-09
-5.15144e-09
-1.36504e-09
-2.88041e-09
-5.18447e-10
-1.0682e-09
-9.82513e-11
1.11161e-10
4.2722e-10
-2.04382e-10
-1.91664e-10
-8.99832e-10
7.37936e-10
-2.16158e-09
2.61709e-09
-4.05239e-09
5.16407e-09
-6.62026e-09
8.18851e-09
-9.89866e-09
1.15369e-08
-1.39075e-08
1.50827e-08
-1.86542e-08
1.87233e-08
-2.41351e-08
2.23756e-08
-3.03365e-08
2.59732e-08
-3.72364e-08
2.94628e-08
-4.48053e-08
3.28025e-08
-5.30077e-08
3.59594e-08
-6.1803e-08
3.89078e-08
-7.11467e-08
4.16286e-08
-8.09908e-08
4.41073e-08
-9.12851e-08
4.63338e-08
-1.01977e-07
4.83014e-08
-1.13015e-07
5.00063e-08
-1.24343e-07
5.14468e-08
-1.35907e-07
5.26234e-08
-1.47654e-07
5.35383e-08
-1.5953e-07
5.41949e-08
-1.71481e-07
5.45976e-08
-1.83455e-07
5.47522e-08
-1.95401e-07
5.46647e-08
-2.0727e-07
5.43422e-08
-2.19013e-07
5.37922e-08
-2.30583e-07
5.30225e-08
-2.41935e-07
5.20414e-08
-2.53025e-07
5.08574e-08
-2.63813e-07
4.94793e-08
-2.74257e-07
4.7916e-08
-2.8432e-07
4.61766e-08
-2.93966e-07
4.42703e-08
-3.03161e-07
4.22064e-08
-3.11873e-07
3.99941e-08
-3.20071e-07
3.76429e-08
-3.27728e-07
3.51622e-08
-3.34818e-07
3.25614e-08
-3.41317e-07
2.98502e-08
-3.47202e-07
2.70378e-08
-3.52454e-07
2.41341e-08
-3.57056e-07
2.11485e-08
-3.60991e-07
1.80908e-08
-3.64246e-07
1.49707e-08
-3.66811e-07
1.17979e-08
-3.68675e-07
8.58237e-09
-3.69831e-07
5.33409e-09
-3.70275e-07
2.0631e-09
-3.70005e-07
-1.2204e-09
-3.69019e-07
-4.50612e-09
-3.6732e-07
-7.78363e-09
-3.64912e-07
-1.10424e-08
-3.61802e-07
-1.42717e-08
-3.57997e-07
-1.74609e-08
-3.53511e-07
-2.05988e-08
-3.48355e-07
-2.36745e-08
-3.42547e-07
-2.66769e-08
-3.36104e-07
-2.95946e-08
-3.29048e-07
-3.24163e-08
-3.21401e-07
-3.51306e-08
-3.1319e-07
-3.7726e-08
-3.04443e-07
-4.01911e-08
-2.9519e-07
-4.25144e-08
-2.85465e-07
-4.46846e-08
-2.75302e-07
-4.66904e-08
-2.64739e-07
-4.85207e-08
-2.53817e-07
-5.01645e-08
-2.42578e-07
-5.16111e-08
-2.31066e-07
-5.28502e-08
-2.19327e-07
-5.38719e-08
-2.07409e-07
-5.46667e-08
-1.95364e-07
-5.52256e-08
-1.83241e-07
-5.55402e-08
-1.71096e-07
-5.56031e-08
-1.58981e-07
-5.54076e-08
-1.46952e-07
-5.49479e-08
-1.35065e-07
-5.42194e-08
-1.23377e-07
-5.32187e-08
-1.11945e-07
-5.19441e-08
-1.00825e-07
-5.03955e-08
-9.00715e-08
-4.85745e-08
-7.97403e-08
-4.64853e-08
-6.98835e-08
-4.41345e-08
-6.05517e-08
-4.15319e-08
-5.17918e-08
-3.8691e-08
-4.36474e-08
-3.56293e-08
-3.61571e-08
-3.23697e-08
-2.93537e-08
-2.89412e-08
-2.32634e-08
-2.538e-08
-1.79044e-08
-2.17316e-08
-1.32857e-08
-1.80521e-08
-9.40613e-09
-1.44109e-08
-6.25276e-09
-1.08933e-08
-3.80005e-09
-7.60415e-09
-2.00887e-09
-4.67159e-09
-8.25879e-10
-2.25119e-09
-1.83434e-10
-5.31291e-10
2.43791e-10
-2.92347e-10
1.00681e-10
-1.22076e-09
1.66637e-09
-2.83656e-09
4.23287e-09
-5.18454e-09
7.51206e-09
-8.29908e-09
1.13031e-08
-1.22033e-08
1.54411e-08
-1.69089e-08
1.97884e-08
-2.24171e-08
2.42315e-08
-2.87189e-08
2.86775e-08
-3.57965e-08
3.30507e-08
-4.36237e-08
3.72901e-08
-5.21676e-08
4.13465e-08
-6.13892e-08
4.5181e-08
-7.12445e-08
4.8763e-08
-8.16851e-08
5.20692e-08
-9.26597e-08
5.50819e-08
-1.04114e-07
5.77882e-08
-1.15992e-07
6.01797e-08
-1.28237e-07
6.22509e-08
-1.4079e-07
6.39997e-08
-1.53592e-07
6.54261e-08
-1.66586e-07
6.65321e-08
-1.79713e-07
6.73217e-08
-1.92915e-07
6.78e-08
-2.06137e-07
6.79734e-08
-2.19321e-07
6.78495e-08
-2.32416e-07
6.74364e-08
-2.45366e-07
6.67431e-08
-2.58123e-07
6.57792e-08
-2.70636e-07
6.45546e-08
-2.82859e-07
6.30797e-08
-2.94744e-07
6.13652e-08
-3.0625e-07
5.9422e-08
-3.17335e-07
5.72613e-08
-3.27959e-07
5.48942e-08
-3.38085e-07
5.23322e-08
-3.47677e-07
4.95869e-08
-3.56704e-07
4.66697e-08
-3.65134e-07
4.35922e-08
-3.72939e-07
4.03663e-08
-3.80093e-07
3.70036e-08
-3.86571e-07
3.35159e-08
-3.92352e-07
2.99151e-08
-3.97416e-07
2.62131e-08
-4.01747e-07
2.24218e-08
-4.0533e-07
1.85534e-08
-4.08152e-07
1.46199e-08
-4.10203e-07
1.06336e-08
-4.11476e-07
6.60681e-09
-4.11965e-07
2.5521e-09
-4.11667e-07
-1.51794e-09
-4.10583e-07
-5.59057e-09
-4.08714e-07
-9.65288e-09
-4.06064e-07
-1.36918e-08
-4.02642e-07
-1.76942e-08
-3.98456e-07
-2.16466e-08
-3.93519e-07
-2.55355e-08
-3.87847e-07
-2.93473e-08
-3.81455e-07
-3.30682e-08
-3.74366e-07
-3.66842e-08
-3.66601e-07
-4.01814e-08
-3.58186e-07
-4.35456e-08
-3.49149e-07
-4.67629e-08
-3.39521e-07
-4.9819e-08
-3.29335e-07
-5.26999e-08
-3.18628e-07
-5.53915e-08
-3.07439e-07
-5.78802e-08
-2.95807e-07
-6.01521e-08
-2.83778e-07
-6.21939e-08
-2.71396e-07
-6.39925e-08
-2.58711e-07
-6.55354e-08
-2.45773e-07
-6.68103e-08
-2.32634e-07
-6.78057e-08
-2.19349e-07
-6.85108e-08
-2.05973e-07
-6.89156e-08
-1.92565e-07
-6.90109e-08
-1.79184e-07
-6.87889e-08
-1.65889e-07
-6.82426e-08
-1.52742e-07
-6.73668e-08
-1.39803e-07
-6.61577e-08
-1.27134e-07
-6.46135e-08
-1.14795e-07
-6.27344e-08
-1.02846e-07
-6.0523e-08
-9.13468e-08
-5.79846e-08
-8.03534e-08
-5.5128e-08
-6.992e-08
-5.19653e-08
-6.00977e-08
-4.85133e-08
-5.09333e-08
-4.47937e-08
-4.2469e-08
-4.0834e-08
-3.47411e-08
-3.66691e-08
-2.77792e-08
-3.23419e-08
-2.16053e-08
-2.79055e-08
-1.62326e-08
-2.34248e-08
-1.16647e-08
-1.89788e-08
-7.89481e-09
-1.46632e-08
-4.90507e-09
-1.05939e-08
-2.66619e-09
-6.91046e-09
-1.13769e-09
-3.7797e-09
-2.68703e-10
-1.40027e-09
-2.49099e-11
-3.78579e-10
4.7925e-10
-1.53917e-09
2.82696e-09
-3.51103e-09
6.20473e-09
-6.32117e-09
1.03222e-08
-9.98975e-09
1.49716e-08
-1.45285e-08
1.99798e-08
-1.994e-08
2.51999e-08
-2.62181e-08
3.05096e-08
-3.33477e-08
3.58071e-08
-4.13056e-08
4.10087e-08
-5.00614e-08
4.60458e-08
-5.95779e-08
5.08629e-08
-6.98122e-08
5.54153e-08
-8.07166e-08
5.96675e-08
-9.22393e-08
6.35919e-08
-1.04325e-07
6.71676e-08
-1.16916e-07
7.03793e-08
-1.29953e-07
7.32162e-08
-1.43374e-07
7.56718e-08
-1.57117e-07
7.77427e-08
-1.71119e-07
7.94288e-08
-1.85319e-07
8.0732e-08
-1.99654e-07
8.16565e-08
-2.14062e-07
8.22083e-08
-2.28483e-07
8.23945e-08
-2.42858e-07
8.2224e-08
-2.57128e-07
8.17062e-08
-2.71237e-07
8.08518e-08
-2.85129e-07
7.9672e-08
-2.98753e-07
7.81785e-08
-3.12057e-07
7.63836e-08
-3.24992e-07
7.43002e-08
-3.37511e-07
7.19413e-08
-3.4957e-07
6.932e-08
-3.61126e-07
6.645e-08
-3.72139e-07
6.3345e-08
-3.82571e-07
6.00187e-08
-3.92386e-07
5.6485e-08
-4.01552e-07
5.27579e-08
-4.10037e-07
4.88517e-08
-4.17814e-07
4.47803e-08
-4.24856e-07
4.05581e-08
-4.3114e-07
3.61993e-08
-4.36645e-07
3.17183e-08
-4.41353e-07
2.71296e-08
-4.45247e-07
2.24478e-08
-4.48315e-07
1.76876e-08
-4.50545e-07
1.28637e-08
-4.51929e-07
7.99104e-09
-4.52462e-07
3.08479e-09
-4.5214e-07
-1.83985e-09
-4.50963e-07
-6.76746e-09
-4.48934e-07
-1.16825e-08
-4.46056e-07
-1.65691e-08
-4.42339e-07
-2.14114e-08
-4.37793e-07
-2.61932e-08
-4.3243e-07
-3.08983e-08
-4.26267e-07
-3.55101e-08
-4.19323e-07
-4.0012e-08
-4.1162e-07
-4.43873e-08
-4.03182e-07
-4.86192e-08
-3.94037e-07
-5.26906e-08
-3.84216e-07
-5.65845e-08
-3.73751e-07
-6.02842e-08
-3.62678e-07
-6.37725e-08
-3.51037e-07
-6.70328e-08
-3.38868e-07
-7.00484e-08
-3.26218e-07
-7.28029e-08
-3.13131e-07
-7.52804e-08
-2.99659e-07
-7.74652e-08
-2.85852e-07
-7.93422e-08
-2.71765e-07
-8.08971e-08
-2.57455e-07
-8.2116e-08
-2.42979e-07
-8.29861e-08
-2.28399e-07
-8.34957e-08
-2.13776e-07
-8.36339e-08
-1.99174e-07
-8.33915e-08
-1.84656e-07
-8.27607e-08
-1.70287e-07
-8.17353e-08
-1.56134e-07
-8.03112e-08
-1.42261e-07
-7.84865e-08
-1.28733e-07
-7.62619e-08
-1.15615e-07
-7.36409e-08
-1.02969e-07
-7.06302e-08
-9.08568e-08
-6.72406e-08
-7.93351e-08
-6.3487e-08
-6.84592e-08
-5.93893e-08
-5.82796e-08
-5.49733e-08
-4.88421e-08
-5.02715e-08
-4.0187e-08
-4.53242e-08
-3.23478e-08
-4.01811e-08
-2.53508e-08
-3.49024e-08
-1.92145e-08
-2.95612e-08
-1.39482e-08
-2.42451e-08
-9.55221e-09
-1.90592e-08
-6.01731e-09
-1.41288e-08
-3.32498e-09
-9.60279e-09
-1.44815e-09
-5.65654e-09
-3.5264e-10
-2.49578e-09
-3.77554e-10
-4.62435e-10
9.41685e-10
-1.85198e-09
4.21651e-09
-4.17783e-09
8.53059e-09
-7.45e-09
1.35944e-08
-1.16744e-08
1.9196e-08
-1.68509e-08
2.51563e-08
-2.29725e-08
3.13215e-08
-3.00246e-08
3.75617e-08
-3.79854e-08
4.37678e-08
-4.68257e-08
4.98491e-08
-5.65101e-08
5.57301e-08
-6.69966e-08
6.13495e-08
-7.82382e-08
6.66569e-08
-9.01833e-08
7.16125e-08
-1.02776e-07
7.61847e-08
-1.15958e-07
8.03493e-08
-1.29667e-07
8.40883e-08
-1.4384e-07
8.73891e-08
-1.58412e-07
9.02436e-08
-1.73317e-07
9.26477e-08
-1.88488e-07
9.46007e-08
-2.03861e-07
9.61046e-08
-2.19368e-07
9.71638e-08
-2.34945e-07
9.77849e-08
-2.50527e-07
9.79763e-08
-2.6605e-07
9.77477e-08
-2.81454e-07
9.71102e-08
-2.96678e-07
9.6076e-08
-3.11665e-07
9.46581e-08
-3.26356e-07
9.28701e-08
-3.40699e-07
9.07265e-08
-3.54641e-07
8.82421e-08
-3.68132e-07
8.54322e-08
-3.81124e-07
8.23124e-08
-3.93573e-07
7.88986e-08
-4.05435e-07
7.52068e-08
-4.1667e-07
7.12534e-08
-4.27239e-07
6.70547e-08
-4.37109e-07
6.26272e-08
-4.46245e-07
5.79877e-08
-4.54617e-07
5.31528e-08
-4.62198e-07
4.81395e-08
-4.68964e-07
4.29645e-08
-4.7489e-07
3.7645e-08
-4.79959e-07
3.2198e-08
-4.84152e-07
2.66409e-08
-4.87455e-07
2.0991e-08
-4.89858e-07
1.52659e-08
-4.9135e-07
9.48314e-09
-4.91926e-07
3.66073e-09
-4.91582e-07
-2.18332e-09
-4.90319e-07
-8.03076e-09
-4.88138e-07
-1.38631e-08
-4.85045e-07
-1.96618e-08
-4.81049e-07
-2.54079e-08
-4.7616e-07
-3.10823e-08
-4.70392e-07
-3.66657e-08
-4.63764e-07
-4.21387e-08
-4.56294e-07
-4.74817e-08
-4.48007e-07
-5.26747e-08
-4.38928e-07
-5.7698e-08
-4.29087e-07
-6.25314e-08
-4.18516e-07
-6.71551e-08
-4.07252e-07
-7.1549e-08
-3.95331e-07
-7.56931e-08
-3.82796e-07
-7.95678e-08
-3.69691e-07
-8.31534e-08
-3.56063e-07
-8.64307e-08
-3.41963e-07
-8.93809e-08
-3.27442e-07
-9.19858e-08
-3.12557e-07
-9.42276e-08
-2.97364e-07
-9.60894e-08
-2.81925e-07
-9.75553e-08
-2.66301e-07
-9.86102e-08
-2.50556e-07
-9.92404e-08
-2.34757e-07
-9.94336e-08
-2.18969e-07
-9.9179e-08
-2.03262e-07
-9.84677e-08
-1.87705e-07
-9.72928e-08
-1.72366e-07
-9.56498e-08
-1.57316e-07
-9.35367e-08
-1.42623e-07
-9.09547e-08
-1.28356e-07
-8.79082e-08
-1.14581e-07
-8.44055e-08
-1.01362e-07
-8.04593e-08
-8.87618e-08
-7.60872e-08
-7.68387e-08
-7.13124e-08
-6.56473e-08
-6.61647e-08
-5.52373e-08
-6.06814e-08
-4.56532e-08
-5.49084e-08
-3.6933e-08
-4.89012e-08
-2.91083e-08
-4.27271e-08
-2.2203e-08
-3.64665e-08
-1.62332e-08
-3.02149e-08
-1.12068e-08
-2.40855e-08
-7.12413e-09
-1.82115e-08
-3.97771e-09
-1.27492e-08
-1.75388e-09
-7.88036e-09
-4.34507e-10
-3.81515e-09
-8.12063e-10
-5.43673e-10
1.48535e-09
-2.15751e-09
5.83036e-09
-4.83276e-09
1.12058e-08
-8.56345e-09
1.73251e-08
-1.33416e-08
2.39742e-08
-1.91553e-08
3.097e-08
-2.59872e-08
3.81534e-08
-3.38142e-08
4.53887e-08
-4.2607e-08
5.25606e-08
-5.233e-08
5.95721e-08
-6.2942e-08
6.63421e-08
-7.4396e-08
7.28035e-08
-8.66405e-08
7.89014e-08
-9.96194e-08
8.45915e-08
-1.13273e-07
8.98384e-08
-1.27539e-07
9.46149e-08
-1.42351e-07
9.89006e-08
-1.57643e-07
1.02681e-07
-1.73346e-07
1.05946e-07
-1.8939e-07
1.08692e-07
-2.05706e-07
1.10917e-07
-2.22224e-07
1.12623e-07
-2.38875e-07
1.13814e-07
-2.55589e-07
1.14499e-07
-2.72299e-07
1.14686e-07
-2.88938e-07
1.14387e-07
-3.05442e-07
1.13614e-07
-3.21746e-07
1.1238e-07
-3.3779e-07
1.10702e-07
-3.53513e-07
1.08594e-07
-3.68859e-07
1.06072e-07
-3.83772e-07
1.03155e-07
-3.982e-07
9.98598e-08
-4.12091e-07
9.62041e-08
-4.25399e-07
9.22065e-08
-4.38078e-07
8.78856e-08
-4.50085e-07
8.32603e-08
-4.6138e-07
7.83496e-08
-4.71925e-07
7.31728e-08
-4.81687e-07
6.77491e-08
-4.90632e-07
6.2098e-08
-4.98732e-07
5.62391e-08
-5.05959e-07
5.01922e-08
-5.12291e-07
4.3977e-08
-5.17707e-07
3.76134e-08
-5.22188e-07
3.11217e-08
-5.25719e-07
2.4522e-08
-5.28287e-07
1.78347e-08
-5.29885e-07
1.10805e-08
-5.30504e-07
4.28012e-09
-5.30142e-07
-2.54534e-09
-5.28798e-07
-9.37467e-09
-5.26475e-07
-1.61864e-08
-5.23178e-07
-2.29587e-08
-5.18916e-07
-2.96698e-08
-5.13701e-07
-3.62973e-08
-5.07548e-07
-4.28189e-08
-5.00475e-07