/*--------------------------------*- C++ -*----------------------------------*\
| =========                 |                                                 |
| \\      /  F ield         | OpenFOAM: The Open Source CFD Toolbox           |
|  \\    /   O peration     | Version:  2212                                  |
|   \\  /    A nd           | Website:  www.openfoam.com                      |
|    \\/     M anipulation  |                                                 |
\*---------------------------------------------------------------------------*/
FoamFile
{
    version     2.0;
    format      ascii;
    arch        "LSB;label=32;scalar=64";
    class       surfaceScalarField;
    location    "0.032";
    object      phi;
}
// * * * * * * * * * * * * * * * * * * * * * * * * * * * * * * * * * * * * * //

dimensions      [0 3 -1 0 0 0 0];

oriented        oriented;

internalField   nonuniform List<scalar> 
19800
(
6.09276e-11
-6.09707e-11
1.86415e-10
-1.25495e-10
3.06978e-10
-1.20551e-10
3.87495e-10
-8.05227e-11
4.06291e-10
-1.87933e-11
3.49778e-10
5.65104e-11
2.11045e-10
1.38737e-10
-1.2231e-11
2.23267e-10
-3.19277e-10
3.0706e-10
-7.07425e-10
3.88151e-10
-1.17267e-09
4.65239e-10
-1.71023e-09
5.37566e-10
-2.31486e-09
6.04614e-10
-2.98095e-09
6.66094e-10
-3.70282e-09
7.21874e-10
-4.47464e-09
7.71826e-10
-5.29065e-09
8.16016e-10
-6.14513e-09
8.5449e-10
-7.03247e-09
8.87345e-10
-7.94717e-09
9.14702e-10
-8.88388e-09
9.36721e-10
-9.83739e-09
9.53503e-10
-1.08027e-08
9.65257e-10
-1.17748e-08
9.72185e-10
-1.27493e-08
9.74447e-10
-1.37215e-08
9.72215e-10
-1.46872e-08
9.65692e-10
-1.56423e-08
9.55072e-10
-1.65828e-08
9.40529e-10
-1.75051e-08
9.22243e-10
-1.84054e-08
9.00396e-10
-1.92806e-08
8.75178e-10
-2.01274e-08
8.46766e-10
-2.09427e-08
8.15327e-10
-2.17238e-08
7.81041e-10
-2.24678e-08
7.44081e-10
-2.31725e-08
7.04614e-10
-2.38353e-08
6.62805e-10
-2.44541e-08
6.1882e-10
-2.50269e-08
5.72837e-10
-2.5552e-08
5.25024e-10
-2.60275e-08
4.75525e-10
-2.6452e-08
4.24483e-10
-2.6824e-08
3.72068e-10
-2.71425e-08
3.18456e-10
-2.74063e-08
2.63803e-10
-2.76146e-08
2.08261e-10
-2.77666e-08
1.5199e-10
-2.78617e-08
9.51457e-11
-2.78996e-08
3.79005e-11
-2.788e-08
-1.95816e-11
-2.78029e-08
-7.71527e-11
-2.76682e-08
-1.34637e-10
-2.74764e-08
-1.91838e-10
-2.72278e-08
-2.48583e-10
-2.69231e-08
-3.04718e-10
-2.6563e-08
-3.60065e-10
-2.61486e-08
-4.14427e-10
-2.5681e-08
-4.67604e-10
-2.51616e-08
-5.19399e-10
-2.4592e-08
-5.6962e-10
-2.39739e-08
-6.18076e-10
-2.33093e-08
-6.64577e-10
-2.26004e-08
-7.0891e-10
-2.18496e-08
-7.50842e-10
-2.10594e-08
-7.90162e-10
-2.02327e-08
-8.26679e-10
-1.93726e-08
-8.60185e-10
-1.84821e-08
-8.90455e-10
-1.75648e-08
-9.17276e-10
-1.66244e-08
-9.40452e-10
-1.56646e-08
-9.59773e-10
-1.46896e-08
-9.75024e-10
-1.37036e-08
-9.86005e-10
-1.27111e-08
-9.92522e-10
-1.17167e-08
-9.94382e-10
-1.07253e-08
-9.91394e-10
-9.74189e-09
-9.8339e-10
-8.77168e-09
-9.70215e-10
-7.81996e-09
-9.51713e-10
-6.89222e-09
-9.27737e-10
-5.99406e-09
-8.98158e-10
-5.13119e-09
-8.62876e-10
-4.30936e-09
-8.21828e-10
-3.53437e-09
-7.74988e-10
-2.81199e-09
-7.22368e-10
-2.14796e-09
-6.64027e-10
-1.54788e-09
-6.00085e-10
-1.01713e-09
-5.30746e-10
-5.60798e-10
-4.56334e-10
-1.83449e-10
-3.77349e-10
1.11107e-10
-2.94553e-10
3.20228e-10
-2.09115e-10
4.43053e-10
-1.2282e-10
4.81513e-10
-3.84602e-11
4.42002e-10
3.95119e-11
3.38097e-10
1.03912e-10
1.95286e-10
1.42816e-10
5.94493e-11
1.35839e-10
5.94496e-11
1.44061e-10
-2.05041e-10
3.63305e-10
-3.44729e-10
5.36586e-10
-2.93834e-10
5.94121e-10
-1.38045e-10
4.88066e-10
8.72448e-11
1.8758e-10
3.57018e-10
-3.24898e-10
6.51198e-10
-1.05675e-09
9.55131e-10
-2.00823e-09
1.25853e-09
-3.17424e-09
1.55416e-09
-4.54615e-09
1.83716e-09
-6.11278e-09
2.1042e-09
-7.86117e-09
2.35302e-09
-9.77729e-09
2.58222e-09
-1.18464e-08
2.79093e-09
-1.40532e-08
2.97863e-09
-1.63824e-08
3.1452e-09
-1.88185e-08
3.29062e-09
-2.13463e-08
3.41513e-09
-2.39507e-08
3.5191e-09
-2.66169e-08
3.60293e-09
-2.93305e-08
3.66711e-09
-3.20774e-08
3.71223e-09
-3.48442e-08
3.73893e-09
-3.76176e-08
3.74783e-09
-4.03849e-08
3.73958e-09
-4.31341e-08
3.71485e-09
-4.58534e-08
3.67436e-09
-4.85316e-08
3.61877e-09
-5.11581e-08
3.54876e-09
-5.37228e-08
3.46505e-09
-5.62159e-08
3.36831e-09
-5.86284e-08
3.25922e-09
-6.09515e-08
3.13844e-09
-6.31771e-08
3.00664e-09
-6.52975e-08
2.86452e-09
-6.73056e-08
2.7127e-09
-6.91946e-08
2.55182e-09
-7.09583e-08
2.38253e-09
-7.2591e-08
2.20548e-09
-7.40872e-08
2.02129e-09
-7.54423e-08
1.83059e-09
-7.66518e-08
1.63398e-09
-7.77119e-08
1.43209e-09
-7.8619e-08
1.22557e-09
-7.93702e-08
1.01501e-09
-7.99629e-08
8.01019e-10
-8.03952e-08
5.84225e-10
-8.06653e-08
3.65265e-10
-8.07722e-08
1.44768e-10
-8.07151e-08
-7.66314e-11
-8.0494e-08
-2.98292e-10
-8.01091e-08
-5.19553e-10
-7.95612e-08
-7.39727e-10
-7.88516e-08
-9.5814e-10
-7.79822e-08
-1.17412e-09
-7.69553e-08
-1.38697e-09
-7.57738e-08
-1.59596e-09
-7.4441e-08
-1.80034e-09
-7.29611e-08
-1.99937e-09
-7.13384e-08
-2.1923e-09
-6.95781e-08
-2.37837e-09
-6.76859e-08
-2.5568e-09
-6.5668e-08
-2.72681e-09
-6.35312e-08
-2.88758e-09
-6.12831e-08
-3.0383e-09
-5.89316e-08
-3.17818e-09
-5.64854e-08
-3.3064e-09
-5.39537e-08
-3.42218e-09
-5.13462e-08
-3.52471e-09
-4.86735e-08
-3.61319e-09
-4.59464e-08
-3.68685e-09
-4.31766e-08
-3.74491e-09
-4.0376e-08
-3.78661e-09
-3.75572e-08
-3.81123e-09
-3.47336e-08
-3.81806e-09
-3.19185e-08
-3.80645e-09
-2.91261e-08
-3.77577e-09
-2.63709e-08
-3.72547e-09
-2.36676e-08
-3.655e-09
-2.10314e-08
-3.56391e-09
-1.84778e-08
-3.4518e-09
-1.60222e-08
-3.31842e-09
-1.36804e-08
-3.16361e-09
-1.1468e-08
-2.9874e-09
-9.40042e-09
-2.78995e-09
-7.49274e-09
-2.5717e-09
-5.75947e-09
-2.33335e-09
-4.21422e-09
-2.07599e-09
-2.86933e-09
-1.80123e-09
-1.73528e-09
-1.51139e-09
-8.19978e-10
-1.20985e-09
-1.2763e-10
-9.01458e-10
3.42794e-10
-5.93243e-10
5.99792e-10
-2.95455e-10
6.62512e-10
-2.31991e-11
5.65176e-10
2.01252e-10
3.62657e-10
3.45336e-10
1.35854e-10
3.62648e-10
1.95299e-10
1.56046e-10
-3.61076e-10
3.58535e-10
-5.47213e-10
4.57899e-10
-3.93196e-10
3.64162e-10
-4.4303e-11
1.56407e-11
4.35774e-10
-6.28308e-10
1.00095e-09
-1.59165e-09
1.61455e-09
-2.88549e-09
2.24897e-09
-4.51102e-09
2.88406e-09
-6.46208e-09
3.50523e-09
-8.72702e-09
4.10209e-09
-1.12902e-08
4.66734e-09
-1.41329e-08
5.19581e-09
-1.72348e-08
5.68406e-09
-2.05737e-08
6.12982e-09
-2.41267e-08
6.53173e-09
-2.78706e-08
6.88907e-09
-3.17817e-08
7.20173e-09
-3.58365e-08
7.46988e-09
-4.00115e-08
7.6941e-09
-4.42837e-08
7.87513e-09
-4.86305e-08
8.01394e-09
-5.30299e-08
8.11164e-09
-5.74605e-08
8.16946e-09
-6.19013e-08
8.18868e-09
-6.63324e-08
8.17067e-09
-7.07344e-08
8.11684e-09
-7.50887e-08
8.02862e-09
-7.93774e-08
7.90746e-09
-8.35835e-08
7.75485e-09
-8.76907e-08
7.57226e-09
-9.16835e-08
7.36118e-09
-9.55474e-08
7.12305e-09
-9.92683e-08
6.85935e-09
-1.02833e-07
6.57153e-09
-1.0623e-07
6.26103e-09
-1.09446e-07
5.92928e-09
-1.12472e-07
5.57769e-09
-1.15297e-07
5.20767e-09
-1.17912e-07
4.82063e-09
-1.20309e-07
4.41793e-09
-1.22479e-07
4.00094e-09
-1.24416e-07
3.57102e-09
-1.26114e-07
3.12955e-09
-1.27566e-07
2.6779e-09
-1.28769e-07
2.21741e-09
-1.29717e-07
1.74946e-09
-1.30408e-07
1.2754e-09
-1.3084e-07
7.96615e-10
-1.31009e-07
3.14505e-10
-1.30916e-07
-1.69535e-10
-1.30561e-07
-6.54076e-10
-1.29943e-07
-1.13767e-09
-1.29063e-07
-1.61885e-09
-1.27925e-07
-2.09611e-09
-1.26532e-07
-2.56796e-09
-1.24886e-07
-3.03287e-09
-1.22992e-07
-3.48924e-09
-1.20857e-07
-3.93547e-09
-1.18487e-07
-4.36994e-09
-1.15888e-07
-4.79098e-09
-1.1307e-07
-5.19695e-09
-1.1004e-07
-5.58615e-09
-1.0681e-07
-5.95685e-09
-1.0339e-07
-6.30731e-09
-9.97929e-08
-6.63579e-09
-9.60305e-08
-6.94055e-09
-9.21171e-08
-7.21984e-09
-8.80673e-08
-7.47193e-09
-8.3897e-08
-7.69508e-09
-7.96226e-08
-7.8876e-09
-7.52616e-08
-8.0478e-09
-7.08325e-08
-8.17403e-09
-6.63544e-08
-8.26469e-09
-6.18474e-08
-8.31825e-09
-5.73322e-08
-8.33323e-09
-5.28304e-08
-8.30825e-09
-4.83642e-08
-8.24204e-09
-4.39562e-08
-8.13344e-09
-3.96298e-08
-7.9814e-09
-3.54086e-08
-7.78505e-09
-3.13167e-08
-7.54372e-09
-2.73782e-08
-7.25697e-09
-2.36171e-08
-6.92467e-09
-2.00575e-08
-6.54704e-09
-1.67227e-08
-6.12472e-09
-1.36355e-08
-5.65889e-09
-1.08174e-08
-5.15142e-09
-8.28839e-09
-4.60504e-09
-6.06593e-09
-4.02369e-09
-4.16448e-09
-3.41284e-09
-2.59418e-09
-2.78015e-09
-1.35936e-09
-2.13628e-09
-4.56547e-10
-1.49605e-09
1.28171e-10
-8.80163e-10
4.22579e-10
-3.17603e-10
4.72641e-10
1.51183e-10
3.47281e-10
4.70699e-10
1.4338e-10
5.66553e-10
3.38675e-10
1.12948e-10
-4.74033e-10
2.09414e-10
-6.43663e-10
1.3539e-10
-3.19168e-10
-2.08251e-10
2.99322e-10
-8.89831e-10
1.11735e-09
-1.95489e-09
2.06602e-09
-3.43087e-09
3.09053e-09
-5.33089e-09
4.14898e-09
-7.65673e-09
5.20991e-09
-1.04014e-08
6.24988e-09
-1.3551e-08
7.25173e-09
-1.70866e-08
8.20294e-09
-2.09853e-08
9.09449e-09
-2.52214e-08
9.92009e-09
-2.97669e-08
1.06754e-08
-3.45929e-08
1.13577e-08
-3.96691e-08
1.19653e-08
-4.4965e-08
1.24977e-08
-5.045e-08
1.29549e-08
-5.60934e-08
1.33375e-08
-6.1865e-08
1.36467e-08
-6.77349e-08
1.38839e-08
-7.3674e-08
1.40507e-08
-7.96537e-08
1.41492e-08
-8.56464e-08
1.41814e-08
-9.16253e-08
1.41495e-08
-9.75644e-08
1.4056e-08
-1.03439e-07
1.39031e-08
-1.09225e-07
1.36934e-08
-1.14899e-07
1.34293e-08
-1.2044e-07
1.31133e-08
-1.25827e-07
1.2748e-08
-1.3104e-07
1.23359e-08
-1.3606e-07
1.18794e-08
-1.4087e-07
1.13811e-08
-1.45452e-07
1.08435e-08
-1.49792e-07
1.0269e-08
-1.53874e-07
9.66007e-09
-1.57686e-07
9.01917e-09
-1.61214e-07
8.3487e-09
-1.64447e-07
7.65106e-09
-1.67374e-07
6.92862e-09
-1.69987e-07
6.18377e-09
-1.72277e-07
5.41888e-09
-1.74235e-07
4.63632e-09
-1.75856e-07
3.83845e-09
-1.77134e-07
3.02765e-09
-1.78065e-07
2.20631e-09
-1.78645e-07
1.37683e-09
-1.78873e-07
5.41643e-10
-1.78745e-07
-2.96827e-10
-1.78263e-07
-1.13609e-09
-1.77427e-07
-1.97363e-09
-1.76239e-07
-2.80687e-09
-1.74702e-07
-3.63326e-09
-1.7282e-07
-4.45015e-09
-1.70598e-07
-5.25488e-09
-1.68042e-07
-6.04471e-09
-1.65161e-07
-6.81687e-09
-1.61962e-07
-7.56854e-09
-1.58456e-07
-8.29689e-09
-1.54654e-07
-8.99901e-09
-1.50569e-07
-9.67198e-09
-1.46213e-07
-1.03128e-08
-1.41601e-07
-1.09186e-08
-1.36751e-07
-1.14863e-08
-1.31678e-07
-1.20129e-08
-1.26403e-07
-1.24954e-08
-1.20944e-07
-1.29309e-08
-1.15323e-07
-1.33163e-08
-1.09561e-07
-1.36489e-08
-1.03684e-07
-1.39256e-08
-9.77137e-08
-1.41438e-08
-9.16777e-08
-1.43007e-08
-8.56021e-08
-1.43938e-08
-7.95148e-08
-1.44206e-08
-7.34443e-08
-1.43788e-08
-6.742e-08
-1.42663e-08
-6.14722e-08
-1.40812e-08
-5.56317e-08
-1.3822e-08
-4.99295e-08
-1.34872e-08
-4.43972e-08
-1.3076e-08
-3.90664e-08
-1.25878e-08
-3.39684e-08
-1.20227e-08
-2.91342e-08
-1.13813e-08
-2.45939e-08
-1.0665e-08
-2.03765e-08
-9.8763e-09
-1.65091e-08
-9.01876e-09
-1.30166e-08
-8.09755e-09
-9.92051e-09
-7.11981e-09
-7.23801e-09
-6.09534e-09
-4.98076e-09
-5.0374e-09
-3.15311e-09
-3.96393e-09
-1.74999e-09
-2.89916e-09
-7.54365e-10
-1.87579e-09
-1.34039e-10
-9.37931e-10
1.62062e-10
-1.44913e-10
2.07996e-10
4.24774e-10
1.05947e-10
6.68603e-10
4.44623e-10
4.27824e-11
-5.16815e-10
-2.46718e-11
-5.76226e-10
-3.43012e-10
-8.18555e-13
-1.00989e-09
9.66194e-10
-2.0939e-09
2.20137e-09
-3.64125e-09
3.61337e-09
-5.68005e-09
5.12933e-09
-8.2237e-09
6.69265e-09
-1.12737e-08
8.25989e-09
-1.48219e-08
9.7981e-09
-1.88526e-08
1.12824e-08
-2.33439e-08
1.26943e-08
-2.82695e-08
1.40201e-08
-3.35994e-08
1.525e-08
-3.93009e-08
1.6377e-08
-4.53398e-08
1.73965e-08
-5.16802e-08
1.83057e-08
-5.82856e-08
1.91031e-08
-6.51192e-08
1.97885e-08
-7.21442e-08
2.03625e-08
-7.93238e-08
2.08264e-08
-8.6622e-08
2.1182e-08
-9.40031e-08
2.14318e-08
-1.01432e-07
2.15785e-08
-1.08876e-07
2.1625e-08
-1.16301e-07
2.15746e-08
-1.23676e-07
2.14306e-08
-1.30969e-07
2.11967e-08
-1.38152e-07
2.08764e-08
-1.45197e-07
2.04735e-08
-1.52075e-07
1.99917e-08
-1.58762e-07
1.94347e-08
-1.65232e-07
1.88064e-08
-1.71463e-07
1.81105e-08
-1.77433e-07
1.73509e-08
-1.83121e-07
1.65313e-08
-1.88507e-07
1.56554e-08
-1.93574e-07
1.4727e-08
-1.98305e-07
1.37497e-08
-2.02684e-07
1.27273e-08
-2.06696e-07
1.16634e-08
-2.10329e-07
1.05617e-08
-2.13571e-07
9.42575e-09
-2.16411e-07
8.25925e-09
-2.18841e-07
7.06579e-09
-2.20851e-07
5.84897e-09
-2.22436e-07
4.61247e-09
-2.2359e-07
3.35995e-09
-2.24308e-07
2.09506e-09
-2.24588e-07
8.21517e-10
-2.24428e-07
-4.56926e-10
-2.23827e-07
-1.73647e-09
-2.22788e-07
-3.01326e-09
-2.21311e-07
-4.28342e-09
-2.19401e-07
-5.54299e-09
-2.17064e-07
-6.78794e-09
-2.14304e-07
-8.01419e-09
-2.11132e-07
-9.21759e-09
-2.07554e-07
-1.03939e-08
-2.03584e-07
-1.15389e-08
-1.99233e-07
-1.26482e-08
-1.94514e-07
-1.37174e-08
-1.89444e-07
-1.47421e-08
-1.84039e-07
-1.57177e-08
-1.78318e-07
-1.66399e-08
-1.72301e-07
-1.7504e-08
-1.66008e-07
-1.83055e-08
-1.59464e-07
-1.90399e-08
-1.52692e-07
-1.97027e-08
-1.45719e-07
-2.02894e-08
-1.38572e-07
-2.07958e-08
-1.3128e-07
-2.12174e-08
-1.23874e-07
-2.15502e-08
-1.16384e-07
-2.17902e-08
-1.08844e-07
-2.19335e-08
-1.01288e-07
-2.19765e-08
-9.37513e-08
-2.19159e-08
-8.6269e-08
-2.17486e-08
-7.88781e-08
-2.1472e-08
-7.16162e-08
-2.10839e-08
-6.45211e-08
-2.05824e-08
-5.76307e-08
-1.99664e-08
-5.09832e-08
-1.92354e-08
-4.4616e-08
-1.83898e-08
-3.85663e-08
-1.7431e-08
-3.28698e-08
-1.63615e-08
-2.75606e-08
-1.51855e-08
-2.26705e-08
-1.39088e-08
-1.82284e-08
-1.25397e-08
-1.4259e-08
-1.10892e-08
-1.07818e-08
-9.5725e-09
-7.80997e-09
-8.00923e-09
-5.34832e-09
-6.42558e-09
-3.39151e-09
-4.85597e-09
-1.92168e-09
-3.34562e-09
-9.0575e-10
-1.95386e-09
-2.92398e-10
-7.58253e-10
-8.72968e-12
1.41109e-10
4.40062e-11
6.15868e-10
4.88634e-10
-3.8896e-11
-4.7792e-10
-3.03841e-10
-3.11261e-10
-9.12913e-10
6.08241e-10
-1.95425e-09
2.00754e-09
-3.4913e-09
3.73841e-09
-5.56714e-09
5.68921e-09
-8.20791e-09
7.77011e-09
-1.14255e-08
9.91023e-09
-1.52199e-08
1.20543e-08
-1.95814e-08
1.41596e-08
-2.4492e-08
1.6193e-08
-2.99274e-08
1.81297e-08
-3.5858e-08
1.99507e-08
-4.22502e-08
2.16422e-08
-4.90673e-08
2.31941e-08
-5.62704e-08
2.45996e-08
-6.38189e-08
2.58542e-08
-7.16711e-08
2.69554e-08
-7.9785e-08
2.79024e-08
-8.81181e-08
2.86956e-08
-9.66282e-08
2.93365e-08
-1.05274e-07
2.98273e-08
-1.14013e-07
3.01711e-08
-1.22806e-07
3.03713e-08
-1.31613e-07
3.0432e-08
-1.40395e-07
3.03574e-08
-1.49117e-07
3.01521e-08
-1.57741e-07
2.98209e-08
-1.66233e-07
2.93688e-08
-1.74561e-07
2.88009e-08
-1.82691e-07
2.81223e-08
-1.90595e-07
2.73382e-08
-1.98242e-07
2.64539e-08
-2.05607e-07
2.54748e-08
-2.12662e-07
2.4406e-08
-2.19383e-07
2.32528e-08
-2.25748e-07
2.20205e-08
-2.31735e-07
2.07142e-08
-2.37325e-07
1.93393e-08
-2.42499e-07
1.79008e-08
-2.47239e-07
1.64039e-08
-2.51531e-07
1.48538e-08
-2.55361e-07
1.32556e-08
-2.58716e-07
1.16143e-08
-2.61585e-07
9.93509e-09
-2.6396e-07
8.22311e-09
-2.65831e-07
6.48346e-09
-2.67192e-07
4.7213e-09
-2.68039e-07
2.94183e-09
-2.68367e-07
1.15028e-09
-2.68176e-07
-6.48047e-10
-2.67465e-07
-2.44781e-09
-2.66235e-07
-4.24358e-09
-2.64488e-07
-6.02987e-09
-2.6223e-07
-7.80111e-09
-2.59466e-07
-9.55165e-09
-2.56205e-07
-1.12757e-08
-2.52455e-07
-1.29675e-08
-2.48228e-07
-1.46211e-08
-2.43536e-07
-1.62304e-08
-2.38395e-07
-1.77894e-08
-2.3282e-07
-1.9292e-08
-2.26831e-07
-2.07319e-08
-2.20445e-07
-2.21028e-08
-2.13687e-07
-2.33985e-08
-2.06578e-07
-2.46126e-08
-1.99145e-07
-2.57387e-08
-1.91414e-07
-2.67707e-08
-1.83415e-07
-2.77023e-08
-1.75177e-07
-2.85272e-08
-1.66733e-07
-2.92395e-08
-1.58117e-07
-2.98332e-08
-1.49365e-07
-3.03026e-08
-1.40513e-07
-3.06422e-08
-1.316e-07
-3.08468e-08
-1.22665e-07
-3.09115e-08
-1.13749e-07
-3.08318e-08
-1.04894e-07
-3.06036e-08
-9.61425e-08
-3.02235e-08
-8.7538e-08
-2.96885e-08
-7.91239e-08
-2.89964e-08
-7.09442e-08
-2.81461e-08
-6.30425e-08
-2.71371e-08
-5.54619e-08
-2.59704e-08
-4.82446e-08
-2.46483e-08
-4.14311e-08
-2.3175e-08
-3.50601e-08
-2.15565e-08
-2.91674e-08
-1.98015e-08
-2.37853e-08
-1.79218e-08
-1.89413e-08
-1.59332e-08
-1.46574e-08
-1.38564e-08
-1.09484e-08
-1.17183e-08
-7.82042e-09
-9.55353e-09
-5.26933e-09
-7.40706e-09
-3.27852e-09
-5.33642e-09
-1.81694e-09
-3.41543e-09
-8.36755e-10
-1.73843e-09
-2.70975e-10
-4.24674e-10
-3.069e-11
3.75588e-10
4.57947e-10
-1.24746e-10
-3.5317e-10
-6.04815e-10
1.68793e-10
-1.53264e-09
1.53608e-09
-2.98184e-09
3.45674e-09
-5.00663e-09
5.76319e-09
-7.64394e-09
8.32653e-09
-1.09156e-08
1.10417e-08
-1.48302e-08
1.38249e-08
-1.93851e-08
1.66092e-08
-2.4568e-08
1.93425e-08
-3.03585e-08
2.19835e-08
-3.67294e-08
2.45006e-08
-4.36481e-08
2.68695e-08
-5.10778e-08
2.90718e-08
-5.8978e-08
3.10943e-08
-6.73058e-08
3.29274e-08
-7.60164e-08
3.45647e-08
-8.50636e-08
3.60026e-08
-9.44006e-08
3.72394e-08
-1.0398e-07
3.82752e-08
-1.13755e-07
3.91114e-08
-1.23679e-07
3.97507e-08
-1.33704e-07
4.01968e-08
-1.43787e-07
4.04539e-08
-1.53882e-07
4.05269e-08
-1.63946e-07
4.04214e-08
-1.73937e-07
4.01432e-08
-1.83815e-07
3.96985e-08
-1.93539e-07
3.90937e-08
-2.03074e-07
3.83354e-08
-2.12382e-07
3.74303e-08
-2.21429e-07
3.63853e-08
-2.30183e-07
3.52073e-08
-2.38611e-07
3.39032e-08
-2.46685e-07
3.248e-08
-2.54377e-07
3.09446e-08
-2.6166e-07
2.9304e-08
-2.68511e-07
2.75651e-08
-2.74907e-07
2.57347e-08
-2.80826e-07
2.38199e-08
-2.86249e-07
2.18273e-08
-2.91159e-07
1.97639e-08
-2.9554e-07
1.76365e-08
-2.99378e-07
1.54518e-08
-3.02659e-07
1.32167e-08
-3.05374e-07
1.0938e-08
-3.07513e-07
8.62259e-09
-3.09069e-07
6.27729e-09
-3.10037e-07
3.90904e-09
-3.10411e-07
1.52483e-09
-3.10191e-07
-8.68289e-10
-3.09375e-07
-3.26317e-09
-3.07966e-07
-5.65259e-09
-3.05967e-07
-8.02926e-09
-3.03382e-07
-1.03857e-08
-3.0022e-07
-1.27145e-08
-2.96487e-07
-1.50079e-08
-2.92197e-07
-1.72582e-08
-2.8736e-07
-1.94575e-08
-2.81993e-07
-2.15979e-08
-2.76111e-07
-2.36712e-08
-2.69734e-07
-2.56694e-08
-2.62881e-07
-2.75841e-08
-2.55577e-07
-2.94071e-08
-2.47846e-07
-3.11301e-08
-2.39713e-07
-3.27447e-08
-2.3121e-07
-3.42426e-08
-2.22365e-07
-3.56154e-08
-2.13212e-07
-3.6855e-08
-2.03786e-07
-3.79533e-08
-1.94123e-07
-3.89024e-08
-1.84262e-07
-3.96944e-08
-1.74242e-07
-4.03221e-08
-1.64106e-07
-4.07781e-08
-1.53897e-07
-4.10558e-08
-1.4366e-07
-4.11488e-08
-1.3344e-07
-4.10514e-08
-1.23285e-07
-4.07585e-08
-1.13243e-07
-4.02658e-08
-1.03362e-07
-3.95696e-08
-9.3691e-08
-3.86674e-08
-8.4279e-08
-3.7558e-08
-7.51748e-08
-3.62413e-08
-6.64261e-08
-3.4719e-08
-5.80798e-08
-3.29947e-08
-5.01808e-08
-3.1074e-08
-4.27716e-08
-2.89657e-08
-3.58916e-08
-2.66814e-08
-2.95764e-08
-2.4237e-08
-2.38563e-08
-2.16533e-08
-1.87559e-08
-1.89568e-08
-1.42923e-08
-1.61819e-08
-1.04739e-08
-1.3372e-08
-7.29893e-09
-1.0582e-08
-4.75409e-09
-7.88126e-09
-2.81263e-09
-5.35689e-09
-1.43304e-09
-3.11802e-09
-5.57621e-10
-1.30009e-09
-1.11285e-10
-7.07419e-11
3.46662e-10
-2.11069e-10
-1.42111e-10
-9.13906e-10
8.71634e-10
-2.17543e-09
2.79759e-09
-4.05228e-09
5.33359e-09
-6.58684e-09
8.29776e-09
-9.80758e-09
1.15473e-08
-1.373e-08
1.49642e-08
-1.83579e-08
1.84528e-08
-2.36849e-08
2.19362e-08
-2.96951e-08
2.53527e-08
-3.63652e-08
2.86535e-08
-4.36649e-08
3.18003e-08
-5.15585e-08
3.47631e-08
-6.00058e-08
3.75192e-08
-6.8963e-08
4.00515e-08
-7.83835e-08
4.23478e-08
-8.82185e-08
4.43997e-08
-9.84178e-08
4.6202e-08
-1.08931e-07
4.7752e-08
-1.19705e-07
4.90495e-08
-1.30689e-07
5.00959e-08
-1.41833e-07
5.0894e-08
-1.53084e-07
5.1448e-08
-1.64393e-07
5.1763e-08
-1.75711e-07
5.18451e-08
-1.86991e-07
5.17009e-08
-1.98185e-07
5.13376e-08
-2.09249e-07
5.07628e-08
-2.2014e-07
4.99846e-08
-2.30816e-07
4.90111e-08
-2.41236e-07
4.78507e-08
-2.51363e-07
4.65122e-08
-2.6116e-07
4.50042e-08
-2.70592e-07
4.33355e-08
-2.79627e-07
4.15148e-08
-2.88233e-07
3.9551e-08
-2.96382e-07
3.7453e-08
-3.04047e-07
3.52294e-08
-3.11201e-07
3.28892e-08
-3.17822e-07
3.0441e-08
-3.23889e-07
2.78936e-08
-3.2938e-07
2.52558e-08
-3.3428e-07
2.25361e-08
-3.38572e-07
1.97434e-08
-3.42241e-07
1.68864e-08
-3.45277e-07
1.39737e-08
-3.47669e-07
1.10142e-08
-3.49408e-07
8.01661e-09
-3.50489e-07
4.9898e-09
-3.50907e-07
1.94272e-09
-3.50659e-07
-1.11558e-09
-3.49747e-07
-4.176e-09
-3.4817e-07
-7.22932e-09
-3.45933e-07
-1.02662e-08
-3.43042e-07
-1.32771e-08
-3.39504e-07
-1.62524e-08
-3.35329e-07
-1.91824e-08
-3.3053e-07
-2.20572e-08
-3.25121e-07
-2.48668e-08
-3.19118e-07
-2.7601e-08
-3.12539e-07
-3.02495e-08
-3.05407e-07
-3.2802e-08
-2.97743e-07
-3.5248e-08
-2.89573e-07
-3.75769e-08
-2.80925e-07
-3.97782e-08
-2.71829e-07
-4.18412e-08
-2.62316e-07
-4.37555e-08
-2.52421e-07
-4.55106e-08
-2.4218e-07
-4.7096e-08
-2.31631e-07
-4.85016e-08
-2.20816e-07
-4.97173e-08
-2.09777e-07
-5.07335e-08
-1.98559e-07
-5.15409e-08
-1.87206e-07
-5.21304e-08
-1.75768e-07
-5.24937e-08
-1.64294e-07
-5.2623e-08
-1.52834e-07
-5.25112e-08
-1.41441e-07
-5.21521e-08
-1.30166e-07
-5.15404e-08
-1.19064e-07
-5.0672e-08
-1.08187e-07
-4.9544e-08
-9.75901e-08
-4.81552e-08
-8.73255e-08
-4.65059e-08
-7.74457e-08
-4.45989e-08
-6.80016e-08
-4.24388e-08
-5.90419e-08
-4.00337e-08
-5.06131e-08
-3.73945e-08
-4.27578e-08
-3.45366e-08
-3.55149e-08
-3.148e-08
-2.89178e-08
-2.82504e-08
-2.29938e-08
-2.48808e-08
-1.7763e-08
-2.14127e-08
-1.3237e-08
-1.78979e-08
-9.418e-09
-1.4401e-08
-6.29717e-09
-1.10021e-08
-3.85401e-09
-7.80005e-09
-2.05538e-09
-4.91665e-09
-8.55029e-10
-2.50043e-09
-1.93735e-10
-7.32033e-10
1.52928e-10
-2.95962e-10
1.53868e-10
-1.22302e-09
1.79869e-09
-2.82428e-09
4.39886e-09
-5.13862e-09
7.64794e-09
-8.19517e-09
1.13543e-08
-1.20123e-08
1.53644e-08
-1.65978e-08
1.95497e-08
-2.19495e-08
2.38045e-08
-2.80558e-08
2.80425e-08
-3.4897e-08
3.21939e-08
-4.24458e-08
3.62023e-08
-5.06685e-08
4.0023e-08
-5.95261e-08
4.36207e-08
-6.89751e-08
4.69681e-08
-7.89682e-08
5.00446e-08
-8.94552e-08
5.28349e-08
-1.00384e-07
5.53284e-08
-1.117e-07
5.75183e-08
-1.23349e-07
5.94011e-08
-1.35275e-07
6.09758e-08
-1.47423e-07
6.22437e-08
-1.59737e-07
6.32079e-08
-1.72162e-07
6.38731e-08
-1.84645e-07
6.42453e-08
-1.97131e-07
6.43315e-08
-2.0957e-07
6.41396e-08
-2.2191e-07
6.36782e-08
-2.34104e-07
6.29564e-08
-2.46103e-07
6.19839e-08
-2.57863e-07
6.07707e-08
-2.69339e-07
5.9327e-08
-2.8049e-07
5.76634e-08
-2.91276e-07
5.57904e-08
-3.0166e-07
5.37189e-08
-3.11605e-07
5.14596e-08
-3.21077e-07
4.90233e-08
-3.30045e-07
4.6421e-08
-3.38479e-07
4.36635e-08
-3.46351e-07
4.07615e-08
-3.53636e-07
3.77261e-08
-3.60311e-07
3.45678e-08
-3.66353e-07
3.12977e-08
-3.71743e-07
2.79263e-08
-3.76464e-07
2.44645e-08
-3.80501e-07
2.09231e-08
-3.8384e-07
1.73129e-08
-3.8647e-07
1.36448e-08
-3.88383e-07
9.9296e-09
-3.89572e-07
6.17838e-09
-3.90031e-07
2.40221e-09
-3.89759e-07
-1.38774e-09
-3.88755e-07
-5.18017e-09
-3.87021e-07
-8.96364e-09
-3.8456e-07
-1.27266e-08
-3.8138e-07
-1.64572e-08
-3.77489e-07
-2.01437e-08
-3.72897e-07
-2.37739e-08
-3.67619e-07
-2.73357e-08
-3.61669e-07
-3.08166e-08
-3.55066e-07
-3.42041e-08
-3.4783e-07
-3.74855e-08
-3.39984e-07
-4.0648e-08
-3.31553e-07
-4.36788e-08
-3.22565e-07
-4.65647e-08
-3.13051e-07
-4.92929e-08
-3.03041e-07
-5.18504e-08
-2.92573e-07
-5.4224e-08
-2.81682e-07
-5.6401e-08
-2.7041e-07
-5.83687e-08
-2.58797e-07
-6.01146e-08
-2.46888e-07
-6.16264e-08
-2.34729e-07
-6.28923e-08
-2.22369e-07
-6.3901e-08
-2.09858e-07
-6.46416e-08
-1.97247e-07
-6.5104e-08
-1.84592e-07
-6.52788e-08
-1.71945e-07
-6.51575e-08
-1.59364e-07
-6.47328e-08
-1.46906e-07
-6.39985e-08
-1.34628e-07
-6.29499e-08
-1.22589e-07
-6.15838e-08
-1.10845e-07
-5.9899e-08
-9.9454e-08
-5.78966e-08
-8.84728e-08
-5.55801e-08
-7.79557e-08
-5.29559e-08
-6.79554e-08
-5.0034e-08
-5.85216e-08
-4.68283e-08
-4.97007e-08
-4.33576e-08
-4.15345e-08
-3.96461e-08
-3.406e-08
-3.57249e-08
-2.73079e-08
-3.1633e-08
-2.13017e-08
-2.74188e-08
-1.60573e-08
-2.31423e-08
-1.15815e-08
-1.88768e-08
-7.87152e-09
-1.47121e-08
-4.91436e-09
-1.07572e-08
-2.68659e-09
-7.14442e-09
-1.15462e-09
-4.03239e-09
-2.757e-10
-1.61096e-09
-1.22767e-10
-3.78476e-10
5.32345e-10
-1.52759e-09
2.9478e-09
-3.46868e-09
6.33995e-09
-6.22328e-09
1.04025e-08
-9.80665e-09
1.49377e-08
-1.42262e-08
1.9784e-08
-1.94811e-08
2.48046e-08
-2.5562e-08
2.98854e-08
-3.24515e-08
3.49321e-08
-4.01249e-08
3.98673e-08
-4.85506e-08
4.4628e-08
-5.76911e-08
4.91635e-08
-6.75037e-08
5.34332e-08
-7.79412e-08
5.74056e-08
-8.8953e-08
6.10564e-08
-1.00485e-07
6.43673e-08
-1.12483e-07
6.73256e-08
-1.24887e-07
6.99228e-08
-1.3764e-07
7.21543e-08
-1.50683e-07
7.40185e-08
-1.63956e-07
7.55165e-08
-1.774e-07
7.66517e-08
-1.90956e-07
7.74292e-08
-2.04566e-07
7.78558e-08
-2.18174e-07
7.79396e-08
-2.31725e-07
7.76898e-08
-2.45163e-07
7.71164e-08
-2.58437e-07
7.62301e-08
-2.71495e-07
7.50425e-08
-2.8429e-07
7.35652e-08
-2.96773e-07
7.18105e-08
-3.08901e-07
6.97909e-08
-3.20629e-07
6.75191e-08
-3.31918e-07
6.50079e-08
-3.42729e-07
6.22703e-08
-3.53025e-07
5.93193e-08
-3.62772e-07
5.61679e-08
-3.71938e-07
5.28292e-08
-3.80492e-07
4.93162e-08
-3.88408e-07
4.5642e-08
-3.9566e-07
4.18196e-08
-4.02225e-07
3.78621e-08
-4.08081e-07
3.37824e-08
-4.1321e-07
2.95935e-08
-4.17595e-07
2.53086e-08
-4.21223e-07
2.09406e-08
-4.24081e-07
1.65027e-08
-4.26159e-07
1.20082e-08
-4.27451e-07
7.47015e-09
-4.27951e-07
2.90212e-09
-4.27656e-07
-1.68243e-09
-4.26567e-07
-6.26983e-09
-4.24684e-07
-1.08463e-08
-4.22013e-07
-1.53978e-08
-4.1856e-07
-1.99101e-08
-4.14335e-07
-2.4369e-08
-4.09349e-07
-2.87598e-08
-4.03617e-07
-3.30678e-08
-3.97155e-07
-3.72781e-08
-3.89984e-07
-4.13755e-08
-3.82124e-07
-4.53449e-08
-3.73602e-07
-4.91706e-08
-3.64443e-07
-5.28374e-08
-3.54679e-07
-5.63294e-08
-3.4434e-07
-5.96313e-08
-3.33463e-07
-6.27272e-08
-3.22086e-07
-6.56016e-08
-3.10248e-07
-6.82392e-08
-2.97992e-07
-7.06247e-08
-2.85363e-07
-7.27431e-08
-2.7241e-07
-7.458e-08
-2.59181e-07
-7.61212e-08
-2.45728e-07
-7.73532e-08
-2.32107e-07
-7.82632e-08
-2.18372e-07
-7.88391e-08
-2.04581e-07
-7.907e-08
-1.90792e-07
-7.89459e-08
-1.77067e-07
-7.84583e-08
-1.63465e-07
-7.76001e-08
-1.50049e-07
-7.63659e-08
-1.3688e-07
-7.47524e-08
-1.24021e-07
-7.27585e-08
-1.11532e-07
-7.03859e-08
-9.94728e-08
-6.76391e-08
-8.79025e-08
-6.45262e-08
-7.68772e-08
-6.10593e-08
-6.64502e-08
-5.72553e-08
-5.66713e-08
-5.31365e-08
-4.7586e-08
-4.87314e-08
-3.92347e-08
-4.40762e-08
-3.16521e-08
-3.92156e-08
-2.4866e-08
-3.42049e-08
-1.88971e-08
-2.91113e-08
-1.37578e-08
-2.40161e-08
-9.45218e-09
-1.90177e-08
-5.97579e-09
-1.42336e-08
-3.31562e-09
-9.80458e-09
-1.45117e-09
-5.89684e-09
-3.55884e-10
-2.70624e-09
-4.7865e-10
-4.58219e-10
9.90558e-10
-1.82498e-09
4.31458e-09
-4.10229e-09
8.61726e-09
-7.29511e-09
1.35953e-08
-1.1405e-08
1.90476e-08
-1.6428e-08
2.4807e-08
-2.23538e-08
3.07304e-08
-2.91654e-08
3.6697e-08
-3.68389e-08
4.26055e-08
-4.53439e-08
4.83723e-08
-5.46439e-08
5.39281e-08
-6.46972e-08
5.92167e-08
-7.54569e-08
6.4193e-08
-8.68723e-08
6.8821e-08
-9.88889e-08
7.3073e-08
-1.1145e-07
7.69281e-08
-1.24495e-07
8.03712e-08
-1.37965e-07
8.33923e-08
-1.51796e-07
8.59855e-08
-1.65926e-07
8.81488e-08
-1.80293e-07
8.9883e-08
-1.94833e-07
9.11916e-08
-2.09484e-07
9.20804e-08
-2.24185e-07
9.2557e-08
-2.38876e-07
9.26305e-08
-2.53497e-07
9.23115e-08
-2.67992e-07
9.16114e-08
-2.82305e-07
9.05427e-08
-2.96381e-07
8.91186e-08
-3.10169e-07
8.7353e-08
-3.23618e-07
8.52599e-08
-3.36681e-07
8.2854e-08
-3.49312e-07
8.01502e-08
-3.61468e-07
7.71635e-08
-3.73107e-07
7.39092e-08
-3.8419e-07
7.04026e-08
-3.94681e-07
6.66589e-08
-4.04546e-07
6.26938e-08
-4.13752e-07
5.85224e-08
-4.2227e-07
5.41603e-08
-4.30073e-07
4.96228e-08
-4.37137e-07
4.49254e-08
-4.43438e-07
4.00833e-08
-4.48956e-07
3.51122e-08
-4.53675e-07
3.00273e-08
-4.57579e-07
2.48442e-08
-4.60655e-07
1.95785e-08
-4.62892e-07
1.42456e-08
-4.64283e-07
8.86148e-09
-4.64823e-07
3.44188e-09
-4.64508e-07
-1.99715e-09
-4.63339e-07
-7.43945e-09
-4.61316e-07
-1.28687e-08
-4.58446e-07
-1.82682e-08
-4.54735e-07
-2.36213e-08
-4.50193e-07
-2.89109e-08
-4.44833e-07
-3.41199e-08
-4.3867e-07
-3.92308e-08
-4.31722e-07
-4.4226e-08
-4.2401e-07
-4.90876e-08
-4.15557e-07
-5.37975e-08
-4.0639e-07
-5.83376e-08
-3.96538e-07
-6.26896e-08
-3.86032e-07
-6.68351e-08
-3.74908e-07
-7.07556e-08
-3.63202e-07
-7.44328e-08
-3.50955e-07
-7.78484e-08
-3.3821e-07
-8.09842e-08
-3.25013e-07
-8.38224e-08
-3.1141e-07
-8.63455e-08
-2.97454e-07
-8.85363e-08
-2.83197e-07
-9.03785e-08
-2.68694e-07
-9.18563e-08
-2.54002e-07
-9.29546e-08
-2.39182e-07
-9.36596e-08
-2.24293e-07
-9.39584e-08
-2.09399e-07
-9.38398e-08
-1.94564e-07
-9.32938e-08
-1.79851e-07
-9.23125e-08
-1.65327e-07
-9.08899e-08
-1.51058e-07
-8.90223e-08
-1.37107e-07
-8.6709e-08
-1.23541e-07
-8.3952e-08
-1.10423e-07
-8.07572e-08
-9.78148e-08
-7.71342e-08
-8.57767e-08
-7.30974e-08
-7.43656e-08
-6.86664e-08
-6.36349e-08
-6.38671e-08
-5.3634e-08
-5.87323e-08
-4.44074e-08
-5.33028e-08
-3.59938e-08
-4.76292e-08
-2.84261e-08
-4.17726e-08
-2.17303e-08
-3.58071e-08
-1.59253e-08
-2.98212e-08
-1.10226e-08
-2.39203e-08
-7.02681e-09
-1.82294e-08
-3.93567e-09
-1.28957e-08
-1.74166e-09
-8.09086e-09
-4.33647e-10
-4.01424e-09
-9.123e-10
-5.35012e-10
1.52558e-09
-2.11395e-09
5.89352e-09
-4.72161e-09
1.12249e-08
-8.34759e-09
1.72213e-08
-1.29801e-08
2.36801e-08
-1.86039e-08
3.04307e-08
-2.51989e-08
3.73254e-08
-3.27398e-08
4.42379e-08
-4.11957e-08
5.10615e-08
-5.05302e-08
5.77067e-08
-6.07013e-08
6.40992e-08
-7.16625e-08
7.01779e-08
-8.33627e-08
7.58932e-08
-9.5747e-08
8.12053e-08
-1.08757e-07
8.60833e-08
-1.22333e-07
9.05036e-08
-1.36411e-07
9.4449e-08
-1.50926e-07
9.7908e-08
-1.65815e-07
1.00874e-07
-1.81009e-07
1.03343e-07
-1.96444e-07
1.05318e-07
-2.12052e-07
1.068e-07
-2.27769e-07
1.07798e-07
-2.43531e-07
1.08318e-07
-2.59272e-07
1.08372e-07
-2.74932e-07
1.07971e-07
-2.9045e-07
1.07129e-07
-3.05767e-07
1.05859e-07
-3.20825e-07
1.04177e-07
-3.35571e-07
1.02099e-07
-3.49951e-07
9.96401e-08
-3.63916e-07
9.6818e-08
-3.77415e-07
9.36497e-08
-3.90404e-07
9.01525e-08
-4.02839e-07
8.63441e-08
-4.14679e-07
8.22422e-08
-4.25884e-07
7.78647e-08
-4.3642e-07
7.32292e-08
-4.46251e-07
6.83539e-08
-4.55348e-07
6.32565e-08
-4.6368e-07
5.7955e-08
-4.71222e-07
5.24673e-08
-4.7795e-07
4.68113e-08
-4.83843e-07
4.1005e-08
-4.88882e-07
3.50663e-08
-4.93051e-07
2.90132e-08
-4.96336e-07
2.2864e-08
-4.98727e-07
1.66367e-08
-5.00215e-07
1.03497e-08
-5.00795e-07
4.02149e-09
-5.00463e-07
-2.32925e-09
-4.99219e-07
-8.68372e-09
-4.97064e-07
-1.50228e-08
-4.94005e-07
-2.13273e-08
-4.90049e-07
-2.75776e-08
-4.85206e-07
-3.3754e-08
-4.79489e-07
-3.98365e-08
-4.72916e-07
-4.58046e-08
-4.65503e-07