/*--------------------------------*- C++ -*----------------------------------*\
| =========                 |                                                 |
| \\      /  F ield         | OpenFOAM: The Open Source CFD Toolbox           |
|  \\    /   O peration     | Version:  2212                                  |
|   \\  /    A nd           | Website:  www.openfoam.com                      |
|    \\/     M anipulation  |                                                 |
\*---------------------------------------------------------------------------*/
FoamFile
{
    version     2.0;
    format      ascii;
    arch        "LSB;label=32;scalar=64";
    class       volVectorField;
    location    "0.032";
    object      U;
}
// * * * * * * * * * * * * * * * * * * * * * * * * * * * * * * * * * * * * * //

dimensions      [0 1 -1 0 0 0 0];

internalField   nonuniform List<vector> 
10000
(
(2.87968e-06 -2.57721e-06 0)
(1.22055e-05 -5.3477e-06 0)
(2.51705e-05 -5.49518e-06 0)
(3.58972e-05 -4.40871e-06 0)
(4.12318e-05 -2.51577e-06 0)
(3.95735e-05 -9.8543e-08 0)
(2.99326e-05 2.54714e-06 0)
(1.18686e-05 5.26737e-06 0)
(-1.46683e-05 7.94062e-06 0)
(-4.94962e-05 1.04981e-05 0)
(-9.22545e-05 1.29157e-05 0)
(-0.000142504 1.51611e-05 0)
(-0.000199739 1.72222e-05 0)
(-0.000263401 1.91055e-05 0)
(-0.00033293 2.07994e-05 0)
(-0.000407753 2.23055e-05 0)
(-0.000487276 2.36362e-05 0)
(-0.000570933 2.47948e-05 0)
(-0.00065816 2.57778e-05 0)
(-0.00074839 2.65938e-05 0)
(-0.000841086 2.72465e-05 0)
(-0.000935718 2.77358e-05 0)
(-0.00103178 2.80731e-05 0)
(-0.00112876 2.82704e-05 0)
(-0.0012262 2.83323e-05 0)
(-0.00132364 2.82615e-05 0)
(-0.00142064 2.80658e-05 0)
(-0.00151678 2.7753e-05 0)
(-0.00161165 2.73275e-05 0)
(-0.00170488 2.67919e-05 0)
(-0.00179609 2.61513e-05 0)
(-0.00188495 2.54153e-05 0)
(-0.00197113 2.45887e-05 0)
(-0.0020543 2.36744e-05 0)
(-0.00213419 2.26768e-05 0)
(-0.00221051 2.16012e-05 0)
(-0.002283 2.04537e-05 0)
(-0.00235143 1.92385e-05 0)
(-0.00241556 1.79608e-05 0)
(-0.00247519 1.66273e-05 0)
(-0.00253013 1.52426e-05 0)
(-0.00258019 1.3809e-05 0)
(-0.00262523 1.23285e-05 0)
(-0.00266509 1.08065e-05 0)
(-0.00269964 9.2509e-06 0)
(-0.00272878 7.66723e-06 0)
(-0.0027524 6.05837e-06 0)
(-0.00277043 4.42755e-06 0)
(-0.0027828 2.77865e-06 0)
(-0.00278946 1.11711e-06 0)
(-0.00279038 -5.51234e-07 0)
(-0.00278554 -2.22229e-06 0)
(-0.00277495 -3.89155e-06 0)
(-0.00275861 -5.55284e-06 0)
(-0.00273658 -7.20106e-06 0)
(-0.0027089 -8.83284e-06 0)
(-0.00267564 -1.04436e-05 0)
(-0.00263688 -1.20268e-05 0)
(-0.00259275 -1.35755e-05 0)
(-0.00254337 -1.50841e-05 0)
(-0.00248887 -1.6547e-05 0)
(-0.00242944 -1.79597e-05 0)
(-0.00236526 -1.93177e-05 0)
(-0.00229653 -2.06144e-05 0)
(-0.00222348 -2.18413e-05 0)
(-0.00214637 -2.29913e-05 0)
(-0.00206545 -2.406e-05 0)
(-0.00198103 -2.50424e-05 0)
(-0.00189342 -2.59317e-05 0)
(-0.00180295 -2.6721e-05 0)
(-0.00170997 -2.7404e-05 0)
(-0.00161487 -2.79741e-05 0)
(-0.00151802 -2.84247e-05 0)
(-0.00141987 -2.87503e-05 0)
(-0.00132083 -2.89454e-05 0)
(-0.00122137 -2.90038e-05 0)
(-0.00112197 -2.89191e-05 0)
(-0.0010231 -2.86853e-05 0)
(-0.000925297 -2.82972e-05 0)
(-0.000829072 -2.77496e-05 0)
(-0.000734968 -2.70371e-05 0)
(-0.000643539 -2.61548e-05 0)
(-0.000555352 -2.50984e-05 0)
(-0.00047098 -2.38639e-05 0)
(-0.000391002 -2.24487e-05 0)
(-0.000316 -2.08514e-05 0)
(-0.000246549 -1.90722e-05 0)
(-0.000183218 -1.71118e-05 0)
(-0.000126559 -1.49712e-05 0)
(-7.70996e-05 -1.26539e-05 0)
(-3.53276e-05 -1.01681e-05 0)
(-1.66966e-06 -7.53058e-06 0)
(2.354e-05 -4.77108e-06 0)
(4.01076e-05 -1.93941e-06 0)
(4.80596e-05 8.7805e-07 0)
(4.77711e-05 3.52556e-06 0)
(4.01486e-05 5.72144e-06 0)
(2.70208e-05 6.94296e-06 0)
(1.23078e-05 6.25619e-06 0)
(2.62199e-06 2.62034e-06 0)
(7.21691e-06 -1.27346e-05 0)
(2.55051e-05 -2.29976e-05 0)
(4.68414e-05 -2.13153e-05 0)
(6.00009e-05 -1.33788e-05 0)
(5.8472e-05 -1.3763e-06 0)
(3.87005e-05 1.31808e-05 0)
(-1.64488e-06 2.91004e-05 0)
(-6.37541e-05 4.55121e-05 0)
(-0.000147983 6.18231e-05 0)
(-0.000254007 7.76588e-05 0)
(-0.000381137 9.27492e-05 0)
(-0.000528359 0.000106932 0)
(-0.000694427 0.000120107 0)
(-0.000878002 0.000132202 0)
(-0.00107763 0.000143185 0)
(-0.00129179 0.000153036 0)
(-0.00151897 0.000161761 0)
(-0.00175761 0.00016936 0)
(-0.00200618 0.00017586 0)
(-0.00226315 0.000181278 0)
(-0.00252704 0.00018564 0)
(-0.00279638 0.000188971 0)
(-0.00306974 0.000191308 0)
(-0.00334576 0.000192688 0)
(-0.00362308 0.000193144 0)
(-0.00390042 0.000192711 0)
(-0.00417654 0.000191427 0)
(-0.00445025 0.000189331 0)
(-0.00472039 0.000186456 0)
(-0.00498589 0.000182838 0)
(-0.00524569 0.000178514 0)
(-0.00549881 0.000173521 0)
(-0.00574431 0.000167893 0)
(-0.0059813 0.000161664 0)
(-0.00620893 0.00015487 0)
(-0.00642642 0.000147545 0)
(-0.00663302 0.000139721 0)
(-0.00682803 0.000131433 0)
(-0.00701081 0.000122712 0)
(-0.00718077 0.000113593 0)
(-0.00733734 0.000104111 0)
(-0.00748002 9.42932e-05 0)
(-0.00760835 8.41711e-05 0)
(-0.00772192 7.37767e-05 0)
(-0.00782036 6.31437e-05 0)
(-0.00790334 5.23041e-05 0)
(-0.0079706 4.12883e-05 0)
(-0.00802189 3.01276e-05 0)
(-0.00805704 1.88546e-05 0)
(-0.00807591 7.50147e-06 0)
(-0.00807841 -3.89944e-06 0)
(-0.0080645 -1.53158e-05 0)
(-0.00803419 -2.67131e-05 0)
(-0.00798752 -3.80555e-05 0)
(-0.00792461 -4.93081e-05 0)
(-0.00784561 -6.04372e-05 0)
(-0.00775073 -7.14082e-05 0)
(-0.00764023 -8.21838e-05 0)
(-0.00751443 -9.27242e-05 0)
(-0.00737368 -0.000102989 0)
(-0.00721843 -0.000112941 0)
(-0.00704915 -0.000122542 0)
(-0.00686638 -0.000131754 0)
(-0.00667071 -0.000140533 0)
(-0.0064628 -0.000148838 0)
(-0.00624337 -0.000156625 0)
(-0.00601318 -0.000163854 0)
(-0.00577307 -0.000170485 0)
(-0.00552394 -0.000176474 0)
(-0.00526674 -0.00018178 0)
(-0.00500246 -0.000186363 0)
(-0.00473219 -0.00019018 0)
(-0.00445706 -0.000193191 0)
(-0.00417823 -0.000195356 0)
(-0.00389695 -0.000196636 0)
(-0.0036145 -0.000196994 0)
(-0.00333222 -0.000196394 0)
(-0.0030515 -0.000194803 0)
(-0.00277376 -0.00019219 0)
(-0.00250046 -0.000188523 0)
(-0.00223311 -0.000183777 0)
(-0.00197325 -0.000177928 0)
(-0.0017224 -0.000170956 0)
(-0.00148215 -0.000162852 0)
(-0.00125406 -0.000153611 0)
(-0.00103969 -0.000143237 0)
(-0.000840572 -0.000131745 0)
(-0.000658185 -0.000119163 0)
(-0.000493947 -0.000105539 0)
(-0.000349167 -9.0941e-05 0)
(-0.000225003 -7.54774e-05 0)
(-0.000122395 -5.93096e-05 0)
(-4.19802e-05 -4.26807e-05 0)
(1.60381e-05 -2.59565e-05 0)
(5.20777e-05 -9.69405e-06 0)
(6.74424e-05 5.24417e-06 0)
(6.46338e-05 1.75135e-05 0)
(4.7859e-05 2.50144e-05 0)
(2.45694e-05 2.45546e-05 0)
(6.25704e-06 1.23017e-05 0)
(8.17553e-06 -2.86292e-05 0)
(2.68719e-05 -4.59955e-05 0)
(4.43495e-05 -3.72708e-05 0)
(4.67085e-05 -1.4019e-05 0)
(2.58084e-05 1.89512e-05 0)
(-2.3055e-05 5.82006e-05 0)
(-0.000102988 0.000100959 0)
(-0.000215707 0.000145159 0)
(-0.000361729 0.00018936 0)
(-0.000540775 0.0002325 0)
(-0.000751915 0.000273859 0)
(-0.000993731 0.000312953 0)
(-0.00126451 0.000349427 0)
(-0.00156227 0.000383064 0)
(-0.00188485 0.00041373 0)
(-0.00223002 0.000441334 0)
(-0.00259545 0.000465843 0)
(-0.00297878 0.000487262 0)
(-0.00337765 0.000505613 0)
(-0.00378971 0.000520945 0)
(-0.00421264 0.000533317 0)
(-0.00464414 0.000542799 0)
(-0.00508199 0.000549471 0)
(-0.00552401 0.000553423 0)
(-0.00596809 0.000554746 0)
(-0.00641217 0.000553534 0)
(-0.0068543 0.000549886 0)
(-0.00729256 0.000543904 0)
(-0.00772514 0.000535688 0)
(-0.0081503 0.000525338 0)
(-0.00856636 0.000512958 0)
(-0.00897173 0.000498648 0)
(-0.00936492 0.000482507 0)
(-0.00974449 0.000464634 0)
(-0.0101091 0.00044513 0)
(-0.0104575 0.000424094 0)
(-0.0107884 0.000401621 0)
(-0.0111008 0.000377805 0)
(-0.0113936 0.000352742 0)
(-0.0116658 0.000326528 0)
(-0.0119166 0.000299256 0)
(-0.0121451 0.000271019 0)
(-0.0123507 0.000241907 0)
(-0.0125325 0.000212013 0)
(-0.0126902 0.000181431 0)
(-0.012823 0.00015025 0)
(-0.0129306 0.000118563 0)
(-0.0130127 8.64608e-05 0)
(-0.0130689 5.40384e-05 0)
(-0.013099 2.13902e-05 0)
(-0.0131028 -1.13902e-05 0)
(-0.0130804 -4.42089e-05 0)
(-0.0130317 -7.69672e-05 0)
(-0.0129568 -0.000109563 0)
(-0.0128558 -0.000141896 0)
(-0.0127292 -0.000173866 0)
(-0.0125771 -0.000205369 0)
(-0.0124 -0.000236299 0)
(-0.0121984 -0.000266546 0)
(-0.011973 -0.000295999 0)
(-0.0117243 -0.000324546 0)
(-0.0114532 -0.000352073 0)
(-0.0111606 -0.000378469 0)
(-0.0108474 -0.000403615 0)
(-0.0105146 -0.000427392 0)
(-0.0101634 -0.000449681 0)
(-0.00979509 -0.000470364 0)
(-0.00941095 -0.00048932 0)
(-0.00901241 -0.000506433 0)
(-0.00860101 -0.000521584 0)
(-0.00817834 -0.000534658 0)
(-0.00774613 -0.000545537 0)
(-0.00730616 -0.00055411 0)
(-0.00686032 -0.000560264 0)
(-0.00641056 -0.000563894 0)
(-0.00595892 -0.000564898 0)
(-0.00550753 -0.000563178 0)
(-0.00505857 -0.000558645 0)
(-0.00461429 -0.000551217 0)
(-0.00417699 -0.000540819 0)
(-0.00374903 -0.000527384 0)
(-0.00333278 -0.000510861 0)
(-0.00293066 -0.000491213 0)
(-0.00254509 -0.000468424 0)
(-0.00217846 -0.0004425 0)
(-0.00183318 -0.000413475 0)
(-0.00151153 -0.000381417 0)
(-0.00121576 -0.000346441 0)
(-0.000947947 -0.000308718 0)
(-0.000709979 -0.000268498 0)
(-0.000503482 -0.000226142 0)
(-0.000329717 -0.00018216 0)
(-0.00018945 -0.000137281 0)
(-8.27782e-05 -9.25422e-05 0)
(-8.90239e-06 -4.94303e-05 0)
(3.41797e-05 -1.00851e-05 0)
(4.99855e-05 2.24187e-05 0)
(4.3991e-05 4.37325e-05 0)
(2.51419e-05 4.78731e-05 0)
(6.96126e-06 2.7027e-05 0)
(6.61953e-06 -4.29609e-05 0)
(1.88308e-05 -6.28023e-05 0)
(2.26303e-05 -4.07805e-05 0)
(3.96921e-06 5.62347e-06 0)
(-4.59194e-05 6.84885e-05 0)
(-0.000132368 0.000142081 0)
(-0.000258941 0.000221826 0)
(-0.000427552 0.000304296 0)
(-0.000638915 0.000386916 0)
(-0.000892704 0.000467812 0)
(-0.00118782 0.000545648 0)
(-0.0015226 0.000619441 0)
(-0.00189492 0.000688507 0)
(-0.00230232 0.000752388 0)
(-0.0027421 0.00081076 0)
(-0.00321141 0.000863434 0)
(-0.00370727 0.000910301 0)
(-0.00422664 0.000951331 0)
(-0.00476645 0.000986537 0)
(-0.00532362 0.00101599 0)
(-0.00589512 0.00103978 0)
(-0.00647792 0.00105803 0)
(-0.00706909 0.00107088 0)
(-0.00766572 0.00107848 0)
(-0.00826502 0.001081 0)
(-0.00886426 0.00107862 0)
(-0.00946079 0.00107151 0)
(-0.0100521 0.00105987 0)
(-0.0106357 0.00104389 0)
(-0.0112093 0.00102376 0)
(-0.0117706 0.000999666 0)
(-0.0123175 0.000971812 0)
(-0.0128479 0.000940386 0)
(-0.01336 0.000905582 0)
(-0.0138519 0.000867591 0)
(-0.0143219 0.000826604 0)
(-0.0147684 0.000782811 0)
(-0.0151899 0.000736395 0)
(-0.0155849 0.000687543 0)
(-0.0159522 0.000636441 0)
(-0.0162905 0.000583269 0)
(-0.0165988 0.000528208 0)
(-0.016876 0.00047144 0)
(-0.0171213 0.000413147 0)
(-0.0173339 0.000353509 0)
(-0.017513 0.000292703 0)
(-0.0176581 0.000230909 0)
(-0.0177687 0.000168311 0)
(-0.0178443 0.000105092 0)
(-0.0178847 4.14355e-05 0)
(-0.0178897 -2.24746e-05 0)
(-0.0178592 -8.64482e-05 0)
(-0.0177933 -0.000150294 0)
(-0.017692 -0.000213818 0)
(-0.0175557 -0.000276824 0)
(-0.0173846 -0.00033911 0)
(-0.0171793 -0.000400473 0)
(-0.0169402 -0.000460708 0)
(-0.0166682 -0.0005196 0)
(-0.0163639 -0.000576935 0)
(-0.0160285 -0.000632496 0)
(-0.0156628 -0.000686062 0)
(-0.015268 -0.00073741 0)
(-0.0148456 -0.000786313 0)
(-0.0143968 -0.000832542 0)
(-0.0139233 -0.000875869 0)
(-0.0134267 -0.000916063 0)
(-0.0129089 -0.000952895 0)
(-0.0123716 -0.000986136 0)
(-0.0118171 -0.00101556 0)
(-0.0112474 -0.00104094 0)
(-0.0106648 -0.00106206 0)
(-0.0100718 -0.0010787 0)
(-0.00947089 -0.00109065 0)
(-0.00886463 -0.00109772 0)
(-0.00825579 -0.00109971 0)
(-0.00764717 -0.00109644 0)
(-0.0070417 -0.00108774 0)
(-0.00644234 -0.00107348 0)
(-0.00585215 -0.0010535 0)
(-0.00527424 -0.00102772 0)
(-0.00471174 -0.000996033 0)
(-0.0041678 -0.000958403 0)
(-0.00364559 -0.000914818 0)
(-0.00314822 -0.000865314 0)
(-0.00267876 -0.000809988 0)
(-0.00224018 -0.000749007 0)
(-0.0018353 -0.000682628 0)
(-0.00146673 -0.000611231 0)
(-0.00113682 -0.000535347 0)
(-0.000847529 -0.000455717 0)
(-0.000600342 -0.000373358 0)
(-0.000396102 -0.000289671 0)
(-0.00023483 -0.000206579 0)
(-0.000115489 -0.000126726 0)
(-3.56936e-05 -5.37534e-05 0)
(8.57528e-06 7.35034e-06 0)
(2.3353e-05 4.98686e-05 0)
(1.79231e-05 6.49074e-05 0)
(5.79493e-06 4.02679e-05 0)
(4.00908e-06 -5.12411e-05 0)
(5.70671e-06 -6.54195e-05 0)
(-1.08993e-05 -2.26661e-05 0)
(-5.8045e-05 5.45612e-05 0)
(-0.000144192 0.000155259 0)
(-0.000274869 0.00027135 0)
(-0.000453664 0.000396463 0)
(-0.000682612 0.000525656 0)
(-0.000962385 0.000655186 0)
(-0.00129259 0.000782262 0)
(-0.001672 0.000904784 0)
(-0.00209871 0.00102121 0)
(-0.00257025 0.00113045 0)
(-0.0030838 0.00123168 0)
(-0.00363621 0.00132436 0)
(-0.0042241 0.00140814 0)
(-0.00484396 0.0014828 0)
(-0.00549216 0.00154825 0)
(-0.00616503 0.00160448 0)
(-0.00685888 0.00165156 0)
(-0.00757001 0.0016896 0)
(-0.0082948 0.00171878 0)
(-0.00902963 0.00173931 0)
(-0.00977101 0.0017514 0)
(-0.0105155 0.00175532 0)
(-0.0112597 0.00175134 0)
(-0.0120005 0.00173973 0)
(-0.0127346 0.0017208 0)
(-0.0134592 0.00169483 0)
(-0.0141713 0.00166215 0)
(-0.014868 0.00162305 0)
(-0.0155469 0.00157784 0)
(-0.0162054 0.00152683 0)
(-0.016841 0.00147034 0)
(-0.0174516 0.00140868 0)
(-0.018035 0.00134214 0)
(-0.0185892 0.00127103 0)
(-0.0191123 0.00119566 0)
(-0.0196025 0.00111633 0)
(-0.0200584 0.00103334 0)
(-0.0204783 0.00094698 0)
(-0.0208608 0.000857549 0)
(-0.0212049 0.000765342 0)
(-0.0215092 0.000670655 0)
(-0.0217729 0.000573779 0)
(-0.0219951 0.000475008 0)
(-0.022175 0.000374638 0)
(-0.0223121 0.000272963 0)
(-0.0224058 0.000170283 0)
(-0.0224557 6.68978e-05 0)
(-0.0224617 -3.68898e-05 0)
(-0.0224237 -0.000140772 0)
(-0.0223417 -0.000244436 0)
(-0.0222158 -0.000347565 0)
(-0.0220464 -0.00044984 0)
(-0.0218338 -0.000550936 0)
(-0.0215788 -0.000650521 0)
(-0.021282 -0.000748255 0)
(-0.0209442 -0.000843797 0)
(-0.0205666 -0.000936799 0)
(-0.0201502 -0.00102691 0)
(-0.0196963 -0.00111377 0)
(-0.0192065 -0.00119702 0)
(-0.0186823 -0.00127629 0)
(-0.0181255 -0.00135122 0)
(-0.0175381 -0.00142143 0)
(-0.016922 -0.00148655 0)
(-0.0162795 -0.00154623 0)
(-0.0156131 -0.00160008 0)
(-0.0149252 -0.00164775 0)
(-0.0142185 -0.00168887 0)
(-0.0134958 -0.0017231 0)
(-0.0127601 -0.0017501 0)
(-0.0120145 -0.00176953 0)
(-0.0112623 -0.00178107 0)
(-0.0105066 -0.00178444 0)
(-0.00975108 -0.00177935 0)
(-0.0089992 -0.00176554 0)
(-0.00825462 -0.00174279 0)
(-0.00752105 -0.00171092 0)
(-0.00680226 -0.00166975 0)
(-0.00610203 -0.00161919 0)
(-0.0054242 -0.00155918 0)
(-0.00477254 -0.00148974 0)
(-0.00415079 -0.00141097 0)
(-0.00356261 -0.00132304 0)
(-0.0030115 -0.00122629 0)
(-0.00250078 -0.00112117 0)
(-0.00203351 -0.00100833 0)
(-0.00161238 -0.000888682 0)
(-0.00123964 -0.000763436 0)
(-0.000916961 -0.00063423 0)
(-0.000645288 -0.000503253 0)
(-0.000424645 -0.000373426 0)
(-0.000253932 -0.000248641 0)
(-0.000130673 -0.000134082 0)
(-5.07486e-05 -3.66208e-05 0)
(-8.07137e-06 3.476e-05 0)
(6.11553e-06 6.84144e-05 0)
(3.69408e-06 4.82013e-05 0)
(1.10334e-06 -5.16388e-05 0)
(-9.82714e-06 -4.94012e-05 0)
(-5.10044e-05 2.28181e-05 0)
(-0.000131719 0.000138957 0)
(-0.000259358 0.000285253 0)
(-0.000439145 0.00045153 0)
(-0.000674516 0.000629583 0)
(-0.000967295 0.000813024 0)
(-0.00131803 0.000996921 0)
(-0.00172617 0.00117747 0)
(-0.0021903 0.0013518 0)
(-0.00270828 0.00151773 0)
(-0.00327737 0.00167366 0)
(-0.00389438 0.00181839 0)
(-0.00455579 0.00195111 0)
(-0.00525779 0.00207123 0)
(-0.00599639 0.0021784 0)
(-0.00676747 0.00227244 0)
(-0.00756683 0.0023533 0)
(-0.00839023 0.00242102 0)
(-0.00923344 0.00247575 0)
(-0.0100922 0.0025177 0)
(-0.0109625 0.00254713 0)
(-0.0118401 0.00256437 0)
(-0.012721 0.00256975 0)
(-0.0136015 0.00256365 0)
(-0.0144776 0.00254648 0)
(-0.0153458 0.00251863 0)
(-0.0162024 0.00248053 0)
(-0.0170442 0.00243263 0)
(-0.0178679 0.00237537 0)
(-0.0186703 0.00230918 0)
(-0.0194486 0.00223452 0)
(-0.0201998 0.00215184 0)
(-0.0209214 0.00206158 0)
(-0.0216108 0.00196419 0)
(-0.0222657 0.00186011 0)
(-0.0228839 0.00174979 0)
(-0.0234632 0.00163367 0)
(-0.0240018 0.00151218 0)
(-0.0244979 0.00138576 0)
(-0.0249499 0.00125484 0)
(-0.0253563 0.00111985 0)
(-0.0257158 0.000981232 0)
(-0.0260273 0.000839409 0)
(-0.0262897 0.000694813 0)
(-0.0265021 0.000547879 0)
(-0.0266639 0.000399043 0)
(-0.0267744 0.000248741 0)
(-0.0268332 9.74129e-05 0)
(-0.0268402 -5.44939e-05 0)
(-0.026795 -0.000206527 0)
(-0.0266979 -0.000358227 0)
(-0.026549 -0.000509132 0)
(-0.0263486 -0.000658774 0)
(-0.0260973 -0.000806674 0)
(-0.0257959 -0.000952346 0)
(-0.025445 -0.0010953 0)
(-0.0250459 -0.00123502 0)
(-0.0245996 -0.00137102 0)
(-0.0241076 -0.00150277 0)
(-0.0235713 -0.00162975 0)
(-0.0229927 -0.00175144 0)
(-0.0223734 -0.00186731 0)
(-0.0217156 -0.00197682 0)
(-0.0210217 -0.00207942 0)
(-0.0202939 -0.0021746 0)
(-0.019535 -0.00226181 0)
(-0.0187478 -0.00234052 0)
(-0.0179351 -0.0024102 0)
(-0.0171002 -0.00247035 0)
(-0.0162464 -0.00252045 0)
(-0.0153771 -0.00256002 0)
(-0.0144959 -0.00258858 0)
(-0.0136067 -0.00260569 0)
(-0.0127133 -0.00261092 0)
(-0.0118197 -0.00260389 0)
(-0.0109301 -0.00258425 0)
(-0.0100487 -0.00255167 0)
(-0.00917983 -0.00250592 0)
(-0.00832781 -0.00244678 0)
(-0.00749704 -0.00237414 0)
(-0.00669189 -0.00228795 0)
(-0.00591671 -0.00218828 0)
(-0.00517578 -0.00207529 0)
(-0.00447325 -0.00194933 0)
(-0.00381311 -0.00181088 0)
(-0.00319907 -0.00166066 0)
(-0.00263458 -0.00149968 0)
(-0.00212266 -0.00132926 0)
(-0.0016658 -0.00115117 0)
(-0.00126589 -0.00096774 0)
(-0.00092401 -0.000782009 0)
(-0.000640306 -0.000597941 0)
(-0.000413792 -0.000420686 0)
(-0.000242147 -0.000256928 0)
(-0.000121475 -0.000115306 0)
(-4.60306e-05 -6.85873e-06 0)
(-8.21437e-06 5.43616e-05 0)
(1.17583e-06 4.90908e-05 0)
(-1.84225e-06 -4.35327e-05 0)
(-2.63432e-05 -1.24512e-05 0)
(-9.4478e-05 9.91627e-05 0)
(-0.000211979 0.000262831 0)
(-0.000384582 0.000462661 0)
(-0.00061695 0.000686511 0)
(-0.000912032 0.000924599 0)
(-0.00127128 0.00116915 0)
(-0.00169495 0.00141405 0)
(-0.00218225 0.00165451 0)
(-0.00273152 0.00188685 0)
(-0.00334033 0.00210823 0)
(-0.00400568 0.00231649 0)
(-0.00472407 0.00251003 0)
(-0.00549161 0.0026877 0)
(-0.0063041 0.00284866 0)
(-0.00715716 0.00299239 0)
(-0.00804621 0.00311859 0)
(-0.00896659 0.00322713 0)
(-0.00991359 0.00331805 0)
(-0.0108825 0.00339149 0)
(-0.0118686 0.00344771 0)
(-0.0128672 0.00348703 0)
(-0.0138737 0.00350984 0)
(-0.0148837 0.00351659 0)
(-0.0158927 0.00350776 0)
(-0.0168965 0.00348389 0)
(-0.0178909 0.0034455 0)
(-0.018872 0.00339318 0)
(-0.0198359 0.00332749 0)
(-0.0207789 0.00324904 0)
(-0.0216975 0.00315841 0)
(-0.0225883 0.00305622 0)
(-0.0234482 0.00294308 0)
(-0.024274 0.00281958 0)
(-0.025063 0.00268633 0)
(-0.0258124 0.00254395 0)
(-0.0265197 0.00239302 0)
(-0.0271825 0.00223416 0)
(-0.0277987 0.00206796 0)
(-0.0283663 0.00189501 0)
(-0.0288834 0.00171591 0)
(-0.0293483 0.00153124 0)
(-0.0297596 0.00134161 0)
(-0.0301159 0.0011476 0)
(-0.0304159 0.000949797 0)
(-0.0306588 0.000748803 0)
(-0.0308437 0.000545213 0)
(-0.03097 0.000339626 0)
(-0.0310372 0.000132647 0)
(-0.0310449 -7.51109e-05 0)
(-0.0309931 -0.000283028 0)
(-0.0308819 -0.000490477 0)
(-0.0307113 -0.000696826 0)
(-0.030482 -0.00090143 0)
(-0.0301944 -0.00110363 0)
(-0.0298494 -0.00130277 0)
(-0.029448 -0.00149818 0)
(-0.0289913 -0.00168916 0)
(-0.0284807 -0.00187503 0)
(-0.0279178 -0.00205508 0)
(-0.0273043 -0.00222861 0)
(-0.0266423 -0.00239489 0)
(-0.0259339 -0.0025532 0)
(-0.0251815 -0.00270283 0)
(-0.0243876 -0.00284303 0)
(-0.023555 -0.00297309 0)
(-0.0226868 -0.00309227 0)
(-0.0217861 -0.00319987 0)
(-0.0208563 -0.00329517 0)
(-0.0199009 -0.00337748 0)
(-0.0189237 -0.00344611 0)
(-0.0179286 -0.00350043 0)
(-0.0169198 -0.00353979 0)
(-0.0159015 -0.0035636 0)
(-0.014878 -0.0035713 0)
(-0.013854 -0.00356239 0)
(-0.0128341 -0.0035364 0)
(-0.011823 -0.00349295 0)
(-0.0108256 -0.00343171 0)
(-0.00984681 -0.00335244 0)
(-0.00889145 -0.00325501 0)
(-0.00796444 -0.00313941 0)
(-0.00707061 -0.00300576 0)
(-0.00621472 -0.00285434 0)
(-0.00540136 -0.00268565 0)
(-0.00463492 -0.00250041 0)
(-0.00391953 -0.00229963 0)
(-0.00325895 -0.0020847 0)
(-0.00265649 -0.00185743 0)
(-0.00211495 -0.00162018 0)
(-0.00163642 -0.001376 0)
(-0.00122223 -0.00112882 0)
(-0.00087274 -0.000883632 0)
(-0.000587241 -0.000646796 0)
(-0.000363781 -0.000426396 0)
(-0.000198942 -0.000232662 0)
(-8.76177e-05 -7.84043e-05 0)
(-2.37832e-05 2.03605e-05 0)
(-1.48827e-06 4.20992e-05 0)
(-4.69058e-06 -2.67538e-05 0)
(-4.30919e-05 4.65837e-05 0)
(-0.000139368 0.000208366 0)
(-0.000295436 0.000428785 0)
(-0.000515175 0.000690213 0)
(-0.000802376 0.000978988 0)
(-0.0011593 0.00128391 0)
(-0.00158686 0.00159595 0)
(-0.00208489 0.00190791 0)
(-0.00265224 0.00221406 0)
(-0.00328693 0.0025099 0)
(-0.00398624 0.00279192 0)
(-0.00474686 0.00305742 0)
(-0.00556496 0.00330434 0)
(-0.00643631 0.00353116 0)
(-0.00735639 0.0037368 0)
(-0.00832039 0.00392053 0)
(-0.00932338 0.0040819 0)
(-0.0103603 0.00422071 0)
(-0.0114259 0.00433694 0)
(-0.0125151 0.00443074 0)
(-0.0136228 0.00450239 0)
(-0.0147438 0.00455228 0)
(-0.015873 0.00458088 0)
(-0.0170056 0.00458875 0)
(-0.0181366 0.00457647 0)
(-0.0192615 0.00454471 0)
(-0.0203755 0.00449416 0)
(-0.0214743 0.00442552 0)
(-0.0225537 0.00433955 0)
(-0.0236094 0.00423698 0)
(-0.0246377 0.00411861 0)
(-0.0256348 0.0039852 0)
(-0.0265971 0.00383753 0)
(-0.0275213 0.00367639 0)
(-0.0284041 0.00350255 0)
(-0.0292425 0.00331682 0)
(-0.0300339 0.00311996 0)
(-0.0307754 0.00291276 0)
(-0.0314648 0.00269599 0)
(-0.0320996 0.00247043 0)
(-0.032678 0.00223686 0)
(-0.033198 0.00199603 0)
(-0.0336579 0.00174874 0)
(-0.0340563 0.00149573 0)
(-0.0343919 0.0012378 0)
(-0.0346635 0.000975709 0)
(-0.0348702 0.000710242 0)
(-0.0350113 0.000442182 0)
(-0.0350864 0.000172322 0)
(-0.0350949 -9.85399e-05 0)
(-0.0350369 -0.000369596 0)
(-0.0349123 -0.000640028 0)
(-0.0347216 -0.00090901 0)
(-0.034465 -0.0011757 0)
(-0.0341433 -0.00143925 0)
(-0.0337574 -0.00169878 0)
(-0.0333084 -0.00195343 0)
(-0.0327976 -0.00220231 0)
(-0.0322265 -0.00244451 0)
(-0.031597 -0.00267912 0)
(-0.0309109 -0.00290523 0)
(-0.0301704 -0.00312189 0)
(-0.0293781 -0.00332818 0)
(-0.0285365 -0.00352315 0)
(-0.0276485 -0.00370586 0)
(-0.0267172 -0.00387537 0)
(-0.0257459 -0.00403076 0)
(-0.0247382 -0.00417108 0)
(-0.0236977 -0.00429544 0)
(-0.0226285 -0.00440294 0)
(-0.0215347 -0.00449271 0)
(-0.0204207 -0.00456392 0)
(-0.019291 -0.00461577 0)
(-0.0181503 -0.00464749 0)
(-0.0170034 -0.00465839 0)
(-0.0158554 -0.00464783 0)
(-0.0147115 -0.00461524 0)
(-0.0135767 -0.00456015 0)
(-0.0124566 -0.00448215 0)
(-0.0113563 -0.004381 0)
(-0.0102813 -0.00425655 0)
(-0.00923685 -0.00410882 0)
(-0.00822834 -0.00393802 0)
(-0.0072609 -0.00374457 0)
(-0.00633952 -0.00352915 0)
(-0.00546898 -0.00329273 0)
(-0.00465376 -0.00303667 0)
(-0.00389795 -0.00276274 0)
(-0.00320518 -0.00247328 0)
(-0.00257853 -0.00217126 0)
(-0.00202039 -0.00186048 0)
(-0.00153237 -0.0015457 0)
(-0.0011152 -0.00123293 0)
(-0.000768563 -0.000929652 0)
(-0.00049105 -0.000645212 0)
(-0.000279919 -0.000391211 0)
(-0.000130907 -0.000181925 0)
(-3.98067e-05 -3.4874e-05 0)
(-4.15454e-06 2.68835e-05 0)
(-7.41369e-06 -1.37282e-06 0)
(-5.96714e-05 0.000128067 0)
(-0.000184443 0.000351437 0)
(-0.000379922 0.000638191 0)
(-0.000647939 0.00096956 0)
(-0.000991258 0.00133065 0)
(-0.00141132 0.00170908 0)
(-0.00190837 0.00209474 0)
(-0.00248167 0.00247944 0)
(-0.00312963 0.00285657 0)
(-0.0038499 0.00322088 0)
(-0.00463938 0.00356818 0)
(-0.00549443 0.00389523 0)
(-0.0064109 0.00419952 0)
(-0.00738422 0.00447915 0)
(-0.0084095 0.00473277 0)
(-0.00948161 0.00495941 0)
(-0.0105952 0.00515848 0)
(-0.0117449 0.00532968 0)
(-0.012925 0.00547295 0)
(-0.0141301 0.00558841 0)
(-0.0153546 0.00567637 0)
(-0.0165929 0.00573728 0)
(-0.0178396 0.00577169 0)
(-0.0190893 0.00578024 0)
(-0.0203369 0.00576368 0)
(-0.0215771 0.00572278 0)
(-0.022805 0.00565838 0)
(-0.0240158 0.00557136 0)
(-0.0252048 0.00546263 0)
(-0.0263677 0.00533313 0)
(-0.0275001 0.0051838 0)
(-0.0285979 0.00501562 0)
(-0.0296573 0.00482954 0)
(-0.0306746 0.00462655 0)
(-0.0316463 0.00440763 0)
(-0.0325691 0.00417375 0)
(-0.0334399 0.0039259 0)
(-0.0342559 0.00366506 0)
(-0.0350144 0.00339219 0)
(-0.0357129 0.00310828 0)
(-0.0363492 0.00281428 0)
(-0.0369213 0.00251118 0)
(-0.0374272 0.00219995 0)
(-0.0378655 0.00188154 0)
(-0.0382346 0.00155695 0)
(-0.0385333 0.00122713 0)
(-0.0387607 0.00089308 0)
(-0.0389159 0.00055578 0)
(-0.0389984 0.000216228 0)
(-0.0390078 -0.00012457 0)
(-0.038944 -0.000465595 0)
(-0.038807 -0.000805822 0)
(-0.0385971 -0.00114421 0)
(-0.0383149 -0.0014797 0)
(-0.0379611 -0.00181122 0)
(-0.0375366 -0.00213768 0)
(-0.0370428 -0.00245799 0)
(-0.0364809 -0.00277103 0)
(-0.0358528 -0.00307566 0)
(-0.0351603 -0.00337075 0)
(-0.0344056 -0.00365514 0)
(-0.0335911 -0.00392767 0)
(-0.0327195 -0.00418716 0)
(-0.0317935 -0.00443245 0)
(-0.0308165 -0.00466235 0)
(-0.0297917 -0.00487569 0)
(-0.0287228 -0.00507132 0)
(-0.0276136 -0.00524808 0)
(-0.0264683 -0.00540483 0)
(-0.025291 -0.00554048 0)
(-0.0240865 -0.00565395 0)
(-0.0228593 -0.00574421 0)
(-0.0216145 -0.00581027 0)
(-0.0203571 -0.0058512 0)
(-0.0190924 -0.00586616 0)
(-0.0178259 -0.00585436 0)
(-0.0165631 -0.00581513 0)
(-0.0153098 -0.00574789 0)
(-0.0140715 -0.00565221 0)
(-0.0128542 -0.00552777 0)
(-0.0116636 -0.00537446 0)
(-0.0105054 -0.00519235 0)
(-0.00938545 -0.00498174 0)
(-0.00830919 -0.00474319 0)
(-0.00728204 -0.00447759 0)
(-0.00630914 -0.00418619 0)
(-0.0053953 -0.00387069 0)
(-0.00454496 -0.0035333 0)
(-0.00376208 -0.00317687 0)
(-0.00305006 -0.00280499 0)
(-0.00241165 -0.00242217 0)
(-0.00184884 -0.00203401 0)
(-0.00136277 -0.00164743 0)
(-0.000953668 -0.00127095 0)
(-0.000620796 -0.000915014 0)
(-0.00036222 -0.000592368 0)
(-0.000174656 -0.000318445 0)
(-5.58166e-05 -0.000111858 0)
(-6.74962e-06 3.4044e-06 0)
(-1.00056e-05 3.23925e-05 0)
(-7.58523e-05 0.000231953 0)
(-0.000229013 0.000528596 0)
(-0.000464047 0.000891625 0)
(-0.000780726 0.00130151 0)
(-0.00118075 0.00174241 0)
(-0.0016646 0.00220101 0)
(-0.00223173 0.00266629 0)
(-0.00288078 0.00312918 0)
(-0.00360964 0.0035823 0)
(-0.00441546 0.00401966 0)
(-0.00529477 0.00443647 0)
(-0.00624355 0.00482895 0)
(-0.00725728 0.00519414 0)
(-0.00833105 0.00552978 0)
(-0.00945963 0.00583422 0)
(-0.0106375 0.00610627 0)
(-0.0118591 0.00634518 0)
(-0.0131184 0.00655053 0)
(-0.0144097 0.0067222 0)
(-0.015727 0.00686031 0)
(-0.0170643 0.00696519 0)
(-0.0184157 0.00703732 0)
(-0.0197755 0.00707736 0)
(-0.0211378 0.00708604 0)
(-0.0224971 0.00706421 0)
(-0.0238478 0.00701283 0)
(-0.0251847 0.00693287 0)
(-0.0265026 0.00682539 0)
(-0.0277964 0.00669147 0)
(-0.0290615 0.00653224 0)
(-0.0302931 0.00634885 0)
(-0.031487 0.00614244 0)
(-0.0326389 0.00591422 0)
(-0.0337448 0.00566534 0)
(-0.034801 0.00539702 0)
(-0.035804 0.00511043 0)
(-0.0367504 0.00480677 0)
(-0.0376371 0.00448724 0)
(-0.0384613 0.00415301 0)
(-0.0392203 0.00380528 0)
(-0.0399117 0.00344524 0)
(-0.0405332 0.00307406 0)
(-0.0410829 0.00269294 0)
(-0.041559 0.00230307 0)
(-0.04196 0.00190563 0)
(-0.0422845 0.00150182 0)
(-0.0425316 0.00109284 0)
(-0.0427002 0.0006799 0)
(-0.0427899 0.000264219 0)
(-0.0428002 -0.000152972 0)
(-0.042731 -0.000570428 0)
(-0.0425823 -0.000986893 0)
(-0.0423545 -0.00140109 0)
(-0.0420481 -0.00181173 0)
(-0.0416639 -0.0022175 0)
(-0.041203 -0.00261708 0)
(-0.0406667 -0.00300912 0)
(-0.0400566 -0.00339227 0)
(-0.0393744 -0.00376513 0)
(-0.0386223 -0.00412632 0)
(-0.0378025 -0.00447443 0)
(-0.0369178 -0.00480805 0)
(-0.0359708 -0.00512575 0)
(-0.0349648 -0.00542611 0)
(-0.0339032 -0.00570769 0)
(-0.0327895 -0.00596907 0)
(-0.0316277 -0.00620885 0)
(-0.0304219 -0.00642563 0)
(-0.0291765 -0.00661804 0)
(-0.0278961 -0.00678475 0)
(-0.0265857 -0.00692447 0)
(-0.0252504 -0.00703595 0)
(-0.0238953 -0.00711801 0)
(-0.0225261 -0.00716956 0)
(-0.0211483 -0.00718956 0)
(-0.0197678 -0.00717711 0)
(-0.0183906 -0.0071314 0)
(-0.0170227 -0.00705178 0)
(-0.0156703 -0.00693774 0)
(-0.0143395 -0.00678896 0)
(-0.0130366 -0.00660532 0)
(-0.0117677 -0.00638696 0)
(-0.0105388 -0.00613427 0)
(-0.00935587 -0.00584799 0)
(-0.00822472 -0.00552922 0)
(-0.00715082 -0.00517949 0)
(-0.00613933 -0.00480086 0)
(-0.00519504 -0.00439597 0)
(-0.00432227 -0.00396818 0)
(-0.00352479 -0.0035217 0)
(-0.00280575 -0.0030617 0)
(-0.00216758 -0.00259458 0)
(-0.00161195 -0.00212808 0)
(-0.00113971 -0.00167164 0)
(-0.000750873 -0.00123663 0)
(-0.000444411 -0.000836741 0)
(-0.000218087 -0.000488286 0)
(-7.15443e-05 -0.000210616 0)
(-9.2401e-06 -2.82068e-05 0)
(-1.24554e-05 7.42856e-05 0)
(-9.15433e-05 0.00035786 0)
(-0.000272663 0.000739623 0)
(-0.000546941 0.00118909 0)
(-0.000912183 0.00168622 0)
(-0.00136895 0.00221456 0)
(-0.00191673 0.00276005 0)
(-0.00255412 0.00331091 0)
(-0.00327906 0.00385734 0)
(-0.00408882 0.00439125 0)
(-0.00498005 0.00490602 0)
(-0.00594883 0.00539628 0)
(-0.0069907 0.00585775 0)
(-0.00810077 0.00628703 0)
(-0.00927376 0.00668152 0)
(-0.0105041 0.00703926 0)
(-0.0117859 0.00735886 0)
(-0.0131132 0.0076394 0)
(-0.0144798 0.00788034 0)
(-0.0158794 0.0080815 0)
(-0.0173058 0.00824299 0)
(-0.0187527 0.00836514 0)
(-0.0202138 0.0084485 0)
(-0.0216829 0.00849379 0)
(-0.023154 0.00850187 0)
(-0.0246211 0.00847372 0)
(-0.0260784 0.00841042 0)
(-0.0275201 0.00831314 0)
(-0.0289409 0.00818308 0)
(-0.0303353 0.00802154 0)
(-0.0316984 0.00782984 0)
(-0.0330252 0.00760932 0)
(-0.034311 0.00736136 0)
(-0.0355514 0.00708735 0)
(-0.0367421 0.0067887 0)
(-0.0378792 0.00646682 0)
(-0.0389588 0.00612313 0)
(-0.0399774 0.00575905 0)
(-0.0409317 0.00537599 0)
(-0.0418186 0.00497538 0)
(-0.0426354 0.00455863 0)
(-0.0433793 0.00412717 0)
(-0.044048 0.0036824 0)
(-0.0446395 0.00322575 0)
(-0.0451517 0.00275864 0)
(-0.0455832 0.00228249 0)
(-0.0459325 0.00179873 0)
(-0.0461984 0.00130879 0)
(-0.04638 0.000814133 0)
(-0.0464766 0.00031621 0)
(-0.0464879 -0.000183506 0)
(-0.0464137 -0.000683528 0)
(-0.046254 -0.00118235 0)
(-0.0460092 -0.00167845 0)
(-0.0456799 -0.00217028 0)
(-0.045267 -0.00265628 0)
(-0.0447715 -0.00313486 0)
(-0.0441949 -0.00360442 0)
(-0.0435389 -0.00406333 0)
(-0.0428054 -0.00450995 0)