/*--------------------------------*- C++ -*----------------------------------*\
| =========                 |                                                 |
| \\      /  F ield         | OpenFOAM: The Open Source CFD Toolbox           |
|  \\    /   O peration     | Version:  2212                                  |
|   \\  /    A nd           | Website:  www.openfoam.com                      |
|    \\/     M anipulation  |                                                 |
\*---------------------------------------------------------------------------*/
FoamFile
{
    version     2.0;
    format      ascii;
    arch        "LSB;label=32;scalar=64";
    class       volScalarField;
    location    "0.0755";
    object      p;
}
// * * * * * * * * * * * * * * * * * * * * * * * * * * * * * * * * * * * * * //

dimensions      [0 2 -2 0 0 0 0];

internalField   nonuniform List<scalar> 
10000
(
-2.06522e-07
0.000128597
-3.51461e-05
-0.00055611
-0.00139264
-0.00248506
-0.00377598
-0.00521102
-0.00674153
-0.00832445
-0.00992219
-0.011502
-0.0130355
-0.014498
-0.0158683
-0.017128
-0.0182615
-0.0192555
-0.0200988
-0.0207818
-0.0212972
-0.0216388
-0.021802
-0.0217837
-0.0215817
-0.0211949
-0.0206237
-0.0198689
-0.0189326
-0.0178173
-0.0165267
-0.0150647
-0.0134362
-0.0116467
-0.00970199
-0.00760858
-0.00537326
-0.00300344
-0.000506957
0.00210798
0.00483281
0.00765869
0.0105764
0.0135764
0.0166489
0.0197839
0.022971
0.0261999
0.0294601
0.0327407
0.0360311
0.03932
0.0425963
0.045849
0.0490672
0.0522397
0.0553556
0.0584037
0.0613733
0.064254
0.0670355
0.0697078
0.072261
0.0746856
0.0769724
0.0791129
0.0810992
0.0829238
0.0845798
0.0860611
0.087362
0.0884779
0.0894051
0.0901408
0.0906831
0.0910315
0.0911861
0.0911484
0.0909212
0.0905088
0.089917
0.0891531
0.0882261
0.0871471
0.0859289
0.0845864
0.0831369
0.0816003
0.0799995
0.0783604
0.0767125
0.0750891
0.0735279
0.0720713
0.0707666
0.069665
0.0688191
0.0682792
0.0680871
0.0681926
-5.30604e-05
7.28776e-05
-9.59234e-05
-0.000565541
-0.0012895
-0.00222805
-0.00333944
-0.00458082
-0.00591184
-0.00729553
-0.00869868
-0.0100917
-0.0114482
-0.0127453
-0.0139626
-0.0150827
-0.0160903
-0.0169723
-0.0177178
-0.0183172
-0.018763
-0.0190488
-0.0191699
-0.0191227
-0.0189049
-0.0185152
-0.0179532
-0.0172195
-0.0163158
-0.0152441
-0.0140076
-0.01261
-0.0110557
-0.00934947
-0.00749696
-0.00550402
-0.00337699
-0.0011228
0.00125115
0.00373716
0.00632719
0.00901286
0.0117855
0.0146359
0.0175551
0.0205333
0.0235608
0.0266278
0.0297243
0.03284
0.0359647
0.0390879
0.0421989
0.0452873
0.0483428
0.0513548
0.0543128
0.0572065
0.0600257
0.0627605
0.0654014
0.0679388
0.0703635
0.0726666
0.0748395
0.0768744
0.0787638
0.0805009
0.0820794
0.0834936
0.0847385
0.08581
0.0867047
0.0874204
0.0879558
0.0883104
0.0884848
0.0884809
0.0883017
0.0879517
0.0874366
0.086764
0.0859429
0.0849839
0.0838997
0.0827047
0.0814155
0.080051
0.0786328
0.077185
0.0757347
0.0743121
0.0729504
0.0716858
0.0705575
0.0696058
0.0688692
0.0683828
0.068192
0.068298
0.000218749
0.000327275
0.000144399
-0.00030377
-0.000967091
-0.00181416
-0.00281193
-0.00392511
-0.00511945
-0.00636299
-0.0076262
-0.00888237
-0.0101075
-0.0112803
-0.0123815
-0.0133946
-0.0143051
-0.0151002
-0.0157693
-0.0163031
-0.016694
-0.0169357
-0.0170234
-0.0169533
-0.016723
-0.0163308
-0.0157763
-0.0150597
-0.0141823
-0.013146
-0.0119535
-0.0106083
-0.00911418
-0.0074759
-0.00569844
-0.00378736
-0.00174868
0.00041107
0.00268492
0.00506562
0.00754551
0.0101166
0.0127705
0.0154988
0.0182925
0.0211425
0.0240396
0.0269743
0.029937
0.032918
0.0359074
0.0388952
0.0418714
0.0448259
0.0477488
0.05063
0.0534595
0.0562275
0.0589244
0.0615408
0.0640675
0.0664955
0.068816
0.0710207
0.0731015
0.075051
0.0768622
0.0785288
0.0800449
0.0814051
0.0826049
0.0836405
0.0845092
0.0852088
0.0857383
0.0860977
0.0862877
0.0863103
0.0861686
0.0858674
0.0854123
0.0848107
0.0840716
0.0832052
0.0822238
0.0811411
0.0799731
0.0787375
0.0774545
0.0761467
0.0748386
0.0735576
0.0723331
0.0711968
0.0701817
0.0693218
0.0686482
0.0681904
0.0680004
0.0681067
0.000836472
0.000875793
0.000651686
0.000194641
-0.00044876
-0.00125084
-0.00218339
-0.00321629
-0.00432007
-0.00546678
-0.00663028
-0.00778654
-0.00891371
-0.00999212
-0.0110042
-0.0119342
-0.0127683
-0.0134947
-0.0141029
-0.0145841
-0.0149308
-0.0151369
-0.0151975
-0.015109
-0.0148686
-0.0144749
-0.0139269
-0.013225
-0.01237
-0.0113636
-0.0102085
-0.00890761
-0.00746471
-0.00588403
-0.00417034
-0.00232889
-0.000365386
0.00171398
0.00390263
0.00619362
0.00857966
0.0110531
0.013606
0.01623
0.0189168
0.0216576
0.0244436
0.0272655
0.0301143
0.0329806
0.035855
0.0387278
0.0415893
0.0444301
0.0472403
0.0500105
0.0527311
0.0553927
0.0579862
0.0605024
0.0629326
0.0652682
0.0675009
0.0696227
0.071626
0.0735037
0.0752492
0.0768566
0.0783202
0.0796351
0.0807971
0.0818027
0.0826493
0.0833353
0.0838596
0.0842224
0.0844246
0.0844683
0.0843567
0.0840944
0.083687
0.0831418
0.0824674
0.0816737
0.0807723
0.0797764
0.0787009
0.0775627
0.0763803
0.0751746
0.0739681
0.0727853
0.0716525
0.0705976
0.0696494
0.0688373
0.0681887
0.0677309
0.0675132
0.0675689
0.00174702
0.00166763
0.00137104
0.000879917
0.000229469
-0.000555752
-0.00145112
-0.00243107
-0.00347023
-0.00454429
-0.00563037
-0.00670701
-0.00775448
-0.00875493
-0.00969215
-0.0105516
-0.0113206
-0.0119877
-0.0125432
-0.0129785
-0.0132866
-0.0134615
-0.0134985
-0.0133939
-0.0131451
-0.0127505
-0.0122091
-0.011521
-0.010687
-0.00970869
-0.00858831
-0.00732873
-0.00593339
-0.00440628
-0.00275191
-0.000975254
0.000918301
0.00292288
0.00503224
0.00723975
0.0095384
0.0119209
0.0143796
0.0169066
0.0194939
0.0221331
0.0248156
0.0275327
0.0302755
0.0330352
0.0358026
0.0385685
0.0413237
0.0440587
0.0467645
0.0494318
0.0520515
0.0546146
0.0571123
0.0595359
0.0618769
0.0641273
0.0662789
0.0683242
0.0702561
0.0720676
0.0737527
0.0753055
0.0767209
0.0779941
0.0791213
0.0800991
0.0809254
0.0815983
0.0821174
0.0824826
0.0826951
0.082757
0.0826714
0.0824428
0.0820768
0.0815803
0.0809615
0.0802299
0.0793965
0.0784738
0.0774755
0.0764174
0.0753168
0.0741924
0.0730648
0.071956
0.0708892
0.0698889
0.0689802
0.0681887
0.0675385
0.0670543
0.0667748
0.0667254
0.00290399
0.00266827
0.00227209
0.00172398
0.00104272
0.000249987
-0.000632766
-0.00158383
-0.00258157
-0.00360503
-0.00463414
-0.00565
-0.00663507
-0.00757315
-0.0084495
-0.00925091
-0.00996552
-0.0105828
-0.0110936
-0.01149
-0.0117652
-0.0119134
-0.0119303
-0.0118124
-0.0115568
-0.0111621
-0.0106273
-0.00995242
-0.00913816
-0.0081859
-0.00709774
-0.00587634
-0.00452492
-0.00304724
-0.00144762
0.000269202
0.00209819
0.00403379
0.00606999
0.00820044
0.0104184
0.0127169
0.0150887
0.0175262
0.0200217
0.0225671
0.0251542
0.0277745
0.0304197
0.0330811
0.03575
0.0384175
0.0410747
0.0437125
0.0463222
0.048895
0.0514221
0.0538949
0.0563048
0.0586434
0.0609028
0.0630751
0.0651527
0.0671282
0.0689948
0.070746
0.0723759
0.073879
0.0752503
0.0764854
0.0775807
0.0785331
0.0793404
0.0800011
0.0805147
0.0808813
0.0811021
0.081179
0.0811154
0.0809153
0.0805843
0.0801288
0.0795566
0.0788768
0.0780997
0.0772368
0.076301
0.0753068
0.0742699
0.0732075
0.072138
0.071081
0.070057
0.0690875
0.0681941
0.0673987
0.0667228
0.0661883
0.065818
0.0656237
0.00425839
0.00384172
0.00332493
0.00270017
0.00196755
0.00114583
0.000254021
-0.000689752
-0.0016672
-0.00266029
-0.00365158
-0.0046245
-0.00556355
-0.00645428
-0.00728339
-0.00803887
-0.00870991
-0.00928683
-0.00976117
-0.0101255
-0.0103735
-0.0104999
-0.0105004
-0.0103717
-0.0101112
-0.00971736
-0.00918932
-0.00852703
-0.00773113
-0.0068029
-0.00574432
-0.00455783
-0.00324652
-0.00181402
-0.000264385
0.00139789
0.00316803
0.00504073
0.00701019
0.00907032
0.0112147
0.0134366
0.0157292
0.0180851
0.020497
0.0229569
0.025457
0.0279892
0.0305455
0.0331175
0.0356968
0.0382749
0.040843
0.0433926
0.0459151
0.0484022
0.0508454
0.0532364
0.0555668
0.0578287
0.0600143
0.0621161
0.0641268
0.0660394
0.0678472
0.0695441
0.0711243
0.0725826
0.0739142
0.075115
0.0761815
0.0771107
0.0779006
0.0785498
0.0790578
0.0794247
0.0796517
0.0797407
0.0796948
0.079518
0.0792154
0.0787933
0.0782588
0.0776206
0.076888
0.076072
0.0751843
0.0742382
0.0732481
0.0722293
0.0711984
0.0701727
0.0691704
0.0682099
0.0673099
0.066489
0.0657664
0.065161
0.0646777
0.0643124
0.00576344
0.00515082
0.00449822
0.00378123
0.00298036
0.0021119
0.00119282
0.000238011
-0.000737229
-0.00171745
-0.00268769
-0.00363353
-0.00454126
-0.00539812
-0.00619234
-0.00691304
-0.00755044
-0.00809575
-0.00854123
-0.00888005
-0.00910639
-0.00921539
-0.00920302
-0.00906612
-0.00880242
-0.0084104
-0.0078893
-0.00723907
-0.00646031
-0.00555424
-0.00452271
-0.0033681
-0.00209336
-0.000701974
0.000802223
0.002415
0.00413173
0.00594728
0.00785612
0.00985241
0.01193
0.0140825
0.0163032
0.0185851
0.020921
0.0233034
0.0257247
0.0281771
0.0306529
0.033144
0.0356423
0.0381394
0.040627
0.0430969
0.0455408
0.0479507
0.0503183
0.0526356
0.0548945
0.0570874
0.0592067
0.0612454
0.0631961
0.0650523
0.0668075
0.0684557
0.0699914
0.0714096
0.0727057
0.0738757
0.0749162
0.0758245
0.0765984
0.0772368
0.0777389
0.0781052
0.0783364
0.0784347
0.0784027
0.0782442
0.0779641
0.0775682
0.0770631
0.076457
0.0757584
0.0749774
0.0741248
0.0732127
0.072254
0.0712625
0.070253
0.0692408
0.0682416
0.0672715
0.0663464
0.0654819
0.0646951
0.0640025
0.0633901
0.0628377
0.00737719
0.00656059
0.00576197
0.00494082
0.00405844
0.00312886
0.00216732
0.00118608
0.000197721
-0.000784775
-0.00174852
-0.00268105
-0.00357049
-0.00440564
-0.00517602
-0.00587201
-0.00648482
-0.00700659
-0.00743022
-0.00774956
-0.00795934
-0.0080551
-0.00803313
-0.00789054
-0.00762528
-0.00723602
-0.00672205
-0.00608338
-0.00532062
-0.00443493
-0.00342813
-0.00230254
-0.001061
0.000293171
0.00175629
0.00332432
0.00499278
0.0067567
0.00861079
0.0105494
0.0125668
0.0146566
0.0168125
0.0190276
0.021295
0.0236075
0.0259578
0.0283384
0.0307417
0.03316
0.0355854
0.0380098
0.0404251
0.0428235
0.045197
0.0475377
0.0498376
0.052089
0.0542841
0.0564154
0.0584757
0.060458
0.0623555
0.0641615
0.0658699
0.0674749
0.0689711
0.0703536
0.0716182
0.0727608
0.0737781
0.0746675
0.0754269
0.0760551
0.0765514
0.076916
0.0771498
0.0772546
0.0772329
0.0770883
0.0768251
0.0764488
0.0759657
0.0753829
0.0747087
0.0739521
0.0731229
0.072232
0.0712911
0.0703126
0.0693095
0.0682951
0.0672833
0.0662878
0.0653221
0.0643991
0.0635343
0.0627419
0.0619894
0.0612409
0.00906315
0.00803937
0.00708835
0.00615434
0.00518009
0.00417784
0.00316151
0.00214092
0.00112638
0.000128712
-0.000841135
-0.00177252
-0.00265519
-0.00347937
-0.00423588
-0.00491626
-0.00551273
-0.00601824
-0.00642647
-0.00673194
-0.00692987
-0.00701623
-0.0069877
-0.00684174
-0.00657651
-0.00619083
-0.00568415
-0.00505653
-0.00430864
-0.00344166
-0.00245737
-0.00135804
-0.000146442
0.00117427
0.00260052
0.00412837
0.0057535
0.00747112
0.00927614
0.0111632
0.0131266
0.0151603
0.0172581
0.0194134
0.0216195
0.0238696
0.0261564
0.0284728
0.0308115
0.0331648
0.0355252
0.0378848
0.0402359
0.0425707
0.0448816
0.0471609
0.0494008
0.0515938
0.0537324
0.0558094
0.0578176
0.0597503
0.0616008
0.0633627
0.06503
0.066597
0.0680585
0.0694098
0.0706466
0.0717651
0.072762
0.0736345
0.0743808
0.0749995
0.0754899
0.0758522
0.076087
0.0761959
0.0761813
0.0760463
0.0757951
0.0754325
0.0749643
0.0743972
0.0737386
0.0729966
0.0721803
0.0712994
0.0703643
0.0693861
0.0683762
0.0673462
0.0663083
0.0652741
0.0642549
0.0632613
0.0623074
0.061406
0.0605063
0.0595578
0.0107898
0.00955871
0.00845181
0.00739893
0.00632495
0.00524094
0.00415981
0.00308921
0.00203746
0.0010136
2.676e-05
-0.000914042
-0.00180001
-0.00262273
-0.00337427
-0.00404721
-0.00463471
-0.00513058
-0.0055293
-0.00582597
-0.00601633
-0.00609682
-0.00606456
-0.00591733
-0.00565353
-0.00527216
-0.00477285
-0.00415579
-0.00342167
-0.00257174
-0.00160779
-0.000532054
0.000652795
0.00194367
0.0033371
0.00482918
0.00641577
0.00809227
0.00985378
0.011695
0.0136105
0.0155944
0.0176407
0.019743
0.0218949
0.0240897
0.0263204
0.0285801
0.0308616
0.0331575
0.0354606
0.0377631
0.0400576
0.0423366
0.0445926
0.046818
0.0490054
0.0511474
0.0532367
0.0552662
0.0572291
0.0591186
0.0609283
0.0626519
0.0642836
0.0658177
0.0672493
0.0685736
0.0697865
0.070884
0.0718631
0.072721
0.0734556
0.0740656
0.0745503
0.0749095
0.075144
0.075255
0.0752445
0.0751155
0.0748717
0.0745174
0.074058
0.0734995
0.0728486
0.0721126
0.0712998
0.0704188
0.0694789
0.0684899
0.0674617
0.0664046
0.065329
0.0642449
0.0631616
0.0620878
0.0610366
0.0600195
0.0589686
0.0578192
0.0125298
0.0110936
0.00982937
0.00865347
0.00747401
0.00630116
0.00514713
0.00401783
0.00291976
0.00186037
0.000847224
-0.000112109
-0.00101017
-0.00183981
-0.00259421
-0.00326694
-0.0038521
-0.00434432
-0.00473877
-0.00503117
-0.00521783
-0.00529567
-0.00526222
-0.00511558
-0.0048544
-0.00447797
-0.00398606
-0.00337898
-0.00265753
-0.00182302
-0.000877269
0.000177539
0.00133875
0.0026033
0.00396777
0.00542841
0.00698117
0.0086216
0.0103449
0.012146
0.0140195
0.0159597
0.0179609
0.0200169
0.0221213
0.0242678
0.0264495
0.0286596
0.0308913
0.0331373
0.0353904
0.0376434
0.0398889
0.0421195
0.0443279
0.0465067
0.0486489
0.0507469
0.0527939
0.0547827
0.0567068
0.0585595
0.0603344
0.0620255
0.0636269
0.0651332
0.0665394
0.0678409
0.0690335
0.0701134
0.0710774
0.0719227
0.0726472
0.0732494
0.0737286
0.0740845
0.0743176
0.0744288
0.0744199
0.0742936
0.0740531
0.0737023
0.0732461
0.0726899
0.0720397
0.0713022
0.0704846
0.0695946
0.0686406
0.067631
0.0665748
0.0654807
0.0643577
0.0632144
0.0620584
0.0608967
0.0597418
0.0586044
0.0574003
0.0560516
0.0142598
0.0126215
0.0112001
0.00989873
0.00860968
0.00734258
0.00610925
0.00491415
0.00376221
0.00265943
0.00161205
0.000626368
-0.000291404
-0.00113525
-0.00189935
-0.00257826
-0.00316693
-0.00366078
-0.00405563
-0.00434783
-0.00453426
-0.00461231
-0.00457989
-0.00443544
-0.00417794
-0.00380688
-0.00332226
-0.00272453
-0.0020146
-0.00119386
-0.000264137
0.000772332
0.00191291
0.00315457
0.00449395
0.00592736
0.00745086
0.00906011
0.0107504
0.0125168
0.0143541
0.0162567
0.018219
0.020235
0.0222987
0.0244036
0.0265432
0.0287108
0.0308997
0.033103
0.0353135
0.0375242
0.0397279
0.0419174
0.0440854
0.0462249
0.0483288
0.0503899
0.0524013
0.0543561
0.0562477
0.0580697
0.0598158
0.0614799
0.0630564
0.0645398
0.0659252
0.0672081
0.0683841
0.0694496
0.0704011
0.071236
0.071952
0.0725476
0.0730218
0.0733742
0.073605
0.0737149
0.0737055
0.0735791
0.0733383
0.0729869
0.072529
0.0719696
0.0713139
0.070568
0.0697382
0.0688316
0.0678553
0.0668169
0.0657241
0.0645846
0.0634061
0.0621959
0.0609602
0.0597047
0.0584414
0.0571808
0.055823
0.0542774
0.0159596
0.0141229
0.0125452
0.0111171
0.00971562
0.00835022
0.00703262
0.00576596
0.00455389
0.00340119
0.00231293
0.00129422
0.00035018
-0.000514147
-0.00129392
-0.00198458
-0.0025819
-0.003082
-0.00348136
-0.00377694
-0.00396617
-0.0040469
-0.00401742
-0.00387652
-0.0036235
-0.00325813
-0.00278058
-0.00219145
-0.0014918
-0.000683131
0.000232691
0.00125342
0.00237637
0.00359852
0.00491657
0.0063269
0.00782564
0.00940851
0.0110709
0.012808
0.0146146
0.0164854
0.018415
0.0203974
0.0224267
0.0244966
0.0266008
0.0287328
0.030886
0.0330535
0.0352285
0.0374041
0.0395731
0.0417285
0.0438633
0.0459704
0.0480429
0.0500739
0.0520563
0.0539835
0.055849
0.0576463
0.0593694
0.0610121
0.0625688
0.0640343
0.0654034
0.0666717
0.0678349
0.0688892
0.0698312
0.070658
0.0713673
0.0719574
0.0724273
0.0727762
0.0730042
0.0731117
0.0731001
0.072971
0.072727
0.0723712
0.0719074
0.0713398
0.0706733
0.0699131
0.0690649
0.0681348
0.0671292
0.0660547
0.0649182
0.0637262
0.0624853
0.0612019
0.059881
0.0585269
0.057152
0.0557662
0.0542551
0.052516
0.0176112
0.0155804
0.0138478
0.0122925
0.0107767
0.0093101
0.00790435
0.00656153
0.00528425
0.00407622
0.00294148
0.00188408
0.000908224
1.80258e-05
-0.000782567
-0.00148982
-0.00210023
-0.00261057
-0.00301801
-0.0033201
-0.00351474
-0.00360022
-0.00357525
-0.00343903
-0.00319113
-0.00283152
-0.00236063
-0.00177926
-0.00108861
-0.000290242
0.000613889
0.00162146
0.00272976
0.00393577
0.00523624
0.00662759
0.00810596
0.00966712
0.0113066
0.0130196
0.0148011
0.0166459
0.0185487
0.0205036
0.0225048
0.0245462
0.0266217
0.0287248
0.030849
0.0329876
0.0351341
0.0372814
0.0394227
0.041551
0.0436595
0.0457411
0.0477891
0.0497964
0.0517564
0.0536624
0.0555079
0.0572866
0.0589923
0.0606191
0.0621613
0.0636136
0.064971
0.066229
0.0673831
0.0684295
0.0693648
0.0701859
0.0708905
0.0714766
0.071943
0.0722888
0.0725137
0.0726181
0.0726027
0.0724691
0.0722193
0.0718561
0.0713826
0.0708028
0.0701207
0.069341
0.0684688
0.0675094
0.0664685
0.0653519
0.0641654
0.062915
0.0616061
0.0602443
0.0588336
0.0573775
0.0558883
0.0543764
0.0527129
0.050784
0.0191992
0.0169782
0.0150926
0.0134101
0.0117791
0.0102091
0.0087122
0.00728965
0.00594304
0.00467521
0.00348929
0.0023885
0.00137615
0.000455478
-0.000370352
-0.00109829
-0.00172554
-0.0022496
-0.00266821
-0.00297942
-0.00318163
-0.00327361
-0.00325448
-0.00312374
-0.00288128
-0.00252735
-0.0020626
-0.00148801
-0.000804921
-1.50199e-05
0.000879636
0.00187666
0.00297331
0.00416658
0.0054532
0.00682958
0.0082919
0.00983599
0.0114574
0.0131516
0.0149134
0.0167379
0.0186196
0.020553
0.0225324
0.0245518
0.0266049
0.0286856
0.0307875
0.0329042
0.0350288
0.0371548
0.0392752
0.0413832
0.0434721
0.0455349
0.047565
0.0495554
0.0514994
0.0533904
0.0552221
0.056988
0.0586821
0.0602984
0.0618312
0.0632753
0.0646255
0.0658772
0.0670261
0.0680681
0.0689997
0.0698177
0.0705196
0.0711034
0.0715674
0.0719107
0.0721327
0.0722333
0.0722133
0.0720736
0.0718159
0.0714426
0.0709564
0.0703607
0.0696591
0.0688556
0.0679547
0.0669611
0.0658797
0.0647157
0.0634741
0.0621601
0.0607786
0.0593341
0.0578301
0.0562691
0.054664
0.0530253
0.0512109
0.0490957
0.0207096
0.0183024
0.0162659
0.0144567
0.0127096
0.0110348
0.0094446
0.00793947
0.00652023
0.00518898
0.00394809
0.00279998
0.00174715
0.000792159
-6.25475e-05
-0.000814662
-0.001462
-0.00200267
-0.00243497
-0.00275748
-0.00296907
-0.00306894
-0.00305661
-0.0029319
-0.002695
-0.00234646
-0.00188712
-0.00131818
-0.000641126
0.000142222
0.0010297
0.00201886
0.00310691
0.0042908
0.00556725
0.00693267
0.00838326
0.00991489
0.0115232
0.0132035
0.0149511
0.0167607
0.0186272
0.0205451
0.0225087
0.0245122
0.0265494
0.0286143
0.0307005
0.0328017
0.0349112
0.0370225
0.0391288
0.0412233
0.0432993
0.04535
0.0473687
0.0493485
0.0512829
0.0531653
0.0549891
0.0567482
0.0584363
0.0600475
0.0615762
0.0630169
0.0643645
0.0656143
0.0667618
0.0678029
0.0687339
0.0695516
0.0702531
0.0708363
0.0712994
0.071641
0.0718604
0.0719573
0.0719319
0.071785
0.0715179
0.0711324
0.070631
0.0700164
0.0692919
0.0684609
0.0675273
0.0664952
0.065369
0.0641531
0.0628521
0.0614703
0.0600122
0.0584816
0.0568813
0.0552133
0.0534911
0.0517255
0.0497615
0.0474633
0.02213
0.0195403
0.0173548
0.0154196
0.0135564
0.0117758
0.0100905
0.00850063
0.00700617
0.00560858
0.00430956
0.00311092
0.0020144
0.00102187
0.000135193
-0.000643964
-0.00131406
-0.00187373
-0.0023218
-0.00265736
-0.00287973
-0.00298854
-0.00298366
-0.00286525
-0.0026338
-0.00229013
-0.00183532
-0.00127075
-0.000598069
0.000180755
0.00106345
0.00204748
0.00312999
0.0043079
0.00557789
0.00693636
0.00837951
0.00990324
0.0115032
0.0131749
0.0149133
0.0167137
0.0185707
0.0204789
0.0224328
0.0244265
0.0264541
0.0285095
0.0305865
0.0326787
0.0347798
0.036883
0.0389818
0.0410694
0.0431391
0.0451843
0.0471981
0.0491739
0.051105
0.0529848
0.0548069
0.0565649
0.0582528
0.0598644
0.0613941
0.0628363
0.064186
0.0654382
0.0665884
0.0676322
0.068566
0.0693862
0.0700898
0.0706745
0.0711382
0.0714794
0.0716969
0.0717903
0.0717593
0.0716044
0.0713267
0.0709275
0.0704088
0.069773
0.0690228
0.0681612
0.0671916
0.0661175
0.0649427
0.0636713
0.0623071
0.0608541
0.059316
0.0576964
0.0559975
0.0542209
0.0523806
0.0504882
0.048376
0.0458978
0.0234494
0.0206804
0.0183479
0.0162874
0.0143081
0.012421
0.0106396
0.00896319
0.00739143
0.0059252
0.00456557
0.00331371
0.00217085
0.00113823
0.000217075
-0.0005915
-0.00128651
-0.00186708
-0.00233257
-0.00268253
-0.00291674
-0.00303519
-0.0030381
-0.00292598
-0.00269962
-0.00236011
-0.00190874
-0.00134709
-0.000676993
9.94392e-05
0.000979818
0.00196153
0.00304165
0.00421702
0.00548427
0.0068398
0.0082798
0.00980018
0.0113966
0.0130646
0.0147993
0.0165957
0.0184488
0.0203531
0.0223032
0.0242933
0.0263174
0.0283697
0.0304439
0.0325337
0.0346328
0.0367346
0.0388324
0.0409197
0.0429898
0.0450359
0.0470513
0.0490294
0.0509635
0.052847
0.0546733
0.0564362
0.0581295
0.059747
0.0612829
0.0627318
0.0640883
0.0653473
0.0665043
0.0675547
0.0684946
0.0693204
0.0700289
0.0706174
0.0710836
0.0714257
0.0716424
0.0717328
0.0716964
0.0715333
0.0712442
0.0708302
0.0702927
0.0696338
0.0688557
0.067961
0.0669526
0.0658335
0.0646072
0.0632771
0.0618467
0.0603194
0.0586988
0.0569878
0.0551883
0.0533017
0.0513427
0.0493236
0.0470644
0.0444089
0.0246574
0.021712
0.0192341
0.0170492
0.014954
0.0129602
0.0110817
0.00931757
0.00766694
0.00613021
0.00470794
0.0034008
0.00220948
0.00113467
0.000177033
-0.000662829
-0.00138442
-0.00198737
-0.00247153
-0.00283689
-0.00308361
-0.00321205
-0.0032228
-0.00311671
-0.00289485
-0.00255855
-0.00210935
-0.00154901
-0.000879565
-0.000103268
0.000777389
0.00175968
0.00284059
0.00401689
0.00528518
0.00664181
0.00808297
0.00960456
0.0112023
0.0128715
0.0146076
0.0164056
0.0182603
0.0201666
0.0221187
0.0241112
0.0261381
0.0281934
0.0302712
0.032365
0.0344686
0.0365753
0.0386788
0.0407723
0.0428493
0.0449028
0.0469264
0.0489132
0.0508565
0.0527498
0.0545865
0.0563602
0.0580645
0.0596935
0.0612411
0.0627016
0.0640697
0.0653402
0.0665082
0.0675691
0.0685189
0.0693536
0.0700698
0.0706646
0.0711355
0.0714804
0.0716976
0.071786
0.0717447
0.0715735
0.0712728
0.0708432
0.070286
0.0696026
0.0687949
0.0678651
0.0668156
0.0656492
0.0643688
0.0629774
0.0614782
0.0598744
0.0581688
0.0563644
0.0544628
0.0524651
0.0503869
0.048241
0.0458358
0.043005
0.0257445
0.0226253
0.0200037
0.017695
0.0154842
0.0133833
0.0114072
0.00955445
0.00782373
0.00621508
0.00472864
0.0033646
0.00212316
0.0010045
8.83519e-06
-0.000863716
-0.00161314
-0.00223958
-0.00274328
-0.00312463
-0.00338417
-0.00352267
-0.00354105
-0.00344047
-0.00322226
-0.00288802
-0.00243951
-0.00187872
-0.00120784
-0.000429272
0.000454362
0.00144022
0.00252518
0.00370595
0.00497909
0.00634091
0.00778756
0.00931491
0.0109186
0.0125942
0.0143369
0.0161417
0.0180037
0.0199175
0.0218777
0.0238785
0.0259142
0.0279789
0.0300665
0.0321707
0.0342852
0.0364035
0.0385191
0.0406254
0.0427157
0.0447832
0.0468212
0.0488231
0.050782
0.0526913
0.0545445
0.0563349
0.0580562
0.0597022
0.0612668
0.0627443
0.0641289
0.0654156
0.0665991
0.0676748
0.0686382
0.0694853
0.0702124
0.0708164
0.0712944
0.0716441
0.0718635
0.0719511
0.0719058
0.0717272
0.071415
0.0709696
0.070392
0.0696832
0.0688447
0.0678783
0.0667861
0.0655704
0.0642338
0.0627791
0.0612091
0.0595265
0.0577341
0.0558347
0.0538296
0.0517198
0.0495217
0.0472492
0.0446987
0.041694
0.026702
0.0234109
0.0206468
0.0182151
0.015889
0.0136811
0.0116069
0.00966478
0.00785306
0.00617144
0.00461966
0.00319746
0.00190463
0.000740925
-0.00029389
-0.00120016
-0.00197833
-0.00262895
-0.00315267
-0.00355026
-0.00382266
-0.00397099
-0.0039965
-0.00390063
-0.00368499
-0.00335143
-0.00290197
-0.00233877
-0.00166422
-0.000880843
8.57772e-06
0.00100108
0.00209344
0.00328231
0.00456419
0.00593532
0.0073918
0.00892947
0.010544
0.0122309
0.0139854
0.0158025
0.0176772
0.0196043
0.0215782
0.0235934
0.025644
0.0277243
0.0298279
0.0319488
0.0340807
0.036217
0.0383513
0.0404768
0.042587
0.0446749
0.0467339
0.0487573
0.0507382
0.0526698
0.0545455
0.0563586
0.0581028
0.0597715
0.0613588
0.0628585
0.0642649
0.0655725
0.0667762
0.0678709
0.068852
0.0697153
0.0704568
0.071073
0.0715609
0.0719178
0.0721414
0.0722299
0.072182
0.0719967
0.0716736
0.0712127
0.0706146
0.0698799
0.0690098
0.0680058
0.0668695
0.0656031
0.0642088
0.0626891
0.0610464
0.0592834
0.0574027
0.0554068
0.0532969
0.0510741
0.0487556
0.0463562
0.0436607
0.0404832
0.0275213
0.02406
0.0211545
0.0186004
0.0161592
0.0138442
0.0116717
0.00963975
0.00774638
0.00599098
0.00437297
0.00289172
0.00154662
0.000337036
-0.00073772
-0.00167839
-0.00248582
-0.00316096
-0.00370484
-0.00411862
-0.00440362
-0.00456126
-0.00459311
-0.0045009
-0.00428653
-0.00395209
-0.00349982
-0.00293208
-0.00225144
-0.00146059
-0.000562456
0.000439878
0.0015431
0.00274379
0.00403836
0.00542297
0.00689366
0.00844627
0.0100765
0.0117797
0.0135511
0.0153858
0.0172789
0.0192249
0.0212184
0.0232539
0.0253256
0.0274274
0.0295535
0.0316975
0.0338531
0.0360139
0.0381733
0.0403247
0.0424612
0.0445761
0.0466626
0.0487139
0.0507231
0.0526833
0.0545878
0.0564298
0.0582028
0.0599001
0.0615156
0.063043
0.0644765
0.0658102
0.0670389
0.0681572
0.0691604
0.0700438
0.0708033
0.0714352
0.071936
0.0723028
0.072533
0.0726245
0.0725755
0.0723848
0.0720518
0.071576
0.0709576
0.0701969
0.0692949
0.0682526
0.0670715
0.0657533
0.0643001
0.062714
0.0609973
0.0591525
0.057182
0.0550883
0.0528726
0.0505359
0.0480964
0.0455697
0.0427291
0.0393791
0.0281945
0.0245641
0.0215179
0.0188419
0.0162858
0.0138638
0.0115928
0.00947065
0.00749518
0.00566544
0.00398061
0.00243971
0.00104177
-0.000214244
-0.00132939
-0.00230479
-0.00314166
-0.00384133
-0.00440521
-0.00483485
-0.00513187
-0.00529802
-0.00533516
-0.00524534
-0.0050307
-0.0046936
-0.00423646
-0.00366186
-0.00297256
-0.00217143
-0.00126153
-0.000246034
0.000871629
0.00208793
0.00339919
0.00480151
0.00629088
0.0078631
0.00951379
0.0112384
0.013032
0.0148897
0.0168065
0.0187772
0.0207962
0.022858
0.0249567
0.0270864
0.0292411
0.0314145
0.0336004
0.0357921
0.0379832
0.0401668
0.0423363
0.0444847
0.0466052
0.048691
0.0507349
0.0527301
0.0546697
0.0565468
0.0583547
0.0600867
0.0617362
0.063297
0.0647629
0.0661281
0.0673867
0.0685335
0.0695632
0.0704711
0.0712526
0.0719038
0.0724209
0.0728007
0.0730402
0.0731369
0.0730889
0.0728946
0.072553
0.0720632
0.0714252
0.0706389
0.069705
0.0686242
0.0673978
0.0660271
0.0645141
0.0628606
0.0610689
0.059141
0.0570796
0.0548871
0.0525644
0.0501128
0.0475514
0.0448967
0.0419107
0.038388
0.0287137
0.024915
0.0217287
0.018931
0.0162601
0.0137311
0.0113614
0.00914888
0.00709099
0.00518659
0.00343459
0.00183369
0.000382579
-0.000920108
-0.00207578
-0.00308592
-0.0039521
-0.00467603
-0.00525948
-0.00570432
-0.00601251
-0.0061861
-0.00622725
-0.00613829
-0.00592163
-0.00557984
-0.00511559
-0.00453166
-0.00383099
-0.00301662
-0.00209172
-0.00105961
7.61595e-05
0.00131195
0.00264401
0.00406836
0.00558094
0.00717748
0.00885356
0.0106045
0.0124256
0.0143117
0.016258
0.018259
0.0203093
0.0224032
0.0245351
0.0266988
0.0288885
0.0310977
0.0333202
0.0355494
0.0377786
0.0400012
0.0422102
0.0443987
0.0465599
0.0486866
0.0507719
0.0528086
0.0547897
0.0567082
0.0585573
0.0603299
0.0620195
0.0636195
0.0651236
0.0665256
0.0678195
0.0689998
0.0700609
0.0709977
0.0718056
0.07248
0.0730171
0.0734132
0.073665
0.0737698
0.0737252
0.0735294
0.0731808
0.0726785
0.0720218
0.0712107
0.0702453
0.0691262
0.0678543
0.0664309
0.0648575
0.0631359
0.0612682
0.0592564
0.057103
0.0548105
0.0523798
0.0498123
0.047128
0.0443445
0.0412122
0.0375161
0.0290713
0.0251046
0.0217784
0.0188591
0.0160736
0.0134374
0.010969
0.00866591
0.00652543
0.00454621
0.00272687
0.00106583
-0.00043852
-0.00178785
-0.0029839
-0.0040285
-0.00492361
-0.00567125
-0.00627355
-0.00673267
-0.0070509
-0.00723061
-0.00727424
-0.00718439
-0.00696371
-0.00661503
-0.00614123
-0.0055453
-0.00483036
-0.00399962
-0.00305637
-0.00200408
-0.00084642
0.00041286
0.00176991
0.0032207
0.00476107
0.0063867
0.00809313
0.00987565
0.0117294
0.0136494
0.0156307
0.0176677
0.0197552
0.0218874
0.0240584
0.0262625
0.0284934
0.0307448
0.0330104
0.0352835
0.0375575
0.0398256
0.0420808
0.0443161
0.0465246
0.048699
0.0508322
0.052917
0.0549462
0.0569126
0.0588091
0.0606288
0.0623646
0.0640099
0.065558
0.0670025
0.0683372
0.0695562
0.0706538
0.0716245
0.0724632
0.0731653
0.0737264
0.0741425
0.0744101
0.074526
0.0744876
0.0742925
0.0739391
0.0734259
0.0727522
0.0719173
0.0709213
0.0697643
0.0684472
0.066971
0.0653369
0.0635468
0.0616024
0.0595058
0.0572595
0.054866
0.0523263
0.0496416
0.0468333
0.04392
0.0406402
0.0367694
0.0292596
0.0251249
0.0216587
0.0186179
0.0157176
0.0129742
0.0104069
0.00801322
0.00579008
0.00373599
0.00184931
0.000128197
-0.00142922
-0.00282491
-0.00406095
-0.00513952
-0.00606289
-0.00683344
-0.00745357
-0.00792579
-0.00825269
-0.00843694
-0.00848128
-0.00838854
-0.00816164
-0.00780364
-0.00731766
-0.00670689
-0.00597462
-0.00512421
-0.00415912
-0.00308295
-0.0018995
-0.000612635
0.000773712
0.00225543
0.00382826
0.00548783
0.00722961
0.00904885
0.0109407
0.0129001
0.0149219
0.0170008
0.0191313
0.0213077
0.0235242
0.0257747
0.0280532
0.0303533
0.0326684
0.0349921
0.0373175
0.0396378
0.0419459
0.0442348
0.0464973
0.0487262
0.0509141
0.0530537
0.0551376
0.0571585
0.0591091
0.0609822
0.0627706
0.0644674
0.0660656
0.0675586
0.0689399
0.0702033
0.0713426
0.0723523
0.0732268
0.0739612
0.0745506
0.0749908
0.0752779
0.0754084
0.0753793
0.0751879
0.0748321
0.0743103
0.0736212
0.072764
0.0717385
0.0705446
0.0691828
0.0676539
0.0659593
0.0641002
0.0620787
0.0598967
0.0575567
0.0550611
0.0524112
0.0496082
0.0466746
0.0436299
0.0402012
0.0361538
0.0292709
0.0249679
0.0213615
0.0181988
0.0151836
0.0123328
0.00966666
0.00718226
0.00487648
0.00274756
0.000793678
-0.000987235
-0.00259734
-0.00403891
-0.00531434
-0.00642613
-0.00737687
-0.00816922
-0.00880593
-0.00928982
-0.00962379
-0.00981077
-0.00985379
-0.00975595
-0.0095204
-0.00915048
-0.0086495
-0.00802085
-0.00726799
-0.00639446
-0.00540388
-0.00430001
-0.00308675
-0.00176807
-0.000348016
0.0011692
0.00277924
0.00447766
0.00625987
0.0081211
0.0100564
0.0120606
0.0141288
0.0162554
0.0184349
0.0206615
0.0229295
0.0252329
0.0275653
0.0299205
0.0322918
0.0346726
0.0370562
0.0394354
0.0418033
0.0441526
0.0464759
0.0487661
0.0510156
0.0532168
0.0553623
0.0574445
0.0594559
0.0613891
0.0632367
0.0649914
0.0666461
0.0681938
0.0696277
0.0709413
0.0721282
0.0731823
0.0740978
0.0748694
0.0754919
0.0759607
0.0762715
0.0764204
0.0764041