/*--------------------------------*- C++ -*----------------------------------*\
| =========                 |                                                 |
| \\      /  F ield         | OpenFOAM: The Open Source CFD Toolbox           |
|  \\    /   O peration     | Version:  2212                                  |
|   \\  /    A nd           | Website:  www.openfoam.com                      |
|    \\/     M anipulation  |                                                 |
\*---------------------------------------------------------------------------*/
FoamFile
{
    version     2.0;
    format      ascii;
    arch        "LSB;label=32;scalar=64";
    class       surfaceScalarField;
    location    "0.0755";
    object      phi_0;
}
// * * * * * * * * * * * * * * * * * * * * * * * * * * * * * * * * * * * * * //

dimensions      [0 3 -1 0 0 0 0];

oriented        oriented;

internalField   nonuniform List<scalar> 
19800
(
6.94095e-11
-6.94669e-11
2.38129e-10
-1.6872e-10
4.23633e-10
-1.85488e-10
5.68823e-10
-1.45186e-10
6.41074e-10
-7.22585e-11
6.22426e-10
1.86461e-11
5.03904e-10
1.18533e-10
2.82206e-10
2.21714e-10
-4.23674e-11
3.2458e-10
-4.67162e-10
4.24801e-10
-9.88016e-10
5.20853e-10
-1.59974e-09
6.11721e-10
-2.29646e-09
6.96731e-10
-3.07188e-09
7.75426e-10
-3.91942e-09
8.4754e-10
-4.83233e-09
9.12912e-10
-5.80381e-09
9.71477e-10
-6.82704e-09
1.02322e-09
-7.89524e-09
1.0682e-09
-9.00175e-09
1.1065e-09
-1.014e-08
1.13824e-09
-1.13035e-08
1.16353e-09
-1.24861e-08
1.18255e-09
-1.36815e-08
1.19545e-09
-1.4884e-08
1.20242e-09
-1.60876e-08
1.20363e-09
-1.72869e-08
1.19929e-09
-1.84765e-08
1.18959e-09
-1.96512e-08
1.17474e-09
-2.08062e-08
1.15493e-09
-2.19365e-08
1.13038e-09
-2.30378e-08
1.10131e-09
-2.41057e-08
1.0679e-09
-2.51361e-08
1.03037e-09
-2.61251e-08
9.88945e-10
-2.70689e-08
9.43823e-10
-2.79641e-08
8.9523e-10
-2.88075e-08
8.43372e-10
-2.95959e-08
7.8846e-10
-3.03266e-08
7.30714e-10
-3.0997e-08
6.70346e-10
-3.16046e-08
6.07581e-10
-3.21472e-08
5.42642e-10
-3.2623e-08
4.75742e-10
-3.30301e-08
4.0711e-10
-3.33671e-08
3.36971e-10
-3.36326e-08
2.65548e-10
-3.38257e-08
1.93079e-10
-3.39455e-08
1.19796e-10
-3.39914e-08
4.59406e-11
-3.39632e-08
-2.82417e-11
-3.38607e-08
-1.0251e-10
-3.36841e-08
-1.76615e-10
-3.34338e-08
-2.50294e-10
-3.31105e-08
-3.233e-10
-3.27151e-08
-3.95379e-10
-3.22488e-08
-4.6626e-10
-3.17131e-08
-5.35673e-10
-3.11098e-08
-6.03354e-10
-3.04408e-08
-6.69023e-10
-2.97084e-08
-7.32396e-10
-2.89152e-08
-7.93206e-10
-2.8064e-08
-8.51186e-10
-2.71579e-08
-9.06054e-10
-2.62004e-08
-9.57536e-10
-2.5195e-08
-1.00536e-09
-2.41458e-08
-1.04926e-09
-2.30568e-08
-1.08895e-09
-2.19326e-08
-1.12419e-09
-2.07779e-08
-1.15471e-09
-1.95977e-08
-1.18026e-09
-1.83971e-08
-1.2006e-09
-1.71816e-08
-1.2155e-09
-1.59568e-08
-1.22474e-09
-1.47287e-08
-1.2281e-09
-1.35033e-08
-1.22539e-09
-1.22869e-08
-1.21644e-09
-1.10858e-08
-1.20108e-09
-9.90666e-09
-1.17917e-09
-8.75607e-09
-1.15059e-09
-7.64082e-09
-1.11524e-09
-6.56776e-09
-1.07306e-09
-5.54374e-09
-1.02403e-09
-4.57559e-09
-9.68134e-10
-3.67014e-09
-9.0544e-10
-2.83407e-09
-8.3606e-10
-2.07389e-09
-7.60179e-10
-1.39582e-09
-6.7807e-10
-8.05682e-10
-5.90135e-10
-3.08734e-10
-4.96945e-10
9.05672e-11
-3.99309e-10
3.88929e-10
-2.98372e-10
5.84716e-10
-1.95787e-10
6.78739e-10
-9.40124e-11
6.75513e-10
3.23497e-12
5.85321e-10
9.01935e-11
4.27391e-10
1.5793e-10
2.35328e-10
1.92072e-10
6.62676e-11
1.69075e-10
6.62677e-11
1.68766e-10
-2.38223e-10
4.63368e-10
-4.63346e-10
7.45247e-10
-4.67364e-10
9.14171e-10
-3.14099e-10
9.00614e-10
-5.86969e-11
6.60072e-10
2.5917e-10
1.66638e-10
6.11936e-10
-5.92248e-10
9.80587e-10
-1.61973e-09
1.35206e-09
-2.91223e-09
1.7173e-09
-4.46141e-09
2.07004e-09
-6.25559e-09
2.40589e-09
-8.28064e-09
2.72178e-09
-1.05208e-08
3.01559e-09
-1.29592e-08
3.2859e-09
-1.55781e-08
3.53179e-09
-1.83593e-08
3.75274e-09
-2.12846e-08
3.94851e-09
-2.43355e-08
4.11909e-09
-2.74936e-08
4.26465e-09
-3.07409e-08
4.38547e-09
-3.40593e-08
4.48198e-09
-3.74314e-08
4.55466e-09
-4.084e-08
4.60406e-09
-4.42684e-08
4.63081e-09
-4.77004e-08
4.63558e-09
-5.11201e-08
4.61905e-09
-5.45125e-08
4.58195e-09
-5.78627e-08
4.52502e-09
-6.11568e-08
4.44902e-09
-6.43812e-08
4.35474e-09
-6.75228e-08
4.24296e-09
-7.05694e-08
4.11448e-09
-7.35091e-08
3.97009e-09
-7.63308e-08
3.8106e-09
-7.90238e-08
3.63683e-09
-8.15782e-08
3.4496e-09
-8.39846e-08
3.24975e-09
-8.62342e-08
3.03808e-09
-8.83189e-08
2.81544e-09
-9.02312e-08
2.58268e-09
-9.19643e-08
2.34062e-09
-9.35118e-08
2.09013e-09
-9.48681e-08
1.83208e-09
-9.60283e-08
1.56733e-09
-9.69881e-08
1.29678e-09
-9.77439e-08
1.0213e-09
-9.82926e-08
7.41799e-10
-9.8632e-08
4.592e-10
-9.87605e-08
1.74425e-10
-9.86772e-08
-1.11585e-10
-9.83818e-08
-3.97865e-10
-9.7875e-08
-6.8345e-10
-9.71579e-08
-9.67366e-10
-9.62326e-08
-1.24861e-09
-9.51018e-08
-1.52618e-09
-9.3769e-08
-1.79906e-09
-9.22385e-08
-2.06621e-09
-9.05153e-08
-2.32659e-09
-8.86051e-08
-2.57915e-09
-8.65147e-08
-2.82284e-09
-8.42513e-08
-3.0566e-09
-8.18231e-08
-3.27937e-09
-7.92391e-08
-3.49011e-09
-7.65088e-08
-3.68776e-09
-7.36429e-08
-3.87127e-09
-7.06526e-08
-4.03962e-09
-6.75497e-08
-4.1918e-09
-6.43471e-08
-4.32681e-09
-6.10581e-08
-4.44367e-09
-5.76969e-08
-4.54145e-09
-5.42783e-08
-4.61926e-09
-5.08175e-08
-4.67622e-09
-4.73308e-08
-4.7115e-09
-4.38345e-08
-4.72435e-09
-4.03458e-08
-4.71407e-09
-3.68823e-08
-4.68e-09
-3.34618e-08
-4.62158e-09
-3.01026e-08
-4.53833e-09
-2.68233e-08
-4.42987e-09
-2.36427e-08
-4.29592e-09
-2.05794e-08
-4.13632e-09
-1.76524e-08
-3.95107e-09
-1.48802e-08
-3.74035e-09
-1.22811e-08
-3.50454e-09
-9.8729e-09
-3.24425e-09
-7.67266e-09
-2.96043e-09
-5.6963e-09
-2.65442e-09
-3.95832e-09
-2.32811e-09
-2.47121e-09
-1.98405e-09
-1.24478e-09
-1.62575e-09
-2.85114e-10
-1.25803e-09
4.06685e-10
-8.87578e-10
8.36451e-10
-5.23776e-10
1.0196e-09
-1.7992e-10
9.84842e-10
1.24947e-10
7.7918e-10
3.63603e-10
4.73808e-10
4.9746e-10
1.68978e-10
4.73904e-10
2.35242e-10
1.86265e-10
-4.24477e-10
4.69712e-10
-7.46797e-10
6.80017e-10
-6.77678e-10
6.96521e-10
-3.306e-10
4.31884e-10
2.05956e-10
-1.73427e-10
8.64504e-10
-1.15663e-09
1.59514e-09
-2.53769e-09
2.36165e-09
-4.32347e-09
3.13782e-09
-6.51094e-09
3.90477e-09
-9.0897e-09
4.64881e-09
-1.20439e-08
5.36005e-09
-1.53535e-08
6.03138e-09
-1.89956e-08
6.65772e-09
-2.29452e-08
7.23551e-09
-2.71758e-08
7.76235e-09
-3.16597e-08
8.23671e-09
-3.6369e-08
8.65777e-09
-4.12751e-08
9.02521e-09
-4.63496e-08
9.33915e-09
-5.15642e-08
9.60001e-09
-5.68907e-08
9.80853e-09
-6.23017e-08
9.96561e-09
-6.77699e-08
1.00723e-08
-7.32691e-08
1.013e-08
-7.87734e-08
1.01398e-08
-8.42577e-08
1.01034e-08
-8.96979e-08
1.00221e-08
-9.50705e-08
9.89761e-09
-1.00353e-07
9.73148e-09
-1.05524e-07
9.52539e-09
-1.10562e-07
9.28102e-09
-1.15447e-07
9.00009e-09
-1.20161e-07
8.68433e-09
-1.24686e-07
8.33551e-09
-1.29005e-07
7.9554e-09
-1.33101e-07
7.54578e-09
-1.3696e-07
7.10845e-09
-1.40567e-07
6.64524e-09
-1.4391e-07
6.15798e-09
-1.46975e-07
5.64851e-09
-1.49753e-07
5.11869e-09
-1.52234e-07
4.5704e-09
-1.54407e-07
4.00554e-09
-1.56266e-07
3.42603e-09
-1.57803e-07
2.83381e-09
-1.59012e-07
2.23085e-09
-1.5989e-07
1.61913e-09
-1.60431e-07
1.00066e-09
-1.60634e-07
3.77501e-10
-1.60498e-07
-2.48288e-10
-1.60021e-07
-8.74607e-10
-1.59205e-07
-1.49932e-09
-1.58052e-07
-2.12028e-09
-1.56565e-07
-2.7353e-09
-1.54749e-07
-3.34219e-09
-1.5261e-07
-3.93869e-09
-1.50153e-07
-4.52256e-09
-1.47389e-07
-5.09152e-09
-1.44324e-07
-5.64328e-09
-1.40972e-07
-6.17555e-09
-1.37342e-07
-6.68603e-09
-1.33449e-07
-7.17241e-09
-1.29307e-07
-7.63241e-09
-1.24931e-07
-8.06374e-09
-1.20338e-07
-8.46414e-09
-1.15546e-07
-8.83139e-09
-1.10575e-07
-9.16329e-09
-1.05444e-07
-9.4577e-09
-1.00175e-07
-9.71255e-09
-9.47907e-08
-9.92581e-09
-8.93144e-08
-1.00955e-08
-8.37707e-08
-1.02199e-08
-7.8185e-08
-1.02972e-08
-7.25835e-08
-1.03258e-08
-6.69934e-08
-1.03042e-08
-6.14423e-08
-1.02311e-08
-5.59585e-08
-1.01054e-08
-5.05708e-08
-9.92606e-09
-4.53082e-08
-9.69245e-09
-4.02001e-08
-9.40407e-09
-3.52756e-08
-9.06075e-09
-3.0564e-08
-8.66268e-09
-2.60939e-08
-8.21044e-09
-2.18934e-08
-7.70509e-09
-1.79893e-08
-7.14829e-09
-1.44073e-08
-6.54243e-09
-1.1171e-08
-5.89079e-09
-8.30125e-09
-5.19783e-09
-5.81575e-09
-4.46955e-09
-3.72755e-09
-3.71395e-09
-2.04382e-09
-2.94176e-09
-7.64006e-10
-2.16738e-09
1.22557e-10
-1.41033e-09
6.39757e-10
-6.97112e-10
8.28594e-10
-6.38815e-11
7.51918e-10
4.40289e-10
4.99428e-10
7.49951e-10
1.92556e-10
7.80769e-10
4.27801e-10
1.47677e-10
-5.72145e-10
3.21548e-10
-9.20665e-10
3.41963e-10
-6.98096e-10
8.03258e-11
-6.89846e-11
-5.57714e-10
8.4398e-10
-1.63842e-09
1.94521e-09
-3.20484e-09
3.16156e-09
-5.2812e-09
4.43801e-09
-7.87678e-09
5.73341e-09
-1.0989e-08
7.01702e-09
-1.46062e-08
8.26594e-09
-1.87093e-08
9.46318e-09
-2.32741e-08
1.05962e-08
-2.8272e-08
1.16557e-08
-3.36717e-08
1.26351e-08
-3.94391e-08
1.35298e-08
-4.55391e-08
1.43367e-08
-5.19351e-08
1.50538e-08
-5.85903e-08
1.56803e-08
-6.54672e-08
1.62161e-08
-7.25287e-08
1.66615e-08
-7.97378e-08
1.70176e-08
-8.70578e-08
1.72856e-08
-9.44529e-08
1.74674e-08
-1.01888e-07
1.75648e-08
-1.09328e-07
1.75801e-08
-1.1674e-07
1.75156e-08
-1.24092e-07
1.73737e-08
-1.31351e-07
1.71572e-08
-1.38489e-07
1.68688e-08
-1.45475e-07
1.65113e-08
-1.52281e-07
1.60874e-08
-1.58881e-07
1.56003e-08
-1.6525e-07
1.50528e-08
-1.71362e-07
1.4448e-08
-1.77196e-07
1.37889e-08
-1.82728e-07
1.30786e-08
-1.8794e-07
1.23203e-08
-1.92812e-07
1.1517e-08
-1.97326e-07
1.0672e-08
-2.01466e-07
9.78849e-09
-2.05217e-07
8.86966e-09
-2.08565e-07
7.9188e-09
-2.11499e-07
6.93922e-09
-2.14007e-07
5.93426e-09
-2.16081e-07
4.90729e-09
-2.17712e-07
3.86173e-09
-2.18894e-07
2.80106e-09
-2.19622e-07
1.72877e-09
-2.19893e-07
6.48426e-10
-2.19705e-07
-4.36366e-10
-2.19057e-07
-1.52196e-09
-2.17952e-07
-2.60467e-09
-2.16392e-07
-3.68074e-09
-2.1438e-07
-4.74638e-09
-2.11925e-07
-5.79777e-09
-2.09033e-07
-6.83103e-09
-2.05713e-07
-7.84227e-09
-2.01977e-07
-8.82753e-09
-1.97837e-07
-9.78289e-09
-1.93308e-07
-1.07044e-08
-1.88406e-07
-1.1588e-08
-1.83149e-07
-1.24298e-08
-1.77556e-07
-1.32258e-08
-1.71647e-07
-1.39721e-08
-1.65447e-07
-1.46649e-08
-1.58978e-07
-1.53002e-08
-1.52267e-07
-1.58745e-08
-1.4534e-07
-1.63839e-08
-1.38228e-07
-1.68249e-08
-1.3096e-07
-1.71942e-08
-1.23567e-07
-1.74884e-08
-1.16082e-07
-1.77045e-08
-1.0854e-07
-1.78394e-08
-1.00975e-07
-1.78906e-08
-9.34236e-08
-1.78556e-08
-8.59225e-08
-1.77322e-08
-7.85093e-08
-1.75186e-08
-7.1222e-08
-1.72133e-08
-6.40992e-08
-1.68153e-08
-5.71793e-08
-1.6324e-08
-5.05008e-08
-1.57392e-08
-4.41018e-08
-1.50617e-08
-3.80196e-08
-1.42926e-08
-3.22905e-08
-1.34342e-08
-2.69491e-08
-1.24897e-08
-2.2028e-08
-1.14636e-08
-1.75568e-08
-1.0362e-08
-1.35616e-08
-9.19303e-09
-1.00638e-08
-7.96737e-09
-7.07871e-09
-6.699e-09
-4.61424e-09
-5.40624e-09
-2.66852e-09
-4.1131e-09
-1.22767e-09
-2.85117e-09
-2.62715e-10
-1.66206e-09
2.73936e-10
-6.00528e-10
4.52679e-10
2.61549e-10
3.71172e-10
8.31457e-10
1.60128e-10
9.91811e-10
5.87937e-10
7.72276e-11
-6.4937e-10
7.33125e-11
-9.16734e-10
-1.82092e-10
-4.42666e-10
-8.14874e-10
5.63802e-10
-1.91878e-09
1.94788e-09
-3.56082e-09
3.58724e-09
-5.78538e-09
5.38612e-09
-8.61796e-09
7.2706e-09
-1.20685e-08
9.18389e-09
-1.61339e-08
1.10825e-08
-2.08012e-08
1.29332e-08
-2.60488e-08
1.47108e-08
-3.18489e-08
1.63962e-08
-3.81683e-08
1.79751e-08
-4.49701e-08
1.9437e-08
-5.22147e-08
2.07743e-08
-5.98598e-08
2.19819e-08
-6.78622e-08
2.30562e-08
-7.61774e-08
2.39955e-08
-8.47605e-08
2.47991e-08
-9.35663e-08
2.54674e-08
-1.0255e-07
2.60013e-08
-1.11667e-07
2.64027e-08
-1.20874e-07
2.66739e-08
-1.30126e-07
2.68176e-08
-1.39383e-07
2.6837e-08
-1.48603e-07
2.67354e-08
-1.57746e-07
2.65165e-08
-1.66773e-07
2.61843e-08
-1.75647e-07
2.57427e-08
-1.84331e-07
2.51959e-08
-1.92792e-07
2.45482e-08
-2.00996e-07
2.38041e-08
-2.08911e-07
2.2968e-08
-2.16507e-07
2.20445e-08
-2.23757e-07
2.10382e-08
-2.30632e-07
1.99538e-08
-2.37108e-07
1.87962e-08
-2.43161e-07
1.75699e-08
-2.48769e-07
1.628e-08
-2.53912e-07
1.49313e-08
-2.58571e-07
1.35287e-08
-2.62729e-07
1.20773e-08
-2.66372e-07
1.0582e-08
-2.69486e-07
9.04814e-09
-2.72059e-07
7.48071e-09
-2.74082e-07
5.885e-09
-2.75548e-07
4.26631e-09
-2.76449e-07
2.63002e-09
-2.76782e-07
9.81551e-10
-2.76545e-07
-6.73577e-10
-2.75737e-07
-2.32978e-09
-2.7436e-07
-3.9814e-09
-2.72418e-07
-5.62275e-09
-2.69917e-07
-7.24802e-09
-2.66863e-07
-8.85137e-09
-2.63267e-07
-1.04269e-08
-2.59141e-07
-1.19687e-08
-2.54498e-07
-1.34708e-08
-2.49353e-07
-1.4927e-08
-2.43726e-07
-1.63315e-08
-2.37636e-07
-1.76782e-08
-2.31105e-07
-1.89611e-08
-2.24156e-07
-2.01741e-08
-2.16817e-07
-2.13114e-08
-2.09115e-07
-2.23671e-08
-2.0108e-07
-2.33354e-08
-1.92744e-07
-2.42106e-08
-1.8414e-07
-2.49873e-08
-1.75305e-07
-2.56601e-08
-1.66275e-07
-2.62239e-08
-1.5709e-07
-2.66738e-08
-1.47789e-07
-2.70051e-08
-1.38415e-07
-2.72136e-08
-1.2901e-07
-2.72953e-08
-1.19619e-07
-2.72466e-08
-1.10287e-07
-2.70644e-08
-1.0106e-07
-2.67462e-08
-9.19831e-08
-2.62899e-08
-8.31044e-08
-2.5694e-08
-7.44702e-08
-2.49581e-08
-6.61271e-08
-2.40823e-08
-5.8121e-08
-2.30678e-08
-5.04965e-08
-2.19171e-08
-4.32971e-08
-2.06337e-08
-3.65637e-08
-1.9223e-08
-3.0335e-08
-1.76924e-08
-2.46455e-08
-1.60515e-08
-1.95255e-08
-1.4313e-08
-1.49997e-08
-1.24932e-08
-1.10854e-08
-1.06133e-08
-7.79127e-09
-8.70036e-09
-5.11526e-09
-6.7891e-09
-3.04223e-09
-4.92421e-09
-1.54126e-09
-3.16303e-09
-5.6264e-10
-1.57914e-09
-3.4379e-11
-2.66706e-10
1.4173e-10
6.55353e-10
9.53061e-11
1.03824e-09
6.83246e-10
-1.078e-11
-6.38598e-10
-2.36587e-10
-6.90943e-10
-8.2741e-10
1.48169e-10
-1.89835e-09
1.63475e-09
-3.53664e-09
3.58617e-09
-5.8054e-09
5.85599e-09
-8.74675e-09
8.32747e-09
-1.23847e-08
1.09086e-08
-1.6728e-08
1.35271e-08
-2.17721e-08
1.61266e-08
-2.75019e-08
1.8663e-08
-3.38933e-08
2.11022e-08
-4.0915e-08
2.3418e-08
-4.85301e-08
2.55902e-08
-5.66971e-08
2.76039e-08
-6.53708e-08
2.9448e-08
-7.45036e-08
3.11147e-08
-8.40459e-08
3.25985e-08
-9.39469e-08
3.38965e-08
-1.04155e-07
3.50072e-08
-1.14618e-07
3.59305e-08
-1.25284e-07
3.66675e-08
-1.36102e-07
3.72204e-08
-1.4702e-07
3.75921e-08
-1.57989e-07
3.7786e-08
-1.68958e-07
3.78064e-08
-1.7988e-07
3.76577e-08
-1.90709e-07
3.73449e-08
-2.01398e-07
3.68733e-08
-2.11903e-07
3.62485e-08
-2.22184e-07
3.54761e-08
-2.32198e-07
3.45622e-08
-2.41906e-07
3.35128e-08
-2.51273e-07
3.23342e-08
-2.60261e-07
3.10327e-08
-2.68838e-07
2.96149e-08
-2.76971e-07
2.80873e-08
-2.84632e-07
2.64565e-08
-2.91791e-07
2.47294e-08
-2.98424e-07
2.29126e-08
-3.04505e-07
2.10131e-08
-3.10015e-07
1.90379e-08
-3.14931e-07
1.69939e-08
-3.19238e-07
1.48884e-08
-3.22918e-07
1.27285e-08
-3.25959e-07
1.05216e-08
-3.28349e-07
8.27495e-09
-3.30079e-07
5.9961e-09
-3.31141e-07
3.69262e-09
-3.31532e-07
1.37218e-09
-3.31248e-07
-9.57454e-10
-3.30289e-07
-3.28844e-09
-3.28658e-07
-5.6128e-09
-3.26358e-07
-7.92248e-09
-3.23397e-07
-1.02094e-08
-3.19783e-07
-1.24652e-08
-3.15528e-07
-1.46818e-08
-3.10646e-07
-1.68507e-08
-3.05153e-07
-1.89635e-08
-2.99069e-07
-2.10118e-08
-2.92413e-07
-2.29872e-08
-2.8521e-07
-2.48812e-08
-2.77485e-07
-2.66855e-08
-2.69268e-07
-2.83915e-08
-2.60588e-07
-2.99911e-08
-2.5148e-07
-3.1476e-08
-2.41977e-07
-3.28383e-08
-2.32117e-07
-3.40701e-08
-2.21941e-07
-3.51636e-08
-2.11489e-07
-3.61116e-08
-2.00806e-07
-3.69069e-08
-1.89937e-07
-3.75428e-08
-1.7893e-07
-3.80129e-08
-1.67832e-07
-3.83113e-08
-1.56695e-07
-3.84326e-08
-1.45569e-07
-3.83722e-08
-1.34508e-07
-3.81257e-08
-1.23564e-07
-3.76898e-08
-1.12792e-07
-3.70619e-08
-1.02246e-07
-3.62405e-08
-9.19789e-08
-3.52249e-08
-8.20454e-08
-3.40158e-08
-7.24979e-08
-3.26154e-08
-6.33877e-08
-3.10273e-08
-5.47641e-08
-2.92572e-08
-4.6674e-08
-2.73131e-08
-3.91608e-08
-2.52055e-08
-3.22638e-08
-2.29485e-08
-2.60169e-08
-2.05599e-08
-2.04476e-08
-1.80625e-08
-1.55756e-08
-1.54853e-08
-1.14111e-08
-1.28649e-08
-7.95292e-09
-1.02472e-08
-5.1867e-09
-7.69042e-09
-3.08234e-09
-5.26739e-09
-1.59163e-09
-3.06985e-09
-6.455e-10
-1.21283e-09
-1.51045e-10
1.60904e-10
1.22682e-11
8.74934e-10
6.95509e-10
-1.0782e-10
-5.30766e-10
-5.82201e-10
-2.16571e-10
-1.54754e-09
1.11352e-09
-3.1029e-09
3.19011e-09
-5.32462e-09
5.80789e-09
-8.26834e-09
8.79971e-09
-1.1971e-08
1.20301e-08
-1.64527e-08
1.53903e-08
-2.17192e-08
1.87936e-08
-2.77632e-08
2.21706e-08
-3.45668e-08
2.54667e-08
-4.21031e-08
2.86385e-08
-5.03374e-08
3.16522e-08
-5.92288e-08
3.44817e-08
-6.87317e-08
3.71068e-08
-7.87963e-08
3.95126e-08
-8.937e-08
4.16883e-08
-1.00398e-07
4.36262e-08
-1.11823e-07
4.53216e-08
-1.23588e-07
4.67722e-08
-1.35634e-07
4.79772e-08
-1.47905e-07
4.89378e-08
-1.60341e-07
4.96563e-08
-1.72885e-07
5.01361e-08
-1.8548e-07
5.03816e-08
-1.98072e-07
5.03979e-08
-2.10605e-07
5.01908e-08
-2.23027e-07
4.97666e-08
-2.35286e-07
4.91321e-08
-2.47332e-07
4.82945e-08
-2.59117e-07
4.72613e-08
-2.70595e-07
4.60402e-08
-2.81721e-07
4.46393e-08
-2.92454e-07
4.30667e-08
-3.02752e-07
4.1331e-08
-3.12578e-07
3.94406e-08
-3.21894e-07
3.74042e-08
-3.30669e-07
3.52307e-08
-3.38868e-07
3.29289e-08
-3.46464e-07
3.0508e-08
-3.53428e-07
2.79771e-08
-3.59735e-07
2.53455e-08
-3.65364e-07
2.26226e-08
-3.70293e-07
1.98178e-08
-3.74505e-07
1.69407e-08
-3.77985e-07
1.40012e-08
-3.80719e-07
1.1009e-08
-3.82697e-07
7.97404e-09
-3.83911e-07
4.90652e-09
-3.84355e-07
1.8166e-09
-3.84027e-07
-1.28535e-09
-3.82927e-07
-4.38887e-09
-3.81056e-07
-7.48337e-09
-3.78421e-07
-1.05581e-08
-3.75028e-07
-1.36023e-08
-3.70888e-07
-1.66051e-08
-3.66014e-07
-1.95553e-08
-3.60423e-07
-2.2442e-08
-3.54133e-07
-2.52539e-08
-3.47165e-07
-2.79799e-08
-3.39543e-07
-3.06088e-08
-3.31295e-07
-3.31295e-08
-3.2245e-07
-3.55307e-08
-3.1304e-07
-3.78014e-08
-3.031e-07
-3.99307e-08
-2.92668e-07
-4.19078e-08
-2.81785e-07
-4.3722e-08
-2.70492e-07
-4.53631e-08
-2.58834e-07
-4.6821e-08
-2.4686e-07
-4.80859e-08
-2.34618e-07
-4.91487e-08
-2.2216e-07
-5.00005e-08
-2.0954e-07
-5.0633e-08
-1.96813e-07
-5.10385e-08
-1.84035e-07
-5.12103e-08
-1.71266e-07
-5.11421e-08
-1.58563e-07
-5.08286e-08
-1.45987e-07
-5.02657e-08
-1.33598e-07
-4.94503e-08
-1.21458e-07
-4.83806e-08
-1.09627e-07
-4.70562e-08
-9.81642e-08
-4.54784e-08
-8.7129e-08
-4.36505e-08
-7.65785e-08
-4.15778e-08
-6.65675e-08
-3.92683e-08
-5.71477e-08
-3.67328e-08
-4.83673e-08
-3.39859e-08
-4.02696e-08
-3.10462e-08
-3.28921e-08
-2.79374e-08
-2.62654e-08
-2.46892e-08
-2.04118e-08
-2.13389e-08
-1.5344e-08
-1.79327e-08
-1.10632e-08
-1.45281e-08
-7.55731e-09
-1.11963e-08
-4.79953e-09
-8.02515e-09
-2.74611e-09
-5.12328e-09
-1.33445e-09
-2.62449e-09
-4.81242e-10
-6.92298e-10
-8.04072e-11
4.74098e-10
6.15096e-10
-2.08748e-10
-3.22005e-10
-9.464e-10
5.21078e-10
-2.31017e-09
2.47729e-09
-4.3801e-09
5.26004e-09
-7.21874e-09
8.64653e-09
-1.08716e-08
1.24525e-08
-1.53679e-08
1.65264e-08
-2.07221e-08
2.07446e-08
-2.69352e-08
2.50067e-08
-3.39961e-08
2.92315e-08
-4.18831e-08
3.33537e-08
-5.05658e-08
3.73212e-08
-6.00059e-08
4.10923e-08
-7.01588e-08
4.46346e-08
-8.09747e-08
4.79227e-08
-9.23995e-08
5.09374e-08
-1.04376e-07
5.36646e-08
-1.16844e-07
5.60942e-08
-1.29742e-07
5.82196e-08
-1.43007e-07
6.00371e-08
-1.56575e-07
6.15456e-08
-1.70383e-07
6.27458e-08
-1.84367e-07
6.36402e-08
-1.98463e-07
6.42326e-08
-2.1261e-07
6.45284e-08
-2.26746e-07
6.45336e-08
-2.4081e-07
6.42554e-08
-2.54745e-07
6.37014e-08
-2.68493e-07
6.28801e-08
-2.81999e-07
6.18004e-08
-2.95209e-07
6.04717e-08
-3.08073e-07
5.89037e-08
-3.2054e-07
5.71067e-08
-3.32564e-07
5.50909e-08
-3.441e-07
5.28669e-08
-3.55106e-07
5.04457e-08
-3.6554e-07
4.78383e-08
-3.75365e-07
4.50558e-08
-3.84546e-07
4.21097e-08
-3.93049e-07
3.90116e-08
-4.00845e-07
3.5773e-08
-4.07905e-07
3.24059e-08
-4.14205e-07
2.89223e-08
-4.19722e-07
2.53343e-08
-4.24435e-07
2.16541e-08
-4.28328e-07
1.78942e-08
-4.31386e-07
1.40672e-08
-4.33598e-07
1.01859e-08
-4.34955e-07
6.26312e-09
-4.3545e-07
2.31196e-09
-4.35081e-07
-1.65437e-09
-4.33848e-07
-5.62247e-09
-4.31752e-07
-9.57881e-09
-4.28801e-07
-1.35097e-08
-4.25002e-07
-1.74014e-08
-4.20367e-07
-2.12398e-08
-4.14911e-07
-2.50111e-08
-4.08652e-07
-2.8701e-08
-4.01611e-07
-3.22953e-08
-3.93811e-07
-3.57799e-08
-3.85279e-07
-3.91404e-08
-3.76046e-07
-4.23626e-08
-3.66144e-07
-4.54325e-08
-3.5561e-07
-4.83359e-08
-3.44481e-07
-5.1059e-08
-3.32801e-07
-5.3588e-08
-3.20613e-07
-5.59097e-08
-3.07966e-07
-5.80109e-08
-2.94908e-07
-5.98789e-08
-2.81492e-07
-6.15015e-08
-2.67774e-07
-6.28671e-08
-2.5381e-07
-6.39645e-08
-2.39659e-07
-6.47834e-08
-2.25383e-07
-6.53144e-08
-2.11045e-07
-6.55488e-08
-1.96708e-07
-6.54792e-08
-1.82437e-07
-6.5099e-08
-1.683e-07
-6.44034e-08
-1.54362e-07
-6.33885e-08
-1.40689e-07
-6.20527e-08
-1.2735e-07
-6.03958e-08
-1.14408e-07
-5.84199e-08
-1.01929e-07
-5.61295e-08
-8.99753e-08
-5.3532e-08
-7.86057e-08
-5.06378e-08
-6.78772e-08
-4.74613e-08
-5.78423e-08
-4.40209e-08
-4.85482e-08
-4.03403e-08
-4.00362e-08
-3.64494e-08
-3.23403e-08
-3.23851e-08
-2.54862e-08
-2.8193e-08
-1.94896e-08
-2.39293e-08
-1.43553e-08
-1.96624e-08
-1.00756e-08
-1.5476e-08
-6.62859e-09
-1.14721e-08
-3.97744e-09
-7.77443e-09
-2.06867e-09
-4.53326e-09
-8.31531e-10
-1.92944e-09
-1.77448e-10
-1.7999e-10
4.37647e-10
-3.10494e-10
-1.15012e-11
-1.31809e-09
1.52869e-09
-3.09324e-09
4.25245e-09
-5.69573e-09
7.86253e-09
-9.17255e-09
1.21234e-08
-1.35572e-08
1.68372e-08
-1.88696e-08
2.18388e-08
-2.51167e-08
2.69917e-08
-3.22934e-08
3.21834e-08
-4.03836e-08
3.73217e-08
-4.93612e-08
4.23314e-08
-5.91915e-08
4.71515e-08
-6.98323e-08
5.17331e-08
-8.12348e-08
5.60372e-08
-9.33453e-08
6.00332e-08
-1.06105e-07
6.36975e-08
-1.19453e-07
6.70125e-08
-1.33325e-07
6.99655e-08
-1.47653e-07
7.25478e-08
-1.6237e-07
7.47545e-08
-1.77408e-07
7.65835e-08
-1.92698e-07
7.80352e-08
-2.0817e-07
7.91122e-08
-2.23756e-07
7.98189e-08
-2.39389e-07
8.01612e-08
-2.55001e-07
8.01464e-08
-2.70529e-07
7.97827e-08
-2.85907e-07
7.90796e-08
-3.01074e-07
7.80471e-08
-3.1597e-07
7.66961e-08
-3.30536e-07
7.50378e-08
-3.44716e-07
7.30842e-08
-3.58457e-07
7.08477e-08
-3.71708e-07
6.8341e-08
-3.84418e-07
6.5577e-08
-3.96541e-07
6.25692e-08
-4.08034e-07
5.93312e-08
-4.18855e-07
5.58767e-08
-4.28965e-07
5.22199e-08
-4.38329e-07
4.8375e-08
-4.46912e-07
4.43564e-08
-4.54685e-07
4.01789e-08
-4.6162e-07
3.58572e-08
-4.67692e-07
3.14064e-08
-4.7288e-07
2.68418e-08
-4.77164e-07
2.21786e-08
-4.8053e-07
1.74326e-08
-4.82963e-07
1.26195e-08
-4.84455e-07
7.75532e-09
-4.85e-07
2.85622e-09
-4.84593e-07
-2.06142e-09
-4.83234e-07
-6.98101e-09
-4.80927e-07
-1.18858e-08
-4.77678e-07
-1.67589e-08
-4.73496e-07
-2.15832e-08
-4.68394e-07
-2.63414e-08
-4.62389e-07
-3.10163e-08
-4.555e-07
-3.55903e-08
-4.47749e-07
-4.0046e-08
-4.39163e-07
-4.43657e-08
-4.29772e-07
-4.85319e-08
-4.19607e-07
-5.25271e-08
-4.08706e-07
-5.63338e-08
-3.97107e-07
-5.99348e-08
-3.84853e-07
-6.3313e-08
-3.7199e-07
-6.64515e-08
-3.58565e-07
-6.9334e-08
-3.44632e-07
-7.19444e-08
-3.30244e-07
-7.42671e-08
-3.15458e-07
-7.62872e-08
-3.00334e-07
-7.79905e-08
-2.84935e-07
-7.93635e-08
-2.69325e-07
-8.03937e-08
-2.5357e-07
-8.10695e-08
-2.37738e-07
-8.13806e-08
-2.21899e-07
-8.13181e-08
-2.06124e-07
-8.08742e-08
-1.90484e-07
-8.00432e-08
-1.75052e-07
-7.88209e-08
-1.59899e-07
-7.72055e-08
-1.45098e-07
-7.51972e-08
-1.30719e-07
-7.2799e-08
-1.16831e-07
-7.00171e-08
-1.03502e-07
-6.68607e-08
-9.07971e-08
-6.33431e-08
-7.87762e-08
-5.94822e-08
-6.74964e-08
-5.53008e-08
-5.70089e-08
-5.08278e-08
-4.7359e-08
-4.60993e-08
-3.85845e-08
-4.11596e-08
-3.0715e-08
-3.60625e-08
-2.37706e-08
-3.08737e-08
-1.77607e-08
-2.56723e-08
-1.2683e-08
-2.05537e-08
-8.52258e-09
-1.56326e-08
-5.25096e-09
-1.10461e-08
-2.82575e-09
-6.95846e-09
-1.19056e-09
-3.56462e-09
-2.7568e-10
-1.09487e-09
1.61969e-10
-4.11261e-10
3.99754e-10
-1.69021e-09
2.80763e-09
-3.88197e-09
6.44421e-09
-7.026e-09
1.10065e-08
-1.11529e-08
1.62502e-08
-1.6283e-08
2.19672e-08
-2.24255e-08
2.79813e-08
-2.95788e-08
3.4145e-08
-3.77306e-08
4.03352e-08
-4.68587e-08
4.64497e-08
-5.69315e-08
5.24042e-08
-6.79098e-08
5.81297e-08
-7.97466e-08
6.357e-08
-9.23892e-08
6.86798e-08
-1.05779e-07
7.34234e-08
-1.19855e-07
7.77727e-08
-1.34549e-07
8.17067e-08
-1.49793e-07
8.52098e-08
-1.65517e-07
8.82713e-08
-1.81647e-07
9.08848e-08
-1.98111e-07
9.30473e-08
-2.14834e-07
9.47588e-08
-2.31744e-07
9.60219e-08
-2.48766e-07
9.68415e-08
-2.6583e-07
9.72243e-08
-2.82862e-07
9.71785e-08
-2.99793e-07
9.67139e-08
-3.16555e-07
9.58414e-08
-3.3308e-07
9.45728e-08
-3.49305e-07
9.29209e-08
-3.65167e-07
9.08992e-08
-3.80604e-07
8.85219e-08
-3.9556e-07
8.58037e-08
-4.09979e-07
8.27597e-08
-4.23808e-07
7.94057e-08
-4.36996e-07
7.57576e-08
-4.49497e-07
7.18318e-08
-4.61265e-07
6.76449e-08
-4.72259e-07
6.32139e-08
-4.8244e-07
5.85559e-08
-4.91772e-07
5.36884e-08
-5.00222e-07
4.8629e-08
-5.0776e-07
4.33958e-08
-5.14361e-07
3.80068e-08
-5.2e-07
3.24805e-08
-5.24656e-07
2.68354e-08
-5.28314e-07
2.10904e-08
-5.30959e-07
1.52646e-08
-5.32581e-07
9.37734e-09
-5.33173e-07
3.44814e-09
-5.32731e-07
-2.5032e-09
-5.31256e-07
-8.45667e-09
-5.28749e-07
-1.4392e-08
-5.25219e-07
-2.02889e-08
-5.20676e-07
-2.61266e-08
-5.15133e-07
-3.18844e-08
-5.08608e-07
-3.75414e-08
-5.01122e-07
-4.30764e-08
-4.92699e-07
-4.84685e-08
-4.83369e-07
-5.36964e-08
-4.73161e-07
-5.8739e-08
-4.62113e-07
-6.35753e-08
-4.50263e-07
-6.81842e-08
-4.37653e-07
-7.25451e-08
-4.24328e-07
-7.66373e-08
-4.10339e-07
-8.04409e-08
-3.95737e-07
-8.39359e-08
-3.80578e-07
-8.71033e-08
-3.64921e-07
-8.99245e-08
-3.48826e-07
-9.23815e-08
-3.32359e-07
-9.44575e-08
-3.15587e-07
-9.61364e-08
-2.98577e-07
-9.74033e-08
-2.81402e-07
-9.82447e-08
-2.64134e-07
-9.86482e-08
-2.46849e-07
-9.86034e-08
-2.29622e-07
-9.81015e-08
-2.12529e-07
-9.71356e-08
-1.95649e-07
-9.57013e-08
-1.79057e-07
-9.37967e-08
-1.62832e-07
-9.14224e-08
-1.47049e-07
-8.85826e-08
-1.31781e-07
-8.52848e-08
-1.17101e-07
-8.15406e-08
-1.03078e-07
-7.73662e-08
-8.97771e-08
-7.2783e-08
-7.72595e-08
-6.78184e-08
-6.55807e-08
-6.25066e-08
-5.47902e-08
-5.68898e-08
-4.49302e-08
-5.10196e-08
-3.60348e-08
-4.49578e-08
-2.81292e-08
-3.87793e-08
-2.12285e-08
-3.2573e-08
-1.5337e-08
-2.64452e-08
-1.04478e-08
-2.05217e-08
-6.54244e-09
-1.49515e-08
-3.59055e-09
-9.91034e-09
-1.55103e-09
-5.60415e-09
-3.73227e-10
-2.27267e-09
-2.11259e-10
-5.1006e-10
9.09814e-10
-2.05838e-09
4.35595e-09
-4.66672e-09
9.05256e-09
-8.35478e-09
1.46946e-08
-1.31366e-08
2.10321e-08
-1.90188e-08
2.78493e-08
-2.5999e-08
3.49616e-08
-3.40661e-08
4.22121e-08
-4.31996e-08
4.94687e-08
-5.33703e-08
5.66204e-08
-6.45409e-08
6.35748e-08
-7.66663e-08
7.02552e-08
-8.9695e-08
7.65986e-08
-1.03569e-07
8.25542e-08
-1.18227e-07
8.80808e-08
-1.33601e-07
9.31464e-08
-1.4962e-07
9.77262e-08
-1.66212e-07
1.01802e-07
-1.83302e-07
1.05361e-07
-2.00812e-07
1.08395e-07
-2.18665e-07
1.109e-07
-2.36783e-07
1.12877e-07
-2.55088e-07
1.14327e-07
-2.73502e-07
1.15256e-07
-2.91948e-07
1.1567e-07
-3.10351e-07
1.15581e-07
-3.28636e-07
1.14999e-07
-3.46729e-07
1.13935e-07
-3.64562e-07
1.12405e-07
-3.82063e-07
1.10423e-07
-3.99168e-07
1.08004e-07
-4.15811e-07
1.05165e-07
-4.31931e-07
1.01923e-07
-4.47468e-07
9.82972e-08
-4.62367e-07
9.43045e-08
-4.76573e-07
8.99642e-08
-4.90037e-07
8.52955e-08
-5.0271e-07
8.03181e-08
-5.14548e-07
7.50519e-08
-5.2551e-07
6.95173e-08
-5.35556e-07
6.37349e-08
-5.44653e-07
5.77257e-08
-5.52768e-07
5.15107e-08
-5.59873e-07
4.51116e-08
-5.65942e-07
3.855e-08
-5.70955e-07
3.1848e-08
-5.74893e-07
2.50281e-08
-5.77741e-07
1.81126e-08
-5.79488e-07
1.11246e-08
-5.80127e-07
4.08721e-09
-5.79654e-07
-2.97618e-09
-5.78069e-07
-1.00419e-08
-5.75375e-07
-1.7086e-08
-5.71579e-07
-2.40842e-08
-5.66694e-07
-3.10124e-08
-5.60732e-07
-3.78457e-08
-5.53714e-07
-4.45596e-08
-5.45661e-07
-5.11291e-08
-5.36601e-07
-5.75294e-08
-5.26562e-07
-6.37354e-08
-5.15578e-07
-6.97223e-08
-5.03688e-07
-7.54651e-08
-4.90934e-07
-8.09391e-08
-4.77359e-07
-8.612e-08
-4.63013e-07
-9.09835e-08
-4.47948e-07
-9.55059e-08
-4.32219e-07
-9.96641e-08
-4.15887e-07
-1.03435e-07
-3.99014e-07
-1.06798e-07
-3.81664e-07
-1.09731e-07
-3.63906e-07
-1.12215e-07
-3.45812e-07
-1.14231e-07
-3.27454e-07
-1.15761e-07
-3.08909e-07
-1.1679e-07
-2.90254e-07
-1.17303e-07
-2.71569e-07
-1.17289e-07
-2.52934e-07
-1.16737e-07
-2.3443e-07
-1.1564e-07
-2.16139e-07
-1.13992e-07
-1.98144e-07
-1.11792e-07
-1.80525e-07
-1.09041e-07
-1.63364e-07
-1.05744e-07
-1.46739e-07
-1.0191e-07
-1.30726e-07
-9.75535e-08
-1.15399e-07
-9.26931e-08
-1.00828e-07
-8.7354e-08
-8.70782e-08
-8.15681e-08
-7.42098e-08
-7.5375e-08
-6.22769e-08
-6.88228e-08
-5.13266e-08
-6.19699e-08
-4.13982e-08
-5.48863e-08
-3.25226e-08
-4.76549e-08
-2.47215e-08
-4.03741e-08
-1.80069e-08
-3.31598e-08
-1.23809e-08
-2.61477e-08
-7.8354e-09
-1.94969e-08
-4.35315e-09
-1.33926e-08
-1.9084e-09
-8.0489e-09
-4.69018e-10
-3.71204e-09
-6.80282e-10
-6.06354e-10
1.51617e-09
-2.42001e-09
6.16961e-09
-5.44142e-09
1.2074e-08
-9.67151e-09
1.89247e-08
-1.51081e-08
2.64687e-08
-2.17437e-08
3.44849e-08
-2.95641e-08
4.2782e-08
-3.85479e-08
5.11959e-08
-4.86658e-08
5.95866e-08
-5.98811e-08
6.78357e-08
-7.21497e-08
7.58433e-08
-8.54206e-08
8.35261e-08
-9.96368e-08
9.08148e-08
-1.14736e-07
9.76531e-08
-1.3065e-07
1.03995e-07
-1.47308e-07
1.09805e-07
-1.64636e-07
1.15054e-07
-1.82555e-07
1.19721e-07
-2.00987e-07
1.23793e-07
-2.1985e-07
1.27258e-07
-2.39062e-07
1.30113e-07
-2.58542e-07
1.32356e-07
-2.78206e-07
1.33991e-07
-2.97974e-07
1.35023e-07
-3.17763e-07
1.3546e-07
-3.37494e-07
1.35313e-07
-3.5709e-07
1.34594e-07
-3.76471e-07
1.33317e-07
-3.95566e-07
1.31499e-07
-4.14299e-07
1.29156e-07
-4.32601e-07
1.26306e-07
-4.50405e-07
1.22969e-07
-4.67645e-07
1.19163e-07
-4.84258e-07
1.1491e-07
-5.00185e-07
1.10232e-07
-5.15369e-07
1.05149e-07
-5.29757e-07
9.96836e-08
-5.43299e-07
9.38595e-08
-5.55946e-07
8.76996e-08
-5.67656e-07
8.12273e-08
-5.78388e-07
7.44667e-08
-5.88105e-07
6.74422e-08
-5.96772e-07
6.01783e-08
-6.04361e-07
5.27002e-08
-6.10844e-07
4.50331e-08
-6.16199e-07
3.72028e-08
-6.20406e-07
2.92352e-08
-6.2345e-07
2.11566e-08
-6.25319e-07
1.29938e-08
-6.26006e-07
4.77363e-09
-6.25505e-07
-3.47661e-09
-6.23818e-07
-1.17294e-08
-6.20947e-07
-1.99567e-08
-6.169e-07
-2.81307e-08
-6.1169e-07
-3.62227e-08
-6.05331e-07
-4.42044e-08
-5.97844e-07
-5.20469e-08
-5.89252e-07
-5.97214e-08
-5.79582e-07
-6.71988e-08