/*--------------------------------*- C++ -*----------------------------------*\
| =========                 |                                                 |
| \\      /  F ield         | OpenFOAM: The Open Source CFD Toolbox           |
|  \\    /   O peration     | Version:  2212                                  |
|   \\  /    A nd           | Website:  www.openfoam.com                      |
|    \\/     M anipulation  |                                                 |
\*---------------------------------------------------------------------------*/
FoamFile
{
    version     2.0;
    format      ascii;
    arch        "LSB;label=32;scalar=64";
    class       surfaceScalarField;
    location    "0.046";
    object      phi;
}
// * * * * * * * * * * * * * * * * * * * * * * * * * * * * * * * * * * * * * //

dimensions      [0 3 -1 0 0 0 0];

oriented        oriented;

internalField   nonuniform List<scalar> 
19800
(
6.42594e-11
-6.4282e-11
2.14662e-10
-1.50383e-10
3.75724e-10
-1.61068e-10
4.97303e-10
-1.21584e-10
5.50912e-10
-5.36154e-11
5.2092e-10
3.00001e-11
3.99711e-10
1.212e-10
1.84695e-10
2.15027e-10
-1.23434e-10
3.08123e-10
-5.21974e-10
3.98545e-10
-1.0069e-09
4.84936e-10
-1.5733e-09
5.66398e-10
-2.21567e-09
6.42382e-10
-2.92819e-09
7.12513e-10
-3.70479e-09
7.76603e-10
-4.5393e-09
8.34524e-10
-5.42553e-09
8.86244e-10
-6.35728e-09
9.31759e-10
-7.32842e-09
9.71137e-10
-8.33288e-09
1.00446e-09
-9.36476e-09
1.03186e-09
-1.04183e-08
1.0535e-09
-1.14878e-08
1.06949e-09
-1.25678e-08
1.08e-09
-1.3653e-08
1.08521e-09
-1.47383e-08
1.0853e-09
-1.58188e-08
1.08046e-09
-1.68896e-08
1.07085e-09
-1.79463e-08
1.05668e-09
-1.89844e-08
1.03813e-09
-1.99998e-08
1.01539e-09
-2.09885e-08
9.88647e-10
-2.19466e-08
9.58096e-10
-2.28705e-08
9.23939e-10
-2.37569e-08
8.86362e-10
-2.46024e-08
8.45555e-10
-2.54041e-08
8.01714e-10
-2.61592e-08
7.55028e-10
-2.68648e-08
7.05686e-10
-2.75187e-08
6.53884e-10
-2.81185e-08
5.99811e-10
-2.86622e-08
5.43665e-10
-2.91478e-08
4.85639e-10
-2.95738e-08
4.25918e-10
-2.99385e-08
3.64693e-10
-3.02406e-08
3.02159e-10
-3.04791e-08
2.38518e-10
-3.06531e-08
1.73974e-10
-3.07618e-08
1.08725e-10
-3.08048e-08
4.29738e-11
-3.07817e-08
-2.30721e-11
-3.06925e-08
-8.92088e-11
-3.05373e-08
-1.55216e-10
-3.03165e-08
-2.20869e-10
-3.00305e-08
-2.85958e-10
-2.96802e-08
-3.50257e-10
-2.92667e-08
-4.13536e-10
-2.87911e-08
-4.75572e-10
-2.8255e-08
-5.36132e-10
-2.766e-08
-5.94971e-10
-2.70082e-08
-6.51853e-10
-2.63016e-08
-7.06541e-10
-2.55428e-08
-7.58788e-10
-2.47345e-08
-8.08346e-10
-2.38795e-08
-8.54977e-10
-2.29811e-08
-8.9844e-10
-2.20426e-08
-9.38494e-10
-2.10677e-08
-9.74901e-10
-2.00603e-08
-1.00742e-09
-1.90245e-08
-1.0358e-09
-1.79646e-08
-1.05983e-09
-1.68854e-08
-1.07927e-09
-1.57915e-08
-1.09391e-09
-1.46879e-08
-1.10355e-09
-1.35799e-08
-1.10799e-09
-1.24729e-08
-1.10705e-09
-1.13723e-08
-1.10054e-09
-1.0284e-08
-1.0883e-09
-9.21384e-09
-1.07018e-09
-8.16779e-09
-1.04604e-09
-7.152e-09
-1.0158e-09
-6.17264e-09
-9.79362e-10
-5.23595e-09
-9.36684e-10
-4.3482e-09
-8.87751e-10
-3.51562e-09
-8.32581e-10
-2.74439e-09
-7.71234e-10
-2.04055e-09
-7.03837e-10
-1.40995e-09
-6.30603e-10
-8.58104e-10
-5.51851e-10
-3.90053e-10
-4.68052e-10
-1.01625e-11
-3.79886e-10
2.78188e-10
-2.88347e-10
4.73042e-10
-1.94856e-10
5.74607e-10
-1.01567e-10
5.86373e-10
-1.17674e-11
5.16947e-10
6.94282e-11
3.82975e-10
1.33974e-10
2.14155e-10
1.68821e-10
6.18997e-11
1.52253e-10
6.18999e-11
1.5231e-10
-2.16573e-10
4.10802e-10
-4.08927e-10
6.48844e-10
-3.991e-10
7.77551e-10
-2.50297e-10
7.35853e-10
-1.19127e-11
4.85081e-10
2.80772e-10
3.1249e-12
6.03167e-10
-7.20065e-10
9.38221e-10
-1.68646e-09
1.27452e-09
-2.89193e-09
1.604e-09
-4.3282e-09
1.92118e-09
-5.98407e-09
2.22226e-09
-7.84631e-09
2.50461e-09
-9.90028e-09
2.76647e-09
-1.21304e-08
3.00668e-09
-1.45204e-08
3.22451e-09
-1.70537e-08
3.41959e-09
-1.97137e-08
3.59177e-09
-2.24837e-08
3.74109e-09
-2.5347e-08
3.86778e-09
-2.82873e-08
3.97218e-09
-3.12885e-08
4.05472e-09
-3.43349e-08
4.11586e-09
-3.7411e-08
4.15618e-09
-4.05021e-08
4.17626e-09
-4.35935e-08
4.17675e-09
-4.66713e-08
4.1583e-09
-4.97221e-08
4.12159e-09
-5.27327e-08
4.06732e-09
-5.56908e-08
3.99619e-09
-5.85843e-08
3.90893e-09
-6.14019e-08
3.80624e-09
-6.41327e-08
3.68888e-09
-6.67663e-08
3.55757e-09
-6.9293e-08
3.41304e-09
-7.17035e-08
3.25603e-09
-7.3989e-08
3.08728e-09
-7.61415e-08
2.90752e-09
-7.81534e-08
2.71751e-09
-8.00175e-08
2.51797e-09
-8.17273e-08
2.30965e-09
-8.32769e-08
2.09329e-09
-8.46609e-08
1.86963e-09
-8.58744e-08
1.63943e-09
-8.69131e-08
1.40343e-09
-8.77734e-08
1.16241e-09
-8.8452e-08
9.17123e-10
-8.89464e-08
6.68353e-10
-8.92545e-08
4.16887e-10
-8.93751e-08
1.63513e-10
-8.93072e-08
-9.09635e-11
-8.90507e-08
-3.4572e-10
-8.8606e-08
-5.99934e-10
-8.79741e-08
-8.52764e-10
-8.71567e-08
-1.10336e-09
-8.61561e-08
-1.35085e-09
-8.49753e-08
-1.59436e-09
-8.36178e-08
-1.833e-09
-8.20881e-08
-2.06586e-09
-8.0391e-08
-2.29206e-09
-7.85322e-08
-2.51066e-09
-7.6518e-08
-2.72074e-09
-7.43554e-08
-2.92138e-09
-7.20521e-08
-3.11163e-09
-6.96165e-08
-3.29056e-09
-6.70577e-08
-3.45725e-09
-6.43854e-08
-3.61079e-09
-6.16101e-08
-3.75026e-09
-5.87427e-08
-3.87476e-09
-5.57951e-08
-3.98338e-09
-5.27797e-08
-4.07527e-09
-4.97094e-08
-4.14958e-09
-4.65978e-08
-4.2055e-09
-4.3459e-08
-4.24228e-09
-4.03079e-08
-4.25919e-09
-3.71594e-08
-4.25553e-09
-3.40292e-08
-4.23067e-09
-3.09335e-08
-4.18404e-09
-2.78886e-08
-4.11512e-09
-2.49111e-08
-4.02349e-09
-2.20181e-08
-3.90882e-09
-1.92266e-08
-3.77091e-09
-1.65536e-08
-3.60966e-09
-1.40162e-08
-3.42513e-09
-1.16313e-08
-3.21754e-09
-9.41516e-09
-2.98734e-09
-7.38375e-09
-2.73526e-09
-5.55201e-09
-2.46235e-09
-3.93371e-09
-2.17015e-09
-2.54094e-09
-1.86083e-09
-1.38343e-09
-1.53739e-09
-4.67777e-10
-1.20402e-09
2.03891e-10
-8.66533e-10
6.35538e-10
-5.33221e-10
8.39671e-10
-2.15912e-10
8.40763e-10
6.83294e-11
6.7986e-10
2.94878e-10
4.20209e-10
4.28472e-10
1.52188e-10
4.20272e-10
2.14096e-10
1.65025e-10
-3.81602e-10
4.07149e-10
-6.51036e-10
5.71623e-10
-5.63578e-10
5.51103e-10
-2.29784e-10
2.68793e-10
2.70401e-10
-3.2706e-10
8.76631e-10
-1.26814e-09
1.54425e-09
-2.57086e-09
2.24095e-09
-4.23984e-09
2.94351e-09
-6.27109e-09
3.63525e-09
-8.65409e-09
4.30418e-09
-1.13735e-08
4.94172e-09
-1.44106e-08
5.54173e-09
-1.77441e-08
6.09993e-09
-2.13507e-08
6.61334e-09
-2.52063e-08
7.08003e-09
-2.92855e-08
7.4988e-09
-3.35628e-08
7.86908e-09
-3.80124e-08
8.19072e-09
-4.26087e-08
8.46399e-09
-4.73259e-08
8.68942e-09
-5.2139e-08
8.86776e-09
-5.70231e-08
8.99995e-09
-6.1954e-08
9.08708e-09
-6.6908e-08
9.13034e-09
-7.18623e-08
9.13105e-09
-7.67946e-08
9.09056e-09
-8.16833e-08
9.01031e-09
-8.65078e-08
8.89176e-09
-9.1248e-08
8.73642e-09
-9.58849e-08
8.54583e-09
-1.004e-07
8.32154e-09
-1.04776e-07
8.06513e-09
-1.08997e-07
7.7782e-09
-1.13046e-07
7.46234e-09
-1.16909e-07
7.11913e-09
-1.20572e-07
6.75019e-09
-1.24022e-07
6.35713e-09
-1.27246e-07
5.94157e-09
-1.30233e-07
5.50514e-09
-1.32973e-07
5.04945e-09
-1.35456e-07
4.57614e-09
-1.37673e-07
4.08685e-09
-1.39617e-07
3.58322e-09
-1.4128e-07
3.06691e-09
-1.42658e-07
2.53961e-09
-1.43743e-07
2.003e-09
-1.44534e-07
1.45879e-09
-1.45026e-07
9.08705e-10
-1.45217e-07
3.54493e-10
-1.45106e-07
-2.02078e-10
-1.44692e-07
-7.59202e-10
-1.43977e-07
-1.31506e-09
-1.42962e-07
-1.86781e-09
-1.4165e-07
-2.41559e-09
-1.40044e-07
-2.9565e-09
-1.3815e-07
-3.48861e-09
-1.35973e-07
-4.00999e-09
-1.3352e-07
-4.51866e-09
-1.30799e-07
-5.01264e-09
-1.2782e-07
-5.48994e-09
-1.24592e-07
-5.94853e-09
-1.21127e-07
-6.3864e-09
-1.17437e-07
-6.80151e-09
-1.13536e-07
-7.19186e-09
-1.09438e-07
-7.55542e-09
-1.05159e-07
-7.8902e-09
-1.00715e-07
-8.19423e-09
-9.61238e-08
-8.46556e-09
-9.14049e-08
-8.70227e-09
-8.65777e-08
-8.90251e-09
-8.16628e-08
-9.06447e-09
-7.66818e-08
-9.18645e-09
-7.16573e-08
-9.2668e-09
-6.66125e-08
-9.30399e-09
-6.15714e-08
-9.29657e-09
-5.65589e-08
-9.24325e-09
-5.16001e-08
-9.14284e-09
-4.67208e-08
-8.99433e-09
-4.19474e-08
-8.79694e-09
-3.73062e-08
-8.55006e-09
-3.28237e-08
-8.25336e-09
-2.85266e-08
-7.90681e-09
-2.4441e-08
-7.51073e-09
-2.05927e-08
-7.06585e-09
-1.70066e-08
-6.5734e-09
-1.37066e-08
-6.03527e-09
-1.07148e-08
-5.45414e-09
-8.05117e-09
-4.83375e-09
-5.73283e-09
-4.17918e-09
-3.7729e-09
-3.49732e-09
-2.17939e-09
-2.79751e-09
-9.53502e-10
-2.09242e-09
-8.74156e-11
-1.39931e-09
4.38519e-10
-7.4185e-10
6.59395e-10
-1.52535e-10
6.30171e-10
3.24115e-10
4.30463e-10
6.2818e-10
1.6935e-10
6.8139e-10
3.8345e-10
1.26702e-10
-5.08312e-10
2.63314e-10
-7.87655e-10
2.48122e-10
-5.48378e-10
-3.31845e-11
5.15158e-11
-6.6354e-10
9.00773e-10
-1.70053e-09
1.91362e-09
-3.1808e-09
3.02452e-09
-5.12422e-09
4.18436e-09
-7.53732e-09
5.35661e-09
-1.04162e-08
6.51411e-09
-1.37488e-08
7.63678e-09
-1.75169e-08
8.70982e-09
-2.16975e-08
9.72236e-09
-2.62642e-08
1.06665e-08
-3.11876e-08
1.15368e-08
-3.64369e-08
1.23293e-08
-4.19796e-08
1.30416e-08
-4.77828e-08
1.36722e-08
-5.38127e-08
1.42206e-08
-6.00357e-08
1.4687e-08
-6.64182e-08
1.50719e-08
-7.29269e-08
1.53765e-08
-7.95291e-08
1.56021e-08
-8.61925e-08
1.57505e-08
-9.28856e-08
1.58235e-08
-9.95779e-08
1.58233e-08
-1.0624e-07
1.57522e-08
-1.12842e-07
1.56125e-08
-1.19357e-07
1.54067e-08
-1.25758e-07
1.51373e-08
-1.32019e-07
1.48069e-08
-1.38115e-07
1.44183e-08
-1.44024e-07
1.3974e-08
-1.49723e-07
1.34769e-08
-1.5519e-07
1.29295e-08
-1.60406e-07
1.23348e-08
-1.65351e-07
1.16955e-08
-1.70008e-07
1.10143e-08
-1.74361e-07
1.02941e-08
-1.78393e-07
9.5376e-09
-1.82091e-07
8.74773e-09
-1.85443e-07
7.9273e-09
-1.88435e-07
7.07913e-09
-1.91058e-07
6.20611e-09
-1.93302e-07
5.31112e-09
-1.9516e-07
4.39709e-09
-1.96623e-07
3.46695e-09
-1.97688e-07
2.52368e-09
-1.9835e-07
1.57029e-09
-1.98605e-07
6.09813e-10
-1.98453e-07
-3.54664e-10
-1.97892e-07
-1.32003e-09
-1.96924e-07
-2.2831e-09
-1.95551e-07
-3.24068e-09
-1.93777e-07
-4.18953e-09
-1.91607e-07
-5.12635e-09
-1.89048e-07
-6.04781e-09
-1.86107e-07
-6.95055e-09
-1.82795e-07
-7.83117e-09
-1.79121e-07
-8.68623e-09
-1.75099e-07
-9.51227e-09
-1.70742e-07
-1.03058e-08
-1.66065e-07
-1.10634e-08
-1.61085e-07
-1.17815e-08
-1.5582e-07
-1.24567e-08
-1.5029e-07
-1.30855e-08
-1.44515e-07
-1.36644e-08
-1.3852e-07
-1.41902e-08
-1.32326e-07
-1.46594e-08
-1.25959e-07
-1.50688e-08
-1.19446e-07
-1.54153e-08
-1.12815e-07
-1.56957e-08
-1.06094e-07
-1.59072e-08
-9.93142e-08
-1.60471e-08
-9.25055e-08
-1.61126e-08
-8.57005e-08
-1.61016e-08
-7.89321e-08
-1.60117e-08
-7.22337e-08
-1.58412e-08
-6.56397e-08
-1.55883e-08
-5.91846e-08
-1.5252e-08
-5.29033e-08
-1.48314e-08
-4.68307e-08
-1.4326e-08
-4.10014e-08
-1.37361e-08
-3.54496e-08
-1.30625e-08
-3.02086e-08
-1.23068e-08
-2.53105e-08
-1.14715e-08
-2.07855e-08
-1.05602e-08
-1.66617e-08
-9.57794e-09
-1.29639e-08
-8.53158e-09
-9.71284e-09
-7.43025e-09
-6.92411e-09
-6.28605e-09
-4.60664e-09
-5.11498e-09
-2.76085e-09
-3.93822e-09
-1.37637e-09
-2.7838e-09
-4.29311e-10
-1.6889e-09
1.21049e-10
-7.02882e-10
3.36126e-10
1.09036e-10
3.02278e-10
6.62023e-10
1.36171e-10
8.47504e-10
5.19618e-10
6.01354e-11
-5.68455e-10
3.05887e-11
-7.5811e-10
-2.40552e-10
-2.77228e-10
-8.64672e-10
6.75639e-10
-1.92397e-09
1.96008e-09
-3.4765e-09
3.46615e-09
-5.55995e-09
5.10799e-09
-8.19515e-09
6.81956e-09
-1.1389e-08
8.55042e-09
-1.5137e-08
1.02621e-08
-1.94256e-08
1.19254e-08
-2.42342e-08
1.35184e-08
-2.95363e-08
1.50244e-08
-3.53011e-08
1.64314e-08
-4.14946e-08
1.77302e-08
-4.808e-08
1.89148e-08
-5.50191e-08
1.99807e-08
-6.22724e-08
2.09254e-08
-6.97994e-08
2.17477e-08
-7.75596e-08
2.24472e-08
-8.55124e-08
2.30247e-08
-9.36174e-08
2.34814e-08
-1.01834e-07
2.38192e-08
-1.10125e-07
2.40405e-08
-1.18449e-07
2.41479e-08
-1.2677e-07
2.41446e-08
-1.35052e-07
2.40337e-08
-1.43258e-07
2.38187e-08
-1.51355e-07
2.35034e-08
-1.59309e-07
2.30915e-08
-1.67089e-07
2.25868e-08
-1.74664e-07
2.19934e-08
-1.82005e-07
2.13153e-08
-1.89085e-07
2.05565e-08
-1.95876e-07
1.97213e-08
-2.02355e-07
1.88139e-08
-2.08498e-07
1.78383e-08
-2.14283e-07
1.67989e-08
-2.19689e-07
1.57e-08
-2.24697e-07
1.45457e-08
-2.2929e-07
1.33405e-08
-2.33451e-07
1.20886e-08
-2.37166e-07
1.07944e-08
-2.40423e-07
9.46234e-09
-2.43208e-07
8.09677e-09
-2.45513e-07
6.70216e-09
-2.47329e-07
5.28304e-09
-2.4865e-07
3.84396e-09
-2.49469e-07
2.38951e-09
-2.49783e-07
9.24351e-10
-2.49591e-07
-5.46804e-10
-2.48892e-07
-2.01918e-09
-2.47687e-07
-3.48794e-09
-2.4598e-07
-4.94821e-09
-2.43774e-07
-6.395e-09
-2.41077e-07
-7.82331e-09
-2.37897e-07
-9.22805e-09
-2.34244e-07
-1.06041e-08
-2.30128e-07
-1.19463e-08
-2.25565e-07
-1.32494e-08
-2.20569e-07
-1.45081e-08
-2.15158e-07
-1.57172e-08
-2.0935e-07
-1.68714e-08
-2.03166e-07
-1.79654e-08
-1.96629e-07
-1.8994e-08
-1.89763e-07
-1.99518e-08
-1.82593e-07
-2.08338e-08
-1.75149e-07
-2.16348e-08
-1.67458e-07
-2.23497e-08
-1.59553e-07
-2.29738e-08
-1.51466e-07
-2.35023e-08
-1.43231e-07
-2.39306e-08
-1.34884e-07
-2.42544e-08
-1.26461e-07
-2.44696e-08
-1.18002e-07
-2.45724e-08
-1.09544e-07
-2.45592e-08
-1.01129e-07
-2.44271e-08
-9.27966e-08
-2.41731e-08
-8.45897e-08
-2.37953e-08
-7.65498e-08
-2.32919e-08
-6.87194e-08
-2.26618e-08
-6.11405e-08
-2.19049e-08
-5.38549e-08
-2.10217e-08
-4.69036e-08
-2.00138e-08
-4.03264e-08
-1.8884e-08
-3.41614e-08
-1.76365e-08
-2.84443e-08
-1.62773e-08
-2.32079e-08
-1.48143e-08
-1.8481e-08
-1.32585e-08
-1.42875e-08
-1.16238e-08
-1.0645e-08
-9.92849e-09
-7.56362e-09
-8.19639e-09
-5.04368e-09
-6.45817e-09
-3.07395e-09
-4.75352e-09
-1.62906e-09
-3.13379e-09
-6.66663e-10
-1.66528e-09
-1.24235e-10
-4.33405e-10
8.45277e-11
4.53255e-10
7.44155e-11
8.57618e-10
5.94029e-10
-2.14108e-11
-5.47034e-10
-2.55573e-10
-5.23957e-10
-8.34791e-10
3.02004e-10
-1.86024e-09
1.70109e-09
-3.40796e-09
3.5078e-09
-5.53233e-09
5.59053e-09
-8.26889e-09
7.84454e-09
-1.1637e-08
1.01877e-08
-1.56423e-08
1.25557e-08
-2.02789e-08
1.48987e-08
-2.55313e-08
1.71778e-08
-3.13763e-08
1.93634e-08
-3.77844e-08
2.14325e-08
-4.4721e-08
2.3368e-08
-5.21479e-08
2.51571e-08
-6.00235e-08
2.67904e-08
-6.83044e-08
2.82616e-08
-7.69454e-08
2.95664e-08
-8.59004e-08
3.07027e-08
-9.51227e-08
3.16695e-08
-1.04565e-07
3.24674e-08
-1.14182e-07
3.30979e-08
-1.23926e-07
3.35631e-08
-1.33751e-07
3.38661e-08
-1.43614e-07
3.40104e-08
-1.53469e-07
3.40001e-08
-1.63275e-07
3.38395e-08
-1.7299e-07
3.35334e-08
-1.82573e-07
3.30867e-08
-1.91986e-07
3.25046e-08
-2.01192e-07
3.17924e-08
-2.10154e-07
3.09557e-08
-2.18839e-07
3.00001e-08
-2.27214e-07
2.89312e-08
-2.35247e-07
2.77549e-08
-2.42911e-07
2.6477e-08
-2.50176e-07
2.51033e-08
-2.57016e-07
2.36398e-08
-2.63409e-07
2.20926e-08
-2.69331e-07
2.04675e-08
-2.74761e-07
1.87707e-08
-2.79681e-07
1.70083e-08
-2.84073e-07
1.51864e-08
-2.87922e-07
1.33112e-08
-2.91214e-07
1.13889e-08
-2.93937e-07
9.42586e-09
-2.96083e-07
7.42837e-09
-2.97642e-07
5.40288e-09
-2.98608e-07
3.35587e-09
-2.98978e-07
1.29392e-09
-2.98748e-07
-7.76334e-10
-2.97919e-07
-2.84816e-09
-2.96492e-07
-4.91476e-09
-2.94471e-07
-6.96923e-09
-2.91862e-07
-9.0046e-09
-2.88671e-07
-1.10138e-08
-2.8491e-07
-1.29897e-08
-2.80589e-07
-1.49251e-08
-2.75722e-07
-1.68127e-08
-2.70326e-07
-1.86452e-08
-2.64419e-07
-2.04152e-08
-2.58021e-07
-2.21153e-08
-2.51154e-07
-2.37382e-08
-2.43843e-07
-2.52765e-08
-2.36115e-07
-2.67227e-08
-2.27997e-07
-2.80696e-08
-2.19521e-07
-2.931e-08
-2.10719e-07
-3.04367e-08
-2.01626e-07
-3.14428e-08
-1.92278e-07
-3.23216e-08
-1.82714e-07
-3.30664e-08
-1.72973e-07
-3.36711e-08
-1.63098e-07
-3.41295e-08
-1.53132e-07
-3.44362e-08
-1.43118e-07
-3.45859e-08
-1.33104e-07
-3.45739e-08
-1.23135e-07
-3.43959e-08
-1.13259e-07
-3.40486e-08
-1.03526e-07
-3.35289e-08
-9.39826e-08
-3.2835e-08
-8.46788e-08
-3.19656e-08
-7.56631e-08
-3.09207e-08
-6.69833e-08
-2.97015e-08
-5.86864e-08
-2.83107e-08
-5.08179e-08
-2.67526e-08
-4.3421e-08
-2.50334e-08
-3.65362e-08
-2.3162e-08
-3.02005e-08
-2.11501e-08
-2.44461e-08
-1.90129e-08
-1.92999e-08
-1.677e-08
-1.47816e-08
-1.44467e-08
-1.09029e-08
-1.20751e-08
-7.66528e-09
-9.69582e-09
-5.05826e-09
-7.36055e-09
-3.05743e-09
-5.13462e-09
-1.62209e-09
-3.10064e-09
-6.92692e-10
-1.3628e-09
-1.88264e-10
-5.11734e-11
-3.05789e-12
6.72405e-10
5.90973e-10
-1.1034e-10
-4.36694e-10
-5.71751e-10
-6.25369e-11
-1.49262e-09
1.22289e-09
-2.95919e-09
3.16766e-09
-5.03743e-09
5.58605e-09
-7.77484e-09
8.32793e-09
-1.12021e-08
1.12718e-08
-1.53351e-08
1.43207e-08
-2.01766e-08
1.73972e-08
-2.57182e-08
2.04403e-08
-3.19419e-08
2.34015e-08
-3.88216e-08
2.62431e-08
-4.63247e-08
2.89356e-08
-5.44132e-08
3.14566e-08
-6.30449e-08
3.37887e-08
-7.21741e-08
3.59196e-08
-8.17526e-08
3.784e-08
-9.17303e-08
3.95442e-08
-1.02056e-07
4.10284e-08
-1.12678e-07
4.22911e-08
-1.23543e-07
4.33326e-08
-1.34599e-07
4.41541e-08
-1.45794e-07
4.47585e-08
-1.57078e-07
4.51493e-08
-1.68398e-07
4.53309e-08
-1.79706e-07
4.53083e-08
-1.90954e-07
4.50871e-08
-2.02094e-07
4.46733e-08
-2.13081e-07
4.40735e-08
-2.2387e-07
4.32941e-08
-2.3442e-07
4.23424e-08
-2.4469e-07
4.12254e-08
-2.5464e-07
3.99505e-08
-2.64234e-07
3.85253e-08
-2.73437e-07
3.69572e-08
-2.82214e-07
3.52541e-08
-2.90534e-07
3.34237e-08
-2.98368e-07
3.1474e-08
-3.05688e-07
2.94127e-08
-3.12469e-07
2.72481e-08
-3.18686e-07
2.4988e-08
-3.24318e-07
2.26406e-08
-3.29346e-07
2.02141e-08
-3.33752e-07
1.77167e-08
-3.37519e-07
1.51568e-08
-3.40636e-07
1.25427e-08
-3.43091e-07
9.88284e-09
-3.44874e-07
7.18587e-09
-3.45978e-07
4.4604e-09
-3.464e-07
1.71519e-09
-3.46135e-07
-1.04092e-09
-3.45184e-07
-3.79897e-09
-3.43549e-07
-6.54987e-09
-3.41234e-07
-9.28447e-09
-3.38245e-07
-1.19935e-08
-3.34591e-07
-1.46675e-08
-3.30284e-07
-1.7297e-08
-3.25336e-07
-1.98725e-08
-3.19765e-07
-2.23843e-08
-3.13587e-07
-2.48227e-08
-3.06824e-07
-2.71779e-08
-2.995e-07
-2.94402e-08
-2.91638e-07
-3.15996e-08
-2.83268e-07
-3.36466e-08
-2.7442e-07
-3.55712e-08
-2.65125e-07
-3.7364e-08
-2.5542e-07
-3.90153e-08
-2.45341e-07
-4.05159e-08
-2.34927e-07
-4.18565e-08
-2.2422e-07
-4.30284e-08
-2.13264e-07
-4.40228e-08
-2.02103e-07
-4.48317e-08
-1.90785e-07
-4.54472e-08
-1.7936e-07
-4.58621e-08
-1.67876e-07
-4.60696e-08
-1.56386e-07
-4.60637e-08
-1.44943e-07
-4.5839e-08
-1.336e-07
-4.53912e-08
-1.22413e-07
-4.47168e-08
-1.11434e-07
-4.38133e-08
-1.0072e-07
-4.26797e-08
-9.03244e-08
-4.13163e-08
-8.03009e-08
-3.9725e-08
-7.07017e-08
-3.79099e-08
-6.15773e-08
-3.5877e-08
-5.29756e-08
-3.36351e-08
-4.49413e-08
-3.11963e-08
-3.75151e-08
-2.85762e-08
-3.07329e-08
-2.57951e-08
-2.46243e-08
-2.28787e-08
-1.92116e-08
-1.98594e-08
-1.45088e-08
-1.67779e-08
-1.05196e-08
-1.3685e-08
-7.23595e-09
-1.06442e-08
-4.63651e-09
-7.73406e-09
-2.68479e-09
-5.05235e-09
-1.32748e-09
-2.7201e-09
-4.92757e-10
-8.85903e-10
-8.85506e-11
2.68192e-10
5.02428e-10
-2.02107e-10
-2.34574e-10
-9.02764e-10
6.38102e-10
-2.18527e-09
2.50541e-09
-4.11839e-09
5.10079e-09
-6.75545e-09
8.22311e-09
-1.01347e-08
1.17071e-08
-1.42798e-08
1.5417e-08
-1.92014e-08
1.92423e-08
-2.48981e-08
2.30939e-08
-3.13578e-08
2.68999e-08
-3.85592e-08
3.06028e-08
-4.64729e-08
3.41569e-08
-5.50631e-08
3.75259e-08
-6.42883e-08
4.06818e-08
-7.41025e-08
4.36029e-08
-8.44559e-08
4.6273e-08
-9.52963e-08
4.86804e-08
-1.06569e-07
5.08169e-08
-1.18218e-07
5.26776e-08
-1.30187e-07
5.42599e-08
-1.42418e-07
5.55635e-08
-1.54854e-07
5.65899e-08
-1.67437e-07
5.7342e-08
-1.80112e-07
5.78239e-08
-1.92822e-07
5.80408e-08
-2.05513e-07
5.7999e-08
-2.18131e-07
5.77051e-08
-2.30624e-07
5.71667e-08
-2.42942e-07
5.63917e-08
-2.55036e-07
5.53885e-08
-2.6686e-07
5.41658e-08
-2.78367e-07
5.27326e-08
-2.89515e-07
5.10983e-08
-3.00262e-07
4.92722e-08
-3.10569e-07
4.72641e-08
-3.20398e-07
4.50837e-08
-3.29716e-07
4.2741e-08
-3.38487e-07
4.02458e-08
-3.46683e-07
3.76084e-08
-3.54274e-07
3.4839e-08
-3.61234e-07
3.19477e-08
-3.67538e-07
2.89451e-08
-3.73165e-07
2.58414e-08
-3.78096e-07
2.26473e-08
-3.82313e-07
1.93734e-08
-3.858e-07
1.60303e-08
-3.88546e-07
1.2629e-08
-3.90541e-07
9.18042e-09
-3.91776e-07
5.69555e-09
-3.92247e-07
2.18562e-09
-3.91949e-07
-1.33805e-09
-3.90884e-07
-4.86402e-09
-3.89054e-07
-8.38069e-09
-3.86462e-07
-1.18763e-08
-3.83116e-07
-1.53391e-08
-3.79026e-07
-1.87571e-08
-3.74205e-07
-2.2118e-08
-3.68668e-07
-2.54099e-08
-3.62432e-07
-2.86202e-08
-3.55518e-07
-3.17367e-08
-3.47949e-07
-3.4747e-08
-3.39751e-07
-3.76385e-08
-3.30952e-07
-4.03989e-08
-3.21583e-07
-4.30157e-08
-3.11677e-07
-4.54765e-08
-3.01272e-07
-4.77693e-08
-2.90406e-07
-4.98818e-08
-2.79119e-07
-5.18023e-08
-2.67456e-07
-5.35193e-08
-2.55463e-07
-5.50216e-08
-2.43188e-07
-5.62982e-08
-2.3068e-07
-5.7339e-08
-2.17993e-07
-5.81342e-08
-2.05181e-07
-5.86747e-08
-1.92298e-07
-5.89522e-08
-1.79403e-07
-5.89593e-08
-1.66552e-07
-5.86893e-08
-1.53806e-07
-5.81371e-08
-1.41225e-07
-5.72984e-08
-1.28868e-07
-5.61706e-08
-1.16795e-07
-5.47526e-08
-1.05066e-07
-5.30453e-08
-9.37391e-08
-5.10516e-08
-8.28721e-08
-4.87769e-08
-7.25195e-08
-4.62296e-08
-6.27337e-08
-4.3421e-08
-5.35633e-08
-4.03667e-08
-4.50528e-08
-3.70867e-08
-3.72414e-08
-3.36065e-08
-3.0162e-08
-2.99581e-08
-2.384e-08
-2.61813e-08
-1.82924e-08
-2.23255e-08
-1.35261e-08
-1.84513e-08
-9.53718e-09
-1.46332e-08
-6.30897e-09
-1.09623e-08
-3.81137e-09
-7.54995e-09
-1.99959e-09
-4.53188e-09
-8.13531e-10
-2.07197e-09
-1.77414e-10
-3.67925e-10
3.25015e-10
-2.94115e-10
5.95531e-11
-1.23893e-09
1.58292e-09
-2.89337e-09
4.15985e-09
-5.30773e-09
7.51515e-09
-8.52117e-09
1.14366e-08
-1.2561e-08
1.57469e-08
-1.74425e-08
2.02984e-08
-2.31694e-08
2.49693e-08
-2.9735e-08
2.96595e-08
-3.71225e-08
3.42874e-08
-4.53064e-08
3.87868e-08
-5.42539e-08
4.31043e-08
-6.39252e-08
4.71972e-08
-7.42753e-08
5.10318e-08
-8.52543e-08
5.45819e-08
-9.68088e-08
5.78275e-08
-1.08882e-07
6.0754e-08
-1.21416e-07
6.33509e-08
-1.34351e-07
6.56117e-08
-1.47623e-07
6.75329e-08
-1.61173e-07
6.91135e-08
-1.74938e-07
7.03548e-08
-1.88856e-07
7.12599e-08
-2.02866e-07
7.18337e-08
-2.16907e-07
7.20821e-08
-2.30921e-07
7.20124e-08
-2.44848e-07
7.16327e-08
-2.58633e-07
7.09518e-08
-2.72221e-07
6.99794e-08
-2.85558e-07
6.87256e-08
-2.98593e-07
6.7201e-08
-3.11278e-07
6.54167e-08
-3.23563e-07
6.33839e-08
-3.35405e-07
6.11143e-08
-3.46761e-07
5.86197e-08
-3.57589e-07
5.59121e-08
-3.67852e-07
5.30037e-08
-3.77513e-07
4.99069e-08
-3.86539e-07
4.66341e-08
-3.94898e-07
4.31979e-08
-4.02561e-07
3.96111e-08
-4.09502e-07
3.58864e-08
-4.15698e-07
3.20368e-08
-4.21126e-07
2.80753e-08
-4.25768e-07
2.40151e-08
-4.29607e-07
1.98695e-08
-4.3263e-07
1.56519e-08
-4.34825e-07
1.13759e-08
-4.36185e-07
7.0551e-09
-4.36702e-07
2.70346e-09
-4.36376e-07
-1.66501e-09
-4.35203e-07
-6.03614e-09
-4.33189e-07
-1.03956e-08
-4.30336e-07
-1.47288e-08
-4.26654e-07
-1.90212e-08
-4.22153e-07
-2.32579e-08
-4.16847e-07
-2.7424e-08
-4.10753e-07
-3.15043e-08
-4.03889e-07
-3.54837e-08
-3.96279e-07
-3.93469e-08
-3.87947e-07
-4.30786e-08
-3.78923e-07
-4.66634e-08
-3.69235e-07
-5.00859e-08
-3.5892e-07
-5.3331e-08
-3.48013e-07
-5.63834e-08
-3.36555e-07
-5.9228e-08
-3.24586e-07
-6.18502e-08
-3.12153e-07
-6.42353e-08
-2.99303e-07
-6.63693e-08
-2.86087e-07
-6.82384e-08
-2.72555e-07
-6.98295e-08
-2.58764e-07
-7.11299e-08
-2.44771e-07
-7.2128e-08
-2.30633e-07
-7.28125e-08
-2.16411e-07
-7.31736e-08
-2.02168e-07
-7.32023e-08
-1.87967e-07
-7.28908e-08
-1.73871e-07
-7.22328e-08
-1.59946e-07
-7.12237e-08
-1.46256e-07
-6.98604e-08
-1.32866e-07
-6.81421e-08
-1.19842e-07
-6.60702e-08
-1.07244e-07
-6.36487e-08
-9.51366e-08
-6.08847e-08
-8.35775e-08
-5.77887e-08
-7.26233e-08
-5.43752e-08
-6.23268e-08
-5.06632e-08
-5.2736e-08
-4.66774e-08
-4.38939e-08
-4.24486e-08
-3.58369e-08
-3.80151e-08
-2.8594e-08
-3.34242e-08
-2.21862e-08
-2.87334e-08
-1.66247e-08
-2.40128e-08
-1.19106e-08
-1.93473e-08
-8.0335e-09
-1.48393e-08
-4.97127e-09
-1.06122e-08
-2.68928e-09
-6.81388e-09
-1.14063e-09
-3.62063e-09
-2.66889e-10
-1.24166e-09
5.81197e-11
-3.84872e-10
4.44429e-10
-1.57425e-09
2.77229e-09
-3.60422e-09
6.18982e-09
-6.50666e-09
1.04176e-08
-1.03059e-08
1.52358e-08
-1.50173e-08
2.04583e-08
-2.06466e-08
2.59277e-08
-2.71897e-08
3.15124e-08
-3.46333e-08
3.7103e-08
-4.29551e-08
4.26093e-08
-5.2125e-08
4.79568e-08
-6.21057e-08
5.30849e-08
-7.28533e-08
5.79449e-08
-8.4319e-08
6.24975e-08
-9.6449e-08
6.6712e-08
-1.09186e-07
7.05646e-08
-1.2247e-07
7.40378e-08
-1.36238e-07
7.71188e-08
-1.50425e-07
7.97994e-08
-1.64967e-07
8.20748e-08
-1.79797e-07
8.39436e-08
-1.94849e-07
8.54068e-08
-2.10057e-07
8.64677e-08
-2.25355e-07
8.71318e-08
-2.40679e-07
8.74058e-08
-2.55965e-07
8.7298e-08
-2.7115e-07
8.68179e-08
-2.86174e-07
8.5976e-08
-3.00978e-07
8.47835e-08
-3.15505e-07
8.32524e-08
-3.29699e-07
8.13954e-08
-3.43508e-07
7.92255e-08
-3.5688e-07
7.67562e-08
-3.69767e-07
7.40015e-08
-3.82123e-07
7.09754e-08
-3.93904e-07
6.76925e-08
-4.05067e-07
6.41674e-08
-4.15575e-07
6.04149e-08
-4.25391e-07
5.64501e-08
-4.34482e-07
5.22881e-08
-4.42815e-07
4.79442e-08
-4.50362e-07
4.3434e-08
-4.57099e-07
3.8773e-08
-4.63e-07
3.3977e-08
-4.68047e-07
2.90619e-08
-4.72221e-07
2.40437e-08
-4.75508e-07
1.89388e-08
-4.77895e-07
1.37633e-08
-4.79374e-07
8.53405e-09
-4.79939e-07
3.26766e-09
-4.79585e-07
-2.01891e-09
-4.78312e-07
-7.30852e-09
-4.76124e-07
-1.25838e-08
-4.73026e-07
-1.78273e-08
-4.69025e-07
-2.30214e-08
-4.64135e-07
-2.8148e-08
-4.5837e-07
-3.31892e-08
-4.51748e-07
-3.81267e-08
-4.44289e-07
-4.29424e-08
-4.36018e-07
-4.76177e-08
-4.26963e-07
-5.21342e-08
-4.17153e-07
-5.64734e-08
-4.06622e-07
-6.06169e-08
-3.95406e-07
-6.45464e-08
-3.83546e-07
-6.82435e-08
-3.71084e-07
-7.16903e-08
-3.58065e-07
-7.4869e-08
-3.44538e-07
-7.77622e-08
-3.30555e-07
-8.0353e-08
-3.16168e-07
-8.26251e-08
-3.01435e-07
-8.45627e-08
-2.86414e-07
-8.61509e-08
-2.71166e-07
-8.73755e-08
-2.55755e-07
-8.82236e-08
-2.40245e-07
-8.86833e-08
-2.24703e-07
-8.87441e-08
-2.09197e-07
-8.8397e-08
-1.93795e-07
-8.76347e-08
-1.78567e-07
-8.64519e-08
-1.63582e-07
-8.48454e-08
-1.4891e-07
-8.28145e-08
-1.34619e-07
-8.03612e-08
-1.20777e-07
-7.74908e-08
-1.07449e-07
-7.42121e-08
-9.47001e-08
-7.0538e-08
-8.25894e-08
-6.64859e-08
-7.11738e-08
-6.20788e-08
-6.05055e-08
-5.73457e-08
-5.06312e-08
-5.2323e-08
-4.15913e-08
-4.7055e-08
-3.34192e-08
-4.15963e-08
-2.61403e-08
-3.60123e-08
-1.97712e-08
-3.03819e-08
-1.43191e-08
-2.47994e-08
-9.7809e-09
-1.93775e-08
-6.14351e-09
-1.42496e-08
-3.38346e-09
-9.57394e-09
-1.46776e-09
-5.53633e-09
-3.55384e-10
-2.35405e-09
-2.97267e-10
-4.73587e-10
9.18027e-10
-1.90511e-09
4.2038e-09
-4.30971e-09
8.59443e-09
-7.70153e-09
1.38094e-08
-1.209e-08
1.96243e-08
-1.74781e-08
2.58464e-08
-2.38611e-08
3.23107e-08
-3.12264e-08
3.88777e-08
-3.95534e-08
4.543e-08
-4.88135e-08
5.18694e-08
-5.89711e-08
5.81144e-08
-6.99841e-08
6.40979e-08
-8.18041e-08
6.97649e-08
-9.4378e-08
7.50714e-08
-1.07648e-07
7.99821e-08
-1.21553e-07
8.44697e-08
-1.36029e-07
8.85135e-08
-1.51009e-07
9.20987e-08
-1.66425e-07
9.52151e-08
-1.82207e-07
9.7857e-08
-1.98285e-07
1.00022e-07
-2.1459e-07
1.01712e-07
-2.31051e-07
1.02929e-07
-2.47598e-07
1.03679e-07
-2.64163e-07
1.03971e-07
-2.80678e-07
1.03813e-07
-2.97078e-07
1.03217e-07
-3.13297e-07
1.02195e-07
-3.29272e-07
1.00759e-07
-3.44943e-07
9.89237e-08
-3.60252e-07
9.67037e-08
-3.7514e-07
9.41142e-08
-3.89555e-07
9.11712e-08
-4.03445e-07
8.78907e-08
-4.16759e-07
8.42897e-08
-4.29451e-07
8.03849e-08
-4.41478e-07
7.61937e-08
-4.52796e-07
7.17336e-08
-4.63368e-07
6.70223e-08
-4.73158e-07
6.20777e-08
-4.82132e-07
5.6918e-08
-4.90259e-07
5.15615e-08
-4.97513e-07
4.60265e-08
-5.03868e-07
4.03319e-08
-5.09302e-07
3.44964e-08
-5.13797e-07
2.85389e-08
-5.17338e-07
2.24789e-08
-5.1991e-07
1.63355e-08
-5.21504e-07
1.01286e-08
-5.22114e-07
3.87782e-09
-5.21737e-07
-2.39666e-09
-5.20371e-07
-8.6746e-09
-5.18019e-07
-1.49355e-08
-5.14688e-07
-2.11586e-08
-5.10386e-07
-2.73229e-08
-5.05127e-07
-3.34074e-08
-4.98925e-07
-3.93906e-08
-4.91801e-07
-4.52512e-08
-4.83776e-07
-5.09674e-08
-4.74876e-07
-5.65175e-08
-4.6513e-07
-6.18798e-08
-4.54571e-07
-6.70324e-08
-4.43235e-07
-7.19536e-08
-4.31159e-07
-7.66216e-08
-4.18388e-07
-8.10152e-08
-4.04965e-07
-8.51129e-08
-3.9094e-07
-8.8894e-08
-3.76364e-07
-9.2338e-08
-3.61292e-07
-9.54251e-08
-3.45781e-07
-9.8136e-08
-3.29892e-07
-1.00452e-07
-3.13686e-07
-1.02357e-07
-2.97229e-07
-1.03832e-07
-2.80588e-07
-1.04865e-07
-2.63832e-07
-1.05439e-07
-2.47031e-07
-1.05545e-07
-2.30258e-07
-1.0517e-07
-2.13586e-07
-1.04307e-07
-1.97088e-07
-1.0295e-07
-1.80838e-07
-1.01096e-07
-1.64909e-07
-9.8743e-08
-1.49375e-07
-9.5895e-08
-1.34308e-07
-9.25582e-08
-1.19777e-07
-8.87431e-08
-1.0585e-07
-8.4465e-08
-9.25911e-08
-7.97445e-08
-8.00616e-08
-7.46083e-08
-6.83175e-08
-6.90899e-08
-5.74096e-08
-6.32308e-08
-4.73831e-08
-5.70816e-08
-3.82759e-08
-5.07034e-08
-3.01188e-08
-4.41693e-08
-2.29345e-08
-3.75662e-08
-1.67369e-08
-3.09971e-08
-1.15312e-08
-2.45831e-08
-7.31412e-09
-1.84667e-08
-4.07373e-09
-1.28143e-08
-1.79112e-09
-7.81893e-09
-4.42015e-10
-3.70316e-09
-7.39274e-10
-5.5987e-10
1.4779e-09
-2.22945e-09
5.87337e-09
-5.00495e-09
1.13699e-08
-8.88374e-09
1.76882e-08
-1.38607e-08
2.46012e-08
-1.99261e-08
3.19118e-08
-2.70647e-08
3.94493e-08
-3.52546e-08
4.70676e-08
-4.44673e-08
5.46426e-08
-5.46674e-08
6.20695e-08
-6.58132e-08
6.92603e-08
-7.78572e-08
7.61418e-08
-9.07462e-08
8.2654e-08
-1.04423e-07
8.87477e-08
-1.18824e-07
9.43837e-08
-1.33886e-07
9.95313e-08
-1.49539e-07
1.04167e-07
-1.65714e-07
1.08273e-07
-1.82337e-07
1.11839e-07
-1.99337e-07
1.14857e-07
-2.16638e-07
1.17324e-07
-2.34168e-07
1.19241e-07
-2.51852e-07
1.20612e-07
-2.69616e-07
1.21443e-07
-2.87388e-07
1.21743e-07
-3.05098e-07
1.21523e-07
-3.22675e-07
1.20794e-07
-3.40051e-07
1.19571e-07
-3.5716e-07
1.17868e-07
-3.73938e-07
1.15701e-07
-3.90322e-07
1.13088e-07
-4.06253e-07
1.10045e-07
-4.21673e-07
1.06591e-07
-4.36528e-07
1.02746e-07
-4.50765e-07
9.85268e-08
-4.64335e-07
9.39549e-08
-4.77191e-07
8.90498e-08
-4.89289e-07
8.38317e-08
-5.00588e-07
7.83214e-08
-5.1105e-07
7.25397e-08
-5.2064e-07
6.65076e-08
-5.29325e-07
6.02463e-08
-5.37076e-07
5.37775e-08
-5.43867e-07
4.71227e-08
-5.49674e-07
4.0304e-08
-5.54479e-07
3.33435e-08
-5.58263e-07
2.62635e-08
-5.61015e-07
1.90867e-08
-5.62722e-07
1.18359e-08
-5.63378e-07
4.53421e-09
-5.6298e-07
-2.79499e-09
-5.61526e-07
-1.01281e-08
-5.59021e-07
-1.74412e-08
-5.55469e-07
-2.47103e-08
-5.50881e-07
-3.19108e-08
-5.4527e-07
-3.90183e-08
-5.38653e-07
-4.6008e-08
-5.31049e-07
-5.28547e-08