/*--------------------------------*- C++ -*----------------------------------*\
| =========                 |                                                 |
| \\      /  F ield         | OpenFOAM: The Open Source CFD Toolbox           |
|  \\    /   O peration     | Version:  2212                                  |
|   \\  /    A nd           | Website:  www.openfoam.com                      |
|    \\/     M anipulation  |                                                 |
\*---------------------------------------------------------------------------*/
FoamFile
{
    version     2.0;
    format      ascii;
    arch        "LSB;label=32;scalar=64";
    class       surfaceScalarField;
    location    "0.0735";
    object      phi_0;
}
// * * * * * * * * * * * * * * * * * * * * * * * * * * * * * * * * * * * * * //

dimensions      [0 3 -1 0 0 0 0];

oriented        oriented;

internalField   nonuniform List<scalar> 
19800
(
6.93105e-11
-6.92044e-11
2.35548e-10
-1.66227e-10
4.20223e-10
-1.84657e-10
5.64697e-10
-1.4446e-10
6.36576e-10
-7.18834e-11
6.17909e-10
1.86887e-11
4.99663e-10
1.18231e-10
2.78588e-10
2.21079e-10
-4.50266e-11
3.23606e-10
-4.68522e-10
4.23489e-10
-9.87744e-10
5.1922e-10
-1.59753e-09
6.09769e-10
-2.292e-09
6.9447e-10
-3.06487e-09
7.72883e-10
-3.9096e-09
8.44723e-10
-4.81945e-09
9.09845e-10
-5.78762e-09
9.68181e-10
-6.80735e-09
1.01972e-09
-7.87188e-09
1.06453e-09
-8.97456e-09
1.10268e-09
-1.01088e-08
1.13429e-09
-1.12683e-08
1.15949e-09
-1.24468e-08
1.17842e-09
-1.3638e-08
1.19127e-09
-1.48362e-08
1.1982e-09
-1.60356e-08
1.1994e-09
-1.72307e-08
1.19506e-09
-1.84161e-08
1.18538e-09
-1.95866e-08
1.17056e-09
-2.07374e-08
1.1508e-09
-2.18637e-08
1.12631e-09
-2.29611e-08
1.09732e-09
-2.40251e-08
1.06403e-09
-2.50517e-08
1.02663e-09
-2.60371e-08
9.85346e-10
-2.69775e-08
9.40384e-10
-2.78694e-08
8.91957e-10
-2.87097e-08
8.40275e-10
-2.94953e-08
7.85559e-10
-3.02233e-08
7.28027e-10
-3.08912e-08
6.67892e-10
-3.14965e-08
6.05368e-10
-3.20372e-08
5.40668e-10
-3.25112e-08
4.7402e-10
-3.29169e-08
4.05649e-10
-3.32526e-08
3.35773e-10
-3.35173e-08
2.64621e-10
-3.37097e-08
1.92427e-10
-3.38291e-08
1.1942e-10
-3.3875e-08
4.58489e-11
-3.38469e-08
-2.80436e-11
-3.37449e-08
-1.02026e-10
-3.3569e-08
-1.75848e-10
-3.33198e-08
-2.4925e-10
-3.29978e-08
-3.21979e-10
-3.2604e-08
-3.93773e-10
-3.21397e-08
-4.64365e-10
-3.16062e-08
-5.335e-10
-3.10052e-08
-6.00916e-10
-3.03389e-08
-6.6633e-10
-2.96094e-08
-7.29463e-10
-2.88194e-08
-7.90053e-10
-2.79716e-08
-8.47827e-10
-2.70691e-08
-9.02508e-10
-2.61152e-08
-9.53822e-10
-2.51137e-08
-1.0015e-09
-2.40685e-08
-1.04526e-09
-2.29836e-08
-1.08484e-09
-2.18636e-08
-1.11998e-09
-2.07132e-08
-1.15043e-09
-1.95373e-08
-1.17593e-09
-1.83411e-08
-1.19625e-09
-1.71299e-08
-1.21114e-09
-1.59095e-08
-1.2204e-09
-1.46857e-08
-1.2238e-09
-1.34646e-08
-1.22115e-09
-1.22523e-08
-1.21227e-09
-1.10553e-08
-1.19701e-09
-9.88007e-09
-1.17522e-09
-8.73328e-09
-1.14679e-09
-7.62167e-09
-1.11161e-09
-6.55203e-09
-1.06964e-09
-5.53122e-09
-1.02082e-09
-4.56605e-09
-9.65163e-10
-3.66331e-09
-9.02728e-10
-2.82968e-09
-8.33627e-10
-2.07164e-09
-7.58044e-10
-1.3954e-09
-6.7625e-10
-8.06752e-10
-5.88643e-10
-3.10954e-10
-4.95792e-10
8.75492e-11
-3.985e-10
3.85458e-10
-2.97909e-10
5.8112e-10
-1.95663e-10
6.75321e-10
-9.42007e-11
6.72545e-10
2.77588e-12
5.83015e-10
8.95249e-11
4.25872e-10
1.57137e-10
2.3459e-10
1.9128e-10
6.611e-11
1.68482e-10
6.61093e-11
1.70045e-10
-2.39238e-10
4.63432e-10
-4.59642e-10
7.43116e-10
-4.6433e-10
9.10539e-10
-3.11875e-10
8.96144e-10
-5.74904e-11
6.55608e-10
2.59221e-10
1.63096e-10
6.10734e-10
-5.93921e-10
9.78094e-10
-1.61858e-09
1.34825e-09
-2.90728e-09
1.7122e-09
-4.45174e-09
2.06368e-09
-6.24028e-09
2.39829e-09
-8.25882e-09
2.71301e-09
-1.04917e-08
3.00572e-09
-1.29219e-08
3.27499e-09
-1.5532e-08
3.51993e-09
-1.83038e-08
3.73999e-09
-2.12191e-08
3.93497e-09
-2.42594e-08
4.10486e-09
-2.74065e-08
4.24981e-09
-3.06423e-08
4.37013e-09
-3.39491e-08
4.46622e-09
-3.73092e-08
4.53858e-09
-4.07057e-08
4.58775e-09
-4.41218e-08
4.61435e-09
-4.75415e-08
4.61904e-09
-5.09489e-08
4.60251e-09
-5.4329e-08
4.56547e-09
-5.76672e-08
4.50868e-09
-6.09493e-08
4.43291e-09
-6.41619e-08
4.33892e-09
-6.7292e-08
4.2275e-09
-7.03275e-08
4.09944e-09
-7.32564e-08
3.95555e-09
-7.60677e-08
3.79663e-09
-7.87508e-08
3.62348e-09
-8.12958e-08
3.43694e-09
-8.36933e-08
3.2378e-09
-8.59346e-08
3.02691e-09
-8.80117e-08
2.80509e-09
-8.9917e-08
2.5732e-09
-9.16437e-08
2.33206e-09
-9.31855e-08
2.08254e-09
-9.4537e-08
1.82548e-09
-9.56931e-08
1.56176e-09
-9.66496e-08
1.29224e-09
-9.74028e-08
1.01782e-09
-9.79497e-08
7.39396e-10
-9.82882e-08
4.57886e-10
-9.84165e-08
1.7421e-10
-9.83339e-08
-1.10688e-10
-9.80401e-08
-3.95859e-10
-9.75355e-08
-6.80349e-10
-9.68216e-08
-9.63171e-10
-9.59003e-08
-1.24333e-09
-9.47742e-08
-1.51982e-09
-9.34469e-08
-1.79164e-09
-9.19227e-08
-2.05777e-09
-9.02064e-08
-2.31716e-09
-8.8304e-08
-2.56877e-09
-8.62219e-08
-2.81156e-09
-8.39675e-08
-3.04447e-09
-8.15488e-08
-3.26646e-09
-7.89749e-08
-3.47647e-09
-7.62552e-08
-3.67347e-09
-7.34003e-08
-3.85639e-09
-7.04214e-08
-4.02422e-09
-6.73303e-08
-4.17595e-09
-6.41397e-08
-4.31059e-09
-6.08629e-08
-4.42716e-09
-5.75141e-08
-4.52475e-09
-5.41079e-08
-4.60244e-09
-5.06597e-08
-4.65937e-09
-4.71854e-08
-4.6947e-09
-4.37015e-08
-4.70768e-09
-4.02251e-08
-4.69759e-09
-3.67736e-08
-4.66381e-09
-3.33648e-08
-4.60576e-09
-3.0017e-08
-4.52297e-09
-2.67487e-08
-4.41507e-09
-2.35786e-08
-4.28176e-09
-2.05253e-08
-4.1229e-09
-1.76077e-08
-3.93847e-09
-1.48442e-08
-3.72865e-09
-1.22531e-08
-3.49381e-09
-9.85217e-09
-3.23456e-09
-7.65836e-09
-2.95185e-09
-5.68758e-09
-2.64702e-09
-3.95429e-09
-2.32192e-09
-2.47097e-09
-1.97911e-09
-1.24742e-09
-1.62206e-09
-2.89747e-10
-1.25559e-09
4.00929e-10
-8.86336e-10
8.30378e-10
-5.23648e-10
1.01393e-09
-1.80777e-10
9.80158e-10
1.23296e-10
7.7586e-10
3.61435e-10
4.71969e-10
4.95175e-10
1.68387e-10
4.72059e-10
2.34494e-10
1.85536e-10
-4.24756e-10
4.68423e-10
-7.42529e-10
6.77358e-10
-6.73271e-10
6.92903e-10
-3.27406e-10
4.28138e-10
2.07261e-10
-1.76161e-10
8.63502e-10
-1.15702e-09
1.5916e-09
-2.53436e-09
2.3554e-09
-4.31495e-09
3.12884e-09
-6.49579e-09
3.89303e-09
-9.06648e-09
4.63436e-09
-1.20112e-08
5.34298e-09
-1.53099e-08
6.01178e-09
-1.894e-08
6.63573e-09
-2.28763e-08
7.21129e-09
-2.70924e-08
7.73606e-09
-3.1561e-08
8.20854e-09
-3.62539e-08
8.62789e-09
-4.11428e-08
8.99381e-09
-4.61994e-08
9.30642e-09
-5.13955e-08
9.56617e-09
-5.6703e-08
9.77377e-09
-6.20946e-08
9.93011e-09
-6.75432e-08
1.00363e-08
-7.30224e-08
1.00936e-08
-7.85067e-08
1.01033e-08
-8.3971e-08
1.00669e-08
-8.93913e-08
9.98576e-09
-9.47442e-08
9.86158e-09
-1.00007e-07
9.69594e-09
-1.05159e-07
9.4905e-09
-1.10178e-07
9.24694e-09
-1.15046e-07
8.96698e-09
-1.19743e-07
8.65234e-09
-1.24251e-07
8.30476e-09
-1.28553e-07
7.92602e-09
-1.32634e-07
7.51791e-09
-1.36479e-07
7.08221e-09
-1.40072e-07
6.62073e-09
-1.43403e-07
6.1353e-09
-1.46457e-07
5.62777e-09
-1.49225e-07
5.09998e-09
-1.51696e-07
4.5538e-09
-1.53862e-07
3.99113e-09
-1.55714e-07
3.41387e-09
-1.57246e-07
2.82395e-09
-1.58451e-07
2.22333e-09
-1.59326e-07
1.61398e-09
-1.59866e-07
9.9792e-10
-1.60069e-07
3.77185e-10
-1.59934e-07
-2.46175e-10
-1.59459e-07
-8.70064e-10
-1.58647e-07
-1.49236e-09
-1.575e-07
-2.11092e-09
-1.56019e-07
-2.72358e-09
-1.54211e-07
-3.32812e-09
-1.5208e-07
-3.92234e-09
-1.49634e-07
-4.50399e-09
-1.4688e-07
-5.07082e-09
-1.43829e-07
-5.62053e-09
-1.40489e-07
-6.15085e-09
-1.36874e-07
-6.6595e-09
-1.32997e-07
-7.14417e-09
-1.2887e-07
-7.60258e-09
-1.24511e-07
-8.03247e-09
-1.19936e-07
-8.43158e-09
-1.15163e-07
-8.79768e-09
-1.1021e-07
-9.12859e-09
-1.05099e-07
-9.42219e-09
-9.98494e-08
-9.67638e-09
-9.44849e-08
-9.88917e-09
-8.90288e-08
-1.00586e-08
-8.35052e-08
-1.01829e-08
-7.79397e-08
-1.02603e-08
-7.23583e-08
-1.02891e-08
-6.67879e-08
-1.02679e-08
-6.12563e-08
-1.01955e-08
-5.57915e-08
-1.00705e-08
-5.04222e-08
-9.89224e-09
-4.51774e-08
-9.65983e-09
-4.00864e-08
-9.37283e-09
-3.51782e-08
-9.03109e-09
-3.04819e-08
-8.63477e-09
-2.60261e-08
-8.18446e-09
-2.18387e-08
-7.68119e-09
-1.79466e-08
-7.12662e-09
-1.43754e-08
-6.52311e-09
-1.11484e-08
-5.87394e-09
-8.2868e-09
-5.18355e-09
-5.808e-09
-4.4579e-09
-3.72512e-09
-3.70495e-09
-2.04534e-09
-2.93537e-09
-7.68166e-10
-2.16352e-09
1.16997e-10
-1.40882e-09
6.33911e-10
-6.97693e-10
8.23385e-10
-6.6175e-11
7.48003e-10
4.36819e-10
4.97129e-10
7.46048e-10
1.91758e-10
7.77426e-10
4.26255e-10
1.46957e-10
-5.71699e-10
3.20016e-10
-9.15577e-10
3.39601e-10
-6.92848e-10
7.78516e-11
-6.56468e-11
-5.59134e-10
8.44243e-10
-1.63732e-09
1.94168e-09
-3.19953e-09
3.15379e-09
-5.26989e-09
4.42577e-09
-7.85761e-09
5.71656e-09
-1.09601e-08
6.99553e-09
-1.45656e-08
8.23989e-09
-1.86554e-08
9.43269e-09
-2.3205e-08
1.05614e-08
-2.81861e-08
1.16169e-08
-3.35673e-08
1.25925e-08
-3.93149e-08
1.34836e-08
-4.53936e-08
1.42873e-08
-5.17672e-08
1.50015e-08
-5.83989e-08
1.56254e-08
-6.52514e-08
1.61589e-08
-7.22876e-08
1.66024e-08
-7.94707e-08
1.69569e-08
-8.67643e-08
1.72237e-08
-9.41325e-08
1.74045e-08
-1.0154e-07
1.75014e-08
-1.08953e-07
1.75163e-08
-1.16338e-07
1.74518e-08
-1.23663e-07
1.73103e-08
-1.30896e-07
1.70944e-08
-1.38006e-07
1.68068e-08
-1.44966e-07
1.64504e-08
-1.51747e-07
1.60281e-08
-1.58323e-07
1.55426e-08
-1.64668e-07
1.49971e-08
-1.70758e-07
1.43944e-08
-1.76569e-07
1.37378e-08
-1.82081e-07
1.30301e-08
-1.87274e-07
1.22746e-08
-1.92128e-07
1.14744e-08
-1.96625e-07
1.06326e-08
-2.0075e-07
9.75248e-09
-2.04487e-07
8.8372e-09
-2.07823e-07
7.89003e-09
-2.10746e-07
6.91426e-09
-2.13245e-07
5.91321e-09
-2.15312e-07
4.89025e-09
-2.16937e-07
3.84878e-09
-2.18116e-07
2.79226e-09
-2.18842e-07
1.72415e-09
-2.19113e-07
6.48032e-10
-2.18926e-07
-4.32528e-10
-2.18282e-07
-1.5139e-09
-2.17182e-07
-2.59242e-09
-2.15629e-07
-3.66432e-09
-2.13627e-07
-4.72586e-09
-2.11182e-07
-5.77322e-09
-2.08301e-07
-6.80255e-09
-2.04995e-07
-7.80996e-09
-2.01275e-07
-8.79154e-09
-1.97152e-07
-9.74336e-09
-1.92641e-07
-1.06615e-08
-1.87759e-07
-1.15419e-08
-1.82522e-07
-1.23807e-08
-1.76951e-07
-1.3174e-08
-1.71065e-07
-1.39179e-08
-1.64889e-07
-1.46084e-08
-1.58445e-07
-1.52417e-08
-1.51759e-07
-1.58142e-08
-1.44859e-07
-1.63222e-08
-1.37773e-07
-1.67621e-08
-1.30532e-07
-1.71306e-08
-1.23166e-07
-1.74242e-08
-1.15709e-07
-1.76401e-08
-1.08194e-07
-1.77751e-08
-1.00656e-07
-1.78267e-08
-9.31319e-08
-1.77924e-08
-8.56573e-08
-1.76701e-08
-7.82699e-08
-1.74579e-08
-7.10078e-08
-1.71543e-08
-6.39092e-08
-1.67584e-08
-5.70127e-08
-1.62694e-08
-5.03564e-08
-1.56873e-08
-4.39785e-08
-1.50128e-08
-3.7916e-08
-1.42469e-08
-3.22051e-08
-1.33921e-08
-2.68804e-08
-1.24513e-08
-2.19743e-08
-1.14292e-08
-1.75164e-08
-1.03318e-08
-1.35328e-08
-9.16717e-09
-1.00447e-08
-7.94592e-09
-7.06768e-09
-6.68199e-09
-4.60944e-09
-5.39362e-09
-2.66823e-09
-4.10472e-09
-1.23027e-09
-2.84677e-09
-2.66759e-10
-1.6612e-09
2.69696e-10
-6.02629e-10
4.49184e-10
2.57327e-10
3.68989e-10
8.26238e-10
1.59334e-10
9.87082e-10
5.85594e-10
7.65488e-11
-6.48251e-10
7.21929e-11
-9.11209e-10
-1.83225e-10
-4.37436e-10
-8.14966e-10
5.66082e-10
-1.9163e-09
1.94559e-09
-3.55397e-09
3.57932e-09
-5.77211e-09
5.37194e-09
-8.59614e-09
7.24978e-09
-1.20358e-08
9.15624e-09
-1.60883e-08
1.1048e-08
-2.07403e-08
1.28919e-08
-2.59705e-08
1.46629e-08
-3.1751e-08
1.63419e-08
-3.80488e-08
1.79147e-08
-4.48273e-08
1.93709e-08
-5.20466e-08
2.0703e-08
-5.96649e-08
2.19056e-08
-6.7639e-08
2.29756e-08
-7.59246e-08
2.3911e-08
-8.4477e-08
2.47112e-08
-9.32511e-08
2.53766e-08
-1.02202e-07
2.59081e-08
-1.11286e-07
2.63076e-08
-1.20459e-07
2.65774e-08
-1.29678e-07
2.67202e-08
-1.38901e-07
2.67391e-08
-1.48086e-07
2.66376e-08
-1.57195e-07
2.64192e-08
-1.66189e-07
2.60879e-08
-1.7503e-07
2.56476e-08
-1.83682e-07
2.51027e-08
-1.92111e-07
2.44572e-08
-2.00284e-07
2.37157e-08
-2.0817e-07
2.28826e-08
-2.15738e-07
2.19625e-08
-2.2296e-07
2.09599e-08
-2.29809e-07
1.98797e-08
-2.36261e-07
1.87263e-08
-2.42292e-07
1.75048e-08
-2.47879e-07
1.62198e-08
-2.53003e-07
1.48763e-08
-2.57644e-07
1.34791e-08
-2.61788e-07
1.20334e-08
-2.65417e-07
1.0544e-08
-2.6852e-07
9.01606e-09
-2.71085e-07
7.45477e-09
-2.73101e-07
5.86532e-09
-2.74562e-07
4.25298e-09
-2.75461e-07
2.62311e-09
-2.75794e-07
9.81101e-10
-2.75559e-07
-6.67553e-10
-2.74756e-07
-2.31729e-09
-2.73386e-07
-3.9625e-09
-2.71452e-07
-5.5975e-09
-2.68962e-07
-7.2165e-09
-2.65921e-07
-8.81372e-09
-2.62341e-07
-1.03833e-08
-2.58231e-07
-1.19192e-08
-2.53607e-07
-1.34157e-08
-2.48484e-07
-1.48666e-08
-2.42879e-07
-1.6266e-08
-2.36813e-07
-1.76078e-08
-2.30308e-07
-1.88862e-08
-2.23387e-07
-2.0095e-08
-2.16076e-07
-2.12285e-08
-2.08404e-07
-2.22807e-08
-2.004e-07
-2.3246e-08
-1.92095e-07
-2.41186e-08
-1.83525e-07
-2.4893e-08
-1.74723e-07
-2.55641e-08
-1.65727e-07
-2.61265e-08
-1.56575e-07
-2.65756e-08
-1.47309e-07
-2.69066e-08
-1.37969e-07
-2.71152e-08
-1.28598e-07
-2.71974e-08
-1.19241e-07
-2.71498e-08
-1.09942e-07
-2.69693e-08
-1.00746e-07
-2.66531e-08
-9.17014e-08
-2.61994e-08
-8.28531e-08
-2.56066e-08
-7.42483e-08
-2.48742e-08
-6.59332e-08
-2.40024e-08
-5.79535e-08
-2.29924e-08
-5.0354e-08
-2.18465e-08
-4.31777e-08
-2.05684e-08
-3.64656e-08
-1.91634e-08
-3.02562e-08
-1.76387e-08
-2.4584e-08
-1.6004e-08
-1.94792e-08
-1.42719e-08
-1.49664e-08
-1.24587e-08
-1.1063e-08
-1.05854e-08
-7.77761e-09
-8.67899e-09
-5.10829e-09
-6.77404e-09
-3.03999e-09
-4.91507e-09
-1.54197e-09
-3.15922e-09
-5.6477e-10
-1.57983e-09
-3.66876e-11
-2.7076e-10
1.40084e-10
6.49464e-10
9.46532e-11
1.03252e-09
6.8025e-10
-1.12439e-11
-6.37001e-10
-2.36885e-10
-6.8558e-10
-8.26639e-10
1.52305e-10
-1.89508e-09
1.63452e-09
-3.52902e-09
3.57952e-09
-5.79125e-09
5.84156e-09
-8.72373e-09
8.30441e-09
-1.23504e-08
1.08764e-08
-1.66797e-08
1.34856e-08
-2.17073e-08
1.60756e-08
-2.74181e-08
1.86027e-08
-3.37879e-08
2.10328e-08
-4.07858e-08
2.33397e-08
-4.83747e-08
2.55036e-08
-5.65132e-08
2.75095e-08
-6.51565e-08
2.93463e-08
-7.42571e-08
3.10062e-08
-8.37655e-08
3.2484e-08
-9.36311e-08
3.37766e-08
-1.03802e-07
3.48826e-08
-1.14228e-07
3.58018e-08
-1.24855e-07
3.65355e-08
-1.35633e-07
3.70858e-08
-1.46512e-07
3.74555e-08
-1.5744e-07
3.76482e-08
-1.68368e-07
3.7668e-08
-1.7925e-07
3.75194e-08
-1.90038e-07
3.72074e-08
-2.00688e-07
3.67372e-08
-2.11154e-07
3.61143e-08
-2.21396e-07
3.53445e-08
-2.31373e-07
3.44337e-08
-2.41045e-07
3.3388e-08
-2.50376e-07
3.22137e-08
-2.59331e-07
3.0917e-08
-2.67875e-07
2.95045e-08
-2.75978e-07
2.79826e-08
-2.8361e-07
2.63581e-08
-2.90743e-07
2.46375e-08
-2.97351e-07
2.28277e-08
-3.0341e-07
2.09356e-08
-3.08899e-07
1.8968e-08
-3.13798e-07
1.69321e-08
-3.18088e-07
1.48348e-08
-3.21756e-07
1.26834e-08
-3.24786e-07
1.04851e-08
-3.27168e-07
8.24735e-09
-3.28893e-07
5.97747e-09
-3.29953e-07
3.68305e-09
-3.30343e-07
1.37172e-09
-3.30062e-07
-9.48799e-10
-3.29109e-07
-3.27068e-09
-3.27485e-07
-5.58599e-09
-3.25196e-07
-7.88673e-09
-3.22248e-07
-1.01648e-08
-3.18649e-07
-1.2412e-08
-3.14412e-07
-1.46202e-08
-3.09551e-07
-1.67809e-08
-3.04081e-07
-1.88858e-08
-2.98021e-07
-2.09266e-08
-2.91392e-07
-2.28948e-08
-2.84218e-07
-2.4782e-08
-2.76524e-07
-2.65799e-08
-2.68339e-07
-2.828e-08
-2.59693e-07
-2.98742e-08
-2.5062e-07
-3.13543e-08
-2.41153e-07
-3.27123e-08
-2.31332e-07
-3.39403e-08
-2.21194e-07
-3.50307e-08
-2.10782e-07
-3.59762e-08
-2.00139e-07
-3.67696e-08
-1.8931e-07
-3.74042e-08
-1.78343e-07
-3.78738e-08
-1.67286e-07
-3.81723e-08
-1.56189e-07
-3.82945e-08
-1.45103e-07
-3.82355e-08
-1.34081e-07
-3.79912e-08
-1.23176e-07
-3.75582e-08
-1.12442e-07
-3.69339e-08
-1.01932e-07
-3.61166e-08
-9.16999e-08
-3.51059e-08
-8.17999e-08
-3.39024e-08
-7.22842e-08
-3.25081e-08
-6.32039e-08
-3.09268e-08
-5.46083e-08
-2.9164e-08
-4.65441e-08
-2.72276e-08
-3.90545e-08
-2.51283e-08
-3.21787e-08
-2.28798e-08
-2.59506e-08
-2.05e-08
-2.03977e-08
-1.80116e-08
-1.55396e-08
-1.54435e-08
-1.13866e-08
-1.2832e-08
-7.93755e-09
-1.02231e-08
-5.17819e-09
-7.67443e-09
-3.0786e-09
-5.25881e-09
-1.59081e-09
-3.06762e-09
-6.46076e-10
-1.2155e-09
-1.51867e-10
1.55258e-10
1.1846e-11
8.68806e-10
6.92095e-10
-1.0797e-10
-5.29039e-10
-5.814e-10
-2.12153e-10
-1.54438e-09
1.11529e-09
-3.09557e-09
3.18567e-09
-5.31089e-09
5.79484e-09
-8.24574e-09
8.77642e-09
-1.19368e-08
1.19955e-08
-1.64042e-08
1.53438e-08
-2.16535e-08
1.87348e-08
-2.76775e-08
2.20996e-08
-3.44583e-08
2.53835e-08
-4.19689e-08
2.85434e-08
-5.01749e-08
3.15457e-08
-5.90355e-08
3.43642e-08
-6.85052e-08
3.69791e-08
-7.85343e-08
3.93754e-08
-8.90704e-08
4.15423e-08
-1.00059e-07
4.34723e-08
-1.11443e-07
4.51607e-08
-1.23165e-07
4.66051e-08
-1.35168e-07
4.78049e-08
-1.47394e-07
4.87612e-08
-1.59784e-07
4.94762e-08
-1.72282e-07
4.99535e-08
-1.84832e-07
5.01974e-08
-1.97377e-07
5.0213e-08
-2.09863e-07
5.0006e-08
-2.22239e-07
4.95829e-08
-2.34452e-07
4.89502e-08
-2.46453e-07
4.81153e-08
-2.58194e-07
4.70855e-08
-2.69629e-07
4.58687e-08
-2.80714e-07
4.44728e-08
-2.91406e-07
4.2906e-08
-3.01666e-07
4.11766e-08
-3.11454e-07
3.92933e-08
-3.20736e-07
3.72646e-08
-3.29478e-07
3.50994e-08
-3.37647e-07
3.28065e-08
-3.45214e-07
3.03949e-08
-3.52152e-07
2.78739e-08
-3.58436e-07
2.52525e-08
-3.64045e-07
2.25402e-08
-3.68956e-07
1.97464e-08
-3.73154e-07
1.68807e-08
-3.76621e-07
1.39528e-08
-3.79346e-07
1.09723e-08
-3.81318e-07
7.94938e-09
-3.82529e-07
4.89393e-09
-3.82973e-07
1.81616e-09
-3.82649e-07
-1.27363e-09
-3.81554e-07
-4.36502e-09
-3.79693e-07
-7.44747e-09
-3.77069e-07
-1.05103e-08
-3.73691e-07
-1.35428e-08
-3.69569e-07
-1.6534e-08
-3.64716e-07
-1.9473e-08
-3.59148e-07
-2.23488e-08
-3.52884e-07
-2.51503e-08
-3.45944e-07
-2.78662e-08
-3.38353e-07
-3.04856e-08
-3.30138e-07
-3.29972e-08
-3.21328e-07
-3.53899e-08
-3.11955e-07
-3.76528e-08
-3.02055e-07
-3.97749e-08
-2.91664e-07
-4.17455e-08
-2.80822e-07
-4.3554e-08
-2.69572e-07
-4.51901e-08
-2.57959e-07
-4.66438e-08
-2.4603e-07
-4.79053e-08
-2.33834e-07
-4.89656e-08
-2.21422e-07
-4.98156e-08
-2.08849e-07
-5.04473e-08
-1.96168e-07
-5.0853e-08
-1.83437e-07
-5.10258e-08
-1.70713e-07
-5.09595e-08
-1.58055e-07
-5.06489e-08
-1.45524e-07
-5.00897e-08
-1.33178e-07
-4.9279e-08
-1.2108e-07
-4.82148e-08
-1.09289e-07
-4.68968e-08
-9.78657e-08
-4.53262e-08
-8.68675e-08
-4.35063e-08
-7.63519e-08
-4.14424e-08
-6.63735e-08
-3.91424e-08
-5.69841e-08
-3.66171e-08
-4.82315e-08
-3.38809e-08
-4.0159e-08
-3.09523e-08
-3.2804e-08
-2.7855e-08
-2.61971e-08
-2.46185e-08
-2.03607e-08
-2.128e-08
-1.53073e-08
-1.78855e-08
-1.10381e-08
-1.44922e-08
-7.54147e-09
-1.11711e-08
-4.79051e-09
-8.00976e-09
-2.74175e-09
-5.11638e-09
-1.33292e-09
-2.62434e-09
-4.81053e-10
-6.96601e-10
-8.05423e-11
4.68295e-10
6.11551e-10
-2.08513e-10
-3.20528e-10
-9.44315e-10
5.23639e-10
-2.30432e-09
2.47529e-09
-4.36822e-09
5.24958e-09
-7.19826e-09
8.62487e-09
-1.08397e-08
1.24178e-08
-1.53216e-08
1.64774e-08
-2.06584e-08
2.06806e-08
-2.6851e-08
2.49273e-08
-3.38881e-08
2.91368e-08
-4.17484e-08
3.32438e-08
-5.04014e-08
3.71963e-08
-5.98088e-08
4.09531e-08
-6.99263e-08
4.44818e-08
-8.07042e-08
4.7757e-08
-9.20887e-08
5.07598e-08
-1.04022e-07
5.3476e-08
-1.16446e-07
5.58957e-08
-1.29297e-07
5.80123e-08
-1.42514e-07
5.98221e-08
-1.56033e-07
6.1324e-08
-1.69791e-07
6.25188e-08
-1.83724e-07
6.34089e-08
-1.97768e-07
6.39982e-08
-2.11863e-07
6.4292e-08
-2.25946e-07
6.42964e-08
-2.39959e-07
6.40184e-08
-2.53842e-07
6.34658e-08
-2.67538e-07
6.26469e-08
-2.80994e-07
6.15707e-08
-2.94155e-07
6.02465e-08
-3.0697e-07
5.86841e-08
-3.19391e-07
5.68935e-08
-3.3137e-07
5.4885e-08
-3.42863e-07
5.26693e-08
-3.53827e-07
5.02572e-08
-3.64222e-07
4.76596e-08
-3.7401e-07
4.48878e-08
-3.83157e-07
4.19531e-08
-3.91629e-07
3.88669e-08
-3.99396e-07
3.5641e-08
-4.0643e-07
3.22871e-08
-4.12707e-07
2.88171e-08
-4.18204e-07
2.52432e-08
-4.22901e-07
2.15775e-08
-4.2678e-07
1.78324e-08
-4.29829e-07
1.40206e-08
-4.32034e-07
1.01545e-08
-4.33387e-07
6.24722e-09
-4.33883e-07
2.31159e-09
-4.33517e-07
-1.63917e-09
-4.3229e-07
-5.59176e-09
-4.30205e-07
-9.53269e-09
-4.27267e-07
-1.34484e-08
-4.23485e-07
-1.7325e-08
-4.1887e-07
-2.11488e-08
-4.13437e-07
-2.49057e-08
-4.07204e-07
-2.85817e-08
-4.00192e-07
-3.21627e-08
-3.92424e-07
-3.56344e-08
-3.83927e-07
-3.89826e-08
-3.74731e-07
-4.21933e-08
-3.64868e-07
-4.52524e-08
-3.54375e-07
-4.81457e-08
-3.43291e-07
-5.08596e-08
-3.31656e-07
-5.33804e-08
-3.19515e-07
-5.56947e-08
-3.06916e-07
-5.77895e-08
-2.93907e-07
-5.96521e-08
-2.80542e-07
-6.12703e-08
-2.66875e-07
-6.26326e-08
-2.52963e-07
-6.37278e-08
-2.38865e-07
-6.45457e-08
-2.24641e-07
-6.50767e-08
-2.10355e-07
-6.53124e-08
-1.96069e-07
-6.52451e-08
-1.81849e-07
-6.48684e-08
-1.67762e-07
-6.41774e-08
-1.53872e-07
-6.31684e-08
-1.40248e-07
-6.18395e-08
-1.26954e-07
-6.01906e-08
-1.14056e-07
-5.82237e-08
-1.01619e-07
-5.59434e-08
-8.97046e-08
-5.33569e-08
-7.83723e-08
-5.04747e-08
-6.76785e-08
-4.73108e-08
-5.76756e-08
-4.38838e-08
-4.84108e-08
-4.02172e-08
-3.99251e-08
-3.63407e-08
-3.22525e-08
-3.22911e-08
-2.54187e-08
-2.81138e-08
-1.94395e-08
-2.38646e-08
-1.43197e-08
-1.9612e-08
-1.00517e-08
-1.54392e-08
-6.61372e-09
-1.14477e-08
-3.96915e-09
-7.76095e-09
-2.06478e-09
-4.5287e-09
-8.30213e-10
-1.93117e-09
-1.77264e-10
-1.84653e-10
4.34288e-10
-3.09848e-10
-1.068e-11
-1.31463e-09
1.5284e-09
-3.08449e-09
4.24517e-09
-5.67902e-09
7.84409e-09
-9.14494e-09
1.20908e-08
-1.35155e-08
1.67884e-08
-1.88106e-08
2.17725e-08
-2.50371e-08
2.69071e-08
-3.21898e-08
3.20801e-08
-4.02526e-08
3.71996e-08
-4.91996e-08
4.21907e-08
-5.8996e-08
4.69928e-08
-6.95998e-08
5.15569e-08
-8.09625e-08
5.58445e-08
-9.30304e-08
5.98249e-08
-1.05745e-07
6.34748e-08
-1.19046e-07
6.67765e-08
-1.32867e-07
6.97174e-08
-1.47144e-07
7.2289e-08
-1.61808e-07
7.44863e-08
-1.76792e-07
7.63073e-08
-1.92025e-07
7.77525e-08
-2.07441e-07
7.88243e-08
-2.2297e-07
7.95272e-08
-2.38545e-07
7.98672e-08
-2.541e-07
7.98514e-08
-2.6957e-07
7.94883e-08
-2.84891e-07
7.87869e-08
-3.00002e-07
7.77576e-08
-3.14842e-07
7.64109e-08
-3.29354e-07
7.47583e-08
-3.43481e-07
7.28116e-08
-3.57171e-07
7.05831e-08
-3.70371e-07
6.80856e-08
-3.83034e-07
6.53319e-08
-3.95112e-07
6.23354e-08
-4.06562e-07
5.91097e-08
-4.17343e-07
5.56684e-08
-4.27415e-07
5.20257e-08
-4.36744e-07
4.81957e-08
-4.45296e-07
4.41928e-08
-4.53041e-07
4.00316e-08
-4.5995e-07
3.57269e-08
-4.66001e-07
3.12937e-08
-4.7117e-07
2.6747e-08
-4.7544e-07
2.21023e-08
-4.78795e-07
1.7375e-08
-4.81221e-07
1.25809e-08
-4.8271e-07
7.73583e-09
-4.83254e-07
2.85598e-09
-4.82851e-07
-2.04236e-09
-4.815e-07
-6.94272e-09
-4.79204e-07
-1.18284e-08
-4.7597e-07
-1.66827e-08
-4.71806e-07
-2.14884e-08
-4.66727e-07
-2.62284e-08
-4.60747e-07
-3.08855e-08
-4.53886e-07
-3.54424e-08
-4.46168e-07
-3.98814e-08
-4.37617e-07
-4.41852e-08
-4.28263e-07
-4.83363e-08
-4.18139e-07
-5.23171e-08
-4.07281e-07
-5.61105e-08
-3.95728e-07
-5.9699e-08
-3.83522e-07
-6.30658e-08
-3.70708e-07
-6.6194e-08
-3.57336e-07
-6.90673e-08
-3.43455e-07
-7.16697e-08
-3.29122e-07
-7.39857e-08
-3.14392e-07
-7.60004e-08
-2.99325e-07
-7.76995e-08
-2.83983e-07
-7.90697e-08
-2.6843e-07
-8.00985e-08
-2.52732e-07
-8.07743e-08
-2.36958e-07
-8.10868e-08
-2.21176e-07
-8.10271e-08
-2.05457e-07
-8.05875e-08
-1.89872e-07
-7.97621e-08
-1.74494e-07
-7.85468e-08
-1.59393e-07
-7.69397e-08
-1.44643e-07
-7.49412e-08
-1.30312e-07
-7.2554e-08
-1.16471e-07
-6.97843e-08
-1.03187e-07
-6.66413e-08
-9.05236e-08
-6.31382e-08
-7.85417e-08
-5.92926e-08
-6.7298e-08
-5.51275e-08
-5.68437e-08
-5.06715e-08
-4.72238e-08
-4.59605e-08
-3.84763e-08
-4.10386e-08
-3.06305e-08
-3.59595e-08
-2.37066e-08
-3.07885e-08
-1.7714e-08
-2.56046e-08
-1.26506e-08
-2.05026e-08
-8.50151e-09
-1.55968e-08
-5.23848e-09
-1.1024e-08
-2.81936e-09
-6.94782e-09
-1.18804e-09
-3.56249e-09
-2.75163e-10
-1.09754e-09
1.59125e-10
-4.10195e-10
3.99503e-10
-1.68531e-09
2.8035e-09
-3.87025e-09
6.43013e-09
-7.00433e-09
1.09781e-08
-1.11179e-08
1.62044e-08
-1.62313e-08
2.19017e-08
-2.23535e-08
2.78948e-08
-2.94829e-08
3.40365e-08
-3.76072e-08
4.02044e-08
-4.67042e-08
4.62965e-08
-5.67425e-08
5.2229e-08
-6.76828e-08
5.7933e-08
-7.94785e-08
6.33526e-08
-9.20768e-08
6.84428e-08
-1.0542e-07
7.31679e-08
-1.19445e-07
7.75001e-08
-1.34087e-07
8.14183e-08
-1.49277e-07
8.49071e-08
-1.64944e-07
8.7956e-08
-1.81016e-07
9.05584e-08
-1.9742e-07
9.27114e-08
-2.14083e-07
9.44152e-08
-2.30931e-07
9.56723e-08
-2.47891e-07
9.64876e-08
-2.64891e-07
9.68676e-08
-2.81861e-07
9.68209e-08
-2.98729e-07
9.63569e-08
-3.15429e-07
9.54867e-08
-3.31894e-07
9.42219e-08
-3.48058e-07
9.25754e-08
-3.63861e-07
9.05607e-08
-3.79241e-07
8.81918e-08
-3.94141e-07
8.54833e-08
-4.08506e-07
8.24506e-08
-4.22283e-07
7.91091e-08
-4.35422e-07
7.54747e-08
-4.47877e-07
7.15638e-08
-4.59601e-07
6.7393e-08
-4.70554e-07
6.2979e-08
-4.80698e-07
5.83391e-08
-4.89996e-07
5.34906e-08
-4.98415e-07
4.84511e-08
-5.05927e-07
4.32384e-08
-5.12504e-07
3.78706e-08
-5.18123e-07
3.23661e-08
-5.22764e-07
2.67432e-08
-5.26409e-07
2.10209e-08
-5.29047e-07
1.52181e-08
-5.30665e-07
9.354e-09
-5.31257e-07
3.44811e-09
-5.30819e-07
-2.47991e-09
-5.29352e-07
-8.41013e-09
-5.26858e-07
-1.43224e-08
-5.23344e-07
-2.01965e-08
-5.18821e-07
-2.60117e-08
-5.13302e-07
-3.17475e-08
-5.06804e-07
-3.7383e-08
-4.99349e-07
-4.28973e-08
-4.90961e-07
-4.82693e-08
-4.81669e-07
-5.3478e-08
-4.71503e-07
-5.85023e-08
-4.60498e-07
-6.33213e-08
-4.48695e-07
-6.7914e-08
-4.36134e-07
-7.22598e-08
-4.22862e-07
-7.63382e-08
-4.08926e-07
-8.01293e-08
-3.9438e-07
-8.36132e-08
-3.79279e-07
-8.67709e-08
-3.63681e-07
-8.95839e-08
-3.47647e-07
-9.20343e-08
-3.31241e-07
-9.41052e-08
-3.14531e-07
-9.57806e-08
-2.97583e-07
-9.70458e-08
-2.80471e-07
-9.7887e-08
-2.63265e-07
-9.82921e-08
-2.46042e-07
-9.82505e-08
-2.28876e-07
-9.77535e-08
-2.11844e-07
-9.67943e-08
-1.95022e-07
-9.53683e-08
-1.78488e-07
-9.34736e-08
-1.62319e-07
-9.11109e-08
-1.46588e-07
-8.82841e-08
-1.31372e-07
-8.50008e-08
-1.16741e-07
-8.12724e-08
-1.02764e-07
-7.71151e-08
-8.95065e-08
-7.25502e-08
-7.70291e-08
-6.76049e-08
-6.53874e-08
-6.23132e-08
-5.46307e-08
-5.67173e-08
-4.48011e-08
-5.08682e-08
-3.59328e-08
-4.48278e-08
-2.80508e-08
-3.86705e-08
-2.11703e-08
-3.24851e-08
-1.52958e-08
-2.63771e-08
-1.04204e-08
-2.04722e-08
-6.52565e-09
-1.49187e-08
-3.5816e-09
-9.89188e-09
-1.54729e-09
-5.5968e-09
-3.72374e-10
-2.27246e-09
-2.13252e-10
-5.08577e-10
9.08098e-10
-2.05205e-09
4.34693e-09
-4.65202e-09
9.03009e-09
-8.32811e-09
1.46542e-08
-1.30943e-08
2.09706e-08
-1.8957e-08
2.77644e-08
-2.59139e-08
3.48517e-08
-3.39538e-08
4.20764e-08
-4.30564e-08
4.93069e-08
-5.31924e-08
5.64325e-08
-6.43245e-08
6.33612e-08
-7.6408e-08
7.00165e-08
-8.93913e-08
7.6336e-08
-1.03217e-07
8.22686e-08
-1.17823e-07
8.77738e-08
-1.33142e-07
9.28194e-08
-1.49105e-07
9.73809e-08
-1.65638e-07
1.0144e-07
-1.82666e-07
1.04984e-07
-2.00113e-07
1.08006e-07
-2.17902e-07
1.105e-07
-2.35955e-07
1.12468e-07
-2.54193e-07
1.13911e-07
-2.7254e-07
1.14834e-07
-2.90918e-07
1.15246e-07
-3.09253e-07
1.15156e-07
-3.27471e-07
1.14574e-07
-3.45498e-07
1.13514e-07
-3.63264e-07
1.11988e-07
-3.80701e-07
1.10012e-07
-3.97742e-07
1.07602e-07
-4.14324e-07
1.04773e-07
-4.30384e-07
1.01543e-07
-4.45864e-07
9.79305e-08
-4.60707e-07
9.39527e-08
-4.74861e-07
8.96287e-08
-4.88275e-07
8.49778e-08
-5.00902e-07
8.00194e-08
-5.12696e-07
7.47736e-08
-5.23617e-07
6.92605e-08
-5.33627e-07
6.35006e-08
-5.42691e-07
5.75149e-08
-5.50777e-07
5.13243e-08
-5.57857e-07
4.49503e-08
-5.63905e-07
3.84146e-08
-5.68901e-07
3.17391e-08
-5.72826e-07
2.49459e-08
-5.75666e-07
1.80577e-08
-5.77409e-07
1.10972e-08
-5.78048e-07
4.08745e-09
-5.7758e-07
-2.94831e-09
-5.76004e-07
-9.98645e-09
-5.73323e-07
-1.70032e-08
-5.69545e-07
-2.39744e-08
-5.64681e-07
-3.08759e-08
-5.58745e-07
-3.76832e-08
-5.51756e-07
-4.43717e-08
-5.43737e-07
-5.09166e-08
-5.34713e-07
-5.72931e-08
-5.24715e-07
-6.34764e-08
-5.13776e-07
-6.94415e-08
-5.01933e-07
-7.51638e-08
-4.89228e-07
-8.06186e-08
-4.75707e-07
-8.57816e-08
-4.61416e-07
-9.06287e-08
-4.46409e-07
-9.51363e-08
-4.30741e-07
-9.92813e-08
-4.14471e-07
-1.03041e-07
-3.97661e-07
-1.06394e-07
-3.80376e-07
-1.09319e-07
-3.62684e-07
-1.11797e-07
-3.44656e-07
-1.13808e-07
-3.26366e-07
-1.15336e-07
-3.07888e-07
-1.16365e-07
-2.893e-07
-1.1688e-07
-2.70681e-07
-1.16869e-07
-2.52112e-07
-1.16323e-07
-2.33672e-07
-1.15233e-07
-2.15446e-07
-1.13595e-07
-1.97512e-07
-1.11407e-07
-1.79954e-07
-1.08669e-07
-1.62851e-07
-1.05387e-07
-1.46281e-07
-1.0157e-07
-1.30322e-07
-9.72321e-08
-1.15045e-07
-9.23916e-08
-1.00521e-07
-8.70738e-08
-8.68158e-08
-8.13104e-08
-7.39884e-08
-7.51407e-08
-6.20929e-08
-6.86127e-08
-5.11766e-08
-6.17846e-08
-4.12785e-08
-5.47259e-08
-3.24297e-08
-4.75193e-08
-2.46518e-08
-4.0263e-08
-1.79569e-08
-3.30721e-08
-1.2347e-08
-2.60821e-08
-7.81427e-09
-1.94514e-08
-4.34161e-09
-1.33645e-08
-1.90343e-09
-8.03499e-09
-4.67832e-10
-3.70806e-09
-6.81089e-10
-6.04486e-10
1.51259e-09
-2.41227e-09
6.1547e-09
-5.42377e-09
1.20416e-08
-9.63992e-09
1.88704e-08
-1.50584e-08
2.63891e-08
-2.16718e-08
3.43778e-08
-2.9466e-08
4.26459e-08
-3.84194e-08
5.10299e-08
-4.8503e-08
5.93904e-08
-5.96799e-08
6.76094e-08
-7.19062e-08
7.55875e-08
-8.51312e-08
8.32415e-08
-9.92979e-08
9.05027e-08
-1.14344e-07
9.73148e-08
-1.30203e-07
1.03632e-07
-1.46802e-07
1.09419e-07
-1.64068e-07
1.14647e-07
-1.81924e-07
1.19296e-07
-2.0029e-07
1.2335e-07
-2.19085e-07
1.26801e-07
-2.38229e-07
1.29644e-07
-2.57638e-07
1.31877e-07
-2.77231e-07
1.33504e-07
-2.96927e-07
1.3453e-07
-3.16644e-07
1.34964e-07
-3.36304e-07
1.34815e-07
-3.55827e-07
1.34098e-07
-3.75138e-07
1.32825e-07
-3.94162e-07
1.31012e-07
-4.12826e-07
1.28677e-07
-4.31062e-07
1.25837e-07
-4.488e-07
1.22511e-07
-4.65976e-07
1.1872e-07
-4.82528e-07
1.14482e-07
-4.98396e-07
1.09821e-07
-5.13525e-07
1.04757e-07
-5.2786e-07
9.9313e-08
-5.41352e-07
9.35113e-08
-5.53953e-07
8.73751e-08
-5.65621e-07
8.09279e-08
-5.76314e-07
7.41937e-08
-5.85995e-07
6.71966e-08
-5.94632e-07
5.99612e-08
-6.02194e-07
5.25124e-08
-6.08655e-07
4.48755e-08
-6.13992e-07
3.7076e-08
-6.18186e-07
2.91397e-08
-6.21221e-07
2.10929e-08
-6.23086e-07
1.29622e-08
-6.23773e-07
4.77419e-09
-6.23277e-07
-3.44382e-09
-6.21599e-07
-1.16644e-08
-6.18743e-07
-1.986e-08
-6.14715e-07
-2.80024e-08
-6.09527e-07
-3.60635e-08
-6.03196e-07
-4.40148e-08
-5.9574e-07
-5.18277e-08
-5.87183e-07