/*--------------------------------*- C++ -*----------------------------------*\
| =========                 |                                                 |
| \\      /  F ield         | OpenFOAM: The Open Source CFD Toolbox           |
|  \\    /   O peration     | Version:  2212                                  |
|   \\  /    A nd           | Website:  www.openfoam.com                      |
|    \\/     M anipulation  |                                                 |
\*---------------------------------------------------------------------------*/
FoamFile
{
    version     2.0;
    format      ascii;
    arch        "LSB;label=32;scalar=64";
    class       volScalarField;
    location    "0.0705";
    object      p;
}
// * * * * * * * * * * * * * * * * * * * * * * * * * * * * * * * * * * * * * //

dimensions      [0 2 -2 0 0 0 0];

internalField   nonuniform List<scalar> 
10000
(
3.10221e-08
8.80933e-05
-0.000133054
-0.000706986
-0.00158281
-0.00270422
-0.00401574
-0.00546513
-0.00700498
-0.00859338
-0.0101936
-0.0117735
-0.0133055
-0.0147653
-0.016132
-0.0173875
-0.0185166
-0.019506
-0.0203447
-0.0210237
-0.0215356
-0.0218744
-0.0220357
-0.0220164
-0.0218145
-0.0214292
-0.0208606
-0.0201097
-0.0191784
-0.0180695
-0.0167862
-0.0153328
-0.0137142
-0.0119356
-0.0100029
-0.00792247
-0.00570128
-0.00334662
-0.000866184
0.00173187
0.00443903
0.00724644
0.0101449
0.0131252
0.0161774
0.0192917
0.0224579
0.0256656
0.0289043
0.0321634
0.0354321
0.0386994
0.0419544
0.0451862
0.0483838
0.0515361
0.0546323
0.0576616
0.0606132
0.0634768
0.0662421
0.068899
0.0714379
0.0738493
0.0761245
0.0782548
0.0802323
0.0820494
0.0836994
0.0851761
0.0864741
0.0875887
0.0885163
0.0892538
0.0897994
0.0901524
0.090313
0.0902827
0.0900644
0.0896621
0.0890816
0.08833
0.0874164
0.0863515
0.085148
0.0838209
0.0823873
0.080867
0.0792826
0.0776598
0.0760277
0.0744196
0.0728728
0.0714292
0.0701357
0.0690433
0.068204
0.0676679
0.0674766
0.0675807
-9.07809e-05
-7.4387e-06
-0.000223696
-0.000736068
-0.00149426
-0.00245881
-0.00358947
-0.00484471
-0.00618539
-0.00757544
-0.00898216
-0.0103766
-0.011733
-0.0130287
-0.0142437
-0.015361
-0.0163653
-0.0172439
-0.0179858
-0.0185821
-0.0190251
-0.0193088
-0.0194285
-0.0193808
-0.0191635
-0.0187751
-0.0182157
-0.0174857
-0.0165868
-0.0155211
-0.0142916
-0.0129021
-0.0113569
-0.00966079
-0.00781928
-0.00583835
-0.0037244
-0.00148425
0.000874891
0.00334535
0.00591906
0.00858769
0.0113426
0.0141749
0.0170754
0.0200345
0.0230427
0.0260902
0.0291669
0.0322628
0.0353675
0.0384707
0.0415621
0.0446313
0.0476678
0.0506612
0.0536011
0.0564775
0.0592801
0.0619992
0.0646251
0.0671484
0.06956
0.0718511
0.0740134
0.0760389
0.0779203
0.0796507
0.0812237
0.0826338
0.0838761
0.0849465
0.0858417
0.0865592
0.0870976
0.0874565
0.0876365
0.0876395
0.0874684
0.0871277
0.086623
0.0859616
0.0851526
0.0842064
0.0831355
0.0819543
0.0806793
0.0793294
0.0779258
0.0764926
0.0750565
0.0736474
0.0722982
0.0710451
0.0699267
0.0689831
0.0682525
0.0677698
0.0675801
0.0676847
0.000120691
0.000196334
-2.02424e-05
-0.000500881
-0.00119197
-0.00206131
-0.00307607
-0.00420188
-0.00540539
-0.0066552
-0.00792247
-0.00918084
-0.0104067
-0.0115788
-0.0126786
-0.0136897
-0.0145977
-0.0153902
-0.0160565
-0.0165877
-0.0169763
-0.0172164
-0.0173031
-0.0172328
-0.0170031
-0.0166124
-0.0160604
-0.0153474
-0.0144745
-0.0134438
-0.012258
-0.0109203
-0.00943477
-0.00780586
-0.00603865
-0.00413877
-0.00211226
3.4489e-05
0.00229461
0.00466084
0.00712553
0.00968076
0.0123183
0.0150297
0.0178061
0.0206384
0.0235175
0.026434
0.0293784
0.0323409
0.0353118
0.0382811
0.041239
0.0441756
0.0470807
0.0499447
0.0527575
0.0555094
0.0581909
0.0607927
0.0633055
0.0657204
0.0680287
0.0702224
0.0722934
0.0742342
0.076038
0.0776983
0.0792093
0.0805658
0.0817633
0.0827982
0.0836673
0.0843686
0.0849011
0.0852645
0.0854598
0.0854889
0.0853549
0.0850623
0.0846167
0.0840256
0.0832975
0.0824429
0.0814737
0.0804037
0.0792486
0.0780263
0.0767567
0.0754621
0.0741669
0.0728982
0.0716852
0.0705591
0.0695531
0.0687007
0.0680327
0.0675786
0.0673896
0.0674943
0.000675475
0.000692738
0.000445669
-3.4376e-05
-0.000698817
-0.00151863
-0.0024653
-0.00350911
-0.00462093
-0.00577337
-0.00694073
-0.00809921
-0.00922739
-0.0103057
-0.0113168
-0.0122452
-0.0130775
-0.0138016
-0.0144076
-0.0148867
-0.0152315
-0.0154362
-0.015496
-0.0154074
-0.0151678
-0.0147755
-0.01423
-0.0135315
-0.0126808
-0.0116798
-0.0105309
-0.00923711
-0.00780218
-0.00623028
-0.0045262
-0.00269523
-0.000743062
0.00132424
0.00350012
0.0057776
0.00814943
0.0106081
0.0131456
0.015754
0.0184246
0.0211489
0.023918
0.0267231
0.0295548
0.0324038
0.0352609
0.0381163
0.0409608
0.0437847
0.0465784
0.0493325
0.0520375
0.0546842
0.0572632
0.0597657
0.0621829
0.0645063
0.0667277
0.0688392
0.0708333
0.072703
0.0744416
0.0760431
0.077502
0.0788135
0.0799735
0.0809784
0.0818256
0.0825132
0.0830404
0.083407
0.0836143
0.0836642
0.0835598
0.0833056
0.0829072
0.0823718
0.0817077
0.0809249
0.0800349
0.0790508
0.0779874
0.0768614
0.0756915
0.074498
0.0733034
0.0721321
0.0710099
0.0699646
0.0690249
0.0682199
0.0675768
0.0671227
0.0669063
0.0669604
0.00153038
0.0014357
0.00112364
0.000616729
-4.88401e-05
-0.00084733
-0.00175377
-0.00274247
-0.00378831
-0.00486731
-0.0059567
-0.00703532
-0.00808378
-0.00908431
-0.0100209
-0.0108791
-0.0116465
-0.0123118
-0.0128653
-0.0132988
-0.0136053
-0.013779
-0.0138154
-0.0137108
-0.0134628
-0.0130696
-0.0125306
-0.0118457
-0.0110158
-0.0100425
-0.00892797
-0.00767502
-0.00628708
-0.00476814
-0.00312276
-0.00135586
0.000527194
0.00252059
0.00461807
0.00681297
0.00909839
0.0114672
0.0139117
0.0164241
0.0189963
0.0216201
0.0242869
0.0269882
0.0297151
0.0324587
0.0352099
0.0379597
0.0406988
0.0434182
0.0461085
0.0487608
0.051366
0.0539151
0.0563993
0.05881
0.0611389
0.0633779
0.0655189
0.0675547
0.0694781
0.0712822
0.0729607
0.0745081
0.0759191
0.0771893
0.0783147
0.0792919
0.0801187
0.0807934
0.0813152
0.0816842
0.0819015
0.0819692
0.0818905
0.0816696
0.0813121
0.0808247
0.0802156
0.0794943
0.0786716
0.0777598
0.0767729
0.0757264
0.0746373
0.0735244
0.072408
0.0713099
0.0702531
0.069262
0.0683615
0.0675769
0.0669322
0.0664519
0.0661741
0.0661237
0.00263654
0.00239111
0.0019848
0.0014263
0.000734811
-6.73351e-05
-0.000958134
-0.00191576
-0.00291867
-0.00394593
-0.00497768
-0.00599516
-0.00698092
-0.00791897
-0.00879474
-0.00959508
-0.0103083
-0.0109239
-0.011433
-0.0118277
-0.0121015
-0.0122487
-0.0122651
-0.0121471
-0.0118923
-0.011499
-0.0109665
-0.0102946
-0.00948421
-0.00853663
-0.00745391
-0.00623866
-0.00489411
-0.00342406
-0.00183279
-0.000124946
0.00169437
0.00361956
0.00564467
0.0077634
0.00996913
0.0122549
0.0146136
0.0170375
0.0195189
0.02205
0.0246226
0.0272282
0.0298585
0.0325049
0.0351587
0.0378111
0.0404533
0.0430766
0.0456719
0.0482307
0.0507442
0.0532039
0.0556012
0.0579279
0.0601759
0.0623376
0.0644053
0.0663719
0.0682306
0.0699748
0.0715986
0.0730966
0.074464
0.0756964
0.0767901
0.077742
0.0785499
0.0792123
0.0797285
0.0800988
0.0803243
0.0804069
0.0803497
0.080157
0.0798339
0.0793871
0.0788242
0.078154
0.0773869
0.0765344
0.0756093
0.074626
0.0736001
0.0725485
0.0714897
0.0704429
0.0694286
0.0684679
0.0675825
0.0667941
0.066124
0.0655937
0.0652257
0.0650315
0.00394388
0.00352204
0.00299948
0.0023685
0.00162948
0.000801806
-9.53524e-05
-0.00104357
-0.00202452
-0.00302016
-0.00401322
-0.00498717
-0.00592653
-0.006817
-0.00764541
-0.00839978
-0.00906943
-0.00964482
-0.0101175
-0.0104803
-0.010727
-0.0108524
-0.0108524
-0.0107236
-0.0104638
-0.0100713
-0.00954538
-0.00888591
-0.00809359
-0.0071697
-0.00611612
-0.00493536
-0.00363047
-0.00220503
-0.00066308
0.000990936
0.00275213
0.00461516
0.00657433
0.00862362
0.0107567
0.0129669
0.0152472
0.0175905
0.0199893
0.0224359
0.0249226
0.0274412
0.0299836
0.0325416
0.0351068
0.0376707
0.0402249
0.0427609
0.0452701
0.0477441
0.0501747
0.0525534
0.054872
0.0571227
0.0592977
0.0613897
0.0633912
0.0652955
0.0670959
0.0687862
0.0703608
0.0718144
0.0731424
0.0743408
0.0754058
0.0763346
0.0771252
0.0777761
0.0782867
0.0786572
0.0788887
0.0789831
0.0789435
0.0787737
0.0784788
0.0780649
0.0775392
0.0769101
0.0761872
0.075381
0.0745035
0.0735678
0.0725881
0.0715798
0.0705591
0.0695433
0.0685504
0.0675986
0.0667067
0.065893
0.0651765
0.0645759
0.0640957
0.0637319
0.00540456
0.00479089
0.00413614
0.00341623
0.00261224
0.00174073
0.000818756
-0.000138486
-0.00111559
-0.00209712
-0.00306811
-0.0040142
-0.00492177
-0.00577806
-0.00657129
-0.00729073
-0.00792668
-0.00847039
-0.00891418
-0.00925146
-0.00947648
-0.00958443
-0.00957146
-0.00943455
-0.00917144
-0.00878066
-0.00826147
-0.00761383
-0.00683839
-0.00593632
-0.00490941
-0.00376009
-0.0024913
-0.00110642
0.000390735
0.0019959
0.00370433
0.00551093
0.00741027
0.00939659
0.0114638
0.0136054
0.0158147
0.0180848
0.0204087
0.0227788
0.0251876
0.0276274
0.0300902
0.0325682
0.0350534
0.0375373
0.040012
0.0424692
0.0449007
0.0472984
0.0496542
0.05196
0.0542079
0.0563903
0.0584999
0.0605293
0.0624716
0.06432
0.0660682
0.0677103
0.0692408
0.0706547
0.0719476
0.0731153
0.0741546
0.0750626
0.0758372
0.0764773
0.0769821
0.0773518
0.0775875
0.0776909
0.0776649
0.0775132
0.0772405
0.0768525
0.0763559
0.0757585
0.0750692
0.0742976
0.0734548
0.0725527
0.071604
0.0706227
0.0696232
0.0686207
0.0676308
0.0666695
0.0657527
0.0648957
0.0641155
0.0634284
0.0628201
0.0622707
0.00697623
0.00616214
0.00536451
0.00454339
0.00366059
0.00273044
0.00176828
0.000786479
-0.000202238
-0.00118475
-0.00214818
-0.00308017
-0.00396881
-0.00480289
-0.00557198
-0.00626647
-0.00687763
-0.00739761
-0.00781949
-0.00813722
-0.00834558
-0.00844017
-0.00841753
-0.00827487
-0.00801008
-0.00762185
-0.00710959
-0.00647332
-0.00571359
-0.00483156
-0.00382902
-0.00270832
-0.00147225
-0.000124016
0.00133267
0.00289366
0.00455444
0.00631011
0.00815549
0.010085
0.0120927
0.0141724
0.0163177
0.018522
0.0207783
0.0230794
0.0254182
0.027787
0.0301782
0.0325843
0.0349975
0.0374096
0.039813
0.0421996
0.0445615
0.0468908
0.0491797
0.0514204
0.0536052
0.0557267
0.0577779
0.0597517
0.0616412
0.06344
0.0651419
0.0667413
0.0682327
0.0696113
0.0708729
0.0720134
0.0730297
0.0739189
0.0746791
0.075309
0.0758079
0.076176
0.0764141
0.0765239
0.076508
0.0763699
0.0761139
0.0757454
0.0752704
0.0746962
0.0740308
0.0732833
0.0724635
0.0715823
0.0706513
0.0696828
0.0686895
0.0676848
0.0666823
0.0656958
0.0647387
0.0638237
0.062966
0.0621799
0.0614327
0.0606887
0.00862212
0.00760395
0.00665678
0.0057253
0.00475298
0.00375242
0.00273751
0.00171816
0.000704743
-0.00029173
-0.00126028
-0.00219029
-0.00307145
-0.00389401
-0.00464882
-0.00532736
-0.00592186
-0.0064254
-0.00683175
-0.0071354
-0.00733173
-0.00741685
-0.00738757
-0.00724136
-0.0069764
-0.00659159
-0.00608644
-0.00546098
-0.00471581
-0.00385216
-0.00287178
-0.00177694
-0.000570306
0.000744987
0.00216532
0.0036867
0.00530477
0.00701483
0.00881187
0.0106905
0.0126449
0.0146693
0.0167573
0.0189026
0.0210986
0.0233381
0.0256142
0.0279197
0.0302471
0.0325891
0.0349381
0.0372864
0.0396263
0.0419502
0.0442503
0.046519
0.0487486
0.0509317
0.0530607
0.0551285
0.0571282
0.059053
0.0608961
0.0626513
0.0643126
0.0658744
0.0673316
0.0686793
0.0699134
0.0710301
0.072026
0.0728986
0.0736458
0.0742662
0.0747593
0.0751249
0.0753639
0.0754777
0.0754688
0.0753402
0.0750959
0.0747408
0.0742806
0.0737218
0.0730718
0.0723387
0.0715316
0.0706601
0.0697348
0.0687664
0.0677663
0.066746
0.0657176
0.0646926
0.0636824
0.0626974
0.0617514
0.0608571
0.0599639
0.0590216
0.0103104
0.00908788
0.0079873
0.00693914
0.00586928
0.00478893
0.00371098
0.00264328
0.00159416
0.000572692
-0.000411867
-0.00135043
-0.00223422
-0.00305475
-0.00380406
-0.00447473
-0.00505997
-0.00555361
-0.00595016
-0.00624478
-0.00643337
-0.0065125
-0.00647931
-0.00633162
-0.00606791
-0.00568725
-0.00518927
-0.00457408
-0.00384239
-0.00299548
-0.00203507
-0.000963386
0.000216951
0.00150289
0.00289088
0.00437705
0.00595721
0.0076268
0.00938096
0.0112144
0.0131216
0.0150969
0.0171343
0.0192274
0.0213699
0.023555
0.0257757
0.0280252
0.0302963
0.0325818
0.0348743
0.0371663
0.0394504
0.0417192
0.0439651
0.0461807
0.0483585
0.0504912
0.0525716
0.0545926
0.0565476
0.0584298
0.0602327
0.0619501
0.0635763
0.0651057
0.0665332
0.0678543
0.0690648
0.0701608
0.0711391
0.071997
0.0727327
0.0733445
0.0738319
0.0741945
0.074433
0.0745487
0.0745438
0.074421
0.074184
0.0738371
0.0733855
0.0728351
0.0721925
0.0714653
0.0706616
0.06979
0.0688597
0.0678804
0.0668621
0.0658149
0.064749
0.0636746
0.0626007
0.061536
0.0604935
0.0594844
0.0584412
0.0572998
0.0120139
0.0105886
0.00933293
0.00816393
0.00699053
0.0058231
0.00467391
0.00354899
0.00245489
0.00139906
0.000389214
-0.000567028
-0.00146219
-0.00228902
-0.00304064
-0.00371063
-0.00429316
-0.00478283
-0.00517479
-0.0054649
-0.00564961
-0.00572589
-0.00569128
-0.00554396
-0.00528271
-0.00490679
-0.00441596
-0.00381047
-0.00309115
-0.00225934
-0.00131677
-0.0002656
0.00089155
0.00215162
0.00351115
0.0049664
0.00651332
0.00814744
0.009864
0.0116579
0.0135238
0.0154561
0.0174491
0.0194967
0.0215924
0.0237299
0.0259024
0.0281031
0.0303251
0.0325614
0.0348048
0.037048
0.0392838
0.0415049
0.043704
0.0458738
0.048007
0.0500964
0.052135
0.054116
0.0560328
0.0578786
0.0596473
0.0613327
0.0629291
0.0644311
0.0658337
0.0671323
0.0683227
0.0694012
0.0703646
0.0712102
0.0719358
0.07254
0.0730219
0.0733811
0.0736181
0.073734
0.0737306
0.0736104
0.0733766
0.0730331
0.0725845
0.0720362
0.0713943
0.0706654
0.0698568
0.0689761
0.0680317
0.067032
0.0659857
0.0649016
0.0637887
0.0626555
0.0615095
0.0603576
0.0592121
0.0580836
0.0568885
0.0555494
0.013709
0.0120839
0.010673
0.00938033
0.00809913
0.00683916
0.00561223
0.00442282
0.00327604
0.00217796
0.00113488
0.000153104
-0.000761032
-0.00160135
-0.00236212
-0.00303785
-0.00362345
-0.00411432
-0.00450637
-0.00479605
-0.00498029
-0.0050565
-0.00502266
-0.00487737
-0.00461961
-0.00424883
-0.00376499
-0.00316857
-0.0024605
-0.00164213
-0.00071521
0.000318048
0.00145499
0.00269261
0.00402751
0.00545607
0.00697428
0.00857776
0.0102619
0.0120216
0.0138519
0.0157473
0.0177021
0.0197104
0.0217661
0.0238627
0.0259938
0.0281527
0.0303328
0.032527
0.0347285
0.0369301
0.0391248
0.0413055
0.043465
0.0455961
0.0476916
0.0497447
0.0517483
0.0536958
0.0555807
0.0573965
0.0591367
0.0607956
0.0623675
0.0638471
0.0652292
0.0665095
0.0676836
0.0687479
0.0696991
0.0705344
0.0712517
0.0718493
0.0723262
0.0726819
0.0729165
0.0730311
0.0730271
0.0729066
0.0726725
0.0723282
0.0718779
0.0713262
0.0706788
0.0699415
0.0691207
0.0682234
0.0672567
0.0662282
0.0651455
0.0640163
0.0628483
0.0616486
0.0604235
0.0591784
0.0579254
0.0566745
0.0553269
0.0537927
0.0153753
0.0135541
0.0119886
0.0105709
0.00917888
0.00782215
0.00651233
0.00525265
0.00404692
0.00289994
0.00181687
0.000802956
-0.000136659
-0.000996831
-0.0017727
-0.00245968
-0.00305343
-0.00355012
-0.0039464
-0.00423918
-0.00442587
-0.00450447
-0.00447339
-0.00433146
-0.00407795
-0.00371257
-0.00323552
-0.00264745
-0.00194936
-0.00114269
-0.000229262
0.000788643
0.00190836
0.00312692
0.00444099
0.00584697
0.0073409
0.0089185
0.0105752
0.0123062
0.0141065
0.0159708
0.0178934
0.0198687
0.0218906
0.0239529
0.0260494
0.0281734
0.0303183
0.0324775
0.0346441
0.0368112
0.0389719
0.0411193
0.0432461
0.0453454
0.0474102
0.0494336
0.0514089
0.0533294
0.0551887
0.0569803
0.058698
0.0603359
0.0618885
0.0633505
0.0647167
0.0659827
0.0671442
0.0681975
0.0691393
0.0699667
0.0706775
0.0712697
0.0717423
0.0720945
0.0723263
0.0724384
0.0724321
0.072309
0.0720715
0.0717228
0.0712664
0.0707066
0.0700483
0.0692967
0.0684575
0.0675367
0.0665408
0.0654764
0.0643501
0.0631687
0.0619388
0.0606664
0.0593566
0.0580137
0.0566497
0.0552746
0.0537749
0.0520489
0.0169951
0.0149817
0.013263
0.0117196
0.0102147
0.00875813
0.00736148
0.00602686
0.00475698
0.00355566
0.002427
0.00137526
0.00040458
-0.000480842
-0.00127692
-0.00197989
-0.00258628
-0.00309286
-0.00349685
-0.00379576
-0.00398756
-0.00407067
-0.0040439
-0.00390639
-0.0036577
-0.00329782
-0.00282719
-0.0022466
-0.00155715
-0.000760409
0.000141712
0.00114686
0.00225234
0.00345522
0.00475218
0.00613964
0.00761367
0.00917004
0.0108043
0.0125118
0.0142876
0.0161264
0.0180229
0.0199712
0.0219657
0.0240001
0.0260684
0.0281641
0.0302808
0.0324117
0.0345504
0.0366899
0.0388236
0.0409445
0.0430455
0.0451198
0.0471606
0.0491611
0.0511145
0.0530143
0.0548541
0.0566274
0.0583283
0.0599507
0.0614892
0.0629384
0.0642932
0.065549
0.0667017
0.0677473
0.0686826
0.0695046
0.0702107
0.070799
0.0712681
0.0716171
0.071846
0.0719549
0.0719448
0.0718171
0.0715738
0.0712175
0.0707514
0.0701794
0.0695055
0.0687345
0.0678714
0.0669214
0.0658903
0.0647838
0.0636079
0.0623684
0.0610708
0.0597206
0.0583216
0.0568772
0.0553998
0.0538995
0.0522487
0.0503344
0.0185527
0.0163509
0.0144809
0.0128117
0.0111928
0.00963412
0.00814753
0.00673429
0.00539609
0.00413593
0.002957
0.00186261
0.000856161
-5.90461e-05
-0.000879734
-0.00160285
-0.00222564
-0.00274553
-0.00316027
-0.00346794
-0.00366704
-0.00375642
-0.00373521
-0.0036029
-0.00335937
-0.00300492
-0.00254016
-0.00196602
-0.00128378
-0.00049511
0.000397929
0.00139292
0.00248718
0.00367775
0.00496131
0.00633427
0.0077927
0.00933246
0.0109492
0.0126383
0.014395
0.016214
0.01809
0.0200175
0.0219906
0.0240036
0.0260502
0.0281241
0.030219
0.0323285
0.034446
0.0365648
0.0386781
0.0407793
0.0428613
0.0449174
0.0469408
0.0489248
0.0508628
0.0527481
0.0545744
0.0563355
0.0580251
0.0596375
0.061167
0.0626082
0.0639561
0.065206
0.0663536
0.0673951
0.0683268
0.0691458
0.0698494
0.0704353
0.0709021
0.0712487
0.0714745
0.0715798
0.071565
0.0714312
0.0711799
0.0708136
0.0703348
0.0697469
0.0690536
0.0682588
0.067367
0.0663829
0.0653114
0.0641578
0.062927
0.0616243
0.0602544
0.058822
0.0573302
0.0557817
0.0541891
0.052563
0.0507624
0.0486634
0.0200342
0.0176481
0.0156285
0.0138338
0.0121002
0.0104379
0.00885899
0.00736419
0.00595434
0.00463167
0.00339863
0.00225766
0.00121143
0.000262585
-0.000586392
-0.00133318
-0.0019756
-0.00251166
-0.00293967
-0.00325831
-0.00346653
-0.00356353
-0.00354882
-0.00342223
-0.00318402
-0.00283469
-0.00237506
-0.00180621
-0.00112961
-0.000347115
0.000539123
0.00152665
0.00261274
0.0037944
0.00506825
0.00643065
0.00787777
0.00940552
0.0110096
0.0126855
0.0144283
0.016233
0.0180943
0.0200068
0.0219647
0.0239624
0.0259936
0.0280522
0.0301319
0.0322265
0.0343295
0.0364342
0.038534
0.0406221
0.0426917
0.0447362
0.0467488
0.0487228
0.0506516
0.0525286
0.0543475
0.0561021
0.0577862
0.0593939
0.0609196
0.0623577
0.0637032
0.0649514
0.0660979
0.0671387
0.06807
0.0688888
0.069592
0.0701774
0.0706432
0.0709882
0.0712116
0.0713131
0.071293
0.0711519
0.0708912
0.0705126
0.0700186
0.0694119
0.0686958
0.0678736
0.0669492
0.0659267
0.0648106
0.0636053
0.0623153
0.0609452
0.0594991
0.057981
0.0563934
0.0547386
0.0530297
0.0512777
0.0493287
0.0470481
0.0214276
0.0188604
0.0166932
0.0147736
0.012925
0.0111579
0.00948497
0.00790633
0.00642219
0.00503402
0.00374361
0.00255285
0.00146365
0.00047792
-0.000402491
-0.00117584
-0.00184053
-0.00239513
-0.00283856
-0.00316997
-0.00338869
-0.0034943
-0.00348671
-0.00336617
-0.00313316
-0.00278843
-0.00233296
-0.0017681
-0.00109551
-0.00031719
0.000564645
0.00154748
0.00262852
0.00380464
0.00507242
0.00642827
0.00786838
0.00938871
0.010985
0.0126526
0.0143869
0.0161827
0.0180349
0.0199382
0.021887
0.0238754
0.0258974
0.0279471
0.0300181
0.0321044
0.0341994
0.0362966
0.0383894
0.0404711
0.0425349
0.0445744
0.0465826
0.048553
0.0504789
0.0523538
0.0541713
0.0559252
0.0576094
0.0592179
0.0607448
0.0621848
0.0635326
0.0647834
0.0659327
0.0669765
0.0679107
0.068732
0.0694374
0.0700243
0.0704909
0.0708354
0.071057
0.071155
0.0711293
0.0709803
0.0707089
0.0703167
0.0698054
0.0691776
0.0684359
0.0675832
0.0666228
0.0655585
0.064394
0.0631333
0.0617805
0.0603395
0.0588139
0.0572072
0.0555216
0.0537588
0.0519326
0.0500546
0.0479585
0.0454993
0.0227214
0.0199764
0.0176634
0.0156196
0.0136558
0.0117833
0.0100152
0.00835094
0.0067903
0.00533423
0.00398395
0.00274073
0.00160583
0.000580553
-0.000333812
-0.00113604
-0.00182514
-0.00240028
-0.00286084
-0.00320635
-0.00343655
-0.00355146
-0.00355141
-0.00343692
-0.00320874
-0.00286781
-0.00241541
-0.00185312
-0.00118278
-0.000406477
0.000473486
0.00145447
0.00253354
0.00370752
0.00497295
0.00632627
0.0077637
0.00928116
0.0108744
0.0125388
0.0142696
0.016062
0.0179108
0.0198108
0.0217562
0.0237414
0.0257605
0.0278075
0.0298762
0.0319606
0.0340541
0.0361503
0.0382426
0.0403245
0.0423891
0.04443
0.0464403
0.0484134
0.0503427
0.0522215
0.0540437
0.0558028
0.0574927
0.0591074
0.0606409
0.0620877
0.0634424
0.0647003
0.0658566
0.0669071
0.0678476
0.0686745
0.0693848
0.0699755
0.0704447
0.0707903
0.0710111
0.0711061
0.071075
0.0709178
0.0706351
0.070228
0.0696981
0.0690472
0.0682777
0.067392
0.066393
0.0652838
0.0640679
0.0627489
0.0613302
0.0598152
0.0582074
0.0565097
0.0547241
0.052852
0.0509079
0.048904
0.0466619
0.0440266
0.0239056
0.0209856
0.0185284
0.016361
0.0142823
0.0123039
0.0104395
0.00868838
0.00704961
0.0055238
0.00411163
0.00281376
0.00163096
0.000564037
-0.000386262
-0.00121928
-0.00193456
-0.00253177
-0.00301067
-0.00337121
-0.00361358
-0.00373822
-0.0037458
-0.00363707
-0.00341305
-0.00307497
-0.00262441
-0.00206312
-0.00139307
-0.000616475
0.000264219
0.00124621
0.00232647
0.00350176
0.00476863
0.00612351
0.00756255
0.00908165
0.0106765
0.0123426
0.0140753
0.0158697
0.0177207
0.019623
0.021571
0.023559
0.0255812
0.0276318
0.0297046
0.0317934
0.0338919
0.0359936
0.0380919
0.0401805
0.0422524
0.0443012
0.04632
0.0483021
0.0502409
0.0521299
0.0539628
0.055733
0.0574343
0.0590606
0.060606
0.0620646
0.0634313
0.0647008
0.0658683
0.0669294
0.0678798
0.0687157
0.0694337
0.0700309
0.0705047
0.0708532
0.0710745
0.0711676
0.0711316
0.0709663
0.0706721
0.0702495
0.0696998
0.0690246
0.0682255
0.0673048
0.0662649
0.0651086
0.0638388
0.0624588
0.0609716
0.0593803
0.0576879
0.0558974
0.0540101
0.0520275
0.0499648
0.047835
0.0454479
0.0426384
0.0249708
0.021878
0.0192781
0.0169879
0.0147944
0.0127098
0.0107485
0.00890946
0.00719135
0.00559431
0.00411858
0.00276437
0.00153201
0.000421811
-0.000566009
-0.00143133
-0.00217413
-0.00279447
-0.00329254
-0.00366873
-0.00392368
-0.00405817
-0.0040731
-0.00396954
-0.00374883
-0.00341251
-0.00296235
-0.00240027
-0.00172838
-0.00094908
-6.49916e-05
0.000920955
0.00200565
0.00318581
0.00445797
0.00581847
0.00726342
0.00878869
0.01039
0.0120629
0.0138026
0.0156044
0.017463
0.0193733
0.0213296
0.0233264
0.025358
0.0274184
0.0295015
0.0316011
0.0337109
0.0358245
0.0379354
0.0400371
0.0421229
0.0441859
0.0462196
0.0482171
0.0501718
0.0520772
0.0539267
0.055714
0.0574325
0.059076
0.0606386
0.0621144
0.0634978
0.0647836
0.0659669
0.0670427
0.0680069
0.0688552
0.0695841
0.0701905
0.0706715
0.0710248
0.0712484
0.0713408
0.0713008
0.071128
0.0708223
0.0703841
0.0698141
0.0691135
0.0682837
0.0673265
0.066244
0.0650386
0.063713
0.0622699
0.0607121
0.0590424
0.0572636
0.0553784
0.0533881
0.0512939
0.0491121
0.0468563
0.0443247
0.0413425
0.0259082
0.0226446
0.0199031
0.0174908
0.0151826
0.0129916
0.010933
0.0090053
0.00720684
0.0055374
0.00399685
0.00258505
0.00130185
0.00014709
-0.000879484
-0.00177819
-0.00254938
-0.00319353
-0.00371128
-0.00410347
-0.00437106
-0.00451512
-0.00453687
-0.0044377
-0.00421927
-0.00388337
-0.00343194
-0.00286708
-0.0021911
-0.00140658
-0.000516337
0.00047662
0.00156911
0.0027578
0.00403912
0.00540935
0.00686453
0.00840054
0.0100131
0.0116977
0.0134497
0.0152641
0.017136
0.0190599
0.0210304
0.023042
0.025089
0.0271653
0.0292649
0.0313817
0.0335092
0.0356412
0.0377712
0.0398926
0.0419985
0.0440824
0.0461373
0.0481566
0.0501336
0.0520615
0.0539339
0.055744
0.0574856
0.059152
0.0607374
0.0622356
0.0636409
0.064948
0.0661514
0.0672464
0.0682283
0.0690928
0.0698361
0.0704547
0.0709457
0.0713062
0.0715341
0.0716273
0.0715847
0.0714053
0.0710888
0.070635
0.0700446
0.0693181
0.0684568
0.0674621
0.0663357
0.0650798
0.0636968
0.0621889
0.0605588
0.058809
0.0569421
0.0549608
0.0528662
0.0506595
0.0483579
0.0459758
0.0433
0.0401458
0.0267096
0.0232766
0.0203943
0.0178603
0.0154378
0.0131403
0.0109841
0.00896708
0.0070875
0.00534482
0.00373857
0.00226824
0.000933228
-0.000267041
-0.00133321
-0.00226596
-0.00306605
-0.0037344
-0.00427208
-0.00468024
-0.00496018
-0.00511325
-0.00514104
-0.00504527
-0.00482785
-0.00449078
-0.00403619
-0.00346641
-0.00278396
-0.00199162
-0.0010923
-8.91355e-05
0.00101462
0.00221553
0.00350993
0.00489403
0.00636384
0.0079152
0.00954383
0.0112452
0.0130146
0.0148471
0.0167376
0.0186808
0.0206714
0.0227038
0.0247722
0.0268706
0.028993
0.0311332
0.0332849
0.0354417
0.0375972
0.0397447
0.0418774
0.0439885
0.0460712
0.0481188
0.0501243
0.0520811
0.0539824
0.0558217
0.0575921
0.0592874
0.0609011
0.0624272
0.0638597
0.065193
0.0664215
0.0675402
0.0685441
0.0694288
0.0701901
0.0708244
0.0713283
0.0716987
0.0719331
0.0720293
0.0719857
0.071801
0.0714745
0.0710059
0.0703952
0.0696428
0.0687496
0.0677167
0.0665457
0.0652382
0.0637965
0.0622225
0.0605187
0.0586874
0.0567311
0.0546523
0.0524523
0.0501321
0.0477098
0.0452011
0.0423808
0.0390549
0.0273669
0.0237656
0.0207432
0.0180878
0.015551
0.0131471
0.0108928
0.00878612
0.00682492
0.0050084
0.00333582
0.00180626
0.000418753
-0.000827607
-0.00193382
-0.00290095
-0.00373019
-0.00442284
-0.00498033
-0.00540411
-0.00569578
-0.00585708
-0.00588992
-0.0057963
-0.00557836
-0.00523829
-0.00477849
-0.00420151
-0.00351008
-0.00270712
-0.00179567
-0.000778968
0.000339612
0.00155651
0.00286799
0.00427018
0.00575907
0.00733046
0.00898002
0.0107032
0.0124952
0.014351
0.0162658
0.0182341
0.0202506
0.0223096
0.0244055
0.0265321
0.0286835
0.0308535
0.0330358
0.035224
0.0374115
0.0395916
0.0417576
0.0439024
0.0460194
0.0481017
0.0501422
0.0521342
0.0540709
0.0559453
0.0577508
0.0594807
0.0611287
0.0626883
0.0641534
0.0655181
0.0667768
0.0679239
0.0689543
0.0698635
0.0706468
0.0713004
0.0718206
0.0722039
0.0724475
0.072549
0.0725064
0.0723181
0.071983
0.0715004
0.0708701
0.0700921
0.0691671
0.0680958
0.0668796
0.0655199
0.0640186
0.0623775
0.0605989
0.0586848
0.0566378
0.0544604
0.0521538
0.0497191
0.0471754
0.0445392
0.041574
0.0380762
0.0278722
0.0241032
0.0209413
0.0181647
0.0155136
0.0130031
0.0106506
0.00845393
0.00641075
0.00452
0.00278061
0.00119136
-0.000248999
-0.00154171
-0.00268813
-0.00368972
-0.00454806
-0.00526479
-0.00584163
-0.00628036
-0.00658294
-0.00675145
-0.00678809
-0.0066951
-0.00647484
-0.00612977
-0.00566253
-0.00507591
-0.0043728
-0.00355627
-0.00262949
-0.00159581
-0.000458766
0.000777991
0.00211062
0.00353522
0.00504772
0.00664386
0.00831922
0.0100692
0.011889
0.0137737
0.0157182
0.0177173
0.0197655
0.0218572
0.0239866
0.0261477
0.0283344
0.0305405
0.0327598
0.0349858
0.0372118
0.0394311
0.0416368
0.0438221
0.04598
0.0481035
0.0501856
0.0522193
0.0541976
0.0561135
0.0579603
0.059731
0.0614191
0.063018
0.0645214
0.065923
0.0672169
0.0683975
0.0694594
0.0703975
0.0712071
0.071884
0.072424
0.0728236
0.0730795
0.073189
0.0731498
0.0729599
0.0726179
0.0721227
0.0714738
0.0706709
0.0697145
0.068605
0.0673434
0.0659312
0.0643697
0.0626607
0.0608062
0.0588084
0.0566697
0.0543926
0.0519783
0.049428
0.0467618
0.0439972
0.0408862
0.0372156
0.028218
0.0242817
0.0209802
0.0180824
0.015317
0.0126997
0.0102488
0.00796203
0.00583661
0.00387133
0.00206487
0.000415763
-0.00107753
-0.00241661
-0.00360317
-0.00463905
-0.00552614
-0.00626639
-0.00686183
-0.00731462
-0.00762705
-0.00780149
-0.00784039
-0.00774624
-0.00752168
-0.00716943
-0.00669236
-0.00609347
-0.0053758
-0.00454257
-0.00359711
-0.00254292
-0.00138365
-0.000123074
0.00123491
0.00268632
0.00422701
0.00585264
0.00755874
0.00934065
0.0111935
0.0131125
0.0150924
0.017128
0.0192138
0.0213441
0.0235131
0.0257148
0.0279431
0.0301918
0.0324546
0.0347248
0.0369959
0.039261
0.0415132
0.0437455
0.0459509
0.0481223
0.0502526
0.0523345
0.054361
0.0563249
0.0582193
0.0600371
0.0617715
0.0634158
0.0649632
0.0664074
0.0677421
0.0689614
0.0700597
0.0710316
0.0718721
0.0725765
0.0731404
0.0735599
0.0738315
0.0739521
0.073919
0.0737299
0.073383
0.072877
0.0722109
0.0713843
0.0703972
0.0692499
0.0679433
0.0664783
0.0648563
0.0630789
0.0611479
0.0590655
0.0568341
0.0544563
0.0519332
0.0492661
0.0464762
0.0435819
0.0403239
0.0364791
0.0283966
0.0242928
0.0208517
0.0178326
0.0149527
0.0122285
0.0096791
0.0073019
0.00509406
0.00305412
0.00118054
-0.000528377
-0.00207449
-0.00345973
-0.00468614
-0.00575585
-0.00667104
-0.00743399
-0.00804707
-0.00851279
-0.00883373
-0.00901254
-0.00905191
-0.00895462
-0.00872357
-0.00836176
-0.00787228
-0.00725828
-0.00652299
-0.00566979
-0.00470217
-0.0036238
-0.00243844
-0.00114994
0.000237687
0.00172039
0.00329392
0.00495387
0.00669569
0.00851468
0.010406
0.0123647
0.0143857
0.0164635
0.0185928
0.0207677
0.0229824
0.025231
0.0275072
0.0298049
0.0321176
0.0344387
0.0367614
0.039079
0.0413843
0.0436704
0.0459301
0.0481562
0.0503414
0.0524782
0.0545596
0.0565781
0.0585266
0.060398
0.062185
0.0638808
0.0654783
0.066971
0.0683523
0.0696159
0.0707561
0.0717669
0.0726431
0.0733795
0.0739717
0.0744152
0.0747062
0.0748413
0.0748175
0.074632
0.0742827
0.0737679
0.0730864
0.0722375
0.0712209
0.0700368
0.0686855
0.0671679
0.0654854
0.0636392
0.0616312
0.0594635
0.0571386
0.0546589
0.0520258
0.0492407
0.0463257
0.0433003
0.0398937
0.0358726
0.0284005
0.0241286
0.0205476
0.0174068
0.0144122
0.0115809
0.00893269
0.00646497
0.00417462
0.00206003
0.000119466
-0.00164907
-0.00324773
-0.00467874
-0.00594443
-0.00704722
-0.00798961
-0.00877421
-0.00940374
-0.009881
-0.0102089
-0.0103902
-0.010428
-0.0103254
-0.0100855
-0.00971156
-0.00920685
-0.00857471
-0.00781856
-0.00694196
-0.00594858
-0.00484221
-0.00362674
-0.00230612
-0.000884443
0.000634112
0.00224521
0.00394435
0.00572695
0.00758826
0.00952342
0.0115274
0.0135951
0.015721
0.0178996
0.0201251
0.0223918
0.0246935
0.0270241
0.0293772
0.0317463
0.0341248
0.0365059
0.0388827
0.041248
0.0435947
0.0459156
0.0482032
0.05045
0.0526487
0.0547917
0.0568717
0.0588811
0.0608126
0.0626588
0.0644125
0.0660665
0.0676138
0.0690477
0.0703616
0.0715492
0.0726044
0.0735214
0.074295
0.0749201