/*--------------------------------*- C++ -*----------------------------------*\
| =========                 |                                                 |
| \\      /  F ield         | OpenFOAM: The Open Source CFD Toolbox           |
|  \\    /   O peration     | Version:  2212                                  |
|   \\  /    A nd           | Website:  www.openfoam.com                      |
|    \\/     M anipulation  |                                                 |
\*---------------------------------------------------------------------------*/
FoamFile
{
    version     2.0;
    format      ascii;
    arch        "LSB;label=32;scalar=64";
    class       surfaceScalarField;
    location    "0.0705";
    object      phi;
}
// * * * * * * * * * * * * * * * * * * * * * * * * * * * * * * * * * * * * * //

dimensions      [0 3 -1 0 0 0 0];

oriented        oriented;

internalField   nonuniform List<scalar> 
19800
(
6.89309e-11
-6.89486e-11
2.3764e-10
-1.68711e-10
4.24131e-10
-1.86483e-10
5.7012e-10
-1.45973e-10
6.4276e-10
-7.26348e-11
6.2439e-10
1.83444e-11
5.06412e-10
1.17977e-10
2.85745e-10
2.20661e-10
-3.71271e-11
3.22876e-10
-4.59469e-10
4.22354e-10
-9.77071e-10
5.17604e-10
-1.58473e-09
6.0767e-10
-2.27663e-09
6.91887e-10
-3.04646e-09
7.69837e-10
-3.8877e-09
8.41255e-10
-4.79368e-09
9.05978e-10
-5.75762e-09
9.63938e-10
-6.77277e-09
1.01515e-09
-7.83244e-09
1.05966e-09
-8.93e-09
1.09755e-09
-1.00589e-08
1.12893e-09
-1.12129e-08
1.15394e-09
-1.23856e-08
1.17271e-09
-1.3571e-08
1.18543e-09
-1.47633e-08
1.19227e-09
-1.59567e-08
1.19342e-09
-1.71458e-08
1.18906e-09
-1.83252e-08
1.1794e-09
-1.94898e-08
1.16463e-09
-2.06348e-08
1.14496e-09
-2.17553e-08
1.12059e-09
-2.28471e-08
1.09173e-09
-2.39056e-08
1.05858e-09
-2.4927e-08
1.02136e-09
-2.59073e-08
9.8027e-10
-2.68428e-08
9.35538e-10
-2.77302e-08
8.87366e-10
-2.85661e-08
8.35963e-10
-2.93477e-08
7.81539e-10
-3.0072e-08
7.2431e-10
-3.07365e-08
6.64498e-10
-3.13388e-08
6.02313e-10
-3.18768e-08
5.37965e-10
-3.23484e-08
4.71682e-10
-3.27521e-08
4.03682e-10
-3.30863e-08
3.34185e-10
-3.33497e-08
2.63424e-10
-3.35413e-08
1.91629e-10
-3.36604e-08
1.19031e-10
-3.37062e-08
4.58674e-11
-3.36786e-08
-2.76242e-11
-3.35774e-08
-1.01205e-10
-3.34028e-08
-1.74625e-10
-3.31551e-08
-2.47632e-10
-3.28352e-08
-3.19978e-10
-3.24438e-08
-3.91399e-10
-3.19821e-08
-4.61629e-10
-3.14517e-08
-5.30408e-10
-3.08543e-08
-5.97472e-10
-3.01917e-08
-6.62551e-10
-2.94663e-08
-7.25377e-10
-2.86806e-08
-7.85679e-10
-2.78375e-08
-8.43178e-10
-2.69399e-08
-8.97594e-10
-2.59912e-08
-9.48657e-10
-2.49951e-08
-9.96105e-10
-2.39555e-08
-1.03967e-09
-2.28764e-08
-1.07908e-09
-2.17623e-08
-1.11407e-09
-2.06179e-08
-1.1444e-09
-1.94481e-08
-1.16981e-09
-1.82581e-08
-1.19005e-09
-1.70532e-08
-1.2049e-09
-1.5839e-08
-1.21414e-09
-1.46214e-08
-1.21758e-09
-1.34064e-08
-1.21501e-09
-1.22002e-08
-1.20624e-09
-1.10091e-08
-1.19113e-09
-9.83954e-09
-1.16953e-09
-8.69824e-09
-1.1413e-09
-7.59186e-09
-1.10637e-09
-6.5272e-09
-1.06466e-09
-5.51105e-09
-1.01614e-09
-4.55022e-09
-9.60827e-10
-3.65145e-09
-8.98765e-10
-2.82139e-09
-8.30061e-10
-2.06649e-09
-7.54893e-10
-1.39296e-09
-6.73533e-10
-8.06579e-10
-5.86377e-10
-3.12593e-10
-4.93986e-10
8.45638e-11
-3.97156e-10
3.81593e-10
-2.97029e-10
5.76836e-10
-1.95244e-10
6.71066e-10
-9.42304e-11
6.68735e-10
2.33342e-12
5.79991e-10
8.87447e-11
4.23853e-10
1.56138e-10
2.33597e-10
1.90251e-10
6.58853e-11
1.67708e-10
6.58853e-11
1.65716e-10
-2.34678e-10
4.57327e-10
-4.60313e-10
7.38134e-10
-4.67327e-10
9.07139e-10
-3.14975e-10
8.94503e-10
-5.99984e-11
6.55948e-10
2.56943e-10
1.65855e-10
6.08053e-10
-5.87968e-10
9.74506e-10
-1.60848e-09
1.34338e-09
-2.89195e-09
1.7058e-09
-4.42998e-09
2.05563e-09
-6.21088e-09
2.38857e-09
-8.22061e-09
2.70161e-09
-1.04435e-08
2.9927e-09
-1.28627e-08
3.26044e-09
-1.54607e-08
3.50395e-09
-1.82194e-08
3.72273e-09
-2.11208e-08
3.91653e-09
-2.41465e-08
4.08535e-09
-2.72783e-08
4.22936e-09
-3.04982e-08
4.34887e-09
-3.37886e-08
4.44428e-09
-3.7132e-08
4.51608e-09
-4.05114e-08
4.56482e-09
-4.39102e-08
4.59114e-09
-4.73125e-08
4.59566e-09
-5.07025e-08
4.5791e-09
-5.40652e-08
4.54215e-09
-5.73861e-08
4.48556e-09
-6.06513e-08
4.4101e-09
-6.38472e-08
4.31653e-09
-6.69611e-08
4.20563e-09
-6.99808e-08
4.07819e-09
-7.28944e-08
3.93501e-09
-7.5691e-08
3.77689e-09
-7.83601e-08
3.60463e-09
-8.08918e-08
3.41905e-09
-8.32768e-08
3.22097e-09
-8.55064e-08
3.01121e-09
-8.75727e-08
2.79059e-09
-8.94682e-08
2.55995e-09
-9.1186e-08
2.32013e-09
-9.272e-08
2.07197e-09
-9.40646e-08
1.81632e-09
-9.5215e-08
1.55404e-09
-9.61668e-08
1.28601e-09
-9.69165e-08
1.01311e-09
-9.74611e-08
7.36231e-10
-9.77983e-08
4.56279e-10
-9.79266e-08
1.74166e-10
-9.78451e-08
-1.09168e-10
-9.75535e-08
-3.92776e-10
-9.70524e-08
-6.75707e-10
-9.6343e-08
-9.56992e-10
-9.54274e-08
-1.23565e-09
-9.43081e-08
-1.51068e-09
-9.29886e-08
-1.78108e-09
-9.14732e-08
-2.04581e-09
-8.97669e-08
-2.30384e-09
-8.78753e-08
-2.55417e-09
-8.58049e-08
-2.79573e-09
-8.35631e-08
-3.02749e-09
-8.11579e-08
-3.24839e-09
-7.85981e-08
-3.45739e-09
-7.58933e-08
-3.65344e-09
-7.30539e-08
-3.83551e-09
-7.0091e-08
-4.00258e-09
-6.70164e-08
-4.15366e-09
-6.38428e-08
-4.28775e-09
-6.05833e-08
-4.40388e-09
-5.7252e-08
-4.50111e-09
-5.38635e-08
-4.57856e-09
-5.0433e-08
-4.63536e-09
-4.69765e-08
-4.6707e-09
-4.35102e-08
-4.68382e-09
-4.00512e-08
-4.67401e-09
-3.66168e-08
-4.64065e-09
-3.32248e-08
-4.58316e-09
-2.98932e-08
-4.50106e-09
-2.66406e-08
-4.39394e-09
-2.34854e-08
-4.26154e-09
-2.04464e-08
-4.1037e-09
-1.75421e-08
-3.92042e-09
-1.47911e-08
-3.71186e-09
-1.22114e-08
-3.47839e-09
-9.82084e-09
-3.22063e-09
-7.63625e-09
-2.93948e-09
-5.67351e-09
-2.63628e-09
-3.94703e-09
-2.31285e-09
-2.46926e-09
-1.97175e-09
-1.24997e-09
-1.61644e-09
-2.95294e-10
-1.2517e-09
3.93609e-10
-8.84152e-10
8.22445e-10
-5.23072e-10
1.00642e-09
-1.81644e-10
9.73921e-10
1.2125e-10
7.71447e-10
3.58611e-10
4.69537e-10
4.92157e-10
1.67609e-10
4.69634e-10
2.33495e-10
1.81443e-10
-4.16113e-10
4.59199e-10
-7.38089e-10
6.66177e-10
-6.74299e-10
6.8182e-10
-3.30647e-10
4.18791e-10
2.03039e-10
-1.82389e-10
8.58078e-10
-1.15864e-09
1.58432e-09
-2.52976e-09
2.34562e-09
-4.30242e-09
3.11605e-09
-6.47349e-09
3.87691e-09
-9.03257e-09
4.61473e-09
-1.19638e-08
5.31979e-09
-1.52473e-08
5.98512e-09
-1.88603e-08
6.60571e-09
-2.2778e-08
7.17808e-09
-2.69739e-08
7.69988e-09
-3.14208e-08
8.16963e-09
-3.60907e-08
8.58649e-09
-4.09556e-08
8.95019e-09
-4.59871e-08
9.26086e-09
-5.11572e-08
9.51893e-09
-5.6438e-08
9.72511e-09
-6.18023e-08
9.88033e-09
-6.72231e-08
9.98567e-09
-7.26743e-08
1.00424e-08
-7.81304e-08
1.00517e-08
-8.35666e-08
1.00152e-08
-8.89588e-08
9.93436e-09
-9.42839e-08
9.81065e-09
-9.95194e-08
9.6457e-09
-1.04644e-07
9.44119e-09
-1.09637e-07
9.19878e-09
-1.14479e-07
8.92018e-09
-1.19151e-07
8.60711e-09
-1.23636e-07
8.26131e-09
-1.27916e-07
7.88453e-09
-1.31975e-07
7.47856e-09
-1.35799e-07
7.04517e-09
-1.39374e-07
6.58617e-09
-1.42687e-07
6.10337e-09
-1.45726e-07
5.5986e-09
-1.48479e-07
5.07369e-09
-1.50938e-07
4.53051e-09
-1.53092e-07
3.97094e-09
-1.54935e-07
3.39686e-09
-1.56459e-07
2.8102e-09
-1.57659e-07
2.21291e-09
-1.5853e-07
1.60695e-09
-1.59068e-07
9.94305e-10
-1.59271e-07
3.77001e-10
-1.59137e-07
-2.42923e-10
-1.58666e-07
-8.63383e-10
-1.5786e-07
-1.48227e-09
-1.56719e-07
-2.09746e-09
-1.55248e-07
-2.70681e-09
-1.53451e-07
-3.30812e-09
-1.51333e-07
-3.89918e-09
-1.48901e-07
-4.47776e-09
-1.46163e-07
-5.04163e-09
-1.43129e-07
-5.5885e-09
-1.39808e-07
-6.11613e-09
-1.36214e-07
-6.62222e-09
-1.32357e-07
-7.1045e-09
-1.28254e-07
-7.56068e-09
-1.23919e-07
-7.98852e-09
-1.19369e-07
-8.38578e-09
-1.14621e-07
-8.75024e-09
-1.09695e-07
-9.07973e-09
-1.04611e-07
-9.37213e-09
-9.93892e-08
-9.62535e-09
-9.40529e-08
-9.83741e-09
-8.86251e-08
-1.00064e-08
-8.31301e-08
-1.01304e-08
-7.75929e-08
-1.02078e-08
-7.20398e-08
-1.0237e-08
-6.64974e-08
-1.02164e-08
-6.09932e-08
-1.01449e-08
-5.55552e-08
-1.00211e-08
-5.0212e-08
-9.84424e-09
-4.49924e-08
-9.61353e-09
-3.99255e-08
-9.32849e-09
-3.50402e-08
-8.98896e-09
-3.03655e-08
-8.59511e-09
-2.59299e-08
-8.1475e-09
-2.17611e-08
-7.64717e-09
-1.7886e-08
-7.09574e-09
-1.43299e-08
-6.49555e-09
-1.11163e-08
-5.84986e-09
-8.26612e-09
-5.16305e-09
-5.79681e-09
-4.44106e-09
-3.72145e-09
-3.6918e-09
-2.04725e-09
-2.9259e-09
-7.73784e-10
-2.15762e-09
1.09423e-10
-1.40628e-09
6.25943e-10
-6.98168e-10
8.16309e-10
-6.91191e-11
7.42727e-10
4.3219e-10
4.94066e-10
7.40817e-10
1.90708e-10
7.72994e-10
4.24201e-10
1.43359e-10
-5.59462e-10
3.11547e-10
-9.06265e-10
3.28449e-10
-6.91204e-10
6.64926e-11
-6.86928e-11
-5.68295e-10
8.37843e-10
-1.64197e-09
1.93175e-09
-3.1973e-09
3.13967e-09
-5.25841e-09
4.40671e-09
-7.83441e-09
5.69203e-09
-1.09227e-08
6.96519e-09
-1.45116e-08
8.20355e-09
-1.85821e-08
9.39036e-09
-2.31102e-08
1.05132e-08
-2.80675e-08
1.1563e-08
-3.34228e-08
1.25333e-08
-3.91424e-08
1.34195e-08
-4.51913e-08
1.42185e-08
-5.15334e-08
1.49286e-08
-5.8132e-08
1.55488e-08
-6.49502e-08
1.6079e-08
-7.19509e-08
1.65197e-08
-7.90976e-08
1.68718e-08
-8.6354e-08
1.71367e-08
-9.36845e-08
1.73161e-08
-1.01054e-07
1.7412e-08
-1.08429e-07
1.74265e-08
-1.15775e-07
1.73619e-08
-1.23062e-07
1.72208e-08
-1.30257e-07
1.70057e-08
-1.37331e-07
1.67194e-08
-1.44254e-07
1.63646e-08
-1.50999e-07
1.59442e-08
-1.5754e-07
1.54612e-08
-1.63852e-07
1.49184e-08
-1.69909e-07
1.43188e-08
-1.7569e-07
1.36656e-08
-1.81173e-07
1.29617e-08
-1.86338e-07
1.22102e-08
-1.91167e-07
1.14143e-08
-1.9564e-07
1.05771e-08
-1.99743e-07
9.70175e-09
-2.03461e-07
8.79147e-09
-2.0678e-07
7.84952e-09
-2.09688e-07
6.87914e-09
-2.12175e-07
5.88363e-09
-2.14231e-07
4.86633e-09
-2.15849e-07
3.83065e-09
-2.17022e-07
2.77999e-09
-2.17746e-07
1.71782e-09
-2.18016e-07
6.47662e-10
-2.17832e-07
-4.26933e-10
-2.17193e-07
-1.50235e-09
-2.16101e-07
-2.57494e-09
-2.14557e-07
-3.641e-09
-2.12567e-07
-4.69679e-09
-2.10137e-07
-5.73851e-09
-2.07274e-07
-6.76234e-09
-2.03987e-07
-7.76441e-09
-2.00288e-07
-8.74085e-09
-1.96188e-07
-9.68774e-09
-1.91703e-07
-1.06012e-08
-1.86848e-07
-1.14772e-08
-1.81641e-07
-1.23118e-08
-1.76101e-07
-1.31013e-08
-1.70248e-07
-1.38415e-08
-1.64104e-07
-1.45288e-08
-1.57695e-07
-1.51594e-08
-1.51046e-07
-1.57294e-08
-1.44182e-07
-1.62353e-08
-1.37134e-07
-1.66736e-08
-1.29931e-07
-1.70408e-08
-1.22604e-07
-1.73336e-08
-1.15185e-07
-1.75491e-08
-1.07709e-07
-1.76842e-08
-1.00209e-07
-1.77364e-08
-9.27224e-08
-1.77031e-08
-8.5285e-08
-1.75823e-08
-7.7934e-08
-1.73721e-08
-7.07073e-08
-1.7071e-08
-6.36429e-08
-1.66779e-08
-5.67792e-08
-1.61922e-08
-5.01542e-08
-1.56139e-08
-4.38057e-08
-1.49436e-08
-3.77709e-08
-1.41824e-08
-3.20856e-08
-1.33325e-08
-2.67843e-08
-1.2397e-08
-2.18993e-08
-1.13805e-08
-1.74601e-08
-1.0289e-08
-1.34928e-08
-9.13043e-09
-1.00184e-08
-7.91538e-09
-7.05256e-09
-6.65769e-09
-4.60296e-09
-5.3755e-09
-2.66798e-09
-4.09259e-09
-1.23399e-09
-2.84027e-09
-2.72397e-10
-1.65976e-09
2.63854e-10
-6.05372e-10
4.44431e-10
2.51611e-10
3.66065e-10
8.19183e-10
1.58288e-10
9.80775e-10
5.82486e-10
7.42857e-11
-6.3375e-10
6.63526e-11
-8.98342e-10
-1.90969e-10
-4.33868e-10
-8.22041e-10
5.62379e-10
-1.91987e-09
1.93568e-09
-3.55107e-09
3.56295e-09
-5.75975e-09
5.34835e-09
-8.57124e-09
7.21821e-09
-1.19953e-08
9.11612e-09
-1.60291e-08
1.09989e-08
-2.06593e-08
1.28338e-08
-2.58648e-08
1.45958e-08
-3.16176e-08
1.62661e-08
-3.78851e-08
1.78305e-08
-4.46305e-08
1.92788e-08
-5.18144e-08
2.06034e-08
-5.93952e-08
2.17993e-08
-6.73296e-08
2.2863e-08
-7.55737e-08
2.37929e-08
-8.4083e-08
2.45882e-08
-9.28126e-08
2.52494e-08
-1.01718e-07
2.57774e-08
-1.10756e-07
2.61741e-08
-1.19881e-07
2.64418e-08
-1.29053e-07
2.65832e-08
-1.38228e-07
2.66015e-08
-1.47366e-07
2.64999e-08
-1.56427e-07
2.62822e-08
-1.65373e-07
2.59521e-08
-1.74168e-07
2.55138e-08
-1.82775e-07
2.49713e-08
-1.91159e-07
2.4329e-08
-1.99289e-07
2.35911e-08
-2.07133e-07
2.27623e-08
-2.14661e-07
2.18469e-08
-2.21845e-07
2.08496e-08
-2.28659e-07
1.9775e-08
-2.35076e-07
1.86279e-08
-2.41075e-07
1.74129e-08
-2.46633e-07
1.61349e-08
-2.5173e-07
1.47987e-08
-2.56347e-07
1.34093e-08
-2.60469e-07
1.19715e-08
-2.6408e-07
1.04903e-08
-2.67168e-07
8.97086e-09
-2.6972e-07
7.41824e-09
-2.71727e-07
5.83763e-09
-2.73181e-07
4.23425e-09
-2.74076e-07
2.61343e-09
-2.74409e-07
9.80528e-10
-2.74177e-07
-6.59003e-10
-2.7338e-07
-2.29965e-09
-2.72019e-07
-3.93582e-09
-2.70098e-07
-5.56188e-09
-2.67623e-07
-7.1721e-09
-2.64601e-07
-8.7607e-09
-2.61041e-07
-1.03219e-08
-2.56956e-07
-1.18497e-08
-2.52358e-07
-1.33382e-08
-2.47265e-07
-1.47816e-08
-2.41692e-07
-1.61738e-08
-2.3566e-07
-1.75089e-08
-2.29191e-07
-1.87809e-08
-2.22308e-07
-1.99839e-08
-2.15038e-07
-2.11119e-08
-2.07408e-07
-2.21593e-08
-1.99447e-07
-2.31202e-08
-1.91187e-07
-2.3989e-08
-1.82662e-07
-2.47603e-08
-1.73907e-07
-2.54288e-08
-1.64958e-07
-2.59894e-08
-1.55855e-07
-2.64372e-08
-1.46636e-07
-2.67676e-08
-1.37344e-07
-2.69763e-08
-1.28021e-07
-2.70595e-08
-1.18711e-07
-2.70134e-08
-1.09458e-07
-2.68351e-08
-1.00308e-07
-2.65219e-08
-9.13075e-08
-2.60717e-08
-8.2502e-08
-2.54833e-08
-7.39383e-08
-2.47559e-08
-6.56624e-08
-2.38898e-08
-5.77199e-08
-2.28861e-08
-5.01553e-08
-2.1747e-08
-4.30114e-08
-2.04763e-08
-3.63292e-08
-1.90792e-08
-3.01468e-08
-1.7563e-08
-2.44987e-08
-1.5937e-08
-1.94152e-08
-1.4214e-08
-1.49205e-08
-1.241e-08
-1.10322e-08
-1.0546e-08
-7.759e-09
-8.64874e-09
-5.09891e-09
-6.75268e-09
-3.0371e-09
-4.90208e-09
-1.5431e-09
-3.15376e-09
-5.67766e-10
-1.58071e-09
-3.98533e-11
-2.76304e-10
1.37869e-10
6.41461e-10
9.37952e-11
1.02485e-09
6.76282e-10
-1.229e-11
-6.2148e-10
-2.3967e-10
-6.70921e-10
-8.29692e-10
1.56118e-10
-1.89572e-09
1.62842e-09
-3.52407e-09
3.56404e-09
-5.77734e-09
5.8162e-09
-8.69729e-09
8.26831e-09
-1.23078e-08
1.08287e-08
-1.66174e-08
1.34257e-08
-2.16217e-08
1.60032e-08
-2.73055e-08
1.85177e-08
-3.36451e-08
2.09354e-08
-4.06093e-08
2.32302e-08
-4.81613e-08
2.53826e-08
-5.62601e-08
2.73775e-08
-6.48608e-08
2.92041e-08
-7.39161e-08
3.08546e-08
-8.33771e-08
3.23239e-08
-9.31931e-08
3.36089e-08
-1.03313e-07
3.47081e-08
-1.13685e-07
3.56217e-08
-1.24258e-07
3.63506e-08
-1.34981e-07
3.6897e-08
-1.45803e-07
3.72639e-08
-1.56675e-07
3.74547e-08
-1.67547e-07
3.74736e-08
-1.78372e-07
3.7325e-08
-1.89104e-07
3.70139e-08
-1.99697e-07
3.65456e-08
-2.10109e-07
3.59254e-08
-2.20297e-07
3.51592e-08
-2.30221e-07
3.42529e-08
-2.39842e-07
3.32124e-08
-2.49124e-07
3.2044e-08
-2.58031e-07
3.07541e-08
-2.6653e-07
2.9349e-08
-2.74591e-07
2.78352e-08
-2.82182e-07
2.62193e-08
-2.89277e-07
2.4508e-08
-2.9585e-07
2.27081e-08
-3.01878e-07
2.08263e-08
-3.07338e-07
1.88696e-08
-3.12212e-07
1.68449e-08
-3.16481e-07
1.47593e-08
-3.2013e-07
1.26198e-08
-3.23145e-07
1.04337e-08
-3.25516e-07
8.2084e-09
-3.27233e-07
5.95115e-09
-3.28289e-07
3.66948e-09
-3.28679e-07
1.37097e-09
-3.28402e-07
-9.36707e-10
-3.27456e-07
-3.24577e-09
-3.25843e-07
-5.54836e-09
-3.23568e-07
-7.83652e-09
-3.20638e-07
-1.01022e-08
-3.17062e-07
-1.23373e-08
-3.1285e-07
-1.45336e-08
-3.08017e-07
-1.66828e-08
-3.02578e-07
-1.87767e-08
-2.96553e-07
-2.08069e-08
-2.89962e-07
-2.2765e-08
-2.82828e-07
-2.46427e-08
-2.75177e-07
-2.64316e-08
-2.67038e-07
-2.81234e-08
-2.5844e-07
-2.971e-08
-2.49416e-07
-3.11832e-08
-2.40001e-07
-3.25351e-08
-2.30232e-07
-3.37578e-08
-2.20149e-07
-3.48438e-08
-2.09792e-07
-3.57857e-08
-1.99205e-07
-3.65764e-08
-1.88433e-07
-3.72093e-08
-1.77522e-07
-3.7678e-08
-1.66522e-07
-3.79767e-08
-1.55482e-07
-3.81e-08
-1.44452e-07
-3.80431e-08
-1.33485e-07
-3.78019e-08
-1.22634e-07
-3.73729e-08
-1.11952e-07
-3.67536e-08
-1.01493e-07
-3.59424e-08
-9.13105e-08
-3.49386e-08
-8.14575e-08
-3.37428e-08
-7.19863e-08
-3.23572e-08
-6.2948e-08
-3.07853e-08
-5.43915e-08
-2.90328e-08
-4.63634e-08
-2.71074e-08
-3.89068e-08
-2.50196e-08
-3.20607e-08
-2.27831e-08
-2.58589e-08
-2.04158e-08
-2.03288e-08
-1.79401e-08
-1.54901e-08
-1.53847e-08
-1.1353e-08
-1.27859e-08
-7.91656e-09
-1.01891e-08
-5.16665e-09
-7.65199e-09
-3.0736e-09
-5.24681e-09
-1.58978e-09
-3.06452e-09
-6.46892e-10
-1.21919e-09
-1.52981e-10
1.47549e-10
1.12937e-11
8.60579e-10
6.8758e-10
-1.07995e-10
-5.13479e-10
-5.81276e-10
-1.97649e-10
-1.54241e-09
1.11726e-09
-3.08887e-09
3.17488e-09
-5.29601e-09
5.77118e-09
-8.21884e-09
8.73906e-09
-1.1894e-08
1.19434e-08
-1.63413e-08
1.52761e-08
-2.15665e-08
1.86509e-08
-2.75624e-08
2.19991e-08
-3.43111e-08
2.52664e-08
-4.17857e-08
2.841e-08
-4.9952e-08
3.13966e-08
-5.87695e-08
3.42e-08
-6.81926e-08
3.68006e-08
-7.81722e-08
3.91836e-08
-8.86558e-08
4.13383e-08
-9.9589e-08
4.32572e-08
-1.10916e-07
4.49356e-08
-1.22579e-07
4.63713e-08
-1.34521e-07
4.75636e-08
-1.46684e-07
4.85137e-08
-1.59011e-07
4.92238e-08
-1.71444e-07
4.96974e-08
-1.83928e-07
4.99389e-08
-1.96408e-07
4.99534e-08
-2.0883e-07
4.97466e-08
-2.21141e-07
4.93247e-08
-2.3329e-07
4.86946e-08
-2.45228e-07
4.78634e-08
-2.56907e-07
4.68384e-08
-2.68281e-07
4.56275e-08
-2.79308e-07
4.42386e-08
-2.89943e-07
4.26798e-08
-3.00149e-07
4.09594e-08
-3.09886e-07
3.9086e-08
-3.19119e-07
3.70681e-08
-3.27814e-07
3.49145e-08
-3.3594e-07
3.2634e-08
-3.43467e-07
3.02356e-08
-3.50369e-07
2.77284e-08
-3.56621e-07
2.51215e-08
-3.62201e-07
2.24242e-08
-3.67087e-07
1.96459e-08
-3.71263e-07
1.67961e-08
-3.74714e-07
1.38844e-08
-3.77426e-07
1.09205e-08
-3.7939e-07
7.91441e-09
-3.80596e-07
4.87595e-09
-3.8104e-07
1.81527e-09
-3.8072e-07
-1.25742e-09
-3.79634e-07
-4.33175e-09
-3.77785e-07
-7.39725e-09
-3.75178e-07
-1.04434e-08
-3.71821e-07
-1.34593e-08
-3.67724e-07
-1.64344e-08
-3.629e-07
-1.93577e-08
-3.57364e-07
-2.22182e-08
-3.51136e-07
-2.50049e-08
-3.44236e-07
-2.77067e-08
-3.36689e-07
-3.03126e-08
-3.2852e-07
-3.28115e-08
-3.19759e-07
-3.51924e-08
-3.10438e-07
-3.74442e-08
-3.00592e-07
-3.95562e-08
-2.90258e-07
-4.15176e-08
-2.79475e-07
-4.3318e-08
-2.68286e-07
-4.4947e-08
-2.56735e-07
-4.63947e-08
-2.44869e-07
-4.76515e-08
-2.32737e-07
-4.87081e-08
-2.2039e-07
-4.95558e-08
-2.07882e-07
-5.01864e-08
-1.95267e-07
-5.05922e-08
-1.826e-07
-5.07664e-08
-1.6994e-07
-5.07028e-08
-1.57346e-07
-5.03962e-08
-1.44877e-07
-4.98423e-08
-1.32592e-07
-4.90381e-08
-1.20553e-07
-4.79817e-08
-1.08819e-07
-4.66727e-08
-9.74494e-08
-4.51123e-08
-8.65029e-08
-4.33037e-08
-7.60361e-08
-4.12521e-08
-6.61034e-08
-3.89655e-08
-5.67564e-08
-3.64544e-08
-4.80427e-08
-3.37333e-08
-4.00054e-08
-3.08204e-08
-3.26819e-08
-2.77393e-08
-2.61027e-08
-2.45193e-08
-2.02901e-08
-2.11974e-08
-1.52566e-08
-1.78193e-08
-1.10038e-08
-1.4442e-08
-7.51978e-09
-1.1136e-08
-4.77822e-09
-7.98837e-09
-2.73586e-09
-5.10688e-09
-1.33086e-09
-2.62419e-09
-4.80803e-10
-7.02504e-10
-8.07137e-11
4.60494e-10
6.06871e-10
-2.07715e-10
-3.05775e-10
-9.41518e-10
5.36186e-10
-2.29736e-09
2.47311e-09
-4.35391e-09
5.23142e-09
-7.17276e-09
8.59003e-09
-1.07988e-08
1.23651e-08
-1.5261e-08
1.64056e-08
-2.05736e-08
2.05887e-08
-2.67375e-08
2.48147e-08
-3.37416e-08
2.90032e-08
-4.15645e-08
3.30893e-08
-5.01758e-08
3.70214e-08
-5.95376e-08
4.07584e-08
-6.96056e-08
4.4268e-08
-8.03304e-08
4.75254e-08
-9.16584e-08
5.05116e-08
-1.03533e-07
5.32125e-08
-1.15894e-07
5.56182e-08
-1.2868e-07
5.77223e-08
-1.4183e-07
5.95213e-08
-1.55281e-07
6.10138e-08
-1.68968e-07
6.22009e-08
-1.82829e-07
6.30848e-08
-1.96801e-07
6.36697e-08
-2.10823e-07
6.39606e-08
-2.24833e-07
6.39636e-08
-2.38772e-07
6.36859e-08
-2.52583e-07
6.31351e-08
-2.66208e-07
6.23195e-08
-2.79592e-07
6.12481e-08
-2.92684e-07
5.99302e-08
-3.05432e-07
5.83754e-08
-3.17787e-07
5.65938e-08
-3.29703e-07
5.45956e-08
-3.41135e-07
5.23915e-08
-3.52041e-07
4.99921e-08
-3.62381e-07
4.74083e-08
-3.72118e-07
4.46514e-08
-3.81217e-07
4.17326e-08
-3.89644e-07
3.86633e-08
-3.97371e-07
3.5455e-08
-4.04369e-07
3.21196e-08
-4.10614e-07
2.86688e-08
-4.16083e-07
2.51147e-08
-4.20756e-07
2.14694e-08
-4.24617e-07
1.77452e-08
-4.27651e-07
1.39545e-08
-4.29846e-07
1.011e-08
-4.31195e-07
6.22439e-09
-4.3169e-07
2.31061e-09
-4.31329e-07
-1.61829e-09
-4.30112e-07
-5.54906e-09
-4.28041e-07
-9.46835e-09
-4.25122e-07
-1.33626e-08
-4.21363e-07
-1.72182e-08
-4.16776e-07
-2.10213e-08
-4.11375e-07
-2.47581e-08
-4.05179e-07
-2.84146e-08
-3.98207e-07
-3.19767e-08
-3.90484e-07
-3.54303e-08
-3.82035e-07
-3.87614e-08
-3.7289e-07
-4.19559e-08
-3.63083e-07
-4.49997e-08
-3.52648e-07
-4.7879e-08
-3.41625e-07
-5.05799e-08
-3.30053e-07
-5.3089e-08
-3.17978e-07
-5.53928e-08
-3.05447e-07
-5.74786e-08
-2.92508e-07
-5.93335e-08
-2.79214e-07
-6.09456e-08
-2.65619e-07
-6.23032e-08
-2.51779e-07
-6.33953e-08
-2.37754e-07
-6.42117e-08
-2.23603e-07
-6.47428e-08
-2.0939e-07
-6.49802e-08
-1.95176e-07
-6.49162e-08
-1.81028e-07
-6.45445e-08
-1.6701e-07
-6.38601e-08
-1.53189e-07
-6.28592e-08
-1.39631e-07
-6.15401e-08
-1.26401e-07
-5.99024e-08
-1.13565e-07
-5.79483e-08
-1.01186e-07
-5.56822e-08
-8.93272e-08
-5.31112e-08
-7.80471e-08
-5.02456e-08
-6.74019e-08
-4.70996e-08
-5.74437e-08
-4.36914e-08
-4.82197e-08
-4.00445e-08
-3.97707e-08
-3.61882e-08
-3.21307e-08
-3.21593e-08
-2.53253e-08
-2.80028e-08
-1.93703e-08
-2.37743e-08
-1.42707e-08
-1.95416e-08
-1.00188e-08
-1.53878e-08
-6.59334e-09
-1.14138e-08
-3.95784e-09
-7.74238e-09
-2.05951e-09
-4.52251e-09
-8.28436e-10
-1.93358e-09
-1.77013e-10
-1.90922e-10
4.29859e-10
-3.0835e-10
2.58067e-12
-1.30939e-09
1.53723e-09
-3.07275e-09
4.23646e-09
-5.65708e-09
7.81575e-09
-9.10857e-09
1.20415e-08
-1.34602e-08
1.67167e-08
-1.87315e-08
2.1677e-08
-2.49294e-08
2.67866e-08
-3.20488e-08
3.19341e-08
-4.00735e-08
3.70278e-08
-4.89776e-08
4.19934e-08
-5.87268e-08
4.67705e-08
-6.9279e-08
5.13106e-08
-8.0586e-08
5.55751e-08
-9.25943e-08
5.95338e-08
-1.05246e-07
6.31634e-08
-1.1848e-07
6.64465e-08
-1.32232e-07
6.93705e-08
-1.46437e-07
7.1927e-08
-1.61027e-07
7.41111e-08
-1.75934e-07
7.59208e-08
-1.9109e-07
7.73566e-08
-2.06426e-07
7.84211e-08
-2.21875e-07
7.91187e-08
-2.3737e-07
7.94552e-08
-2.52844e-07
7.9438e-08
-2.68233e-07
7.90753e-08
-2.83474e-07
7.83763e-08
-2.98506e-07
7.73512e-08
-3.13268e-07
7.60105e-08
-3.27704e-07
7.43658e-08
-3.41757e-07
7.24287e-08
-3.55375e-07
7.02114e-08
-3.68506e-07
6.77267e-08
-3.81102e-07
6.49874e-08
-3.93117e-07
6.20067e-08
-4.04506e-07
5.87982e-08
-4.1523e-07
5.53754e-08
-4.2525e-07
5.17525e-08
-4.3453e-07
4.79434e-08
-4.43038e-07
4.39625e-08
-4.50742e-07
3.98242e-08
-4.57617e-07
3.55433e-08
-4.63637e-07
3.11346e-08
-4.68781e-07
2.66132e-08
-4.7303e-07
2.19943e-08
-4.76369e-07
1.72933e-08
-4.78784e-07
1.25259e-08
-4.80268e-07
7.70775e-09
-4.80812e-07
2.85497e-09
-4.80414e-07
-2.01628e-09
-4.79074e-07
-6.88962e-09
-4.76793e-07
-1.17485e-08
-4.7358e-07
-1.65762e-08
-4.69442e-07
-2.13558e-08
-4.64393e-07
-2.60703e-08
-4.58449e-07
-3.07025e-08
-4.51628e-07
-3.52351e-08
-4.43954e-07
-3.96508e-08
-4.35452e-07
-4.39323e-08
-4.26152e-07
-4.8062e-08
-4.16085e-07
-5.20228e-08
-4.05287e-07
-5.57972e-08
-3.93798e-07
-5.93683e-08
-3.81659e-07
-6.2719e-08
-3.68915e-07
-6.58327e-08
-3.55615e-07
-6.86931e-08
-3.41809e-07
-7.12842e-08
-3.27552e-07
-7.35907e-08
-3.129e-07
-7.55977e-08
-2.97912e-07
-7.72911e-08
-2.8265e-07
-7.86573e-08
-2.67178e-07
-7.96841e-08
-2.51561e-07
-8.03599e-08
-2.35866e-07
-8.06744e-08
-2.20164e-07
-8.06186e-08
-2.04524e-07
-8.01849e-08
-1.89016e-07
-7.93674e-08
-1.73713e-07
-7.81621e-08
-1.58687e-07
-7.65668e-08
-1.44007e-07
-7.45819e-08
-1.29745e-07
-7.22103e-08
-1.1597e-07
-6.94577e-08
-1.02747e-07
-6.63335e-08
-9.01422e-08
-6.28507e-08
-7.82149e-08
-5.90269e-08
-6.70218e-08
-5.48846e-08
-5.66138e-08
-5.04525e-08
-4.70359e-08
-4.57661e-08
-3.83259e-08
-4.08693e-08
-3.05132e-08
-3.58155e-08
-2.36179e-08
-3.06696e-08
-1.76495e-08
-2.55101e-08
-1.26059e-08
-2.04314e-08
-8.47253e-09
-1.55472e-08
-5.2214e-09
-1.09935e-08
-2.81067e-09
-6.93323e-09
-1.18465e-09
-3.55959e-09
-2.74472e-10
-1.1011e-09
1.55386e-10
-4.08089e-10
4.10674e-10
-1.67786e-09
2.80698e-09
-3.85391e-09
6.41254e-09
-6.97488e-09
1.09367e-08
-1.10707e-08
1.61374e-08
-1.61613e-08
2.18073e-08
-2.22557e-08
2.77713e-08
-2.93521e-08
3.3883e-08
-3.74382e-08
4.00202e-08
-4.64919e-08
4.60816e-08
-5.6482e-08
5.19836e-08
-6.73694e-08
5.76578e-08
-7.91075e-08
6.30487e-08
-9.1644e-08
6.81116e-08
-1.04921e-07
7.28109e-08
-1.18877e-07
7.71191e-08
-1.33446e-07
8.10152e-08
-1.48559e-07
8.4484e-08
-1.64147e-07
8.7515e-08
-1.80138e-07
9.01018e-08
-1.96459e-07
9.22415e-08
-2.13036e-07
9.39343e-08
-2.29798e-07
9.51828e-08
-2.46671e-07
9.59917e-08
-2.63584e-07
9.63679e-08
-2.80465e-07
9.63196e-08
-2.97246e-07
9.58564e-08
-3.13859e-07
9.49892e-08
-3.30238e-07
9.37297e-08
-3.46318e-07
9.20907e-08
-3.62038e-07
9.00855e-08
-3.77337e-07
8.77282e-08
-3.92159e-07
8.50335e-08
-4.06449e-07
8.20163e-08
-4.20154e-07
7.86922e-08
-4.33224e-07
7.50771e-08
-4.45613e-07
7.11871e-08
-4.57276e-07
6.70387e-08
-4.68173e-07
6.26487e-08
-4.78263e-07
5.80341e-08
-4.87513e-07
5.32122e-08
-4.95889e-07
4.82004e-08
-5.03363e-07
4.30166e-08
-5.09907e-07
3.76785e-08
-5.15498e-07
3.22045e-08
-5.20116e-07
2.66129e-08
-5.23746e-07
2.09224e-08
-5.26372e-07
1.51519e-08
-5.27984e-07
9.32032e-09
-5.28576e-07
3.44714e-09
-5.28144e-07
-2.44811e-09
-5.26688e-07
-8.34568e-09
-5.24211e-07
-1.42256e-08
-5.2072e-07
-2.00675e-08
-5.16225e-07
-2.58513e-08
-5.10739e-07
-3.15561e-08
-5.0428e-07
-3.71615e-08
-4.96868e-07
-4.26466e-08
-4.88529e-07
-4.79904e-08
-4.79289e-07
-5.3172e-08
-4.6918e-07
-5.81706e-08
-4.58238e-07
-6.29652e-08
-4.465e-07
-6.75351e-08
-4.34008e-07
-7.18598e-08
-4.20809e-07
-7.59188e-08
-4.06949e-07
-7.96922e-08
-3.92482e-07
-8.31605e-08
-3.77461e-07
-8.63046e-08
-3.61946e-07
-8.9106e-08
-3.45997e-07
-9.1547e-08
-3.29677e-07
-9.36108e-08
-3.13053e-07
-9.52814e-08
-2.96193e-07
-9.6544e-08
-2.79168e-07
-9.7385e-08
-2.6205e-07
-9.77923e-08
-2.44913e-07
-9.77553e-08
-2.27833e-07
-9.72653e-08
-2.10885e-07
-9.63154e-08
-1.94146e-07
-9.49011e-08
-1.77693e-07
-9.30203e-08
-1.61601e-07
-9.06738e-08
-1.45946e-07
-8.78653e-08
-1.30801e-07
-8.46023e-08
-1.16238e-07
-8.08963e-08
-1.02326e-07
-7.67631e-08
-8.9129e-08
-7.22239e-08
-7.67079e-08
-6.73057e-08
-6.51181e-08
-6.20423e-08
-5.44086e-08
-5.64756e-08
-4.46216e-08
-5.06563e-08
-3.5791e-08
-4.4646e-08
-2.79421e-08
-3.85186e-08
-2.10898e-08
-3.23623e-08
-1.52388e-08
-2.62824e-08
-1.03825e-08
-2.04035e-08
-6.50262e-09
-1.48734e-08
-3.56938e-09
-9.86646e-09
-1.54224e-09
-5.58672e-09
-3.7124e-10
-2.2721e-09
-2.15853e-10
-5.0594e-10
9.16618e-10
-2.04251e-09
4.34355e-09
-4.63128e-09
9.00133e-09
-8.29139e-09
1.45968e-08
-1.30364e-08
2.08824e-08
-1.88725e-08
2.76434e-08
-2.57974e-08
3.46962e-08
-3.37997e-08
4.18854e-08
-4.28592e-08
4.90797e-08
-5.29468e-08
5.61692e-08
-6.40254e-08
6.30622e-08
-7.60503e-08
6.96828e-08
-8.89703e-08
7.59687e-08
-1.02728e-07
8.18696e-08
-1.17262e-07
8.73447e-08
-1.32505e-07
9.23624e-08
-1.48388e-07
9.68982e-08
-1.64839e-07
1.00934e-07
-1.81781e-07
1.04458e-07
-1.9914e-07
1.07461e-07
-2.16839e-07
1.0994e-07
-2.348e-07
1.11895e-07
-2.52945e-07
1.13328e-07
-2.71198e-07
1.14245e-07
-2.89482e-07
1.14652e-07
-3.07722e-07
1.1456e-07
-3.25846e-07
1.1398e-07
-3.43779e-07
1.12923e-07
-3.61453e-07
1.11404e-07
-3.788e-07
1.09437e-07
-3.95752e-07
1.07038e-07
-4.12247e-07
1.04223e-07
-4.28223e-07
1.0101e-07
-4.43622e-07
9.74154e-08
-4.58388e-07
9.34584e-08
-4.72468e-07
8.91572e-08
-4.85812e-07
8.45311e-08
-4.98373e-07
7.95995e-08
-5.10107e-07
7.43821e-08
-5.20971e-07
6.88991e-08
-5.3093e-07
6.31708e-08
-5.39948e-07
5.7218e-08
-5.47993e-07
5.10616e-08
-5.55037e-07
4.47229e-08
-5.61056e-07
3.82234e-08
-5.66028e-07
3.15849e-08
-5.69935e-07
2.48295e-08
-5.72763e-07
1.79796e-08
-5.745e-07
1.10576e-08
-5.75139e-07
4.08661e-09
-5.74677e-07
-2.91032e-09
-5.73113e-07
-9.90978e-09
-5.7045e-07
-1.68881e-08
-5.66697e-07
-2.38214e-08
-5.61862e-07
-3.06855e-08
-5.55962e-07
-3.74562e-08
-5.49015e-07
-4.4109e-08
-5.41042e-07
-5.06192e-08
-5.3207e-07
-5.69623e-08
-5.22129e-07
-6.31136e-08
-5.11251e-07
-6.90482e-08
-4.99475e-07
-7.47417e-08
-4.8684e-07
-8.01694e-08
-4.73393e-07
-8.53073e-08
-4.5918e-07
-9.01314e-08
-4.44255e-07
-9.46181e-08
-4.28671e-07
-9.87444e-08
-4.12487e-07
-1.02488e-07
-3.95766e-07
-1.05827e-07
-3.78572e-07
-1.08741e-07
-3.60972e-07
-1.1121e-07
-3.43038e-07
-1.13216e-07
-3.24841e-07
-1.14741e-07
-3.06458e-07
-1.15769e-07
-2.87964e-07
-1.16286e-07
-2.69438e-07
-1.16281e-07
-2.50961e-07
-1.15742e-07
-2.32613e-07
-1.14664e-07
-2.14475e-07
-1.13039e-07
-1.96629e-07
-1.10867e-07
-1.79155e-07
-1.08148e-07
-1.62133e-07
-1.04887e-07
-1.45642e-07
-1.01094e-07
-1.29756e-07
-9.67816e-08
-1.1455e-07
-9.19691e-08
-1.00093e-07
-8.66812e-08
-8.64496e-08
-8.09493e-08
-7.36794e-08
-7.48125e-08
-6.18364e-08
-6.83185e-08
-5.09676e-08
-6.15252e-08
-4.11121e-08
-5.45015e-08
-3.23007e-08
-4.733e-08
-2.45551e-08
-4.01078e-08
-1.78875e-08
-3.29499e-08
-1.23001e-08
-2.59909e-08
-7.78522e-09
-1.93883e-08
-4.32584e-09
-1.33258e-08
-1.89672e-09
-8.01584e-09
-4.66257e-10
-3.70256e-09
-6.82105e-10
-6.01336e-10
1.51796e-09
-2.40077e-09
6.14298e-09
-5.39885e-09
1.19994e-08
-9.59611e-09
1.87941e-08
-1.49901e-08
2.62763e-08
-2.15731e-08
3.42264e-08
-2.9331e-08
4.24541e-08
-3.82423e-08
5.07967e-08
-4.8278e-08
5.91154e-08
-5.94014e-08
6.72926e-08
-7.15689e-08
7.52296e-08
-8.47298e-08
8.28437e-08
-9.88275e-08
9.00665e-08
-1.138e-07
9.6842e-08
-1.2958e-07
1.03125e-07
-1.46098e-07
1.0888e-07
-1.63278e-07
1.14079e-07
-1.81045e-07
1.18701e-07
-1.99319e-07
1.22732e-07
-2.1802e-07
1.26162e-07
-2.37066e-07
1.28987e-07
-2.56377e-07
1.31206e-07
-2.75871e-07
1.32822e-07
-2.95466e-07
1.3384e-07
-3.15083e-07
1.34269e-07
-3.34641e-07
1.34119e-07
-3.54064e-07
1.33403e-07
-3.73276e-07
1.32134e-07
-3.92201e-07
1.30329e-07
-4.10769e-07
1.28005e-07
-4.2891e-07
1.25178e-07
-4.46556e-07
1.21869e-07
-4.63643e-07
1.18097e-07
-4.80109e-07
1.13881e-07
-4.95895e-07
1.09244e-07
-5.10945e-07
1.04207e-07
-5.25206e-07
9.87922e-08
-5.38629e-07
9.30216e-08
-5.51165e-07
8.69187e-08
-5.62773e-07
8.05066e-08
-5.73411e-07
7.38092e-08
-5.83044e-07
6.68506e-08
-5.91637e-07
5.96551e-08
-5.99162e-07
5.22475e-08
-6.05591e-07
4.46529e-08
-6.10903e-07
3.68966e-08
-6.15078e-07
2.90043e-08
-6.18101e-07
2.10021e-08
-6.19959e-07
1.29163e-08
-6.20646e-07
4.77357e-09
-6.20157e-07
-3.3992e-09
-6.18492e-07
-1.15747e-08
-6.15655e-07
-1.97254e-08
-6.11653e-07
-2.78236e-08
-6.06497e-07
-3.58411e-08
-6.00204e-07
-4.37498e-08
-5.92791e-07
-5.15211e-08
-5.84284e-07
-5.91265e-08