/*--------------------------------*- C++ -*----------------------------------*\
| =========                 |                                                 |
| \\      /  F ield         | OpenFOAM: The Open Source CFD Toolbox           |
|  \\    /   O peration     | Version:  2212                                  |
|   \\  /    A nd           | Website:  www.openfoam.com                      |
|    \\/     M anipulation  |                                                 |
\*---------------------------------------------------------------------------*/
FoamFile
{
    version     2.0;
    format      ascii;
    arch        "LSB;label=32;scalar=64";
    class       surfaceScalarField;
    location    "0.02";
    object      phi;
}
// * * * * * * * * * * * * * * * * * * * * * * * * * * * * * * * * * * * * * //

dimensions      [0 3 -1 0 0 0 0];

oriented        oriented;

internalField   nonuniform List<scalar> 
19800
(
6.08588e-11
-6.08387e-11
1.792e-10
-1.18329e-10
2.86252e-10
-1.07056e-10
3.40186e-10
-5.39221e-11
3.2128e-10
1.88975e-11
2.21547e-10
9.97345e-11
3.91611e-11
1.82384e-10
-2.24269e-10
2.63434e-10
-5.65186e-10
3.40916e-10
-9.78979e-10
4.13797e-10
-1.46034e-09
4.81368e-10
-2.00364e-09
5.433e-10
-2.60311e-09
5.99465e-10
-3.25295e-09
6.49844e-10
-3.94742e-09
6.94468e-10
-4.68085e-09
7.33424e-10
-5.44766e-09
7.66802e-10
-6.24251e-09
7.94834e-10
-7.06029e-09
8.17772e-10
-7.89607e-09
8.3577e-10
-8.74511e-09
8.49044e-10
-9.60292e-09
8.57807e-10
-1.04652e-08
8.62245e-10
-1.13278e-08
8.62598e-10
-1.21869e-08
8.59143e-10
-1.30389e-08
8.52031e-10
-1.38804e-08
8.4143e-10
-1.47079e-08
8.27546e-10
-1.55185e-08
8.10583e-10
-1.63092e-08
7.90764e-10
-1.70775e-08
7.6831e-10
-1.7821e-08
7.43424e-10
-1.85372e-08
7.16242e-10
-1.92241e-08
6.8689e-10
-1.98796e-08
6.55513e-10
-2.05019e-08
6.22252e-10
-2.10891e-08
5.87275e-10
-2.16399e-08
5.50739e-10
-2.21527e-08
5.12783e-10
-2.26262e-08
4.73528e-10
-2.30593e-08
4.33079e-10
-2.34508e-08
3.91551e-10
-2.37999e-08
3.49047e-10
-2.41055e-08
3.05669e-10
-2.43671e-08
2.61528e-10
-2.45838e-08
2.16725e-10
-2.47551e-08
1.71353e-10
-2.48807e-08
1.25513e-10
-2.496e-08
7.93021e-11
-2.49928e-08
3.28046e-11
-2.49788e-08
-1.38981e-11
-2.49181e-08
-6.06968e-11
-2.48107e-08
-1.07478e-10
-2.46565e-08
-1.54143e-10
-2.4456e-08
-2.00562e-10
-2.42094e-08
-2.46593e-10
-2.39172e-08
-2.9214e-10
-2.35801e-08
-3.37105e-10
-2.31988e-08
-3.81348e-10
-2.2774e-08
-4.24737e-10
-2.23069e-08
-4.67143e-10
-2.17985e-08
-5.08398e-10
-2.12502e-08
-5.48346e-10
-2.06633e-08
-5.86862e-10
-2.00395e-08
-6.23778e-10
-1.93806e-08
-6.58899e-10
-1.86886e-08
-6.92073e-10
-1.79654e-08
-7.23164e-10
-1.72134e-08
-7.51978e-10
-1.64351e-08
-7.78302e-10
-1.56331e-08
-8.01957e-10
-1.48104e-08
-8.22777e-10
-1.39698e-08
-8.40554e-10
-1.31147e-08
-8.55075e-10
-1.22486e-08
-8.66138e-10
-1.13751e-08
-8.73522e-10
-1.04981e-08
-8.76974e-10
-9.62185e-09
-8.76259e-10
-8.75066e-09
-8.71189e-10
-7.88907e-09
-8.616e-10
-7.04177e-09
-8.47297e-10
-6.21372e-09
-8.28054e-10
-5.41006e-09
-8.03663e-10
-4.63609e-09
-7.73957e-10
-3.89729e-09
-7.38796e-10
-3.19925e-09
-6.98035e-10
-2.54771e-09
-6.51547e-10
-1.94844e-09
-5.99265e-10
-1.40724e-09
-5.412e-10
-9.29771e-10
-4.77463e-10
-5.21489e-10
-4.08283e-10
-1.87417e-10
-3.34072e-10
6.81535e-11
-2.55564e-10
2.42189e-10
-1.74027e-10
3.33821e-10
-9.16325e-11
3.45914e-10
-1.20936e-11
2.87634e-10
5.82866e-11
1.79159e-10
1.08481e-10
6.05946e-11
1.1856e-10
6.05961e-11
1.16248e-10
-1.77076e-10
2.83843e-10
-2.85948e-10
3.90776e-10
-2.13992e-10
3.64311e-10
-2.74548e-11
1.61887e-10
2.21338e-10
-2.38717e-10
5.00336e-10
-8.4637e-10
7.90049e-10
-1.6613e-09
1.07836e-09
-2.67797e-09
1.35758e-09
-3.8871e-09
1.62293e-09
-5.27694e-09
1.8712e-09
-6.83412e-09
2.10048e-09
-8.54434e-09
2.30968e-09
-1.03927e-08
2.49822e-09
-1.23642e-08
2.66597e-09
-1.44438e-08
2.81303e-09
-1.66167e-08
2.93968e-09
-1.88683e-08
3.04647e-09
-2.11846e-08
3.13404e-09
-2.35518e-08
3.20302e-09
-2.5957e-08
3.25418e-09
-2.83874e-08
3.28821e-09
-3.0831e-08
3.30589e-09
-3.32765e-08
3.30802e-09
-3.57127e-08
3.29539e-09
-3.81294e-08
3.26874e-09
-4.05168e-08
3.22881e-09
-4.28656e-08
3.17636e-09
-4.51672e-08
3.11214e-09
-4.74133e-08
3.03691e-09
-4.95964e-08
2.95141e-09
-5.17093e-08
2.85633e-09
-5.37454e-08
2.75228e-09
-5.56983e-08
2.63984e-09
-5.75624e-08
2.51959e-09
-5.93323e-08
2.3921e-09
-6.10029e-08
2.25794e-09
-6.25699e-08
2.11769e-09
-6.4029e-08
1.97184e-09
-6.53763e-08
1.82089e-09
-6.66085e-08
1.66528e-09
-6.77224e-08
1.50544e-09
-6.87151e-08
1.3418e-09
-6.95843e-08
1.17479e-09
-7.03276e-08
1.00481e-09
-7.09431e-08
8.32275e-10
-7.14293e-08
6.57557e-10
-7.17848e-08
4.81035e-10
-7.20086e-08
3.03078e-10
-7.20999e-08
1.24069e-10
-7.20582e-08
-5.55959e-11
-7.18833e-08
-2.35534e-10
-7.15754e-08
-4.15346e-10
-7.1135e-08
-5.94605e-10
-7.05626e-08
-7.7288e-10
-6.98595e-08
-9.49714e-10
-6.9027e-08
-1.12464e-09
-6.80669e-08
-1.29722e-09
-6.69813e-08
-1.46696e-09
-6.57727e-08
-1.63336e-09
-6.4444e-08
-1.79587e-09
-6.29984e-08
-1.95396e-09
-6.14397e-08
-2.10705e-09
-5.9772e-08
-2.25454e-09
-5.8e-08
-2.39584e-09
-5.61286e-08
-2.5303e-09
-5.41634e-08
-2.65727e-09
-5.21104e-08
-2.7761e-09
-4.99763e-08
-2.88612e-09
-4.7768e-08
-2.98661e-09
-4.54931e-08
-3.07682e-09
-4.31599e-08
-3.15603e-09
-4.07769e-08
-3.2235e-09
-3.83535e-08
-3.27847e-09
-3.58995e-08
-3.32014e-09
-3.34253e-08
-3.34771e-09
-3.0942e-08
-3.36035e-09
-2.8461e-08
-3.35727e-09
-2.59944e-08
-3.3377e-09
-2.35551e-08
-3.30093e-09
-2.11562e-08
-3.24623e-09
-1.88113e-08
-3.17292e-09
-1.65346e-08
-3.08034e-09
-1.43407e-08
-2.96792e-09
-1.22443e-08
-2.83518e-09
-1.02605e-08
-2.68177e-09
-8.40462e-09
-2.50747e-09
-6.69159e-09
-2.31229e-09
-5.13627e-09
-2.09652e-09
-3.75285e-09
-1.86089e-09
-2.55441e-09
-1.60672e-09
-1.55228e-09
-1.33619e-09
-7.55103e-10
-1.05273e-09
-1.67406e-10
-7.61728e-10
2.12516e-10
-4.71559e-10
3.95685e-10
-1.95255e-10
4.06869e-10
4.71043e-11
2.90748e-10
2.24589e-10
1.18574e-10
2.90735e-10
1.79166e-10
1.04445e-10
-2.81524e-10
2.14888e-10
-3.964e-10
2.01665e-10
-2.0077e-10
-2.09978e-11
1.95201e-10
-5.06493e-10
7.06835e-10
-1.28488e-09
1.27873e-09
-2.36999e-09
1.87516e-09
-3.76404e-09
2.47243e-09
-5.4611e-09
3.05464e-09
-7.44918e-09
3.61101e-09
-9.7123e-09
4.13431e-09
-1.22316e-08
4.61977e-09
-1.49864e-08
5.06444e-09
-1.79547e-08
5.4666e-09
-2.11142e-08
5.82546e-09
-2.44422e-08
6.14095e-09
-2.7916e-08
6.41347e-09
-3.15133e-08
6.64381e-09
-3.52124e-08
6.83311e-09
-3.8992e-08
6.98261e-09
-4.28315e-08
7.0937e-09
-4.67112e-08
7.16791e-09
-5.06121e-08
7.20679e-09
-5.45161e-08
7.21198e-09
-5.84058e-08
7.18512e-09
-6.22649e-08
7.12782e-09
-6.60777e-08
7.04166e-09
-6.98296e-08
6.92825e-09
-7.35066e-08
6.78919e-09
-7.70958e-08
6.62606e-09
-8.05848e-08
6.44039e-09
-8.39621e-08
6.23362e-09
-8.72169e-08
6.00715e-09
-9.03394e-08
5.76229e-09
-9.33201e-08
5.5003e-09
-9.61504e-08
5.22246e-09
-9.88225e-08
4.92997e-09
-1.01329e-07
4.62401e-09
-1.03663e-07
4.30571e-09
-1.05818e-07
3.97611e-09
-1.07789e-07
3.63624e-09
-1.0957e-07
3.28706e-09
-1.11158e-07
2.92954e-09
-1.12548e-07
2.56458e-09
-1.13736e-07
2.1931e-09
-1.1472e-07
1.816e-09
-1.15497e-07
1.43411e-09
-1.16064e-07
1.0483e-09
-1.1642e-07
6.59411e-10
-1.16564e-07
2.68282e-10
-1.16496e-07
-1.24225e-10
-1.16214e-07
-5.17221e-10
-1.1572e-07
-9.09822e-10
-1.15013e-07
-1.30112e-09
-1.14096e-07
-1.69018e-09
-1.12969e-07
-2.07602e-09
-1.11636e-07
-2.45764e-09
-1.101e-07
-2.83403e-09
-1.08362e-07
-3.20413e-09
-1.06429e-07
-3.56683e-09
-1.04304e-07
-3.92097e-09
-1.01992e-07
-4.26536e-09
-9.95007e-08
-4.59879e-09
-9.68353e-08
-4.91996e-09
-9.40037e-08
-5.22753e-09
-9.10138e-08
-5.52013e-09
-8.78747e-08
-5.79637e-09
-8.4596e-08
-6.05481e-09
-8.11882e-08
-6.29393e-09
-7.76626e-08
-6.5122e-09
-7.40314e-08
-6.70806e-09
-7.03075e-08
-6.87991e-09
-6.65049e-08
-7.02611e-09
-6.26383e-08
-7.14504e-09
-5.87234e-08
-7.23502e-09
-5.47768e-08
-7.29437e-09
-5.08157e-08
-7.3214e-09
-4.68586e-08
-7.31443e-09
-4.29244e-08
-7.27187e-09
-3.90331e-08
-7.1922e-09
-3.52054e-08
-7.07395e-09
-3.14626e-08
-6.91574e-09
-2.78266e-08
-6.71631e-09
-2.43199e-08
-6.47459e-09
-2.09653e-08
-6.18977e-09
-1.77858e-08
-5.86129e-09
-1.48043e-08
-5.489e-09
-1.20433e-08
-5.07326e-09
-9.5247e-09
-4.61513e-09
-7.26893e-09
-4.11666e-09
-5.29443e-09
-3.58122e-09
-3.61654e-09
-3.01408e-09
-2.24616e-09
-2.42312e-09
-1.18781e-09
-1.82008e-09
-4.37116e-10
-1.22225e-09
2.26261e-11
-6.55e-10
2.25123e-10
-1.5541e-10
2.26003e-10
2.23704e-10
1.08916e-10
4.07827e-10
2.88073e-10
5.56158e-11
-3.37126e-10
4.15439e-11
-3.82329e-10
-1.6992e-10
1.06849e-11
-6.66498e-10
6.91796e-10
-1.5048e-09
1.54514e-09
-2.71797e-09
2.4919e-09
-4.32189e-09
3.47908e-09
-6.3195e-09
4.47005e-09
-8.70409e-09
5.43923e-09
-1.14618e-08
6.36869e-09
-1.45733e-08
7.24586e-09
-1.80158e-08
8.06221e-09
-2.17634e-08
8.81213e-09
-2.57889e-08
9.49211e-09
-3.00638e-08
1.01004e-08
-3.45591e-08
1.06362e-08
-3.92457e-08
1.11001e-08
-4.40948e-08
1.14928e-08
-4.90778e-08
1.18161e-08
-5.4167e-08
1.20718e-08
-5.93354e-08
1.22621e-08
-6.4557e-08
1.23895e-08
-6.98065e-08
1.24563e-08
-7.506e-08
1.24654e-08
-8.02942e-08
1.24194e-08
-8.54874e-08
1.2321e-08
-9.06186e-08
1.21729e-08
-9.56683e-08
1.19779e-08
-1.00618e-07
1.17386e-08
-1.05449e-07
1.14576e-08
-1.10147e-07
1.11376e-08
-1.14694e-07
1.07809e-08
-1.19077e-07
1.039e-08
-1.23282e-07
9.96719e-09
-1.27296e-07
9.51467e-09
-1.31108e-07
9.0346e-09
-1.34707e-07
8.52907e-09
-1.38083e-07
8.00007e-09
-1.41227e-07
7.44955e-09
-1.4413e-07
6.87934e-09
-1.46785e-07
6.29122e-09
-1.49185e-07
5.68691e-09
-1.51324e-07
5.06806e-09
-1.53195e-07
4.43629e-09
-1.54795e-07
3.79317e-09
-1.5612e-07
3.14026e-09
-1.57165e-07
2.47908e-09
-1.57927e-07
1.81113e-09
-1.58406e-07
1.13787e-09
-1.58598e-07
4.6081e-10
-1.58504e-07
-2.18529e-10
-1.58123e-07
-8.98641e-10
-1.57455e-07
-1.57798e-09
-1.56501e-07
-2.25492e-09
-1.55263e-07
-2.92786e-09
-1.53744e-07
-3.59512e-09
-1.51947e-07
-4.25499e-09
-1.49875e-07
-4.90567e-09
-1.47534e-07
-5.54532e-09
-1.44929e-07
-6.17204e-09
-1.42066e-07
-6.78385e-09
-1.38952e-07
-7.3787e-09
-1.35597e-07
-7.95443e-09
-1.32008e-07
-8.50885e-09
-1.28196e-07
-9.0397e-09
-1.24171e-07
-9.54458e-09
-1.19946e-07
-1.00211e-08
-1.15535e-07
-1.04667e-08
-1.1095e-07
-1.08789e-08
-1.06207e-07
-1.1255e-08
-1.01323e-07
-1.15924e-08
-9.63142e-08
-1.18882e-08
-9.12006e-08
-1.21398e-08
-8.60014e-08
-1.23443e-08
-8.07375e-08
-1.24989e-08
-7.5431e-08
-1.26008e-08
-7.01052e-08
-1.26472e-08
-6.47842e-08
-1.26354e-08
-5.94934e-08
-1.25627e-08
-5.42591e-08
-1.24265e-08
-4.91086e-08
-1.22245e-08
-4.40697e-08
-1.19546e-08
-3.91713e-08
-1.16147e-08
-3.44426e-08
-1.12033e-08
-2.9913e-08
-1.07193e-08
-2.56122e-08
-1.01621e-08
-2.15694e-08
-9.53182e-09
-1.78131e-08
-8.82953e-09
-1.43706e-08
-8.05759e-09
-1.12672e-08
-7.22006e-09
-8.5252e-09
-6.32326e-09
-6.16269e-09
-5.3766e-09
-4.1921e-09
-4.39371e-09
-2.61809e-09
-3.39409e-09
-1.43498e-09
-2.40536e-09
-6.23577e-10
-1.46642e-09
-1.47348e-10
-6.31647e-10
5.21271e-11
2.42408e-11
5.98183e-11
4.00135e-10
3.47888e-10
-1.23466e-11
-3.24786e-10
-1.94888e-10
-1.99771e-10
-6.59087e-10
4.74884e-10
-1.48545e-09
1.51816e-09
-2.72771e-09
2.78742e-09
-4.41819e-09
4.18239e-09
-6.57229e-09
5.63317e-09
-9.19224e-09
7.09001e-09
-1.22701e-08
8.51711e-09
-1.579e-08
9.88859e-09
-1.97301e-08
1.11859e-08
-2.4064e-08
1.23961e-08
-2.87621e-08
1.35102e-08
-3.37925e-08
1.45225e-08
-3.91218e-08
1.54296e-08
-4.47158e-08
1.62303e-08
-5.054e-08
1.69243e-08
-5.656e-08
1.75128e-08
-6.27416e-08
1.79977e-08
-6.90513e-08
1.83816e-08
-7.54566e-08
1.86674e-08
-8.19258e-08
1.88586e-08
-8.84283e-08
1.89588e-08
-9.49348e-08
1.89719e-08
-1.01417e-07
1.89016e-08
-1.07848e-07
1.87521e-08
-1.14202e-07
1.85273e-08
-1.20456e-07
1.82313e-08
-1.26585e-07
1.7868e-08
-1.32569e-07
1.74414e-08
-1.38387e-07
1.69552e-08
-1.44019e-07
1.64132e-08
-1.49448e-07
1.58189e-08
-1.54657e-07
1.5176e-08
-1.5963e-07
1.44877e-08
-1.64352e-07
1.37573e-08
-1.68811e-07
1.29879e-08
-1.72994e-07
1.21827e-08
-1.76889e-07
1.13445e-08
-1.80486e-07
1.04762e-08
-1.83775e-07
9.58049e-09
-1.86748e-07
8.65998e-09
-1.89397e-07
7.71721e-09
-1.91715e-07
6.75468e-09
-1.93697e-07
5.77482e-09
-1.95337e-07
4.78001e-09
-1.9663e-07
3.77255e-09
-1.97574e-07
2.7548e-09
-1.98165e-07
1.72903e-09
-1.98402e-07
6.9754e-10
-1.98283e-07
-3.37363e-10
-1.97808e-07
-1.37332e-09
-1.96978e-07
-2.40796e-09
-1.95794e-07
-3.43884e-09
-1.94259e-07
-4.46349e-09
-1.92375e-07
-5.47935e-09
-1.90146e-07
-6.48377e-09
-1.87577e-07
-7.47405e-09
-1.84675e-07
-8.4474e-09
-1.81447e-07
-9.40088e-09
-1.77899e-07
-1.03315e-08
-1.74042e-07
-1.12361e-08
-1.69884e-07
-1.21115e-08
-1.65439e-07
-1.29543e-08
-1.60718e-07
-1.3761e-08
-1.55734e-07
-1.45282e-08
-1.50503e-07
-1.5252e-08
-1.45041e-07
-1.59288e-08
-1.39365e-07
-1.65547e-08
-1.33495e-07
-1.71256e-08
-1.27449e-07
-1.76375e-08
-1.21251e-07
-1.80864e-08
-1.14923e-07
-1.84681e-08
-1.08489e-07
-1.87783e-08
-1.01975e-07
-1.9013e-08
-9.54078e-08
-1.91679e-08
-8.88161e-08
-1.92389e-08
-8.22295e-08
-1.9222e-08
-7.56788e-08
-1.91134e-08
-6.91959e-08
-1.89094e-08
-6.28138e-08
-1.86066e-08
-5.65664e-08
-1.8202e-08
-5.04881e-08
-1.7693e-08
-4.4614e-08
-1.70774e-08
-3.89794e-08
-1.6354e-08
-3.36191e-08
-1.55223e-08
-2.85679e-08
-1.45831e-08
-2.38589e-08
-1.35384e-08
-1.9524e-08
-1.23925e-08
-1.55921e-08
-1.1152e-08
-1.20886e-08
-9.82677e-09
-9.03395e-09
-8.43121e-09
-6.4422e-09
-6.98546e-09
-4.31882e-09
-5.51745e-09
-2.65859e-09
-4.06558e-09
-1.44284e-09
-2.68218e-09
-6.36387e-10
-1.43809e-09
-1.84483e-10
-4.27656e-10
-8.72351e-12
2.24369e-10
3.3917e-10
-8.93893e-11
-2.35396e-10
-4.65485e-10
1.76323e-10
-1.21683e-09
1.22623e-09
-2.41019e-09
2.71151e-09
-4.0917e-09
4.46894e-09
-6.28941e-09
6.38011e-09
-9.01601e-09
8.35976e-09
-1.22716e-08
1.03456e-08
-1.60462e-08
1.22917e-08
-2.03217e-08
1.41641e-08
-2.50736e-08
1.59379e-08
-3.02726e-08
1.75951e-08
-3.58857e-08
1.91233e-08
-4.18772e-08
2.05139e-08
-4.82095e-08
2.1762e-08
-5.48441e-08
2.28649e-08
-6.1742e-08
2.38221e-08
-6.88637e-08
2.46345e-08
-7.61703e-08
2.53044e-08
-8.36236e-08
2.58348e-08
-9.11858e-08
2.62296e-08
-9.88205e-08
2.64933e-08
-1.06492e-07
2.66306e-08
-1.14167e-07
2.66466e-08
-1.21812e-07
2.65466e-08
-1.29396e-07
2.6336e-08
-1.36889e-07
2.60203e-08
-1.44262e-07
2.56049e-08
-1.5149e-07
2.50952e-08
-1.58545e-07
2.44968e-08
-1.65405e-07
2.38147e-08
-1.72046e-07
2.30542e-08
-1.78447e-07
2.22204e-08
-1.84589e-07
2.1318e-08
-1.90453e-07
2.03517e-08
-1.96022e-07
1.93263e-08
-2.0128e-07
1.82459e-08
-2.06212e-07
1.7115e-08
-2.10805e-07
1.59376e-08
-2.15047e-07
1.47177e-08
-2.18926e-07
1.34591e-08
-2.22431e-07
1.21656e-08
-2.25555e-07
1.08407e-08
-2.28288e-07
9.48797e-09
-2.30624e-07
8.11079e-09
-2.32556e-07
6.71256e-09
-2.34081e-07
5.29659e-09
-2.35192e-07
3.86613e-09
-2.35887e-07
2.42443e-09
-2.36164e-07
9.74783e-10
-2.36022e-07
-4.79536e-10
-2.3546e-07
-1.93524e-09
-2.34479e-07
-3.38898e-09
-2.33081e-07
-4.83728e-09
-2.31268e-07
-6.27664e-09
-2.29044e-07
-7.70349e-09
-2.26413e-07
-9.11412e-09
-2.23383e-07
-1.05047e-08
-2.19959e-07
-1.18712e-08
-2.1615e-07
-1.32097e-08
-2.11966e-07
-1.45159e-08
-2.07416e-07
-1.57853e-08
-2.02514e-07
-1.70136e-08
-1.97273e-07
-1.81959e-08
-1.91706e-07
-1.93274e-08
-1.85831e-07
-2.04033e-08
-1.79665e-07
-2.14182e-08
-1.73227e-07
-2.2367e-08
-1.66537e-07
-2.32442e-08
-1.59619e-07
-2.40443e-08
-1.52494e-07
-2.47618e-08
-1.4519e-07
-2.53908e-08
-1.37732e-07
-2.59258e-08
-1.3015e-07
-2.63609e-08
-1.22472e-07
-2.66904e-08
-1.14732e-07
-2.69086e-08
-1.06961e-07
-2.70098e-08
-9.91939e-08
-2.69888e-08
-9.1467e-08
-2.68403e-08
-8.3817e-08
-2.65594e-08
-7.62819e-08
-2.61417e-08
-6.89006e-08
-2.55833e-08
-6.17127e-08
-2.48809e-08
-5.47582e-08
-2.40319e-08
-4.8077e-08
-2.30351e-08
-4.1709e-08
-2.18903e-08
-3.56931e-08
-2.0599e-08
-3.00666e-08
-1.91649e-08
-2.48649e-08
-1.75942e-08
-2.01202e-08
-1.58966e-08
-1.58608e-08
-1.40862e-08
-1.21093e-08
-1.21826e-08
-8.8819e-09
-1.02129e-08
-6.18588e-09
-8.21347e-09
-4.0182e-09
-6.23327e-09
-2.36324e-09
-4.33714e-09
-1.19069e-09
-2.61063e-09
-4.53531e-10
-1.16483e-09
-8.58194e-11
-1.43343e-10
2.53356e-10
-1.69516e-10
-6.58834e-11
-7.50832e-10
7.57652e-10
-1.80758e-09
2.28298e-09
-3.38951e-09
4.29344e-09
-5.53189e-09
6.61132e-09
-8.25572e-09
9.10395e-09
-1.15689e-08
1.1673e-08
-1.5468e-08
1.42447e-08
-1.99401e-08
1.67638e-08
-2.49643e-08
1.91883e-08
-3.05133e-08
2.14869e-08
-3.6555e-08
2.36368e-08
-4.30532e-08
2.56215e-08
-4.99689e-08
2.74296e-08
-5.7261e-08
2.90541e-08
-6.48871e-08
3.0491e-08
-7.2804e-08
3.1739e-08
-8.09684e-08
3.27989e-08
-8.9337e-08
3.3673e-08
-9.78673e-08
3.43651e-08
-1.06517e-07
3.48796e-08
-1.15246e-07
3.52222e-08
-1.24014e-07
3.53987e-08
-1.32783e-07
3.54157e-08
-1.41516e-07
3.52798e-08
-1.50178e-07
3.49979e-08
-1.58735e-07
3.45772e-08
-1.67155e-07
3.40246e-08
-1.75407e-07
3.33473e-08
-1.83463e-07
3.25523e-08
-1.91294e-07
3.16463e-08
-1.98876e-07
3.06363e-08
-2.06185e-07
2.95287e-08
-2.13197e-07
2.83301e-08
-2.19892e-07
2.70465e-08
-2.2625e-07
2.56841e-08
-2.32252e-07
2.42486e-08
-2.37883e-07
2.27458e-08
-2.43127e-07
2.11811e-08
-2.47969e-07
1.95597e-08
-2.52396e-07
1.78868e-08
-2.56398e-07
1.61673e-08
-2.59963e-07
1.4406e-08
-2.63083e-07
1.26076e-08
-2.65749e-07
1.07766e-08
-2.67954e-07
8.91767e-09
-2.69692e-07
7.03508e-09
-2.70959e-07
5.13328e-09
-2.71752e-07
3.21663e-09
-2.72066e-07
1.28945e-09
-2.71902e-07
-6.4387e-10
-2.71258e-07
-2.57888e-09
-2.70136e-07
-4.51109e-09
-2.68538e-07
-6.43593e-09
-2.66465e-07
-8.34876e-09
-2.63924e-07
-1.02448e-08
-2.60919e-07
-1.2119e-08
-2.57458e-07
-1.39663e-08
-2.53547e-07
-1.57816e-08
-2.49198e-07
-1.75593e-08
-2.4442e-07
-1.92939e-08
-2.39226e-07
-2.09795e-08
-2.33629e-07
-2.26101e-08
-2.27645e-07
-2.41796e-08
-2.21291e-07
-2.56815e-08
-2.14585e-07
-2.71093e-08
-2.07547e-07
-2.84561e-08
-2.00199e-07
-2.9715e-08
-1.92565e-07
-3.08789e-08
-1.84668e-07
-3.19406e-08
-1.76537e-07
-3.28926e-08
-1.68201e-07
-3.37276e-08
-1.59688e-07
-3.4438e-08
-1.51033e-07
-3.50163e-08
-1.42268e-07
-3.54551e-08
-1.3343e-07
-3.5747e-08
-1.24555e-07
-3.58848e-08
-1.15682e-07
-3.58616e-08
-1.06852e-07
-3.56708e-08
-9.81046e-08
-3.53063e-08
-8.94838e-08
-3.47626e-08
-8.10324e-08
-3.40347e-08
-7.27945e-08
-3.31188e-08
-6.48143e-08
-3.20121e-08
-5.71362e-08
-3.07133e-08
-4.98038e-08
-2.92227e-08
-4.28598e-08
-2.75431e-08
-3.63452e-08
-2.56795e-08
-3.02986e-08
-2.36408e-08
-2.47552e-08
-2.144e-08
-1.97461e-08
-1.90954e-08
-1.52965e-08
-1.66322e-08
-1.14252e-08
-1.40842e-08
-8.14247e-09
-1.14962e-08
-5.44903e-09
-8.92672e-09
-3.33437e-09
-6.4518e-09
-1.7755e-09
-4.16949e-09
-7.36008e-10
-2.20433e-09
-1.65491e-10
-7.13854e-10
8.78604e-11
-2.4925e-10
1.83367e-10
-1.03869e-09
1.54709e-09
-2.40762e-09
3.65193e-09
-4.38769e-09
6.2735e-09
-7.00145e-09
9.22508e-09
-1.02609e-08
1.23634e-08
-1.41674e-08
1.55795e-08
-1.87128e-08
1.87901e-08
-2.38801e-08
2.19311e-08
-2.96452e-08
2.49533e-08
-3.59777e-08
2.78194e-08
-4.28424e-08
3.05015e-08
-5.02001e-08
3.29792e-08
-5.80086e-08
3.52382e-08
-6.62236e-08
3.72691e-08
-7.47994e-08
3.90667e-08
-8.3689e-08
4.06287e-08
-9.28456e-08
4.19555e-08
-1.02222e-07
4.30497e-08
-1.11773e-07
4.39153e-08
-1.21451e-07
4.45578e-08
-1.31212e-07
4.49835e-08
-1.41013e-07
4.51999e-08
-1.50812e-07
4.52146e-08
-1.60568e-07
4.50359e-08
-1.70243e-07
4.46724e-08
-1.79798e-07
4.41327e-08
-1.89199e-07
4.34257e-08
-1.98412e-07
4.25601e-08
-2.07404e-07
4.15448e-08
-2.16146e-07
4.03883e-08
-2.24609e-07
3.90993e-08
-2.32766e-07
3.76858e-08
-2.40592e-07
3.61562e-08
-2.48064e-07
3.45183e-08
-2.5516e-07
3.27796e-08
-2.61859e-07
3.09477e-08
-2.68143e-07
2.90297e-08
-2.73994e-07
2.70325e-08
-2.79397e-07
2.49629e-08
-2.84338e-07
2.28275e-08
-2.88803e-07
2.06324e-08
-2.92781e-07
1.83839e-08
-2.96261e-07
1.6088e-08
-2.99235e-07
1.37505e-08
-3.01695e-07
1.13772e-08
-3.03634e-07
8.97382e-09
-3.05046e-07
6.54589e-09
-3.05929e-07
4.09903e-09
-3.06278e-07
1.63884e-09
-3.06093e-07
-8.29047e-10
-3.05373e-07
-3.29898e-09
-3.04119e-07
-5.76521e-09
-3.02333e-07
-8.22187e-09
-3.00018e-07
-1.0663e-08
-2.97181e-07
-1.30824e-08
-2.93826e-07
-1.54738e-08
-2.89961e-07
-1.78308e-08
-2.85597e-07
-2.01466e-08
-2.80742e-07
-2.24142e-08
-2.75409e-07
-2.46266e-08
-2.69612e-07
-2.67764e-08
-2.63366e-07
-2.88559e-08
-2.56689e-07
-3.08572e-08
-2.49598e-07
-3.27722e-08
-2.42115e-07
-3.45925e-08
-2.34261e-07
-3.63095e-08
-2.26062e-07
-3.79145e-08
-2.17542e-07
-3.93984e-08
-2.08731e-07
-4.07522e-08
-1.99657e-07
-4.19664e-08
-1.90353e-07
-4.30318e-08
-1.80852e-07
-4.39389e-08
-1.7119e-07
-4.46783e-08
-1.61404e-07
-4.52408e-08
-1.51534e-07
-4.56172e-08
-1.4162e-07
-4.57987e-08
-1.31705e-07
-4.57765e-08
-1.21833e-07
-4.55428e-08
-1.12049e-07
-4.50901e-08
-1.024e-07
-4.44116e-08
-9.29331e-08
-4.35018e-08
-8.36959e-08
-4.2356e-08
-7.47366e-08
-4.09714e-08
-6.61032e-08
-3.93467e-08
-5.7843e-08
-3.74829e-08
-5.00021e-08
-3.53839e-08
-4.26248e-08
-3.30569e-08
-3.57526e-08
-3.0513e-08
-2.9424e-08
-2.77687e-08
-2.36726e-08
-2.48467e-08
-1.85271e-08
-2.17778e-08
-1.40093e-08
-1.8602e-08
-1.01336e-08
-1.53719e-08
-6.90581e-09
-1.21545e-08
-4.32198e-09
-9.03563e-09
-2.36819e-09
-6.1233e-09
-1.02022e-09
-3.55229e-09
-2.44458e-10
-1.48962e-09
-1.56604e-10
-3.26694e-10
5.10057e-10
-1.32168e-09
2.54206e-09
-3.00181e-09
5.33207e-09
-5.381e-09
8.65269e-09
-8.46813e-09
1.23122e-08
-1.22651e-08
1.61603e-08
-1.67656e-08
2.008e-08
-2.19554e-08
2.39799e-08
-2.78128e-08
2.77886e-08
-3.43098e-08
3.14503e-08
-4.14125e-08
3.49221e-08
-4.90823e-08
3.81713e-08
-5.7277e-08
4.11739e-08
-6.59513e-08
4.39125e-08
-7.50578e-08
4.63756e-08
-8.45475e-08
4.85563e-08
-9.43704e-08
5.04516e-08
-1.04476e-07
5.20614e-08
-1.14815e-07
5.33882e-08
-1.25336e-07
5.44366e-08
-1.35991e-07
5.52128e-08
-1.46732e-07
5.57242e-08
-1.57511e-07
5.59794e-08
-1.68284e-07
5.59875e-08
-1.79007e-07
5.57584e-08
-1.89637e-07
5.53023e-08
-2.00134e-07
5.46296e-08
-2.10459e-07
5.3751e-08
-2.20576e-07
5.26772e-08
-2.3045e-07
5.14188e-08
-2.40048e-07
4.99863e-08
-2.49339e-07
4.83901e-08
-2.58293e-07
4.66403e-08
-2.66884e-07
4.47468e-08
-2.75085e-07
4.27194e-08
-2.82873e-07
4.05675e-08
-2.90225e-07
3.83001e-08
-2.97122e-07
3.59261e-08
-3.03543e-07
3.34541e-08
-3.09473e-07
3.08924e-08
-3.14895e-07
2.82491e-08
-3.19794e-07
2.5532e-08
-3.24159e-07
2.27487e-08
-3.27978e-07
1.99067e-08
-3.3124e-07
1.70132e-08
-3.33938e-07
1.40753e-08
-3.36065e-07
1.11002e-08
-3.37614e-07
8.09478e-09
-3.38581e-07
5.06603e-09
-3.38963e-07
2.02086e-09
-3.38758e-07
-1.03374e-09
-3.37966e-07
-4.09073e-09
-3.36588e-07
-7.14296e-09
-3.34627e-07
-1.01832e-08
-3.32086e-07
-1.3204e-08
-3.28971e-07
-1.61978e-08
-3.25288e-07
-1.91567e-08
-3.21046e-07
-2.20728e-08
-3.16255e-07
-2.49377e-08
-3.10926e-07
-2.77429e-08
-3.05073e-07
-3.04796e-08
-2.98711e-07
-3.31386e-08
-2.91856e-07
-3.57105e-08
-2.84528e-07
-3.81856e-08
-2.76746e-07
-4.05539e-08
-2.68533e-07
-4.28051e-08
-2.59914e-07
-4.49287e-08
-2.50915e-07
-4.69138e-08
-2.41564e-07
-4.87494e-08
-2.31892e-07
-5.04243e-08
-2.21931e-07
-5.19272e-08
-2.11716e-07
-5.32467e-08
-2.01283e-07
-5.43713e-08
-1.90672e-07
-5.52895e-08
-1.79923e-07
-5.59903e-08
-1.69078e-07
-5.64624e-08
-1.58181e-07
-5.66953e-08
-1.47279e-07
-5.66786e-08
-1.36419e-07
-5.64029e-08
-1.2565e-07
-5.58593e-08
-1.15021e-07
-5.504e-08
-1.04585e-07
-5.39385e-08
-9.4391e-08
-5.25497e-08
-8.44919e-08
-5.08705e-08
-7.49387e-08
-4.88999e-08
-6.5782e-08
-4.66397e-08
-5.7071e-08
-4.40949e-08
-4.88532e-08
-4.12747e-08
-4.11731e-08
-3.8193e-08
-3.40723e-08
-3.48695e-08
-2.75878e-08
-3.13313e-08
-2.17515e-08
-2.7614e-08
-1.65895e-08
-2.3764e-08
-1.2121e-08
-1.98404e-08
-8.35769e-09
-1.59178e-08
-5.3035e-09
-1.20898e-08
-2.95443e-09
-8.47237e-09
-1.29922e-09
-5.20748e-09
-3.20947e-10
-2.4679e-09
-4.7755e-10
-4.00819e-10
9.1088e-10
-1.59556e-09
3.73679e-09
-3.58106e-09
7.31756e-09
-6.3543e-09
1.14259e-08
-9.91071e-09
1.58686e-08
-1.42413e-08
2.04909e-08
-1.93314e-08
2.51701e-08
-2.516e-08
2.98085e-08
-3.17001e-08
3.43286e-08
-3.89188e-08
3.8669e-08
-4.67783e-08
4.27817e-08
-5.52367e-08
4.66298e-08
-6.42484e-08
5.01855e-08
-7.37649e-08
5.3429e-08
-8.37358e-08
5.63465e-08
-9.41089e-08
5.89295e-08
-1.04831e-07
6.11741e-08
-1.1585e-07
6.30798e-08
-1.27111e-07
6.46492e-08
-1.38562e-07
6.58873e-08
-1.5015e-07
6.6801e-08
-1.61824e-07
6.73987e-08
-1.73535e-07
6.76902e-08
-1.85234e-07
6.76863e-08
-1.96874e-07
6.73983e-08
-2.0841e-07
6.68383e-08
-2.19799e-07
6.60185e-08
-2.30999e-07
6.49514e-08
-2.41972e-07
6.36497e-08
-2.52679e-07
6.2126e-08
-2.63085e-07
6.03928e-08
-2.73158e-07
5.84624e-08
-2.82864e-07
5.63469e-08
-2.92176e-07
5.40583e-08
-3.01065e-07
5.16082e-08
-3.09505e-07
4.90077e-08
-3.17473e-07
4.62679e-08
-3.24946e-07
4.33994e-08
-3.31904e-07
4.04126e-08
-3.38329e-07
3.73174e-08
-3.44204e-07
3.41235e-08
-3.49512e-07
3.08405e-08
-3.54241e-07
2.74776e-08
-3.58378e-07
2.40436e-08
-3.61913e-07
2.05475e-08
-3.64835e-07
1.69979e-08
-3.67138e-07
1.34033e-08
-3.68815e-07
9.77209e-09
-3.69862e-07
6.1128e-09
-3.70275e-07
2.43378e-09
-3.70052e-07
-1.2565e-09
-3.69194e-07
-4.94953e-09
-3.677e-07
-8.63667e-09
-3.65574e-07
-1.23092e-08
-3.6282e-07
-1.5958e-08
-3.59444e-07
-1.9574e-08
-3.55452e-07
-2.31478e-08
-3.50856e-07
-2.66697e-08
-3.45664e-07
-3.01296e-08
-3.39889e-07
-3.35172e-08
-3.33547e-07
-3.68219e-08
-3.26653e-07
-4.00328e-08
-3.19225e-07
-4.31384e-08
-3.11284e-07
-4.61271e-08
-3.02851e-07
-4.89869e-08
-2.9395e-07
-5.17054e-08
-2.84609e-07
-5.42699e-08
-2.74855e-07
-5.66676e-08
-2.6472e-07
-5.88852e-08
-2.54234e-07
-6.09094e-08
-2.43435e-07
-6.27266e-08
-2.32359e-07
-6.43232e-08
-2.21044e-07
-6.56856e-08
-2.09533e-07
-6.68003e-08
-1.9787e-07
-6.7654e-08
-1.86099e-07
-6.82335e-08
-1.74267e-07
-6.85265e-08
-1.62425e-07
-6.85209e-08
-1.50622e-07
-6.82055e-08
-1.38911e-07
-6.75702e-08
-1.27345e-07
-6.66061e-08
-1.15978e-07
-6.53056e-08
-1.04864e-07
-6.36634e-08
-9.4059e-08
-6.1676e-08
-8.36162e-08
-5.93427e-08
-7.35897e-08
-5.66662e-08
-6.40319e-08
-5.36527e-08
-5.49933e-08
-5.03133e-08
-4.65218e-08
-4.66645e-08
-3.8662e-08
-4.27293e-08
-3.14545e-08
-3.85387e-08
-2.49354e-08
-3.41331e-08
-1.91353e-08
-2.95642e-08
-1.40788e-08
-2.48969e-08
-9.78446e-09
-2.02121e-08
-6.26458e-09
-1.56097e-08
-3.52553e-09
-1.12114e-08
-1.56905e-09
-7.16396e-09
-3.94012e-10
-3.64294e-09
-8.7156e-10
-4.71311e-10
1.3822e-09
-1.85833e-09
5.12379e-09
-4.1403e-09
9.59954e-09
-7.29881e-09
1.45844e-08
-1.13161e-08
1.98859e-08
-1.61724e-08
2.53472e-08
-2.18442e-08
3.08418e-08
-2.83031e-08
3.62674e-08
-3.5516e-08
4.15416e-08
-4.34452e-08
4.65982e-08
-5.20485e-08
5.13849e-08
-6.12799e-08
5.58612e-08
-7.10904e-08
5.99961e-08
-8.14284e-08
6.3767e-08
-9.22401e-08
6.71582e-08
-1.03471e-07
7.016e-08
-1.15064e-07
7.27674e-08
-1.26964e-07
7.49797e-08
-1.39114e-07
7.67994e-08
-1.51459e-07
7.8232e-08
-1.63943e-07
7.9285e-08
-1.76512e-07
7.99681e-08
-1.89114e-07
8.02923e-08
-2.01698e-07
8.02699e-08
-2.14213e-07
7.99139e-08
-2.26613e-07
7.9238e-08
-2.38851e-07
7.82566e-08
-2.50884e-07
7.6984e-08
-2.62669e-07
7.54351e-08
-2.74168e-07
7.36244e-08
-2.85341e-07
7.15664e-08
-2.96155e-07
6.92758e-08
-3.06574e-07
6.67666e-08
-3.16569e-07
6.40528e-08
-3.26109e-07
6.1148e-08
-3.35167e-07
5.80655e-08
-3.43717e-07
5.48181e-08
-3.51736e-07
5.14185e-08
-3.59202e-07
4.78788e-08
-3.66095e-07
4.42108e-08
-3.72398e-07
4.0426e-08
-3.78093e-07
3.65356e-08
-3.83166e-07
3.25506e-08
-3.87604e-07
2.84815e-08
-3.91395e-07
2.43388e-08
-3.9453e-07
2.01328e-08
-3.97e-07
1.58735e-08
-3.98799e-07
1.15711e-08
-3.99922e-07
7.23535e-09
-4.00364e-07
2.8764e-09
-4.00125e-07
-1.49578e-09
-3.99204e-07
-5.8711e-09
-3.97601e-07
-1.02393e-08
-3.9532e-07
-1.459e-08
-3.92365e-07
-1.89126e-08
-3.88743e-07
-2.31961e-08
-3.84462e-07
-2.74295e-08
-3.7953e-07
-3.16012e-08
-3.7396e-07
-3.56994e-08
-3.67765e-07
-3.9712e-08
-3.60961e-07
-4.36264e-08
-3.53564e-07
-4.74295e-08
-3.45595e-07
-5.1108e-08
-3.37074e-07
-5.46482e-08
-3.28025e-07
-5.80359e-08
-3.18474e-07
-6.12565e-08
-3.08448e-07
-6.42951e-08
-2.97979e-07
-6.71366e-08
-2.87099e-07
-6.97655e-08
-2.75842e-07
-7.21661e-08
-2.64246e-07
-7.43225e-08
-2.52351e-07
-7.62189e-08
-2.40197e-07
-7.78394e-08
-2.27829e-07
-7.91681e-08
-2.15293e-07
-8.01897e-08
-2.02638e-07
-8.0889e-08
-1.89913e-07
-8.12516e-08
-1.7717e-07
-8.12637e-08
-1.64463e-07
-8.09124e-08
-1.51847e-07
-8.01862e-08
-1.39378e-07
-7.90749e-08
-1.27114e-07
-7.75704e-08
-1.1511e-07
-7.56665e-08
-1.03427e-07
-7.33597e-08
-9.21199e-08
-7.06496e-08
-8.12466e-08
-6.75394e-08
-7.08623e-08
-6.40369e-08
-6.10208e-08
-6.01549e-08
-5.1773e-08
-5.59122e-08
-4.31674e-08
-5.1335e-08
-3.52483e-08
-4.64578e-08
-2.80562e-08
-4.13253e-08
-2.16267e-08
-3.59936e-08
-1.59906e-08
-3.05329e-08
-1.11737e-08
-2.50291e-08
-7.19674e-09
-1.95867e-08
-4.07666e-09
-1.43315e-08
-1.82766e-09
-9.41297e-09
-4.63266e-10
-5.00734e-09
-1.33483e-09
-5.38086e-10
1.92029e-09
-2.10918e-09
6.69489e-09
-4.67728e-09
1.21676e-08
-8.20996e-09
1.81171e-08
-1.26771e-08
2.43531e-08
-1.80485e-08
3.07186e-08
-2.42914e-08
3.70848e-08
-3.137e-08
4.33461e-08
-3.92449e-08
4.94164e-08
-4.78726e-08
5.52259e-08
-5.72065e-08
6.07188e-08
-6.71963e-08
6.5851e-08
-7.77893e-08
7.05891e-08
-8.89304e-08
7.49081e-08
-1.00563e-07
7.87906e-08
-1.12628e-07
8.22255e-08
-1.25068e-07
8.52073e-08
-1.37823e-07
8.77347e-08
-1.50834e-07
8.98105e-08
-1.64043e-07
9.14406e-08
-1.77391e-07
9.26335e-08
-1.90823e-07
9.33997e-08
-2.04282e-07
9.37518e-08
-2.17716e-07
9.37034e-08
-2.31071e-07
9.32693e-08
-2.44299e-07
9.24653e-08
-2.5735e-07
9.13075e-08
-2.70178e-07
8.98125e-08
-2.8274e-07
8.7997e-08
-2.94993e-07
8.58778e-08
-3.06899e-07
8.34718e-08
-3.18419e-07
8.07955e-08
-3.29517e-07
7.78653e-08
-3.40162e-07
7.46974e-08
-3.50321e-07
7.13073e-08
-3.59966e-07
6.77105e-08
-3.6907e-07
6.3922e-08
-3.77608e-07
5.99562e-08
-3.85556e-07
5.58273e-08
-3.92895e-07
5.15491e-08
-3.99604e-07
4.7135e-08
-4.05666e-07
4.25979e-08
-4.11066e-07
3.79505e-08
-4.15789e-07
3.32052e-08
-4.19825e-07
2.83743e-08
-4.23162e-07
2.34696e-08
-4.25791e-07
1.85029e-08
-4.27706e-07
1.3486e-08
-4.28901e-07
8.43045e-09
-4.29373e-07
3.34789e-09
-4.29118e-07
-1.74999e-09
-4.28138e-07
-6.8514e-09
-4.26433e-07
-1.19444e-08
-4.24006e-07
-1.70169e-08
-4.20862e-07
-2.20565e-08
-4.17008e-07
-2.70505e-08
-4.12451e-07
-3.19859e-08
-4.07203e-07
-3.68494e-08
-4.01275e-07