/*--------------------------------*- C++ -*----------------------------------*\
| =========                 |                                                 |
| \\      /  F ield         | OpenFOAM: The Open Source CFD Toolbox           |
|  \\    /   O peration     | Version:  2212                                  |
|   \\  /    A nd           | Website:  www.openfoam.com                      |
|    \\/     M anipulation  |                                                 |
\*---------------------------------------------------------------------------*/
FoamFile
{
    version     2.0;
    format      ascii;
    arch        "LSB;label=32;scalar=64";
    class       volVectorField;
    location    "0.02";
    object      U;
}
// * * * * * * * * * * * * * * * * * * * * * * * * * * * * * * * * * * * * * //

dimensions      [0 1 -1 0 0 0 0];

internalField   nonuniform List<vector> 
10000
(
(2.91369e-06 -2.86089e-06 0)
(1.19815e-05 -5.88497e-06 0)
(2.39792e-05 -5.92642e-06 0)
(3.26824e-05 -4.18019e-06 0)
(3.47661e-05 -1.63628e-06 0)
(2.89728e-05 1.17063e-06 0)
(1.48956e-05 3.99734e-06 0)
(-7.43355e-06 6.70027e-06 0)
(-3.77291e-05 9.23793e-06 0)
(-7.55709e-05 1.15866e-05 0)
(-0.000120447 1.372e-05 0)
(-0.000171805 1.56513e-05 0)
(-0.000229073 1.73856e-05 0)
(-0.000291676 1.89239e-05 0)
(-0.000359025 2.0281e-05 0)
(-0.00043055 2.14508e-05 0)
(-0.00050569 2.24362e-05 0)
(-0.000583894 2.32638e-05 0)
(-0.000664646 2.39401e-05 0)
(-0.000747444 2.44637e-05 0)
(-0.000831793 2.48416e-05 0)
(-0.000917238 2.50868e-05 0)
(-0.00100334 2.52056e-05 0)
(-0.00108968 2.52132e-05 0)
(-0.00117586 2.51197e-05 0)
(-0.0012615 2.49187e-05 0)
(-0.00134626 2.46053e-05 0)
(-0.00142978 2.41848e-05 0)
(-0.00151175 2.367e-05 0)
(-0.00159189 2.30735e-05 0)
(-0.00166991 2.24073e-05 0)
(-0.00174555 2.16786e-05 0)
(-0.00181859 2.08859e-05 0)
(-0.0018888 2.00289e-05 0)
(-0.00195597 1.91101e-05 0)
(-0.0020199 1.81356e-05 0)
(-0.00208042 1.7112e-05 0)
(-0.00213735 1.60447e-05 0)
(-0.00219056 1.49391e-05 0)
(-0.00223991 1.3797e-05 0)
(-0.00228527 1.26194e-05 0)
(-0.00232652 1.14112e-05 0)
(-0.00236357 1.01762e-05 0)
(-0.00239633 8.91809e-06 0)
(-0.00242471 7.6387e-06 0)
(-0.00244863 6.33826e-06 0)
(-0.00246805 5.01989e-06 0)
(-0.00248291 3.68772e-06 0)
(-0.00249315 2.34548e-06 0)
(-0.00249876 9.96121e-07 0)
(-0.00249971 -3.59977e-07 0)
(-0.00249598 -1.72141e-06 0)
(-0.00248757 -3.08469e-06 0)
(-0.00247448 -4.44726e-06 0)
(-0.00245674 -5.80442e-06 0)
(-0.00243438 -7.14933e-06 0)
(-0.00240743 -8.47909e-06 0)
(-0.00237595 -9.79276e-06 0)
(-0.00234001 -1.10866e-05 0)
(-0.00229968 -1.23571e-05 0)
(-0.00225506 -1.36008e-05 0)
(-0.00220625 -1.48115e-05 0)
(-0.00215338 -1.59832e-05 0)
(-0.00209659 -1.71135e-05 0)
(-0.00203601 -1.8198e-05 0)
(-0.00197183 -1.92295e-05 0)
(-0.00190424 -2.02032e-05 0)
(-0.00183342 -2.11166e-05 0)
(-0.0017596 -2.19641e-05 0)
(-0.00168303 -2.27383e-05 0)
(-0.00160395 -2.34339e-05 0)
(-0.00152264 -2.40474e-05 0)
(-0.00143939 -2.45732e-05 0)
(-0.00135453 -2.50046e-05 0)
(-0.00126838 -2.53359e-05 0)
(-0.00118131 -2.55607e-05 0)
(-0.00109369 -2.56697e-05 0)
(-0.00100593 -2.5653e-05 0)
(-0.00091845 -2.55038e-05 0)
(-0.000831698 -2.52189e-05 0)
(-0.000746137 -2.47943e-05 0)
(-0.00066225 -2.4223e-05 0)
(-0.000580541 -2.34963e-05 0)
(-0.000501531 -2.26072e-05 0)
(-0.000425761 -2.15498e-05 0)
(-0.000353787 -2.03186e-05 0)
(-0.000286177 -1.89072e-05 0)
(-0.000223506 -1.73093e-05 0)
(-0.000166352 -1.55194e-05 0)
(-0.000115292 -1.35358e-05 0)
(-7.08887e-05 -1.13613e-05 0)
(-3.36748e-05 -9.00272e-06 0)
(-4.12459e-06 -6.47311e-06 0)
(1.7381e-05 -3.79902e-06 0)
(3.06219e-05 -1.03998e-06 0)
(3.56563e-05 1.67795e-06 0)
(3.29932e-05 4.11316e-06 0)
(2.39748e-05 5.79232e-06 0)
(1.19115e-05 5.81054e-06 0)
(2.8646e-06 2.86575e-06 0)
(5.66445e-06 -1.18208e-05 0)
(2.05894e-05 -2.06868e-05 0)
(3.60238e-05 -1.7868e-05 0)
(4.14973e-05 -7.80073e-06 0)
(3.08403e-05 5.96245e-06 0)
(1.0528e-06 2.13871e-05 0)
(-4.92387e-05 3.72757e-05 0)
(-0.000120426 5.29698e-05 0)
(-0.000212171 6.80483e-05 0)
(-0.000323716 8.22843e-05 0)
(-0.000453964 9.55287e-05 0)
(-0.000601641 0.000107698 0)
(-0.000765369 0.000118751 0)
(-0.000943658 0.000128683 0)
(-0.00113502 0.000137492 0)
(-0.00133794 0.000145189 0)
(-0.00155092 0.000151798 0)
(-0.00177249 0.000157355 0)
(-0.00200123 0.000161901 0)
(-0.00223573 0.000165476 0)
(-0.00247467 0.000168119 0)
(-0.00271675 0.000169862 0)
(-0.00296074 0.000170753 0)
(-0.00320547 0.00017084 0)
(-0.00344981 0.000170169 0)
(-0.00369271 0.000168776 0)
(-0.00393315 0.000166696 0)
(-0.00417018 0.000163964 0)
(-0.0044029 0.000160619 0)
(-0.00463048 0.000156706 0)
(-0.00485213 0.000152268 0)
(-0.0050671 0.000147343 0)
(-0.00527471 0.000141962 0)
(-0.00547431 0.00013615 0)
(-0.0056653 0.000129937 0)
(-0.00584712 0.000123349 0)
(-0.00601926 0.000116421 0)
(-0.00618125 0.000109181 0)
(-0.00633265 0.000101658 0)
(-0.00647307 9.38753e-05 0)
(-0.00660213 8.58541e-05 0)
(-0.0067195 7.7617e-05 0)
(-0.0068249 6.91866e-05 0)
(-0.00691805 6.05831e-05 0)
(-0.00699872 5.18292e-05 0)
(-0.00706671 4.2944e-05 0)
(-0.00712183 3.39451e-05 0)
(-0.00716394 2.48528e-05 0)
(-0.00719293 1.56864e-05 0)
(-0.0072087 6.46449e-06 0)
(-0.00721118 -2.79326e-06 0)
(-0.00720036 -1.20677e-05 0)
(-0.00717621 -2.13386e-05 0)
(-0.00713878 -3.05844e-05 0)
(-0.00708812 -3.97825e-05 0)
(-0.00702432 -4.89072e-05 0)
(-0.0069475 -5.79339e-05 0)
(-0.00685782 -6.68414e-05 0)
(-0.00675548 -7.56061e-05 0)
(-0.0066407 -8.42008e-05 0)
(-0.00651376 -9.25973e-05 0)
(-0.00637496 -0.000100767 0)
(-0.00622465 -0.000108681 0)
(-0.00606322 -0.000116308 0)
(-0.00589111 -0.000123616 0)
(-0.00570881 -0.000130571 0)
(-0.00551684 -0.000137141 0)
(-0.00531577 -0.000143293 0)
(-0.00510625 -0.000148992 0)
(-0.00488895 -0.000154199 0)
(-0.00466459 -0.000158877 0)
(-0.00443398 -0.000162989 0)
(-0.00419794 -0.000166496 0)
(-0.0039574 -0.000169358 0)
(-0.00371328 -0.000171535 0)
(-0.00346661 -0.000172984 0)
(-0.00321845 -0.000173656 0)
(-0.00296995 -0.000173508 0)
(-0.00272226 -0.000172498 0)
(-0.00247665 -0.000170592 0)
(-0.0022344 -0.000167752 0)
(-0.00199688 -0.000163937 0)
(-0.00176545 -0.00015911 0)
(-0.00154156 -0.000153236 0)
(-0.00132667 -0.000146288 0)
(-0.0011223 -0.000138241 0)
(-0.000929953 -0.000129075 0)
(-0.000751145 -0.00011878 0)
(-0.000587375 -0.000107361 0)
(-0.000440107 -9.48442e-05 0)
(-0.000310722 -8.12861e-05 0)
(-0.000200461 -6.67819e-05 0)
(-0.000110345 -5.14915e-05 0)
(-4.10735e-05 -3.5682e-05 0)
(7.15371e-06 -1.97966e-05 0)
(3.48904e-05 -4.56624e-06 0)
(4.37631e-05 8.81284e-06 0)
(3.7011e-05 1.8371e-05 0)
(2.09241e-05 2.09187e-05 0)
(5.8079e-06 1.19084e-05 0)
(5.47304e-06 -2.35412e-05 0)
(1.77984e-05 -3.61981e-05 0)
(2.48772e-05 -2.45682e-05 0)
(1.48884e-05 2.56954e-06 0)
(-1.94988e-05 3.8393e-05 0)
(-8.21784e-05 7.85799e-05 0)
(-0.000175165 0.000120443 0)
(-0.000299161 0.000162242 0)
(-0.000453942 0.000202857 0)
(-0.000638541 0.000241554 0)
(-0.000851527 0.000277847 0)
(-0.00109114 0.000311422 0)
(-0.00135536 0.00034211 0)
(-0.00164206 0.000369806 0)
(-0.00194902 0.000394472 0)
(-0.00227394 0.000416126 0)
(-0.00261458 0.000434798 0)
(-0.00296868 0.000450552 0)
(-0.00333403 0.000463488 0)
(-0.00370848 0.00047369 0)
(-0.00408994 0.000481264 0)
(-0.00447638 0.000486317 0)
(-0.00486587 0.000488949 0)
(-0.00525655 0.00048928 0)
(-0.00564665 0.000487429 0)
(-0.00603449 0.000483509 0)
(-0.00641846 0.000477631 0)
(-0.00679705 0.000469905 0)
(-0.00716883 0.00046044 0)
(-0.00753245 0.000449342 0)
(-0.00788666 0.000436716 0)
(-0.00823025 0.000422665 0)
(-0.00856211 0.000407284 0)
(-0.00888122 0.000390658 0)
(-0.0091866 0.000372877 0)
(-0.00947736 0.000354023 0)
(-0.00975267 0.00033418 0)
(-0.0100118 0.00031343 0)
(-0.0102539 0.000291848 0)
(-0.0104785 0.000269506 0)
(-0.010685 0.000246472 0)
(-0.0108727 0.00022281 0)
(-0.0110413 0.000198584 0)
(-0.0111903 0.000173858 0)
(-0.0113192 0.000148692 0)
(-0.0114279 0.000123145 0)
(-0.011516 9.72766e-05 0)
(-0.0115832 7.114e-05 0)
(-0.0116294 4.47923e-05 0)
(-0.0116545 1.82906e-05 0)
(-0.0116583 -8.30674e-06 0)
(-0.0116408 -3.494e-05 0)
(-0.0116019 -6.15506e-05 0)
(-0.0115419 -8.80778e-05 0)
(-0.0114606 -0.000114455 0)
(-0.0113584 -0.000140618 0)
(-0.0112354 -0.0001665 0)
(-0.0110918 -0.000192031 0)
(-0.010928 -0.000217137 0)
(-0.0107444 -0.000241747 0)
(-0.0105413 -0.000265782 0)
(-0.0103194 -0.000289159 0)
(-0.0100791 -0.000311793 0)
(-0.00982102 -0.0003336 0)
(-0.00954597 -0.000354489 0)
(-0.00925469 -0.000374364 0)
(-0.00894801 -0.000393129 0)
(-0.00862687 -0.000410689 0)
(-0.00829227 -0.000426945 0)
(-0.00794531 -0.000441788 0)
(-0.00758716 -0.000455111 0)
(-0.00721907 -0.000466804 0)
(-0.00684238 -0.00047676 0)
(-0.00645855 -0.000484865 0)
(-0.00606908 -0.000491003 0)
(-0.00567559 -0.000495057 0)
(-0.00527976 -0.000496905 0)
(-0.00488339 -0.000496434 0)
(-0.00448834 -0.000493532 0)
(-0.00409656 -0.000488095 0)
(-0.0037101 -0.000480017 0)
(-0.00333104 -0.0004692 0)
(-0.00296155 -0.00045555 0)
(-0.00260385 -0.000438988 0)
(-0.00226022 -0.000419449 0)
(-0.00193295 -0.000396882 0)
(-0.00162434 -0.000371266 0)
(-0.00133668 -0.00034261 0)
(-0.00107217 -0.000310973 0)
(-0.000832975 -0.000276474 0)
(-0.000621049 -0.000239327 0)
(-0.00043811 -0.000199868 0)
(-0.000285507 -0.000158626 0)
(-0.000164064 -0.000116407 0)
(-7.38622e-05 -7.44399e-05 0)
(-1.39299e-05 -3.45878e-05 0)
(1.80852e-05 3.49482e-07 0)
(2.64127e-05 2.62272e-05 0)
(1.84599e-05 3.70182e-05 0)
(5.80615e-06 2.39832e-05 0)
(3.79854e-06 -3.22258e-05 0)
(8.46332e-06 -4.25209e-05 0)
(-4.21524e-07 -1.51076e-05 0)
(-3.39972e-05 3.68253e-05 0)
(-9.96399e-05 0.000103151 0)
(-0.000201632 0.000177137 0)
(-0.000342262 0.000254358 0)
(-0.0005224 0.000331804 0)
(-0.000741761 0.000407437 0)
(-0.000999286 0.000479842 0)
(-0.00129328 0.000548053 0)
(-0.00162158 0.00061143 0)
(-0.00198174 0.000669554 0)
(-0.00237109 0.000722176 0)
(-0.00278682 0.000769186 0)
(-0.00322605 0.000810555 0)
(-0.00368587 0.000846319 0)
(-0.00416336 0.000876575 0)
(-0.00465565 0.000901452 0)
(-0.00515994 0.000921114 0)
(-0.00567348 0.00093574 0)
(-0.00619362 0.000945527 0)
(-0.00671779 0.000950669 0)
(-0.00724352 0.000951374 0)
(-0.00776846 0.000947851 0)
(-0.00829036 0.000940315 0)
(-0.00880709 0.000928981 0)
(-0.00931661 0.000914059 0)
(-0.00981701 0.000895757 0)
(-0.0103065 0.000874276 0)
(-0.0107833 0.000849815 0)
(-0.0112459 0.000822563 0)
(-0.0116928 0.000792705 0)
(-0.0121225 0.000760416 0)
(-0.0125338 0.000725865 0)
(-0.0129254 0.000689219 0)
(-0.0132962 0.000650636 0)
(-0.0136452 0.000610268 0)
(-0.0139714 0.000568266 0)
(-0.014274 0.000524767 0)
(-0.014552 0.000479908 0)
(-0.0148049 0.000433821 0)
(-0.015032 0.000386627 0)
(-0.0152326 0.000338448 0)
(-0.0154063 0.000289408 0)
(-0.0155527 0.000239623 0)
(-0.0156712 0.000189207 0)
(-0.0157617 0.000138274 0)
(-0.0158238 8.69364e-05 0)
(-0.0158573 3.53045e-05 0)
(-0.0158623 -1.65067e-05 0)
(-0.0158385 -6.83801e-05 0)
(-0.015786 -0.000120196 0)
(-0.0157048 -0.000171836 0)
(-0.0155952 -0.000223176 0)
(-0.0154573 -0.000274088 0)
(-0.0152914 -0.000324439 0)
(-0.0150978 -0.000374096 0)
(-0.0148771 -0.000422921 0)
(-0.0146296 -0.000470764 0)
(-0.014356 -0.000517472 0)
(-0.014057 -0.000562891 0)
(-0.0137334 -0.00060686 0)
(-0.0133859 -0.000649208 0)
(-0.0130156 -0.000689758 0)
(-0.0126235 -0.000728331 0)
(-0.0122107 -0.000764743 0)
(-0.0117785 -0.000798802 0)
(-0.0113283 -0.000830311 0)
(-0.0108615 -0.00085907 0)
(-0.0103798 -0.00088487 0)
(-0.00988469 -0.0009075 0)
(-0.00937812 -0.00092675 0)
(-0.00886197 -0.000942402 0)
(-0.00833828 -0.000954237 0)
(-0.0078092 -0.000962034 0)
(-0.007277 -0.000965575 0)
(-0.00674405 -0.000964647 0)
(-0.00621282 -0.000959044 0)
(-0.0056859 -0.000948564 0)
(-0.00516597 -0.00093302 0)
(-0.0046558 -0.000912235 0)
(-0.00415822 -0.000886052 0)
(-0.00367613 -0.000854336 0)
(-0.00321248 -0.000816985 0)
(-0.00277023 -0.000773939 0)
(-0.00235234 -0.000725193 0)
(-0.00196169 -0.00067081 0)
(-0.0016011 -0.000610949 0)
(-0.00127322 -0.0005459 0)
(-0.000980446 -0.000476126 0)
(-0.00072484 -0.000402336 0)
(-0.000507968 -0.000325581 0)
(-0.000330743 -0.000247399 0)
(-0.000193184 -0.000170015 0)
(-9.41295e-05 -9.66311e-05 0)
(-3.09152e-05 -3.18248e-05 0)
(1.04041e-06 1.7997e-05 0)
(9.11577e-06 4.39586e-05 0)
(4.16273e-06 3.30815e-05 0)
(1.48016e-06 -3.47358e-05 0)
(-4.54716e-06 -3.35269e-05 0)
(-3.45683e-05 1.7582e-05 0)
(-9.74955e-05 0.000101826 0)
(-0.00019987 0.000206123 0)
(-0.000345928 0.00032145 0)
(-0.000537958 0.000441622 0)
(-0.000776738 0.000562337 0)
(-0.00106193 0.000680512 0)
(-0.0013923 0.000793969 0)
(-0.0017659 0.000901176 0)
(-0.0021803 0.00100106 0)
(-0.00263266 0.00109291 0)
(-0.00311989 0.00117628 0)
(-0.00363871 0.00125091 0)
(-0.00418573 0.00131672 0)
(-0.0047575 0.00137372 0)
(-0.00535057 0.00142203 0)
(-0.00596148 0.0014618 0)
(-0.00658687 0.00149328 0)
(-0.00722342 0.00151671 0)
(-0.00786792 0.00153239 0)
(-0.00851725 0.00154063 0)
(-0.00916842 0.00154175 0)
(-0.00981854 0.00153608 0)
(-0.0104649 0.00152393 0)
(-0.0111047 0.00150565 0)
(-0.0117357 0.00148157 0)
(-0.0123554 0.00145201 0)
(-0.0129616 0.0014173 0)
(-0.0135522 0.00137775 0)
(-0.0141251 0.00133367 0)
(-0.0146786 0.00128535 0)
(-0.0152109 0.00123307 0)
(-0.0157204 0.00117712 0)
(-0.0162055 0.00111775 0)
(-0.0166649 0.00105522 0)
(-0.0170973 0.000989789 0)
(-0.0175014 0.000921684 0)
(-0.0178763 0.000851139 0)
(-0.0182208 0.00077837 0)
(-0.0185341 0.000703595 0)
(-0.0188154 0.000627019 0)
(-0.0190639 0.00054884 0)
(-0.0192791 0.000469252 0)
(-0.0194603 0.000388452 0)
(-0.019607 0.000306628 0)
(-0.019719 0.000223966 0)
(-0.0197958 0.00014065 0)
(-0.0198372 5.68674e-05 0)
(-0.0198431 -2.71944e-05 0)
(-0.0198134 -0.000111349 0)
(-0.0197482 -0.000195404 0)
(-0.0196474 -0.000279158 0)
(-0.0195114 -0.000362409 0)
(-0.0193403 -0.000444953 0)
(-0.0191345 -0.000526578 0)
(-0.0188945 -0.00060706 0)
(-0.0186209 -0.000686173 0)
(-0.0183141 -0.000763679 0)
(-0.0179751 -0.000839335 0)
(-0.0176046 -0.000912885 0)
(-0.0172036 -0.000984067 0)
(-0.0167732 -0.00105261 0)
(-0.0163145 -0.00111822 0)
(-0.0158289 -0.00118063 0)
(-0.0153178 -0.00123952 0)
(-0.0147827 -0.00129458 0)
(-0.0142254 -0.00134551 0)
(-0.0136476 -0.00139198 0)
(-0.0130513 -0.00143365 0)
(-0.0124386 -0.00147018 0)
(-0.0118116 -0.00150125 0)
(-0.0111729 -0.0015265 0)
(-0.0105248 -0.00154559 0)
(-0.0098701 -0.00155817 0)
(-0.00921145 -0.00156391 0)
(-0.00855178 -0.00156246 0)
(-0.00789414 -0.00155351 0)
(-0.00724165 -0.00153676 0)
(-0.00659757 -0.00151191 0)
(-0.00596525 -0.00147871 0)
(-0.0053481 -0.00143692 0)
(-0.0047496 -0.00138637 0)
(-0.00417329 -0.00132692 0)
(-0.00362268 -0.00125852 0)
(-0.00310127 -0.0011812 0)
(-0.00261245 -0.00109513 0)
(-0.0021595 -0.00100062 0)
(-0.00174548 -0.000898181 0)
(-0.00137313 -0.000788615 0)
(-0.0010448 -0.000673095 0)
(-0.000762229 -0.000553299 0)
(-0.000526459 -0.000431592 0)
(-0.000337565 -0.000311273 0)
(-0.000194423 -0.000196916 0)
(-9.44166e-05 -9.48219e-05 0)
(-3.30957e-05 -1.35045e-05 0)
(-3.9188e-06 3.56034e-05 0)
(1.7966e-06 3.59779e-05 0)
(-1.08616e-06 -2.97957e-05 0)
(-1.93728e-05 -6.02069e-06 0)
(-7.369e-05 7.7737e-05 0)
(-0.000169712 0.000202102 0)
(-0.000312546 0.000351617 0)
(-0.000506012 0.00051524 0)
(-0.000752073 0.000685187 0)
(-0.00105132 0.000855816 0)
(-0.00140319 0.00102304 0)
(-0.00180623 0.00118386 0)
(-0.00225828 0.0013361 0)
(-0.0027566 0.00147824 0)
(-0.00329806 0.0016092 0)
(-0.0038792 0.00172829 0)
(-0.00449634 0.00183508 0)
(-0.00514565 0.00192939 0)
(-0.00582325 0.00201119 0)
(-0.0065252 0.0020806 0)
(-0.00724758 0.00213781 0)
(-0.00798653 0.00218311 0)
(-0.00873822 0.00221684 0)
(-0.00949896 0.00223939 0)
(-0.0102651 0.00225119 0)
(-0.0110333 0.00225268 0)
(-0.0118001 0.00224431 0)
(-0.0125623 0.00222656 0)
(-0.0133169 0.00219989 0)
(-0.0140609 0.00216477 0)
(-0.0147916 0.00212167 0)
(-0.0155063 0.00207105 0)
(-0.0162026 0.00201335 0)
(-0.0168782 0.00194903 0)
(-0.0175309 0.0018785 0)
(-0.0181585 0.00180219 0)
(-0.0187593 0.00172048 0)
(-0.0193313 0.00163376 0)
(-0.0198731 0.00154242 0)
(-0.0203829 0.00144681 0)
(-0.0208595 0.00134727 0)
(-0.0213015 0.00124415 0)
(-0.0217078 0.00113777 0)
(-0.0220772 0.00102844 0)
(-0.0224089 0.000916462 0)
(-0.0227019 0.000802134 0)
(-0.0229556 0.000685745 0)
(-0.0231691 0.000567576 0)
(-0.0233421 0.000447905 0)
(-0.0234739 0.000327011 0)
(-0.0235643 0.000205168 0)
(-0.023613 8.26472e-05 0)
(-0.0236198 -4.02738e-05 0)
(-0.0235846 -0.000163316 0)
(-0.0235074 -0.000286196 0)
(-0.0233884 -0.000408625 0)
(-0.0232277 -0.000530307 0)
(-0.0230258 -0.000650938 0)
(-0.0227829 -0.000770205 0)
(-0.0224997 -0.000887785 0)
(-0.0221768 -0.00100334 0)
(-0.0218149 -0.00111654 0)
(-0.021415 -0.00122701 0)
(-0.020978 -0.00133439 0)
(-0.0205052 -0.00143828 0)
(-0.0199976 -0.00153831 0)
(-0.0194568 -0.00163404 0)
(-0.0188843 -0.00172507 0)
(-0.0182818 -0.00181096 0)
(-0.0176511 -0.00189125 0)
(-0.0169942 -0.00196549 0)
(-0.0163132 -0.00203321 0)
(-0.0156105 -0.00209393 0)
(-0.0148884 -0.00214717 0)
(-0.0141496 -0.00219243 0)
(-0.0133968 -0.00222923 0)
(-0.0126331 -0.00225707 0)
(-0.0118614 -0.00227547 0)
(-0.0110849 -0.00228393 0)
(-0.0103072 -0.002282 0)
(-0.0095316 -0.00226923 0)
(-0.00876182 -0.00224518 0)
(-0.00800161 -0.00220947 0)
(-0.00725482 -0.00216176 0)
(-0.00652537 -0.00210173 0)
(-0.00581724 -0.00202918 0)
(-0.00513446 -0.00194394 0)
(-0.00448103 -0.00184601 0)
(-0.00386089 -0.00173548 0)
(-0.00327786 -0.00161263 0)
(-0.0027356 -0.00147797 0)
(-0.00223753 -0.00133231 0)
(-0.00178668 -0.00117685 0)
(-0.00138565 -0.00101327 0)
(-0.00103641 -0.000843939 0)
(-0.000740176 -0.000672075 0)
(-0.000497212 -0.000502054 0)
(-0.000306653 -0.000339768 0)
(-0.000166221 -0.000193089 0)
(-7.19501e-05 -7.23702e-05 0)
(-1.87003e-05 8.84098e-06 0)
(-8.19158e-07 3.14003e-05 0)
(-3.68589e-06 -1.68959e-05 0)
(-3.48987e-05 4.16838e-05 0)
(-0.000115064 0.000167843 0)
(-0.000246268 0.000340495 0)
(-0.000431813 0.000542417 0)
(-0.00067475 0.000760981 0)
(-0.000976556 0.000986922 0)
(-0.00133739 0.00121342 0)
(-0.00175638 0.00143539 0)
(-0.0022318 0.00164902 0)
(-0.0027612 0.00185151 0)
(-0.0033416 0.0020408 0)
(-0.00396953 0.00221545 0)
(-0.00464123 0.00237449 0)
(-0.00535266 0.0025173 0)
(-0.00609963 0.00264356 0)
(-0.00687786 0.00275318 0)
(-0.007683 0.00284626 0)
(-0.00851072 0.00292302 0)
(-0.00935672 0.00298381 0)
(-0.0102168 0.00302904 0)
(-0.0110867 0.00305923 0)
(-0.0119625 0.00307488 0)
(-0.0128403 0.00307659 0)
(-0.0137163 0.00306496 0)
(-0.0145869 0.00304059 0)
(-0.0154487 0.00300412 0)
(-0.0162983 0.00295616 0)
(-0.0171327 0.00289733 0)
(-0.0179487 0.00282826 0)
(-0.0187438 0.00274955 0)
(-0.0195151 0.00266178 0)
(-0.0202602 0.00256553 0)
(-0.0209767 0.00246137 0)
(-0.0216626 0.00234984 0)
(-0.0223157 0.00223146 0)
(-0.0229342 0.00210673 0)
(-0.0235162 0.00197616 0)
(-0.0240603 0.00184022 0)
(-0.0245649 0.00169937 0)
(-0.0250287 0.00155403 0)
(-0.0254505 0.00140466 0)
(-0.0258291 0.00125167 0)
(-0.0261635 0.00109545 0)
(-0.026453 0.000936406 0)
(-0.0266967 0.000774933 0)
(-0.026894 0.000611409 0)
(-0.0270444 0.000446212 0)
(-0.0271474 0.000279722 0)
(-0.0272028 0.000112315 0)
(-0.0272104 -5.56295e-05 0)
(-0.0271699 -0.000223727 0)
(-0.0270816 -0.000391588 0)
(-0.0269455 -0.000558817 0)
(-0.0267619 -0.000725009 0)
(-0.0265311 -0.000889746 0)
(-0.0262536 -0.0010526 0)
(-0.0259301 -0.00121313 0)
(-0.0255613 -0.00137088 0)
(-0.0251481 -0.00152538 0)
(-0.0246914 -0.00167614 0)
(-0.0241925 -0.00182265 0)
(-0.0236526 -0.0019644 0)
(-0.0230732 -0.00210084 0)
(-0.0224558 -0.00223141 0)
(-0.0218024 -0.00235554 0)
(-0.0211146 -0.00247264 0)
(-0.0203948 -0.0025821 0)
(-0.019645 -0.0026833 0)
(-0.0188678 -0.00277561 0)
(-0.0180658 -0.00285837 0)
(-0.0172417 -0.00293095 0)
(-0.0163984 -0.00299267 0)
(-0.0155392 -0.00304289 0)
(-0.0146674 -0.00308094 0)
(-0.0137863 -0.00310618 0)
(-0.0128997 -0.00311797 0)
(-0.0120113 -0.00311569 0)
(-0.0111251 -0.00309877 0)
(-0.0102452 -0.00306664 0)
(-0.00937575 -0.00301882 0)
(-0.00852106 -0.00295485 0)
(-0.00768549 -0.00287438 0)
(-0.00687348 -0.00277716 0)
(-0.00608946 -0.00266303 0)
(-0.00533786 -0.00253202 0)
(-0.004623 -0.00238431 0)
(-0.00394908 -0.00222035 0)
(-0.00332009 -0.00204089 0)
(-0.00273976 -0.00184705 0)
(-0.00221143 -0.00164044 0)
(-0.00173795 -0.00142333 0)
(-0.00132153 -0.00119874 0)
(-0.000963679 -0.000970762 0)
(-0.000664984 -0.00074478 0)
(-0.000425014 -0.000527884 0)
(-0.000242049 -0.000329312 0)
(-0.000112878 -0.000160925 0)
(-3.40908e-05 -3.79049e-05 0)
(-3.4601e-06 1.88795e-05 0)
(-6.23178e-06 4.05676e-06 0)
(-5.04175e-05 0.000110209 0)
(-0.000156944 0.00028907 0)
(-0.000324198 0.000518462 0)
(-0.000553487 0.000780077 0)
(-0.000846957 0.00106 0)
(-0.00120535 0.00134782 0)
(-0.00162827 0.00163565 0)
(-0.00211442 0.00191746 0)
(-0.00266173 0.0021887 0)
(-0.00326743 0.00244593 0)
(-0.00392823 0.00268659 0)
(-0.00464036 0.00290885 0)
(-0.00539975 0.00311143 0)
(-0.00620206 0.00329351 0)
(-0.00704275 0.00345462 0)
(-0.00791719 0.00359459 0)
(-0.00882067 0.00371349 0)
(-0.0097485 0.00381154 0)
(-0.010696 0.00388916 0)
(-0.0116585 0.00394684 0)
(-0.0126316 0.00398517 0)
(-0.0136108 0.00400482 0)
(-0.0145918 0.0040065 0)
(-0.0155706 0.00399095 0)
(-0.016543 0.00395895 0)
(-0.0175054 0.00391128 0)
(-0.0184541 0.00384873 0)
(-0.0193856 0.00377209 0)
(-0.0202967 0.00368215 0)
(-0.0211841 0.00357968 0)
(-0.0220451 0.00346545 0)
(-0.0228767 0.00334018 0)
(-0.0236765 0.00320461 0)
(-0.024442 0.00305943 0)
(-0.0251708 0.00290533 0)
(-0.0258611 0.00274297 0)
(-0.0265107 0.00257298 0)
(-0.0271178 0.00239597 0)
(-0.0276809 0.00221256 0)
(-0.0281985 0.00202331 0)
(-0.0286691 0.00182878 0)
(-0.0290915 0.00162951 0)
(-0.0294646 0.00142605 0)
(-0.0297876 0.00121891 0)
(-0.0300594 0.00100859 0)
(-0.0302795 0.000795605 0)
(-0.0304472 0.000580444 0)
(-0.030562 0.000363604 0)
(-0.0306236 0.000145578 0)
(-0.0306319 -7.31366e-05 0)
(-0.0305866 -0.000292039 0)
(-0.0304879 -0.00051062 0)
(-0.0303358 -0.000728358 0)
(-0.0301307 -0.000944726 0)
(-0.0298729 -0.00115918 0)
(-0.0295631 -0.00137117 0)
(-0.029202 -0.00158011 0)
(-0.0287903 -0.0017854 0)
(-0.028329 -0.00198644 0)
(-0.0278193 -0.0021826 0)
(-0.0272624 -0.0023732 0)
(-0.0266599 -0.00255759 0)
(-0.0260133 -0.00273504 0)
(-0.0253244 -0.00290485 0)
(-0.0245952 -0.00306627 0)
(-0.0238277 -0.00321854 0)
(-0.0230245 -0.00336086 0)
(-0.0221878 -0.00349244 0)
(-0.0213206 -0.00361246 0)
(-0.0204255 -0.0037201 0)
(-0.0195058 -0.00381451 0)
(-0.0185647 -0.00389486 0)
(-0.0176057 -0.00396031 0)
(-0.0166323 -0.00401002 0)
(-0.0156485 -0.00404316 0)
(-0.0146583 -0.00405893 0)
(-0.0136657 -0.00405657 0)
(-0.0126753 -0.00403535 0)
(-0.0116914 -0.00399458 0)
(-0.0107185 -0.00393365 0)
(-0.00976155 -0.00385203 0)
(-0.00882513 -0.00374932 0)
(-0.0079141 -0.00362521 0)
(-0.00703328 -0.00347959 0)
(-0.00618744 -0.00331251 0)
(-0.00538126 -0.00312429 0)
(-0.00461927 -0.00291555 0)
(-0.00390579 -0.00268729 0)
(-0.00324485 -0.00244099 0)
(-0.00264007 -0.00217869 0)
(-0.0020946 -0.00190319 0)
(-0.00161097 -0.00161821 0)
(-0.00119103 -0.00132862 0)
(-0.000835827 -0.00104074 0)
(-0.0005455 -0.000762691 0)
(-0.000319055 -0.000504846 0)
(-0.000154209 -0.000280243 0)
(-4.94376e-05 -0.000105218 0)
(-6.02162e-06 -1.63864e-06 0)
(-8.6555e-06 3.2903e-05 0)
(-6.5559e-05 0.000199528 0)
(-0.000198243 0.000441602 0)
(-0.00040155 0.000736487 0)
(-0.000674771 0.00106515 0)
(-0.00101899 0.00141285 0)
(-0.00143412 0.00176823 0)
(-0.0019191 0.0021225 0)
(-0.00247209 0.00246886 0)
(-0.00309059 0.00280204 0)
(-0.00377148 0.00311802 0)
(-0.00451112 0.00341375 0)
(-0.00530544 0.00368701 0)
(-0.00615005 0.00393621 0)
(-0.00704029 0.00416032 0)
(-0.00797134 0.00435871 0)
(-0.00893822 0.00453113 0)
(-0.00993592 0.00467761 0)
(-0.0109594 0.00479837 0)
(-0.0120036 0.00489387 0)
(-0.0130636 0.00496469 0)
(-0.0141346 0.00501151 0)
(-0.0152118 0.00503512 0)
(-0.0162905 0.00503639 0)
(-0.0173663 0.0050162 0)
(-0.018435 0.0049755 0)
(-0.0194923 0.00491523 0)
(-0.0205344 0.00483638 0)
(-0.0215574 0.0047399 0)
(-0.0225578 0.00462677 0)
(-0.0235322 0.00449795 0)
(-0.0244774 0.00435438 0)
(-0.0253904 0.00419696 0)
(-0.0262683 0.00402661 0)
(-0.0271085 0.0038442 0)
(-0.0279085 0.00365057 0)
(-0.028666 0.00344655 0)
(-0.029379 0.00323294 0)
(-0.0300453 0.00301051 0)
(-0.0306633 0.00278001 0)
(-0.0312312 0.00254217 0)
(-0.0317476 0.00229769 0)
(-0.0322111 0.00204726 0)
(-0.0326206 0.00179154 0)
(-0.0329749 0.00153119 0)
(-0.0332731 0.00126685 0)
(-0.0335145 0.000999152 0)
(-0.0336984 0.00072873 0)
(-0.0338243 0.000456204 0)
(-0.0338918 0.000182195 0)
(-0.0339007 -9.26684e-05 0)
(-0.0338508 -0.000367752 0)
(-0.0337423 -0.000642413 0)
(-0.0335753 -0.000916003 0)
(-0.0333501 -0.00118785 0)
(-0.0330671 -0.00145728 0)
(-0.032727 -0.00172358 0)
(-0.0323305 -0.00198603 0)
(-0.0318786 -0.00224389 0)
(-0.0313723 -0.00249638 0)
(-0.0308128 -0.0027427 0)
(-0.0302017 -0.00298205 0)
(-0.0295404 -0.00321356 0)
(-0.0288308 -0.00343636 0)
(-0.0280747 -0.00364954 0)
(-0.0272744 -0.00385219 0)
(-0.0264322 -0.00404333 0)
(-0.0255506 -0.00422201 0)
(-0.0246323 -0.00438721 0)
(-0.0236804 -0.00453793 0)
(-0.0226979 -0.00467313 0)
(-0.0216882 -0.00479179 0)
(-0.0206549 -0.00489287 0)
(-0.0196017 -0.00497531 0)
(-0.0185327 -0.00503811 0)
(-0.0174519 -0.00508025 0)
(-0.0163636 -0.00510076 0)
(-0.0152725 -0.0050987 0)
(-0.0141832 -0.00507319 0)
(-0.0131005 -0.00502341 0)
(-0.0120294 -0.00494865 0)
(-0.0109749 -0.00484829 0)
(-0.00994209 -0.00472186 0)
(-0.00893617 -0.00456905 0)
(-0.00796228 -0.00438974 0)
(-0.00702554 -0.00418409 0)
(-0.00613095 -0.00395251 0)
(-0.00528335 -0.00369584 0)
(-0.00448738 -0.00341533 0)
(-0.00374735 -0.0031128 0)
(-0.00306722 -0.00279073 0)
(-0.00245046 -0.00245246 0)
(-0.00189997 -0.00210231 0)
(-0.00141804 -0.0017459 0)
(-0.00100626 -0.00139035 0)
(-0.000665428 -0.00104465 0)
(-0.000395403 -0.000720057 0)
(-0.000194921 -0.00043049 0)
(-6.43758e-05 -0.000193017 0)
(-8.45296e-06 -2.99635e-05 0)
(-1.09357e-05 6.93427e-05 0)
(-8.01055e-05 0.000309159 0)
(-0.000238332 0.000625062 0)
(-0.000477131 0.000994279 0)
(-0.000793837 0.00139749 0)
(-0.00118843 0.00181938 0)
(-0.00165991 0.00224791 0)
(-0.00220646 0.0026736 0)
(-0.00282564 0.00308896 0)
(-0.00351447 0.0034881 0)
(-0.00426938 0.00386646 0)
(-0.00508637 0.00422056 0)
(-0.00596105 0.0045478 0)
(-0.0068887 0.00484631 0)
(-0.00786435 0.00511482 0)
(-0.00888286 0.00535256 0)
(-0.00993897 0.00555918 0)
(-0.0110274 0.00573466 0)
(-0.0121427 0.00587926 0)
(-0.0132796 0.00599344 0)
(-0.0144328 0.00607786 0)
(-0.0155972 0.00613332 0)
(-0.0167677 0.00616073 0)
(-0.0179394 0.00616109 0)
(-0.0191074 0.00613545 0)
(-0.0202673 0.00608494 0)
(-0.0214146 0.00601067 0)
(-0.0225451 0.00591381 0)
(-0.0236547 0.00579553 0)
(-0.0247396 0.00565697 0)
(-0.0257961 0.00549928 0)
(-0.0268209 0.00532362 0)
(-0.0278106 0.00513107 0)
(-0.0287622 0.00492274 0)
(-0.0296729 0.00469967 0)
(-0.03054 0.00446291 0)
(-0.0313609 0.00421345 0)
(-0.0321335 0.00395226 0)
(-0.0328556 0.0036803 0)
(-0.0335252 0.00339846 0)
(-0.0341406 0.00310764 0)
(-0.0347001 0.0028087 0)
(-0.0352023 0.00250247 0)
(-0.0356459 0.00218978 0)
(-0.0360297 0.00187143 0)
(-0.0363527 0.00154821 0)
(-0.0366142 0.00122088 0)
(-0.0368134 0.000890224 0)
(-0.0369497 0.000557 0)
(-0.0370227 0.000221976 0)
(-0.0370322 -0.000114079 0)
(-0.0369782 -0.00045039 0)
(-0.0368605 -0.000786173 0)
(-0.0366794 -0.00112063 0)
(-0.0364353 -0.00145294 0)
(-0.0361286 -0.00178226 0)
(-0.03576 -0.00210775 0)
(-0.0353304 -0.00242851 0)
(-0.0348407 -0.00274364 0)
(-0.034292 -0.00305219 0)
(-0.0336858 -0.0033532 0)
(-0.0330236 -0.00364565 0)
(-0.032307 -0.00392853 0)
(-0.031538 -0.00420075 0)
(-0.0307187 -0.00446122 0)
(-0.0298514 -0.00470882 0)
(-0.0289386 -0.00494238 0)
(-0.0279832 -0.00516072 0)
(-0.0269879 -0.00536264 0)
(-0.025956 -0.0055469 0)
(-0.0248909 -0.00571228 0)
(-0.0237961 -0.00585751 0)
(-0.0226756 -0.00598136 0)
(-0.0215333 -0.00608257 0)
(-0.0203734 -0.00615991 0)
(-0.0192005 -0.0062122 0)
(-0.0180192 -0.00623827 0)
(-0.0168343 -0.006237 0)
(-0.0156507 -0.00620737 0)
(-0.0144738 -0.00614842 0)
(-0.0133086 -0.00605932 0)
(-0.0121605 -0.00593938 0)
(-0.0110351 -0.00578807 0)
(-0.00993782 -0.00560505 0)
(-0.00887405 -0.00539024 0)
(-0.00784926 -0.00514387 0)
(-0.00686876 -0.00486649 0)
(-0.00593771 -0.00455913 0)
(-0.00506104 -0.00422331 0)
(-0.0042434 -0.00386116 0)
(-0.00348909 -0.00347561 0)
(-0.00280193 -0.00307045 0)
(-0.00218526 -0.00265061 0)
(-0.00164188 -0.00222232 0)
(-0.00117396 -0.00179339 0)
(-0.000783067 -0.00137351 0)
(-0.000469958 -0.000974634 0)
(-0.000234418 -0.000611247 0)
(-7.87084e-05 -0.000300829 0)
(-1.07284e-05 -6.57787e-05 0)
(-1.30864e-05 0.000113026 0)
(-9.39716e-05 0.000438427 0)
(-0.000276886 0.000838668 0)
(-0.000550268 0.00129111 0)
(-0.000909589 0.00177641 0)
(-0.00135375 0.00227896 0)
(-0.00188079 0.00278624 0)
(-0.0024881 0.00328822 0)
(-0.00317259 0.00377687 0)
(-0.0039307 0.00424578 0)
(-0.00475842 0.00468994 0)
(-0.00565134 0.00510543 0)
(-0.0066047 0.00548934 0)
(-0.00761344 0.00583952 0)
(-0.00867229 0.0061545 0)
(-0.00977579 0.00643335 0)
(-0.0109184 0.00667564 0)
(-0.0120945 0.0068813 0)
(-0.0132984 0.00705059 0)
(-0.0145245 0.00718402 0)
(-0.0157673 0.00728233 0)
(-0.0170213 0.00734641 0)
(-0.0182812 0.0073773 0)
(-0.0195417 0.00737616 0)
(-0.0207979 0.0073442 0)
(-0.0220448 0.0072827 0)
(-0.0232778 0.00719301 0)
(-0.0244924 0.00707645 0)
(-0.0256843 0.0069344 0)
(-0.0268495 0.00676822 0)
(-0.027984 0.00657925 0)
(-0.0290842 0.00636884 0)
(-0.0301467 0.0061383 0)
(-0.0311682 0.00588892 0)
(-0.0321456 0.00562195 0)
(-0.0330761 0.00533862 0)
(-0.0339571 0.00504012 0)
(-0.0347862 0.00472761 0)
(-0.0355609 0.00440221 0)
(-0.0362794 0.00406501 0)
(-0.0369396 0.00371706 0)
(-0.0375399 0.0033594 0)
(-0.0380786 0.00299303 0)
(-0.0385545 0.00261893 0)
(-0.0389662 0.00223806 0)
(-0.0393127 0.00185136 0)
(-0.0395932 0.00145977 0)
(-0.0398068 0.00106419 0)
(-0.039953 0.000665557 0)
(-0.0400313 0.00026478 0)
(-0.0400415 -0.000137221 0)
(-0.0399834 -0.000539514 0)
(-0.0398572 -0.00094116 0)
(-0.0396629 -0.0013412 0)
(-0.039401 -0.00173866 0)
(-0.039072 -0.00213254 0)
(-0.0386766 -0.00252181 0)
(-0.0382157 -0.00290541 0)