/*--------------------------------*- C++ -*----------------------------------*\
| =========                 |                                                 |
| \\      /  F ield         | OpenFOAM: The Open Source CFD Toolbox           |
|  \\    /   O peration     | Version:  2212                                  |
|   \\  /    A nd           | Website:  www.openfoam.com                      |
|    \\/     M anipulation  |                                                 |
\*---------------------------------------------------------------------------*/
FoamFile
{
    version     2.0;
    format      ascii;
    arch        "LSB;label=32;scalar=64";
    class       volVectorField;
    location    "0.001";
    object      U;
}
// * * * * * * * * * * * * * * * * * * * * * * * * * * * * * * * * * * * * * //

dimensions      [0 1 -1 0 0 0 0];

internalField   nonuniform List<vector> 
10000
(
(-9.42154e-07 5.0155e-06 0)
(-2.63925e-05 1.085e-05 0)
(-7.12181e-05 9.73989e-06 0)
(-0.000126049 1.28859e-05 0)
(-0.000186114 1.54613e-05 0)
(-0.000250298 1.61158e-05 0)
(-0.000315666 1.55568e-05 0)
(-0.000380225 1.45596e-05 0)
(-0.000443114 1.36695e-05 0)
(-0.000504105 1.28836e-05 0)
(-0.000563634 1.23617e-05 0)
(-0.000622339 1.2268e-05 0)
(-0.000680735 1.24878e-05 0)
(-0.00073889 1.2619e-05 0)
(-0.00079613 1.215e-05 0)
(-0.000851346 1.07727e-05 0)
(-0.000903147 8.44648e-06 0)
(-0.000950105 5.41305e-06 0)
(-0.000991263 1.99543e-06 0)
(-0.0010265 -1.24959e-06 0)
(-0.00105655 -3.64409e-06 0)
(-0.00108312 -4.65263e-06 0)
(-0.00110838 -4.09516e-06 0)
(-0.00113431 -2.2075e-06 0)
(-0.00116247 4.42192e-07 0)
(-0.00119346 3.11216e-06 0)
(-0.00122685 5.13417e-06 0)
(-0.00126139 6.07715e-06 0)
(-0.0012954 5.80954e-06 0)
(-0.00132722 4.45615e-06 0)
(-0.0013556 2.4198e-06 0)
(-0.00138006 1.9497e-07 0)
(-0.00140079 -1.79629e-06 0)
(-0.00141849 -3.26034e-06 0)
(-0.00143402 -4.15523e-06 0)
(-0.00144813 -4.52667e-06 0)
(-0.00146152 -4.42964e-06 0)
(-0.00147474 -3.84009e-06 0)
(-0.00148857 -2.54002e-06 0)
(-0.00150408 -3.83808e-07 0)
(-0.00152249 2.64206e-06 0)
(-0.00154505 6.33861e-06 0)
(-0.00157236 1.01189e-05 0)
(-0.00160414 1.33536e-05 0)
(-0.00163926 1.55619e-05 0)
(-0.00167571 1.64549e-05 0)
(-0.00171141 1.62469e-05 0)
(-0.00174472 1.53979e-05 0)
(-0.00177438 1.42278e-05 0)
(-0.00179989 1.30231e-05 0)
(-0.00182114 1.17818e-05 0)
(-0.00183758 1.00403e-05 0)
(-0.00184853 7.58593e-06 0)
(-0.00185354 4.79311e-06 0)
(-0.00185259 2.13858e-06 0)
(-0.00184616 -9.66291e-08 0)
(-0.00183524 -1.6164e-06 0)
(-0.00182145 -2.10014e-06 0)
(-0.00180645 -1.86243e-06 0)
(-0.00179046 -2.06456e-06 0)
(-0.00177227 -3.2289e-06 0)
(-0.00175168 -4.24837e-06 0)
(-0.00172945 -4.40904e-06 0)
(-0.00170468 -4.99422e-06 0)
(-0.00167573 -6.82415e-06 0)
(-0.00164353 -8.39589e-06 0)
(-0.00160974 -8.93701e-06 0)
(-0.00157273 -1.03668e-05 0)
(-0.00153006 -1.33982e-05 0)
(-0.00148349 -1.52077e-05 0)
(-0.00143652 -1.41693e-05 0)
(-0.00138872 -1.31592e-05 0)
(-0.00133758 -1.4654e-05 0)
(-0.00128411 -1.61758e-05 0)
(-0.00123187 -1.44631e-05 0)
(-0.00118158 -1.10279e-05 0)
(-0.00113129 -9.50798e-06 0)
(-0.00108108 -9.80627e-06 0)
(-0.00103351 -8.90652e-06 0)
(-0.000989278 -6.17877e-06 0)
(-0.00094601 -4.15216e-06 0)
(-0.000901769 -4.3875e-06 0)
(-0.000857041 -5.62904e-06 0)
(-0.000812264 -6.31227e-06 0)
(-0.000765696 -6.63792e-06 0)
(-0.00071514 -7.62829e-06 0)
(-0.000660308 -9.59727e-06 0)
(-0.000602071 -1.19934e-05 0)
(-0.000540528 -1.39627e-05 0)
(-0.000475394 -1.5079e-05 0)
(-0.000407465 -1.58236e-05 0)
(-0.000337948 -1.66473e-05 0)
(-0.000267322 -1.6863e-05 0)
(-0.000196936 -1.63011e-05 0)
(-0.000129708 -1.6152e-05 0)
(-6.68419e-05 -1.42561e-05 0)
(-1.10226e-05 -7.59521e-06 0)
(2.8028e-05 3.32328e-07 0)
(3.62179e-05 1.45643e-05 0)
(2.05921e-05 1.77841e-05 0)
(-1.0473e-05 2.66116e-05 0)
(-7.81797e-05 7.89593e-05 0)
(-0.000201214 9.77844e-05 0)
(-0.000349637 0.000113853 0)
(-0.00051363 0.000125082 0)
(-0.000687409 0.000130184 0)
(-0.000866335 0.00013067 0)
(-0.00104688 0.000128702 0)
(-0.00122687 0.000126 0)
(-0.00140543 0.000123437 0)
(-0.00158229 0.000121383 0)
(-0.00175779 0.000120029 0)
(-0.00193201 0.000119032 0)
(-0.0021044 0.00011771 0)
(-0.00227408 0.000114972 0)
(-0.00243976 0.000110017 0)
(-0.0025999 0.000102673 0)
(-0.00275314 9.33795e-05 0)
(-0.00289847 8.32369e-05 0)
(-0.00303542 7.36314e-05 0)
(-0.00316462 6.60773e-05 0)
(-0.00328739 6.159e-05 0)
(-0.00340561 6.06051e-05 0)
(-0.00352139 6.26051e-05 0)
(-0.00363636 6.63652e-05 0)
(-0.00375133 7.02683e-05 0)
(-0.00386618 7.28179e-05 0)
(-0.00397987 7.29326e-05 0)
(-0.00409079 7.02621e-05 0)
(-0.00419729 6.5193e-05 0)
(-0.00429799 5.85772e-05 0)
(-0.00439222 5.15558e-05 0)
(-0.00447993 4.50628e-05 0)
(-0.00456149 3.97002e-05 0)
(-0.00463745 3.56635e-05 0)
(-0.00470832 3.27806e-05 0)
(-0.00477461 3.10185e-05 0)
(-0.00483688 3.04966e-05 0)
(-0.00489583 3.15685e-05 0)
(-0.00495262 3.47014e-05 0)
(-0.00500859 3.98519e-05 0)
(-0.00506492 4.64495e-05 0)
(-0.00512242 5.33451e-05 0)
(-0.0051809 5.89044e-05 0)
(-0.00523911 6.18499e-05 0)
(-0.00529518 6.1615e-05 0)
(-0.00534681 5.8333e-05 0)
(-0.00539192 5.28832e-05 0)
(-0.00542938 4.62482e-05 0)
(-0.00545869 3.89374e-05 0)
(-0.00547978 3.10665e-05 0)
(-0.00549279 2.23611e-05 0)
(-0.00549738 1.25203e-05 0)
(-0.00549298 2.04242e-06 0)
(-0.00547946 -7.85593e-06 0)
(-0.00545678 -1.62702e-05 0)
(-0.00542536 -2.2875e-05 0)
(-0.00538705 -2.75333e-05 0)
(-0.00534353 -3.07823e-05 0)
(-0.0052942 -3.42035e-05 0)
(-0.00523821 -3.88522e-05 0)
(-0.00517611 -4.39625e-05 0)
(-0.00510712 -4.86591e-05 0)
(-0.00502915 -5.37165e-05 0)
(-0.00494333 -5.99436e-05 0)
(-0.00485297 -6.65025e-05 0)
(-0.00475723 -7.26422e-05 0)
(-0.00465266 -7.90922e-05 0)
(-0.00454016 -8.59139e-05 0)
(-0.00442315 -9.13003e-05 0)
(-0.00430103 -9.4422e-05 0)
(-0.00417184 -9.70206e-05 0)
(-0.00403859 -0.000100241 0)
(-0.00390506 -0.000102334 0)
(-0.00376905 -0.000101573 0)
(-0.00362726 -9.92053e-05 0)
(-0.00348322 -9.73472e-05 0)
(-0.00334265 -9.58451e-05 0)
(-0.00320391 -9.34457e-05 0)
(-0.00306083 -9.06886e-05 0)
(-0.00291311 -8.94354e-05 0)
(-0.00276598 -9.03018e-05 0)
(-0.00262007 -9.24102e-05 0)
(-0.0024692 -9.53157e-05 0)
(-0.00230953 -9.96118e-05 0)
(-0.00214466 -0.000105595 0)
(-0.0019786 -0.000112356 0)
(-0.00180866 -0.000118512 0)
(-0.00163001 -0.000123607 0)
(-0.00144426 -0.00012847 0)
(-0.00125746 -0.000133426 0)
(-0.00107113 -0.000136425 0)
(-0.000882261 -0.000135595 0)
(-0.000692059 -0.000132792 0)
(-0.000505993 -0.000128152 0)
(-0.000331051 -0.000116028 0)
(-0.000177825 -9.58527e-05 0)
(-5.0547e-05 -5.19204e-05 0)
(1.96545e-05 3.98709e-06 0)
(1.96332e-05 3.99321e-05 0)
(-1.57819e-05 8.07702e-05 0)
(-0.000109836 0.000203484 0)
(-0.000282362 0.000267719 0)
(-0.00049788 0.000311233 0)
(-0.000736368 0.000339154 0)
(-0.000988982 0.000353953 0)
(-0.00125004 0.000359204 0)
(-0.00151546 0.000358968 0)
(-0.00178264 0.000355858 0)
(-0.00204974 0.00035198 0)
(-0.00231551 0.000348103 0)
(-0.00257906 0.000344453 0)
(-0.0028397 0.000340825 0)
(-0.00309674 0.000336195 0)
(-0.00334946 0.000329519 0)
(-0.00359732 0.000319844 0)
(-0.00384013 0.00030693 0)
(-0.00407769 0.000291384 0)
(-0.00430977 0.000274614 0)
(-0.00453617 0.000258461 0)
(-0.00475662 0.000244704 0)
(-0.00497103 0.000234769 0)
(-0.0051794 0.000229011 0)
(-0.00538187 0.000226872 0)
(-0.00557855 0.00022692 0)
(-0.00576951 0.000227156 0)
(-0.00595468 0.000225677 0)
(-0.00613393 0.000221168 0)
(-0.00630703 0.000213129 0)
(-0.00647376 0.000202001 0)
(-0.00663385 0.000188887 0)
(-0.00678703 0.000175122 0)
(-0.0069331 0.00016192 0)
(-0.00707184 0.000149983 0)
(-0.0072031 0.000139586 0)
(-0.00732686 0.000130658 0)
(-0.00744316 0.000123109 0)
(-0.00755221 0.000117224 0)
(-0.00765421 0.000113424 0)
(-0.00774932 0.000112143 0)
(-0.00783778 0.000113482 0)
(-0.00791954 0.000116601 0)
(-0.00799452 0.000119992 0)
(-0.00806273 0.000121841 0)
(-0.00812375 0.000120313 0)
(-0.0081772 0.000114536 0)
(-0.00822284 0.000104786 0)
(-0.00825991 9.18318e-05 0)
(-0.00828789 7.67508e-05 0)
(-0.00830671 6.0497e-05 0)
(-0.00831615 4.32288e-05 0)
(-0.00831611 2.46537e-05 0)
(-0.00830663 4.77888e-06 0)
(-0.00828746 -1.56921e-05 0)
(-0.00825868 -3.53889e-05 0)
(-0.00822023 -5.31351e-05 0)
(-0.00817136 -6.85373e-05 0)
(-0.00811248 -8.14598e-05 0)
(-0.00804535 -9.2457e-05 0)
(-0.00796929 -0.000103637 0)
(-0.0078822 -0.000116523 0)
(-0.00778549 -0.000129888 0)
(-0.00768131 -0.000142543 0)
(-0.00756728 -0.000155983 0)
(-0.00744161 -0.000171135 0)
(-0.00730867 -0.000186005 0)
(-0.0071712 -0.000199601 0)
(-0.0070242 -0.000213837 0)
(-0.00686454 -0.000228803 0)
(-0.00669769 -0.000241124 0)
(-0.00652782 -0.000249651 0)
(-0.0063506 -0.000257695 0)
(-0.00616266 -0.000266979 0)
(-0.00596875 -0.000274313 0)
(-0.00577295 -0.000277096 0)
(-0.00557151 -0.000277779 0)
(-0.00536079 -0.000279794 0)
(-0.00514463 -0.000282507 0)
(-0.00492761 -0.00028343 0)
(-0.00470696 -0.000283115 0)
(-0.00447769 -0.000284708 0)
(-0.00424109 -0.000289728 0)
(-0.00400213 -0.000296835 0)
(-0.00376117 -0.000304509 0)
(-0.00351416 -0.000313048 0)
(-0.00325975 -0.000323495 0)
(-0.00300083 -0.000335581 0)
(-0.00273921 -0.00034755 0)
(-0.00247385 -0.00035804 0)
(-0.0022043 -0.00036713 0)
(-0.00193171 -0.000374452 0)
(-0.00165678 -0.000378144 0)
(-0.00138081 -0.000377715 0)
(-0.00110631 -0.000373129 0)
(-0.00083661 -0.000358968 0)
(-0.000582319 -0.000331843 0)
(-0.000342919 -0.00027897 0)
(-0.000146807 -0.000189945 0)
(-2.44579e-05 -5.15509e-05 0)
(1.22371e-05 4.49815e-05 0)
(-1.58346e-05 0.000140823 0)
(-0.000122857 0.000357744 0)
(-0.000326274 0.000485143 0)
(-0.000584074 0.000565569 0)
(-0.000869504 0.000615141 0)
(-0.00117164 0.000642921 0)
(-0.0014838 0.000656032 0)
(-0.0018014 0.000659761 0)
(-0.00212153 0.000658316 0)
(-0.00244211 0.000654113 0)
(-0.0027617 0.000648637 0)
(-0.00307872 0.000642302 0)
(-0.0033922 0.000634891 0)
(-0.00370133 0.000625877 0)
(-0.00400566 0.000614459 0)
(-0.00430521 0.000599961 0)
(-0.00460003 0.000582194 0)
(-0.0048904 0.000561841 0)
(-0.00517638 0.000540102 0)
(-0.00545774 0.000518727 0)
(-0.00573394 0.000499279 0)
(-0.00600416 0.000482905 0)
(-0.00626756 0.000470006 0)
(-0.00652329 0.000460083 0)
(-0.00677074 0.000451939 0)
(-0.00700956 0.000443974 0)
(-0.00723958 0.000434567 0)
(-0.00746096 0.00042254 0)
(-0.00767405 0.000407397 0)
(-0.00787919 0.000389415 0)
(-0.00807665 0.00036946 0)
(-0.00826644 0.000348611 0)
(-0.00844841 0.00032792 0)
(-0.00862214 0.000308086 0)
(-0.00878719 0.000289445 0)
(-0.00894329 0.000272147 0)
(-0.00909018 0.0002562 0)
(-0.00922772 0.000241837 0)
(-0.00935573 0.000229444 0)
(-0.00947375 0.000219182 0)
(-0.00958144 0.000210979 0)
(-0.00967831 0.000204169 0)
(-0.00976387 0.000197333 0)
(-0.00983823 0.000188936 0)
(-0.00990158 0.000177585 0)
(-0.00995411 0.000162286 0)
(-0.00999637 0.000143087 0)
(-0.0100287 0.000120728 0)
(-0.0100508 9.58529e-05 0)
(-0.0100627 6.91192e-05 0)
(-0.0100646 4.11816e-05 0)
(-0.0100563 1.21703e-05 0)
(-0.0100376 -1.79878e-05 0)
(-0.0100084 -4.85597e-05 0)
(-0.00996906 -7.80845e-05 0)
(-0.00991957 -0.000105691 0)
(-0.00985874 -0.000131496 0)
(-0.00978621 -0.000155505 0)
(-0.00970363 -0.000177672 0)
(-0.00961093 -0.000199301 0)
(-0.00950561 -0.000222125 0)
(-0.00938821 -0.000245785 0)
(-0.0092619 -0.000268797 0)
(-0.00912616 -0.000291617 0)
(-0.00897832 -0.000315745 0)
(-0.0088203 -0.000340552 0)
(-0.00865557 -0.000364084 0)
(-0.00848203 -0.000386177 0)
(-0.0082962 -0.000407914 0)
(-0.0081004 -0.000428872 0)
(-0.00789878 -0.000447533 0)
(-0.00769029 -0.000463815 0)
(-0.00747177 -0.000478929 0)
(-0.00724373 -0.000493055 0)
(-0.00700848 -0.000505046 0)
(-0.00676614 -0.000514474 0)
(-0.00651604 -0.000522532 0)
(-0.00625856 -0.000530557 0)
(-0.00599332 -0.000538708 0)
(-0.00571918 -0.000546616 0)
(-0.00543748 -0.000554748 0)
(-0.00515139 -0.000564343 0)
(-0.00486081 -0.000576107 0)
(-0.00456228 -0.000589671 0)
(-0.00425555 -0.000604447 0)
(-0.00394563 -0.000620159 0)
(-0.0036356 -0.000636136 0)
(-0.00332194 -0.000651235 0)
(-0.00300068 -0.000665134 0)
(-0.00267404 -0.000677934 0)
(-0.00234693 -0.000687826 0)
(-0.00202146 -0.000692379 0)
(-0.00169632 -0.00069118 0)
(-0.00136877 -0.000680833 0)
(-0.00104591 -0.000656251 0)
(-0.000736556 -0.000614304 0)
(-0.000456768 -0.000525594 0)
(-0.000213107 -0.00038228 0)
(-4.7339e-05 -0.000150071 0)
(5.82078e-06 3.22568e-05 0)
(-1.50812e-05 0.00020555 0)
(-0.000128445 0.000527324 0)
(-0.000349659 0.000728621 0)
(-0.000633135 0.000852354 0)
(-0.000947458 0.000926471 0)
(-0.00127979 0.000968561 0)
(-0.00162305 0.000990222 0)
(-0.00197197 0.000998843 0)
(-0.00232349 0.00099949 0)
(-0.00267566 0.000995306 0)
(-0.00302671 0.000988187 0)
(-0.0033754 0.000978933 0)
(-0.00372047 0.000967572 0)
(-0.00406113 0.000953899 0)
(-0.00439707 0.000937406 0)
(-0.00472826 0.000917851 0)
(-0.00505487 0.0008953 0)
(-0.00537708 0.000870241 0)
(-0.00569484 0.000843817 0)
(-0.00600786 0.000817287 0)
(-0.00631553 0.000792034 0)
(-0.00661691 0.000768871 0)
(-0.00691099 0.000748129 0)
(-0.00719676 0.000729456 0)
(-0.00747337 0.000711915 0)
(-0.00774027 0.000694362 0)
(-0.00799723 0.000675593 0)
(-0.00824439 0.000654708 0)
(-0.00848206 0.000631304 0)
(-0.00871069 0.000605497 0)
(-0.00893068 0.000577869 0)
(-0.00914213 0.000549169 0)
(-0.00934495 0.000520195 0)
(-0.0095388 0.000491578 0)
(-0.00972315 0.000463607 0)
(-0.00989764 0.000436525 0)
(-0.0100618 0.000410522 0)
(-0.0102152 0.000385728 0)
(-0.0103575 0.000362456 0)
(-0.010488 0.000340827 0)
(-0.0106062 0.000320551 0)
(-0.0107117 0.000301098 0)
(-0.0108039 0.000281432 0)
(-0.010883 0.000260203 0)
(-0.0109492 0.000236416 0)
(-0.0110032 0.000209433 0)
(-0.0110452 0.000179012 0)
(-0.011076 0.000145635 0)
(-0.0110959 0.000109992 0)
(-0.0111047 7.24209e-05 0)
(-0.0111025 3.3372e-05 0)
(-0.0110897 -6.51312e-06 0)
(-0.0110662 -4.70556e-05 0)
(-0.011031 -8.79969e-05 0)
(-0.0109845 -0.000128093 0)
(-0.0109277 -0.000166349 0)
(-0.0108594 -0.000203224 0)
(-0.0107782 -0.000239095 0)
(-0.010686 -0.000273476 0)
(-0.0105836 -0.00030696 0)
(-0.010468 -0.000341084 0)
(-0.0103386 -0.000375674 0)
(-0.0101993 -0.00040946 0)
(-0.0100507 -0.000442906 0)
(-0.00988977 -0.000477189 0)
(-0.0097172 -0.00051153 0)
(-0.00953662 -0.000544506 0)
(-0.00934664 -0.00057633 0)
(-0.00914394 -0.000607479 0)
(-0.00893101 -0.000637126 0)
(-0.00871177 -0.000664758 0)
(-0.00848405 -0.000691125 0)
(-0.00824435 -0.000716205 0)
(-0.00799475 -0.00073861 0)
(-0.00773843 -0.000758131 0)
(-0.0074734 -0.000776548 0)
(-0.00719695 -0.000794792 0)
(-0.00691132 -0.000811559 0)
(-0.0066194 -0.000826081 0)
(-0.0063193 -0.000840291 0)
(-0.0060083 -0.000856563 0)
(-0.00568871 -0.000874605 0)
(-0.00536491 -0.000892496 0)
(-0.00503708 -0.000910089 0)
(-0.00470239 -0.000929252 0)
(-0.00436038 -0.000950436 0)
(-0.00401372 -0.000971162 0)
(-0.00366493 -0.000989389 0)
(-0.00331427 -0.00100607 0)
(-0.00295994 -0.00102164 0)
(-0.0026011 -0.00103321 0)
(-0.00224078 -0.00103862 0)
(-0.00188099 -0.00103657 0)
(-0.00152273 -0.00102129 0)
(-0.00117582 -0.000991331 0)
(-0.000837531 -0.000923909 0)
(-0.000520636 -0.000810619 0)
(-0.000252399 -0.000598631 0)
(-6.62665e-05 -0.000278223 0)
(4.11498e-06 9.73957e-06 0)
(-1.46579e-05 0.000270668 0)
(-0.00013083 0.000704566 0)
(-0.000362328 0.000987511 0)
(-0.000660997 0.00115923 0)
(-0.000993288 0.00126033 0)
(-0.00134451 0.00131778 0)
(-0.00170689 0.00134813 0)
(-0.00207524 0.00136156 0)
(-0.00244617 0.00136415 0)
(-0.00281755 0.0013598 0)
(-0.00318794 0.00135077 0)
(-0.00355597 0.00133827 0)
(-0.00392057 0.00132284 0)
(-0.00428091 0.00130442 0)
(-0.00463659 0.00128298 0)
(-0.00498753 0.00125843 0)
(-0.0053338 0.00123104 0)
(-0.0056754 0.00120134 0)
(-0.00601216 0.00117018 0)
(-0.00634367 0.00113851 0)
(-0.00666934 0.00110731 0)
(-0.00698841 0.00107723 0)
(-0.00729987 0.00104847 0)
(-0.00760281 0.0010208 0)
(-0.00789637 0.000993591 0)
(-0.00817994 0.000966032 0)
(-0.00845321 0.000937288 0)
(-0.00871616 0.000906726 0)
(-0.00896908 0.000874052 0)
(-0.00921227 0.000839253 0)
(-0.00944609 0.000802689 0)
(-0.00967069 0.000764905 0)
(-0.00988593 0.000726426 0)
(-0.0100916 0.000687821 0)
(-0.0102872 0.000649448 0)
(-0.0104721 0.000611525 0)
(-0.010646 0.000574369 0)
(-0.0108083 0.000538134 0)
(-0.0109585 0.000502904 0)
(-0.0110959 0.000468826 0)
(-0.0112201 0.000435627 0)
(-0.0113305 0.000402664 0)
(-0.011427 0.000369277 0)
(-0.0115097 0.000334574 0)
(-0.0115787 0.000297625 0)
(-0.0116345 0.000257994 0)
(-0.0116778 0.000215637 0)
(-0.0117088 0.000170718 0)
(-0.011728 0.000123651 0)
(-0.0117358 7.48296e-05 0)
(-0.0117318 2.46296e-05 0)
(-0.0117164 -2.6333e-05 0)
(-0.01169 -7.77012e-05 0)
(-0.0116515 -0.000129412 0)
(-0.0116006 -0.000180602 0)
(-0.0115389 -0.000230251 0)
(-0.0114659 -0.000278913 0)
(-0.0113796 -0.000327306 0)
(-0.0112812 -0.000374521 0)
(-0.0111728 -0.000420291 0)
(-0.0110512 -0.000466252 0)
(-0.0109146 -0.000512724 0)
(-0.0107673 -0.000558007 0)
(-0.0106113 -0.000602162 0)
(-0.0104427 -0.000647073 0)
(-0.0102607 -0.000692349 0)
(-0.0100701 -0.000735665 0)
(-0.00987079 -0.000776924 0)
(-0.00965825 -0.000817903 0)
(-0.00943367 -0.000858416 0)
(-0.00920252 -0.000896589 0)
(-0.00896395 -0.000932152 0)
(-0.0087124 -0.000966258 0)
(-0.008448 -0.000998784 0)
(-0.00817602 -0.0010286 0)
(-0.00789738 -0.00105591 0)
(-0.00760801 -0.00108208 0)
(-0.00730632 -0.00110743 0)
(-0.0069952 -0.00113136 0)
(-0.00667689 -0.00115429 0)
(-0.00635087 -0.00117766 0)
(-0.00601646 -0.00120197 0)
(-0.00567428 -0.0012264 0)
(-0.00532527 -0.00125075 0)
(-0.00497039 -0.00127584 0)
(-0.00461083 -0.00130136 0)
(-0.00424764 -0.00132551 0)
(-0.00388103 -0.00134765 0)
(-0.00350984 -0.00136847 0)
(-0.00313289 -0.00138663 0)
(-0.00275336 -0.00139975 0)
(-0.00237649 -0.00140742 0)
(-0.00200003 -0.00140497 0)
(-0.00162589 -0.00138581 0)
(-0.00125257 -0.00134602 0)
(-0.000896385 -0.00125921 0)
(-0.000567714 -0.00111037 0)
(-0.000279514 -0.000840731 0)
(-7.80262e-05 -0.000418444 0)
(1.27327e-06 -2.13192e-05 0)
(-1.4586e-05 0.000336781 0)
(-0.000132041 0.000887977 0)
(-0.000369417 0.00125741 0)
(-0.000677351 0.00147986 0)
(-0.00102104 0.00160953 0)
(-0.00138438 0.00168292 0)
(-0.00175919 0.00172196 0)
(-0.00214002 0.00173959 0)
(-0.00252355 0.00174365 0)
(-0.00290759 0.00173863 0)
(-0.00329049 0.00172737 0)
(-0.00367105 0.0017115 0)
(-0.00404824 0.0016919 0)
(-0.00442129 0.00166894 0)
(-0.00478974 0.00164275 0)
(-0.00515338 0.00161349 0)
(-0.00551209 0.00158143 0)
(-0.00586576 0.00154712 0)
(-0.00621416 0.00151112 0)
(-0.00655686 0.00147423 0)
(-0.00689327 0.00143696 0)
(-0.00722273 0.00139981 0)
(-0.00754444 0.00136295 0)
(-0.00785758 0.0013262 0)
(-0.00816134 0.00128919 0)
(-0.00845512 0.0012514 0)
(-0.00873855 0.0012123 0)
(-0.00901148 0.00117143 0)
(-0.00927408 0.00112859 0)
(-0.00952658 0.00108378 0)
(-0.00976919 0.00103717 0)
(-0.010002 0.000989218 0)
(-0.010225 0.000940326 0)
(-0.0104377 0.000890918 0)
(-0.0106399 0.000841472 0)
(-0.0108309 0.000792215 0)
(-0.0110103 0.000743375 0)
(-0.0111776 0.000695241 0)
(-0.0113321 0.000647779 0)
(-0.0114733 0.000600886 0)
(-0.011601 0.000554477 0)
(-0.0117147 0.00050802 0)
(-0.011814 0.00046078 0)
(-0.0118994 0.000412252 0)
(-0.0119709 0.000361949 0)
(-0.0120288 0.000309351 0)
(-0.0120734 0.000254338 0)
(-0.0121053 0.000197235 0)
(-0.0121251 0.000138379 0)
(-0.0121327 7.78565e-05 0)
(-0.0121279 1.59424e-05 0)
(-0.0121114 -4.65458e-05 0)
(-0.0120835 -0.000109181 0)
(-0.012043 -0.000172318 0)
(-0.0119892 -0.000235443 0)
(-0.0119244 -0.000297245 0)
(-0.0118489 -0.00035813 0)
(-0.0117595 -0.000419334 0)
(-0.0116568 -0.00047986 0)
(-0.0115442 -0.000538335 0)
(-0.0114193 -0.000596136 0)
(-0.0112785 -0.000654625 0)
(-0.0111253 -0.000712288 0)
(-0.0109643 -0.000768019 0)
(-0.0107919 -0.000823495 0)
(-0.0106046 -0.000879627 0)
(-0.0104065 -0.000934479 0)
(-0.0102002 -0.000986692 0)
(-0.00998241 -0.00103755 0)
(-0.00975187 -0.00108818 0)
(-0.00951227 -0.00113754 0)
(-0.00926434 -0.00118411 0)
(-0.00900456 -0.00122766 0)
(-0.00873262 -0.0012689 0)
(-0.00845189 -0.00130847 0)
(-0.00816271 -0.00134661 0)
(-0.00786232 -0.00138285 0)
(-0.0075509 -0.00141661 0)
(-0.00723145 -0.00144854 0)
(-0.00690422 -0.00148059 0)
(-0.0065668 -0.00151368 0)
(-0.0062195 -0.00154639 0)
(-0.00586629 -0.00157731 0)
(-0.00550934 -0.00160756 0)
(-0.00514607 -0.00163888 0)
(-0.00477373 -0.00167024 0)
(-0.004395 -0.00169914 0)
(-0.00401522 -0.00172536 0)
(-0.00363438 -0.00174952 0)
(-0.00324829 -0.00176993 0)
(-0.00285824 -0.00178548 0)
(-0.00246706 -0.00179451 0)
(-0.00207414 -0.00178904 0)
(-0.00168751 -0.00176714 0)
(-0.00130794 -0.00171143 0)
(-0.000940078 -0.0016127 0)
(-0.000595719 -0.00142173 0)
(-0.000298368 -0.00109235 0)
(-8.81078e-05 -0.000566442 0)
(-1.77702e-06 -5.81428e-05 0)
(-1.44409e-05 0.000403661 0)
(-0.000132997 0.00107576 0)
(-0.00037414 0.00153435 0)
(-0.000687837 0.00180922 0)
(-0.00103898 0.00196838 0)
(-0.00141067 0.00205824 0)
(-0.00179407 0.00210587 0)
(-0.0021837 0.00212748 0)
(-0.00257606 0.00213246 0)
(-0.00296893 0.00212649 0)
(-0.00336061 0.0021129 0)
(-0.00374982 0.00209374 0)
(-0.00413562 0.00207022 0)
(-0.0045173 0.00204298 0)
(-0.00489437 0.00201237 0)
(-0.00526654 0.00197861 0)
(-0.00563355 0.00194199 0)
(-0.00599521 0.00190292 0)
(-0.00635118 0.00186183 0)
(-0.00670108 0.00181925 0)
(-0.00704443 0.00177555 0)
(-0.00738059 0.001731 0)
(-0.00770887 0.00168576 0)
(-0.00802855 0.00163978 0)
(-0.00833891 0.00159288 0)
(-0.00863933 0.00154474 0)
(-0.00892943 0.00149509 0)
(-0.009209 0.00144364 0)
(-0.00947807 0.00139021 0)
(-0.00973681 0.00133486 0)
(-0.00998529 0.00127768 0)
(-0.0102235 0.00121901 0)
(-0.0104514 0.00115928 0)
(-0.0106686 0.00109879 0)
(-0.0108747 0.00103797 0)
(-0.0110693 0.000977213 0)
(-0.0112518 0.000916589 0)
(-0.0114218 0.000856239 0)
(-0.0115789 0.000796298 0)
(-0.0117225 0.000736531 0)
(-0.0118522 0.000676634 0)
(-0.0119681 0.000616358 0)
(-0.0120699 0.000555206 0)
(-0.0121573 0.000492632 0)
(-0.0122308 0.00042841 0)
(-0.0122907 0.000362363 0)
(-0.0123371 0.000294239 0)
(-0.01237 0.000224208 0)
(-0.0123904 0.000152816 0)
(-0.0123987 8.01273e-05 0)
(-0.0123941 5.96741e-06 0)
(-0.0123766 -6.88305e-05 0)
(-0.0123478 -0.000143385 0)
(-0.0123068 -0.000218373 0)
(-0.0122514 -0.00029405 0)
(-0.0121842 -0.00036878 0)
(-0.012107 -0.00044216 0)
(-0.0120163 -0.000515854 0)
(-0.0119107 -0.000589597 0)
(-0.0117943 -0.000661225 0)
(-0.0116669 -0.000731046 0)
(-0.011524 -0.000801103 0)
(-0.0113673 -0.000871079 0)
(-0.0112021 -0.000939366 0)
(-0.0110266 -0.00100634 0)
(-0.0108364 -0.00107306 0)
(-0.010634 -0.00113892 0)
(-0.0104226 -0.00120291 0)
(-0.0102001 -0.00126525 0)
(-0.00996532 -0.00132628 0)
(-0.00972106 -0.00138552 0)
(-0.00946721 -0.00144248 0)
(-0.00920035 -0.00149701 0)
(-0.0089214 -0.00154888 0)
(-0.00863507 -0.00159819 0)
(-0.00834112 -0.00164576 0)
(-0.00803454 -0.00169215 0)
(-0.00771483 -0.00173674 0)
(-0.00738744 -0.00177907 0)
(-0.00705493 -0.00182017 0)
(-0.00671352 -0.00186127 0)
(-0.00636038 -0.00190201 0)
(-0.00599881 -0.00194138 0)
(-0.00563311 -0.00197939 0)
(-0.00526231 -0.00201629 0)
(-0.00488363 -0.00205136 0)
(-0.00449919 -0.00208445 0)
(-0.00411267 -0.00211604 0)
(-0.00372197 -0.00214415 0)
(-0.00332507 -0.0021659 0)
(-0.0029267 -0.00218215 0)
(-0.0025278 -0.00219046 0)
(-0.00213032 -0.00218329 0)
(-0.00173447 -0.00215793 0)
(-0.00134469 -0.00209227 0)
(-0.00096812 -0.00197161 0)
(-0.000616915 -0.0017438 0)
(-0.000313215 -0.00135296 0)
(-9.43413e-05 -0.000721367 0)
(-3.36619e-06 -9.81463e-05 0)
(-1.42109e-05 0.000471182 0)
(-0.0001341 0.00126588 0)
(-0.000377789 0.001815 0)
(-0.000695716 0.00214369 0)
(-0.00105202 0.00233326 0)
(-0.00142981 0.00244005 0)
(-0.00181989 0.00249662 0)
(-0.00221623 0.00252222 0)
(-0.00261541 0.00252817 0)
(-0.00301502 0.00252125 0)
(-0.00341332 0.0025055 0)
(-0.00380902 0.00248333 0)
(-0.00420118 0.00245617 0)
(-0.00458916 0.00242487 0)
(-0.00497252 0.00238991 0)
(-0.00535091 0.00235153 0)
(-0.00572398 0.00231004 0)
(-0.00609145 0.0022657 0)
(-0.00645298 0.00221892 0)
(-0.00680816 0.00216994 0)
(-0.00715654 0.00211915 0)
(-0.00749757 0.00206675 0)
(-0.0078306 0.00201287 0)
(-0.00815496 0.00195759 0)
(-0.00846999 0.00190088 0)
(-0.00877509 0.00184259 0)
(-0.00906988 0.00178257 0)
(-0.00935417 0.0017207 0)
(-0.00962788 0.00165677 0)
(-0.00989105 0.00159086 0)
(-0.0101437 0.00152309 0)
(-0.0103857 0.00145364 0)
(-0.010617 0.00138292 0)
(-0.0108372 0.00131133 0)
(-0.0110458 0.00123908 0)
(-0.0112425 0.0011665 0)
(-0.0114271 0.00109385 0)
(-0.0115988 0.00102108 0)
(-0.0117575 0.000948125 0)
(-0.0119027 0.000874943 0)
(-0.0120344 0.000801263 0)
(-0.012152 0.00072677 0)
(-0.0122555 0.000651199 0)
(-0.0123449 0.000574247 0)
(-0.0124203 0.000495749 0)
(-0.0124818 0.000415729 0)
(-0.0125297 0.00033404 0)
(-0.0125639 0.000250623 0)
(-0.0125851 0.000166055 0)
(-0.012594 8.0665e-05 0)
(-0.0125898 -6.03023e-06 0)
(-0.012572 -9.36329e-05 0)
(-0.0125427 -0.000180844 0)
(-0.0125015 -0.000268034 0)
(-0.0124456 -0.000356204 0)
(-0.0123765 -0.000444054 0)
(-0.0122979 -0.000530303 0)
(-0.0122064 -0.000616257 0)
(-0.0120989 -0.000702458 0)
(-0.0119794 -0.000786995 0)
(-0.0118497 -0.000869352 0)
(-0.0117054 -0.000951284 0)
(-0.0115466 -0.00103319 0)
(-0.0113786 -0.00111384 0)
(-0.0112003 -0.00119305 0)
(-0.0110075 -0.00127131 0)
(-0.0108021 -0.0013482 0)
(-0.0105875 -0.00142329 0)
(-0.0103619 -0.00149708 0)
(-0.0101232 -0.0015695 0)
(-0.0098742 -0.00163936 0)
(-0.009616 -0.00170614 0)
(-0.0093453 -0.00177072 0)
(-0.00906195 -0.00183366 0)
(-0.00877034 -0.0018944 0)
(-0.00847123 -0.00195246 0)
(-0.00816037 -0.0020082 0)
(-0.00783693 -0.00206226 0)
(-0.00750555 -0.00211497 0)
(-0.00716821 -0.00216626 0)
(-0.00682118 -0.00221566 0)
(-0.00646263 -0.00226285 0)
(-0.00609698 -0.00230847 0)
(-0.0057278 -0.00235323 0)
(-0.00535196 -0.00239622 0)
(-0.00496651 -0.00243593 0)
(-0.00457553 -0.00247294 0)
(-0.00418301 -0.00250798 0)
(-0.00378616 -0.00253868 0)
(-0.0033847 -0.00256377 0)
(-0.00298215 -0.00258416 0)
(-0.00257604 -0.00259362 0)
(-0.00217085 -0.00258665 0)
(-0.00176917 -0.00255342 0)
(-0.00137551 -0.002481 0)
(-0.000991469 -0.00233861 0)
(-0.000633895 -0.00207747 0)
(-0.000323855 -0.00161972 0)
(-9.84277e-05 -0.000885569 0)
(-4.51733e-06 -0.000140999 0)
(-1.40292e-05 0.000539101 0)
(-0.000135171 0.00145651 0)
(-0.000380842 0.00209711 0)
(-0.000702031 0.00248115 0)
(-0.00106255 0.00270244 0)
(-0.00144537 0.00282688 0)
(-0.00184102 0.00289295 0)
(-0.00224324 0.00292295 0)
(-0.00264819 0.00293018 0)
(-0.00305342 0.00292256 0)
(-0.00345718 0.00290482 0)
(-0.00385822 0.00287978 0)
(-0.00425564 0.00284906 0)
(-0.00464883 0.0028136 0)
(-0.00503737 0.00277395 0)
(-0.00542088 0.00273047 0)
(-0.00579897 0.00268345 0)
(-0.00617126 0.00263314 0)
(-0.0065374 0.00257987 0)
(-0.00689699 0.00252391 0)
(-0.00724951 0.0024655 0)
(-0.00759451 0.00240494 0)
(-0.00793135 0.0023424 0)
(-0.00825937 0.002278 0)
(-0.008578 0.00221181 0)
(-0.00888671 0.00214379 0)
(-0.0091851 0.00207381 0)
(-0.00947303 0.00200181 0)
(-0.00975037 0.00192766 0)
(-0.010017 0.00185128 0)
(-0.010273 0.00177289 0)
(-0.010518 0.00169269 0)
(-0.0107518 0.00161085 0)
(-0.0109742 0.00152782 0)
(-0.0111849 0.00144393 0)
(-0.0113833 0.00135928 0)
(-0.0115692 0.00127404 0)
(-0.0117424 0.00118832 0)
(-0.0119026 0.00110202 0)
(-0.0120493 0.00101495 0)
(-0.0121823 0.000927024 0)
(-0.0123017 0.000838117 0)
(-0.0124069 0.000748025 0)
(-0.012498 0.000656574 0)
(-0.0125748 0.000563756 0)
(-0.0126378 0.000469728 0)
(-0.0126872 0.000374369 0)
(-0.0127224 0.000277437 0)
(-0.0127441 0.000179488 0)
(-0.0127538 8.1122e-05 0)
(-0.0127504 -1.83178e-05 0)
(-0.0127325 -0.000118928 0)
(-0.0127024 -0.000219132 0)
(-0.0126612 -0.00031879 0)
(-0.0126054 -0.000419408 0)
(-0.0125351 -0.000520249 0)
(-0.0124548 -0.000619413 0)
(-0.0123626 -0.000717628 0)
(-0.012254 -0.000816035 0)
(-0.012132 -0.000913265 0)
(-0.0120001 -0.00100837 0)
(-0.0118547 -0.00110269 0)
(-0.0116945 -0.00119691 0)
(-0.0115242 -0.00128997 0)
(-0.0113438 -0.00138139 0)
(-0.0111488 -0.0014715 0)
(-0.0109405 -0.00155996 0)
(-0.0107232 -0.00164642 0)
(-0.0104952 -0.0017313 0)
(-0.0102536 -0.0018146 0)
(-0.0100006 -0.0018952 0)
(-0.0097382 -0.00197255 0)
(-0.00946407 -0.00204759 0)
(-0.00917766 -0.00212111 0)
(-0.0088826 -0.00219252 0)
(-0.00857954 -0.00226093 0)
(-0.00826461 -0.00232647 0)
(-0.00793726 -0.00238997 0)
(-0.00760221 -0.00245179 0)
(-0.00726125 -0.0025114 0)
(-0.00691043 -0.00256811 0)
(-0.00654805 -0.00262216 0)
(-0.00617852 -0.00267467 0)
(-0.0058047 -0.00272565 0)
(-0.0054235 -0.00277355 0)
(-0.00503384 -0.002818 0)
(-0.00464035 -0.0028609 0)
(-0.0042442 -0.00290183 0)
(-0.00384199 -0.00293725 0)
(-0.00343621 -0.00296706 0)
(-0.00302874 -0.00299089 0)
(-0.00261772 -0.00300095 0)
(-0.00220767 -0.0029937 0)
(-0.00180202 -0.00295552 0)
(-0.00140251 -0.0028749 0)
(-0.00101182 -0.00270934 0)
(-0.000648864 -0.00241652 0)
(-0.00033388 -0.00189194 0)
(-0.000103851 -0.0010577 0)
(-5.998e-06 -0.000186801 0)
(-1.39711e-05 0.000606996 0)
(-0.000135516 0.00164657 0)
(-0.000382689 0.00238015 0)
(-0.000706926 0.00282152 0)
(-0.00107145 0.00307578 0)
(-0.00145905 0.00321885 0)
(-0.00185995 0.00329484 0)
(-0.00226763 0.00332962 0)
(-0.00267802 0.00333839 0)
(-0.00308849 0.00333021 0)
(-0.0034973 0.00331051 0)
(-0.00390328 0.00328245 0)
(-0.0043056 0.00324789 0)
(-0.00470366 0.00320789 0)
(-0.00509702 0.00316309 0)
(-0.00548525 0.00311395 0)
(-0.00586795 0.00306081 0)
(-0.00624467 0.00300405 0)
(-0.006615 0.00294382 0)
(-0.00697855 0.00288055 0)
(-0.00733483 0.00281444 0)
(-0.00768329 0.00274574 0)
(-0.00802342 0.00267472 0)
(-0.00835461 0.00260147 0)
(-0.0086763 0.00252607 0)
(-0.00898808 0.00244859 0)
(-0.0092896 0.00236884 0)
(-0.00958066 0.00228668 0)
(-0.00986123 0.00220217 0)
(-0.010131 0.00211524 0)
(-0.0103898 0.0020259 0)
(-0.0106375 0.0019345 0)
(-0.0108738 0.00184132 0)
(-0.0110982 0.00174655 0)
(-0.0113104 0.00165053 0)
(-0.0115105 0.00155348 0)
(-0.011698 0.00145542 0)
(-0.0118725 0.00135643 0)
(-0.012034 0.00125654 0)
(-0.0121823 0.00115562 0)
(-0.0123169 0.00105353 0)
(-0.0124375 0.000950353 0)
(-0.0125442 0.000846135 0)
(-0.0126368 0.00074066 0)
(-0.0127149 0.000633819 0)
(-0.0127789 0.000525986 0)
(-0.0128295 0.000417248 0)
(-0.012866 0.000306995 0)