/*--------------------------------*- C++ -*----------------------------------*\
| =========                 |                                                 |
| \\      /  F ield         | OpenFOAM: The Open Source CFD Toolbox           |
|  \\    /   O peration     | Version:  2212                                  |
|   \\  /    A nd           | Website:  www.openfoam.com                      |
|    \\/     M anipulation  |                                                 |
\*---------------------------------------------------------------------------*/
FoamFile
{
    version     2.0;
    format      ascii;
    arch        "LSB;label=32;scalar=64";
    class       volVectorField;
    location    "0.001";
    object      U_0;
}
// * * * * * * * * * * * * * * * * * * * * * * * * * * * * * * * * * * * * * //

dimensions      [0 1 -1 0 0 0 0];

internalField   nonuniform List<vector> 
10000
(
(-2.30957e-05 3.75536e-05 0)
(-0.000110192 7.12775e-05 0)
(-0.000243325 6.68714e-05 0)
(-0.00037932 6.50802e-05 0)
(-0.000509539 6.41062e-05 0)
(-0.000639401 6.35865e-05 0)
(-0.000769095 6.3252e-05 0)
(-0.000898553 6.29824e-05 0)
(-0.00102758 6.27126e-05 0)
(-0.00115586 6.23957e-05 0)
(-0.00128301 6.19832e-05 0)
(-0.00140864 6.14186e-05 0)
(-0.0015324 6.06503e-05 0)
(-0.00165405 5.96618e-05 0)
(-0.00177353 5.84963e-05 0)
(-0.00189096 5.72549e-05 0)
(-0.0020066 5.60651e-05 0)
(-0.00212076 5.50295e-05 0)
(-0.00223368 5.41843e-05 0)
(-0.00234543 5.34833e-05 0)
(-0.00245579 5.2814e-05 0)
(-0.0025643 5.20338e-05 0)
(-0.00267031 5.1011e-05 0)
(-0.00277315 4.96593e-05 0)
(-0.00287224 4.79586e-05 0)
(-0.00296724 4.59635e-05 0)
(-0.00305811 4.37944e-05 0)
(-0.00314506 4.16126e-05 0)
(-0.00322845 3.95785e-05 0)
(-0.0033087 3.78037e-05 0)
(-0.00338612 3.63132e-05 0)
(-0.00346083 3.5036e-05 0)
(-0.00353274 3.38324e-05 0)
(-0.0036016 3.25488e-05 0)
(-0.00366712 3.10798e-05 0)
(-0.00372905 2.94052e-05 0)
(-0.0037872 2.75875e-05 0)
(-0.00384148 2.57246e-05 0)
(-0.00389177 2.38812e-05 0)
(-0.00393792 2.20404e-05 0)
(-0.00397964 2.01093e-05 0)
(-0.00401662 1.79708e-05 0)
(-0.00404862 1.55475e-05 0)
(-0.00407552 1.28741e-05 0)
(-0.00409745 1.01491e-05 0)
(-0.00411483 7.65583e-06 0)
(-0.00412812 5.5479e-06 0)
(-0.0041376 3.77073e-06 0)
(-0.00414341 2.21916e-06 0)
(-0.00414569 7.33119e-07 0)
(-0.00414433 -1.10001e-06 0)
(-0.00413883 -3.58227e-06 0)
(-0.00412911 -6.21587e-06 0)
(-0.00411583 -8.26662e-06 0)
(-0.00409916 -1.00259e-05 0)
(-0.00407826 -1.20793e-05 0)
(-0.00405326 -1.37515e-05 0)
(-0.00402537 -1.45925e-05 0)
(-0.00399387 -1.63036e-05 0)
(-0.00395655 -1.98595e-05 0)
(-0.00391427 -2.2737e-05 0)
(-0.00386982 -2.31867e-05 0)
(-0.0038222 -2.39938e-05 0)
(-0.00376863 -2.71713e-05 0)
(-0.00371111 -2.96512e-05 0)
(-0.00365304 -2.95596e-05 0)
(-0.00359198 -3.06762e-05 0)
(-0.00352401 -3.50024e-05 0)
(-0.00345176 -3.79329e-05 0)
(-0.0033796 -3.6662e-05 0)
(-0.00330535 -3.59755e-05 0)
(-0.00322477 -3.9784e-05 0)
(-0.0031396 -4.41141e-05 0)
(-0.00305363 -4.43893e-05 0)
(-0.00296555 -4.31795e-05 0)
(-0.00287199 -4.49987e-05 0)
(-0.00277407 -4.87692e-05 0)
(-0.00267484 -5.07721e-05 0)
(-0.00257356 -5.09961e-05 0)
(-0.00246753 -5.1919e-05 0)
(-0.00235731 -5.39216e-05 0)
(-0.00224572 -5.56719e-05 0)
(-0.00213301 -5.69134e-05 0)
(-0.00201711 -5.80012e-05 0)
(-0.00189788 -5.85064e-05 0)
(-0.00177769 -5.85106e-05 0)
(-0.0016575 -5.9408e-05 0)
(-0.00153552 -6.14738e-05 0)
(-0.00141062 -6.27356e-05 0)
(-0.00128468 -6.21935e-05 0)
(-0.0011594 -6.17238e-05 0)
(-0.00103336 -6.29411e-05 0)
(-0.000904836 -6.51199e-05 0)
(-0.000774903 -6.69764e-05 0)
(-0.000644345 -6.68328e-05 0)
(-0.000512968 -6.45895e-05 0)
(-0.000381959 -6.45694e-05 0)
(-0.000249769 -6.45866e-05 0)
(-0.000113649 -6.35317e-05 0)
(-3.24827e-05 -3.15166e-05 0)
(-5.35398e-05 0.000107575 0)
(-0.000217404 0.000237353 0)
(-0.000456503 0.00024407 0)
(-0.000692451 0.000241173 0)
(-0.000926064 0.000239332 0)
(-0.00115776 0.000238084 0)
(-0.0013879 0.000237015 0)
(-0.00161627 0.000235892 0)
(-0.00184264 0.000234564 0)
(-0.00206679 0.00023291 0)
(-0.00228859 0.000230831 0)
(-0.00250798 0.000228248 0)
(-0.002725 0.000225145 0)
(-0.00293963 0.000221602 0)
(-0.00315176 0.000217796 0)
(-0.00336103 0.000213956 0)
(-0.00356694 0.000210279 0)
(-0.00376892 0.000206846 0)
(-0.00396644 0.000203589 0)
(-0.00415916 0.000200302 0)
(-0.00434693 0.000196712 0)
(-0.00452979 0.000192564 0)
(-0.00470788 0.000187691 0)
(-0.00488143 0.000182061 0)
(-0.00505058 0.00017579 0)
(-0.00521533 0.000169112 0)
(-0.00537547 0.000162327 0)
(-0.00553057 0.000155724 0)
(-0.00568005 0.000149493 0)
(-0.00582333 0.000143673 0)
(-0.00596 0.000138136 0)
(-0.00608995 0.000132644 0)
(-0.00621335 0.000126941 0)
(-0.00633051 0.000120855 0)
(-0.00644167 0.000114363 0)
(-0.00654683 0.000107578 0)
(-0.00664568 0.000100666 0)
(-0.00673768 9.37387e-05 0)
(-0.00682238 8.6769e-05 0)
(-0.00689959 7.95836e-05 0)
(-0.00696954 7.19606e-05 0)
(-0.00703278 6.37794e-05 0)
(-0.00708984 5.51231e-05 0)
(-0.00714093 4.62852e-05 0)
(-0.00718571 3.77013e-05 0)
(-0.00722345 2.97791e-05 0)
(-0.0072533 2.26257e-05 0)
(-0.00727472 1.59323e-05 0)
(-0.00728794 9.24965e-06 0)
(-0.00729389 2.28231e-06 0)
(-0.00729339 -5.18951e-06 0)
(-0.00728657 -1.32395e-05 0)
(-0.0072733 -2.1314e-05 0)
(-0.00725305 -2.85502e-05 0)
(-0.00722444 -3.50512e-05 0)
(-0.00718671 -4.17705e-05 0)
(-0.00714148 -4.88583e-05 0)
(-0.00709061 -5.58469e-05 0)
(-0.00703347 -6.33437e-05 0)
(-0.00696942 -7.19677e-05 0)
(-0.0068996 -8.01586e-05 0)
(-0.00682318 -8.62661e-05 0)
(-0.00673713 -9.17657e-05 0)
(-0.00664262 -9.88596e-05 0)
(-0.00654427 -0.000106615 0)
(-0.00644167 -0.000113178 0)
(-0.00633064 -0.000119398 0)
(-0.00621182 -0.000126508 0)
(-0.00608835 -0.000133092 0)
(-0.00595834 -0.000137975 0)
(-0.00581968 -0.000143066 0)
(-0.00567643 -0.000150061 0)
(-0.00553135 -0.000157318 0)
(-0.00537936 -0.000162835 0)
(-0.00521705 -0.000167488 0)
(-0.00504997 -0.000172996 0)
(-0.00488268 -0.000179249 0)
(-0.00471057 -0.000185402 0)
(-0.00452921 -0.000191313 0)
(-0.00434298 -0.000196654 0)
(-0.00415671 -0.000200846 0)
(-0.00396685 -0.00020463 0)
(-0.00376844 -0.000209408 0)
(-0.00356469 -0.000214563 0)
(-0.00336144 -0.000217947 0)
(-0.00315705 -0.000219511 0)
(-0.00294542 -0.000221728 0)
(-0.00272686 -0.000225788 0)
(-0.00250816 -0.000230011 0)
(-0.0022918 -0.000232593 0)
(-0.00207197 -0.000233669 0)
(-0.00184459 -0.000234928 0)
(-0.00161485 -0.000238296 0)
(-0.00138799 -0.000242287 0)
(-0.00116136 -0.000242833 0)
(-0.000931873 -0.00024231 0)
(-0.000695772 -0.000240762 0)
(-0.000463067 -0.000245389 0)
(-0.000232825 -0.00022887 0)
(-6.26083e-05 -0.000117187 0)
(-6.33413e-05 0.000241673 0)
(-0.000240412 0.000465367 0)
(-0.000485502 0.000488139 0)
(-0.000730995 0.000485228 0)
(-0.000975801 0.000482664 0)
(-0.00121875 0.000480197 0)
(-0.00146013 0.00047762 0)
(-0.00169967 0.00047475 0)
(-0.0019371 0.000471433 0)
(-0.00217221 0.000467544 0)
(-0.00240488 0.000462986 0)
(-0.00263511 0.000457698 0)
(-0.00286295 0.000451685 0)
(-0.00308836 0.000445038 0)
(-0.00331114 0.000437939 0)
(-0.00353084 0.000430611 0)
(-0.00374687 0.000423237 0)
(-0.0039586 0.000415885 0)
(-0.00416548 0.000408474 0)
(-0.0043672 0.000400796 0)
(-0.00456365 0.000392582 0)
(-0.00475494 0.000383589 0)
(-0.00494131 0.000373666 0)
(-0.00512301 0.000362801 0)
(-0.00530022 0.000351125 0)
(-0.00547293 0.000338883 0)
(-0.00564087 0.000326389 0)
(-0.00580349 0.000313947 0)
(-0.00596013 0.000301772 0)
(-0.00611017 0.000289936 0)
(-0.00625321 0.000278341 0)
(-0.00638919 0.000266758 0)
(-0.00651835 0.000254905 0)
(-0.00664106 0.00024255 0)
(-0.00675756 0.000229582 0)
(-0.00686778 0.000216034 0)
(-0.00697131 0.000202037 0)
(-0.00706757 0.000187738 0)
(-0.00715609 0.000173214 0)
(-0.00723677 0.000158433 0)
(-0.00730996 0.000143299 0)
(-0.00737632 0.000127755 0)
(-0.00743646 0.000111863 0)
(-0.00749048 9.58067e-05 0)
(-0.00753788 7.98899e-05 0)
(-0.0075778 6.44633e-05 0)
(-0.00760939 4.96463e-05 0)
(-0.00763211 3.51486e-05 0)
(-0.00764621 2.06059e-05 0)
(-0.00765293 5.89543e-06 0)
(-0.00765324 -9.20373e-06 0)
(-0.00764672 -2.49827e-05 0)
(-0.00763276 -4.08366e-05 0)
(-0.00761139 -5.55993e-05 0)
(-0.00758154 -6.95389e-05 0)
(-0.00754152 -8.39272e-05 0)
(-0.00749316 -9.83981e-05 0)
(-0.00744035 -0.000112093 0)
(-0.00738205 -0.000126603 0)
(-0.00731462 -0.000143043 0)
(-0.00723984 -0.000158502 0)
(-0.00716033 -0.000171014 0)
(-0.00707164 -0.000183827 0)
(-0.00697119 -0.000199092 0)
(-0.00686637 -0.000213535 0)
(-0.006761 -0.000225577 0)
(-0.00664675 -0.000238816 0)
(-0.00651914 -0.000254021 0)
(-0.00638634 -0.000266676 0)
(-0.00625249 -0.000276101 0)
(-0.00611037 -0.00028763 0)
(-0.00595755 -0.00030278 0)
(-0.00580174 -0.000316375 0)
(-0.00564457 -0.000325977 0)
(-0.00547787 -0.000335769 0)
(-0.00530027 -0.00034861 0)
(-0.00512075 -0.000361568 0)
(-0.00494226 -0.000371808 0)
(-0.00475675 -0.00038093 0)
(-0.00456023 -0.000391061 0)
(-0.00435974 -0.000401265 0)
(-0.00416066 -0.000410007 0)
(-0.00395809 -0.000417735 0)
(-0.00374644 -0.000425344 0)
(-0.00352893 -0.000432602 0)
(-0.00331139 -0.000439247 0)
(-0.00309273 -0.000445689 0)
(-0.00286818 -0.000452031 0)
(-0.00263803 -0.000457764 0)
(-0.00240639 -0.000462445 0)
(-0.00217411 -0.000466266 0)
(-0.00193916 -0.000470554 0)
(-0.00170072 -0.00047561 0)
(-0.00145968 -0.000478638 0)
(-0.00121931 -0.000480766 0)
(-0.000976434 -0.00048248 0)
(-0.000736538 -0.000483561 0)
(-0.000491209 -0.000485801 0)
(-0.000244337 -0.000463993 0)
(-6.58891e-05 -0.000252127 0)
(-6.48745e-05 0.000370868 0)
(-0.000242768 0.000695977 0)
(-0.000488213 0.000731832 0)
(-0.000733569 0.000729277 0)
(-0.000978582 0.000726306 0)
(-0.00122182 0.000722879 0)
(-0.00146361 0.000718894 0)
(-0.00170369 0.000714231 0)
(-0.0019418 0.000708784 0)
(-0.00217768 0.000702468 0)
(-0.00241119 0.000695233 0)
(-0.00264225 0.000687066 0)
(-0.00287084 0.000678022 0)
(-0.00309684 0.00066823 0)
(-0.00332 0.000657883 0)
(-0.0035399 0.000647177 0)
(-0.00375604 0.00063624 0)
(-0.00396791 0.000625079 0)
(-0.00417512 0.00061357 0)
(-0.0043774 0.000601495 0)
(-0.00457467 0.000588611 0)
(-0.00476694 0.000574722 0)
(-0.00495433 0.000559734 0)
(-0.00513696 0.00054368 0)
(-0.00531488 0.000526715 0)
(-0.00548802 0.000509085 0)
(-0.00565608 0.000491076 0)
(-0.0058186 0.000472951 0)
(-0.00597502 0.000454879 0)
(-0.00612489 0.000436898 0)
(-0.00626793 0.000418902 0)
(-0.00640416 0.000400686 0)
(-0.00653382 0.000382015 0)
(-0.00665716 0.000362714 0)
(-0.00677432 0.000342725 0)
(-0.0068851 0.00032211 0)
(-0.00698905 0.00030101 0)
(-0.00708562 0.000279573 0)
(-0.00717442 0.000257889 0)
(-0.00725541 0.000235955 0)
(-0.00732896 0.0002137 0)
(-0.00739563 0.000191091 0)
(-0.00745594 0.000168204 0)
(-0.00750994 0.000145193 0)
(-0.00755705 0.000122235 0)
(-0.00759649 9.9566e-05 0)
(-0.00762773 7.73353e-05 0)
(-0.00765047 5.52905e-05 0)
(-0.00766482 3.29735e-05 0)
(-0.00767174 1.03577e-05 0)
(-0.00767238 -1.23457e-05 0)
(-0.00766624 -3.53663e-05 0)
(-0.00765184 -5.86526e-05 0)
(-0.00762928 -8.10839e-05 0)
(-0.00759909 -0.000102263 0)
(-0.0075598 -0.000123739 0)
(-0.00751146 -0.00014625 0)
(-0.00745806 -0.000168363 0)
(-0.00740063 -0.000189942 0)
(-0.00733438 -0.000212762 0)
(-0.00725806 -0.000236033 0)
(-0.00717616 -0.000256874 0)
(-0.00708839 -0.000276091 0)
(-0.00699025 -0.000297188 0)
(-0.00688432 -0.000319787 0)
(-0.00677626 -0.000340425 0)
(-0.00666264 -0.000359025 0)
(-0.00653697 -0.000378419 0)
(-0.0064024 -0.000398667 0)
(-0.00626553 -0.000417451 0)
(-0.0061249 -0.000434966 0)
(-0.00597574 -0.000453576 0)
(-0.00581868 -0.00047329 0)
(-0.00565656 -0.000491567 0)
(-0.00548921 -0.000507507 0)
(-0.00531614 -0.000523181 0)
(-0.00513824 -0.00054031 0)
(-0.00495491 -0.000557729 0)
(-0.00476508 -0.00057313 0)
(-0.00457088 -0.000586218 0)
(-0.00437466 -0.000598924 0)
(-0.00417395 -0.000612629 0)
(-0.00396537 -0.000626374 0)
(-0.00375173 -0.000638418 0)
(-0.00353845 -0.000648617 0)
(-0.00332401 -0.000658131 0)
(-0.0031019 -0.000667621 0)
(-0.00287192 -0.000677047 0)
(-0.00264137 -0.000686099 0)
(-0.00241328 -0.00069371 0)
(-0.00218252 -0.000699385 0)
(-0.00194484 -0.000704748 0)
(-0.00170229 -0.000710121 0)
(-0.00146191 -0.000715809 0)
(-0.00122396 -0.000723311 0)
(-0.000982611 -0.000721689 0)
(-0.000735178 -0.000729145 0)
(-0.000492558 -0.000727747 0)
(-0.000248357 -0.000697141 0)
(-6.59342e-05 -0.000388402 0)
(-6.54925e-05 0.000506301 0)
(-0.000244154 0.000930855 0)
(-0.000490564 0.000977923 0)
(-0.000736521 0.000975061 0)
(-0.000982199 0.000971379 0)
(-0.00122616 0.000966825 0)
(-0.00146878 0.000961303 0)
(-0.00170978 0.000954731 0)
(-0.00194886 0.000947064 0)
(-0.00218576 0.000938281 0)
(-0.00242028 0.000928386 0)
(-0.00265232 0.000917414 0)
(-0.00288178 0.000905444 0)
(-0.0031085 0.000892612 0)
(-0.00333219 0.000879084 0)
(-0.00355249 0.000865009 0)
(-0.00376897 0.000850459 0)
(-0.00398126 0.000835397 0)
(-0.00418906 0.000819686 0)
(-0.00439216 0.000803126 0)
(-0.00459042 0.000785519 0)
(-0.00478382 0.000766726 0)
(-0.00497235 0.0007467 0)
(-0.00515603 0.000725498 0)
(-0.00533482 0.000703274 0)
(-0.00550857 0.000680247 0)
(-0.005677 0.000656661 0)
(-0.00583969 0.000632728 0)
(-0.00599619 0.000608583 0)
(-0.00614615 0.000584253 0)
(-0.00628942 0.000559652 0)
(-0.00642608 0.000534624 0)
(-0.00655632 0.000509005 0)
(-0.00668035 0.000482691 0)
(-0.00679817 0.000455681 0)
(-0.0069095 0.000428074 0)
(-0.00701385 0.00040002 0)
(-0.0071107 0.000371657 0)
(-0.00719971 0.00034306 0)
(-0.00728096 0.000314214 0)
(-0.00735482 0.000285027 0)
(-0.00742182 0.000255425 0)
(-0.00748236 0.000225461 0)
(-0.00753645 0.000195281 0)
(-0.0075835 0.000165018 0)
(-0.0076227 0.000134833 0)
(-0.00765367 0.000104933 0)
(-0.00767647 7.52198e-05 0)
(-0.00769115 4.52225e-05 0)
(-0.00769825 1.48325e-05 0)
(-0.00769896 -1.55309e-05 0)
(-0.00769303 -4.58877e-05 0)
(-0.00767848 -7.65202e-05 0)
(-0.007655 -0.000106684 0)
(-0.00762419 -0.00013567 0)
(-0.0075855 -0.000164683 0)
(-0.00753778 -0.000194882 0)
(-0.00748404 -0.000225154 0)
(-0.00742645 -0.000254637 0)
(-0.00736071 -0.000284407 0)
(-0.00728395 -0.000314395 0)
(-0.00720039 -0.000342806 0)
(-0.00711196 -0.000369876 0)
(-0.00701489 -0.00039768 0)
(-0.0069096 -0.000426263 0)
(-0.00680024 -0.000453974 0)
(-0.00668474 -0.000480464 0)
(-0.00655878 -0.000506308 0)
(-0.00642537 -0.00053169 0)
(-0.00628879 -0.000557215 0)
(-0.0061465 -0.000583428 0)
(-0.00599588 -0.000609005 0)
(-0.00583974 -0.000632377 0)
(-0.00567878 -0.000654747 0)
(-0.00550949 -0.00067822 0)
(-0.00533307 -0.000701833 0)
(-0.0051553 -0.000723023 0)
(-0.00497508 -0.000742167 0)
(-0.00478523 -0.00076199 0)
(-0.00458602 -0.000782871 0)
(-0.00438616 -0.00080221 0)
(-0.00418811 -0.000818698 0)
(-0.00398388 -0.000834289 0)
(-0.00376869 -0.000851012 0)
(-0.00354864 -0.000867831 0)
(-0.00333039 -0.0008822 0)
(-0.00311164 -0.000893923 0)
(-0.00288666 -0.00090537 0)
(-0.00265469 -0.000917307 0)
(-0.00241967 -0.00092776 0)
(-0.00218514 -0.000936547 0)
(-0.00194989 -0.000944848 0)
(-0.00171178 -0.000951663 0)
(-0.00147287 -0.000959812 0)
(-0.00122519 -0.000963443 0)
(-0.000982268 -0.000970804 0)
(-0.000742596 -0.000970855 0)
(-0.000493876 -0.000977114 0)
(-0.000246222 -0.000929178 0)
(-6.63593e-05 -0.000525855 0)
(-6.58569e-05 0.000641266 0)
(-0.000245445 0.00116645 0)
(-0.000493119 0.00122446 0)
(-0.000740113 0.00122108 0)
(-0.000986817 0.00121655 0)
(-0.00123189 0.00121078 0)
(-0.0014757 0.00120371 0)
(-0.00171793 0.00119528 0)
(-0.00195825 0.0011855 0)
(-0.00219636 0.00117442 0)
(-0.00243205 0.00116205 0)
(-0.00266519 0.00114845 0)
(-0.00289564 0.0011337 0)
(-0.0031232 0.00111793 0)
(-0.0033476 0.00110125 0)
(-0.00356853 0.00108377 0)
(-0.00378565 0.0010655 0)
(-0.00399868 0.00104637 0)
(-0.00420739 0.00102626 0)
(-0.00441157 0.00100499 0)
(-0.00461107 0.000982447 0)
(-0.00480576 0.000958554 0)
(-0.00499556 0.000933331 0)
(-0.00518038 0.000906877 0)
(-0.00536013 0.000879353 0)
(-0.00553463 0.000850955 0)
(-0.0057036 0.000821879 0)
(-0.00586667 0.000792279 0)
(-0.0060235 0.000762234 0)
(-0.00617382 0.000731735 0)
(-0.00631756 0.0007007 0)
(-0.00645481 0.000669011 0)
(-0.00658575 0.000636578 0)
(-0.00671049 0.000603376 0)
(-0.00682894 0.000569474 0)
(-0.00694076 0.00053501 0)
(-0.00704547 0.000500131 0)
(-0.00714258 0.000464928 0)
(-0.00723186 0.000429414 0)
(-0.00731345 0.000393526 0)
(-0.00738775 0.000357148 0)
(-0.0074552 0.000320187 0)
(-0.00751609 0.000282717 0)
(-0.00757038 0.000244958 0)
(-0.0076175 0.000207074 0)
(-0.00765657 0.00016917 0)
(-0.00768734 0.000131472 0)
(-0.00771018 9.40182e-05 0)
(-0.0077252 5.63194e-05 0)
(-0.00773249 1.81379e-05 0)
(-0.0077331 -1.9929e-05 0)
(-0.00772723 -5.76832e-05 0)
(-0.00771263 -9.57302e-05 0)
(-0.00768843 -0.00013364 0)
(-0.00765709 -0.000170394 0)
(-0.00761902 -0.000207074 0)
(-0.00757193 -0.00024521 0)
(-0.00751782 -0.000283461 0)
(-0.00745989 -0.000320316 0)
(-0.00739414 -0.00035708 0)
(-0.00731646 -0.000394186 0)
(-0.00723164 -0.000429557 0)
(-0.00714326 -0.000463404 0)
(-0.00704664 -0.000498455 0)
(-0.00694061 -0.000534371 0)
(-0.00683047 -0.000568404 0)
(-0.00671497 -0.000600909 0)
(-0.0065882 -0.000634099 0)
(-0.00645331 -0.000667375 0)
(-0.00631726 -0.000699192 0)
(-0.00617669 -0.000730645 0)
(-0.00602469 -0.000762758 0)
(-0.00586443 -0.000793526 0)
(-0.00570241 -0.00082143 0)
(-0.0055363 -0.000848605 0)
(-0.00536094 -0.000877172 0)
(-0.00517857 -0.000905431 0)
(-0.00499387 -0.000930825 0)
(-0.00480579 -0.000954257 0)
(-0.0046111 -0.00097838 0)
(-0.00441049 -0.00100319 0)
(-0.00420603 -0.00102633 0)
(-0.00399768 -0.00104709 0)
(-0.00378527 -0.00106709 0)
(-0.00356963 -0.00108698 0)
(-0.00335011 -0.00110528 0)
(-0.00312507 -0.00112139 0)
(-0.0028953 -0.00113659 0)
(-0.00266376 -0.00115103 0)
(-0.00243252 -0.00116396 0)
(-0.00219961 -0.00117585 0)
(-0.00195996 -0.0011852 0)
(-0.00171726 -0.00119323 0)
(-0.00147369 -0.00120385 0)
(-0.00123496 -0.00120609 0)
(-0.000990023 -0.00121609 0)
(-0.000741488 -0.00121797 0)
(-0.000495501 -0.00122253 0)
(-0.000244807 -0.00116621 0)
(-6.4251e-05 -0.000662139 0)
(-6.63285e-05 0.000776451 0)
(-0.000247007 0.00140295 0)
(-0.000496124 0.00147182 0)
(-0.000744439 0.0014679 0)
(-0.000992496 0.0014625 0)
(-0.001239 0.00145556 0)
(-0.00148429 0.00144703 0)
(-0.00172798 0.00143692 0)
(-0.00196972 0.00142527 0)
(-0.00220921 0.00141212 0)
(-0.00244625 0.0013975 0)
(-0.00268067 0.00138144 0)
(-0.00291231 0.00136398 0)
(-0.00314095 0.00134521 0)
(-0.00336635 0.00132523 0)
(-0.00358824 0.00130409 0)
(-0.00380636 0.00128178 0)
(-0.0040205 0.00125826 0)
(-0.00423044 0.00123341 0)
(-0.00443597 0.00120717 0)
(-0.00463686 0.0011795 0)
(-0.00483294 0.00115041 0)
(-0.00502403 0.00111999 0)
(-0.00521001 0.00108836 0)
(-0.00539074 0.00105567 0)
(-0.00556605 0.00102207 0)
(-0.00573568 0.000987689 0)
(-0.00589933 0.000952592 0)
(-0.00605673 0.000916793 0)
(-0.00620769 0.000880243 0)
(-0.00635215 0.00084286 0)
(-0.0064902 0.000804578 0)
(-0.00662196 0.000765381 0)
(-0.00674745 0.000725335 0)
(-0.00686653 0.000684569 0)
(-0.00697884 0.000643244 0)
(-0.00708393 0.000601482 0)
(-0.00718141 0.00055931 0)
(-0.00727112 0.000516662 0)
(-0.00735323 0.00047344 0)
(-0.00742816 0.00042954 0)
(-0.00749625 0.000384893 0)
(-0.00755758 0.000339618 0)
(-0.00761209 0.000294057 0)
(-0.00765929 0.000248451 0)
(-0.0076983 0.000202807 0)
(-0.00772882 0.000157295 0)
(-0.00775163 0.000112135 0)
(-0.00776703 6.68526e-05 0)
(-0.0077745 2.09188e-05 0)
(-0.00777478 -2.49333e-05 0)
(-0.00776883 -7.00371e-05 0)
(-0.00775444 -0.000115373 0)
(-0.00772966 -0.0001612 0)
(-0.00769763 -0.000205949 0)
(-0.00766032 -0.000250033 0)
(-0.00761417 -0.000295793 0)
(-0.00755914 -0.000342253 0)
(-0.00750007 -0.00038648 0)
(-0.00743458 -0.000429441 0)
(-0.00735642 -0.000473402 0)
(-0.00726961 -0.000516706 0)
(-0.00718085 -0.000557711 0)
(-0.00708586 -0.000598934 0)
(-0.00697955 -0.000641958 0)
(-0.00686678 -0.000684007 0)
(-0.00675043 -0.000723289 0)
(-0.00662525 -0.000762106 0)
(-0.00649046 -0.000802302 0)
(-0.00635206 -0.000842407 0)
(-0.00621006 -0.000880621 0)
(-0.00605876 -0.000917052 0)
(-0.00589841 -0.000952505 0)
(-0.00573386 -0.000987444 0)
(-0.00556523 -0.00102197 0)
(-0.0053899 -0.00105544 0)
(-0.00520895 -0.00108698 0)
(-0.00502391 -0.0011171 0)
(-0.00483279 -0.00114743 0)
(-0.00463495 -0.00117803 0)
(-0.00443411 -0.00120681 0)
(-0.00423201 -0.00123267 0)
(-0.00402464 -0.0012574 0)
(-0.00380858 -0.00128268 0)
(-0.00358683 -0.00130697 0)
(-0.00336479 -0.00132813 0)
(-0.00314296 -0.00134711 0)
(-0.0029163 -0.00136552 0)
(-0.00268207 -0.00138246 0)
(-0.0024445 -0.00139782 0)
(-0.00220638 -0.00141196 0)
(-0.00196727 -0.00142314 0)
(-0.00173043 -0.00143598 0)
(-0.00148573 -0.00144364 0)
(-0.00123742 -0.00145537 0)
(-0.000994146 -0.00145668 0)
(-0.000749031 -0.00146791 0)
(-0.000497609 -0.00147038 0)
(-0.000244614 -0.00140585 0)
(-6.31309e-05 -0.000798582 0)
(-6.69558e-05 0.000912046 0)
(-0.000248777 0.00164049 0)
(-0.000499547 0.00172034 0)
(-0.000749428 0.00171597 0)
(-0.000999156 0.00170978 0)
(-0.00124737 0.00170174 0)
(-0.00149435 0.00169188 0)
(-0.00173969 0.00168025 0)
(-0.00198304 0.00166689 0)
(-0.00222412 0.00165181 0)
(-0.00246274 0.00163498 0)
(-0.00269872 0.00161641 0)
(-0.00293186 0.00159611 0)
(-0.00316195 0.00157416 0)
(-0.00338873 0.00155062 0)
(-0.00361197 0.00152555 0)
(-0.00383148 0.00149896 0)
(-0.00404705 0.00147082 0)
(-0.00425847 0.00144113 0)
(-0.00446549 0.0014099 0)
(-0.00466783 0.00137717 0)
(-0.00486527 0.00134303 0)
(-0.00505761 0.00130758 0)
(-0.0052447 0.00127095 0)
(-0.00542642 0.00123324 0)
(-0.00560262 0.00119451 0)
(-0.00577308 0.00115482 0)
(-0.00593757 0.00111417 0)
(-0.00609585 0.00107249 0)
(-0.00624775 0.00102974 0)
(-0.00639322 0.000985863 0)
(-0.00653229 0.000940852 0)
(-0.00666499 0.000894789 0)
(-0.0067913 0.00084782 0)
(-0.00691103 0.000800122 0)
(-0.00702385 0.000751854 0)
(-0.0071294 0.000703102 0)
(-0.0072274 0.000653828 0)
(-0.00731773 0.000603897 0)
(-0.00740057 0.000553195 0)
(-0.00747629 0.000501688 0)
(-0.00754512 0.000449372 0)
(-0.00760692 0.000396385 0)
(-0.00766155 0.00034316 0)
(-0.00770875 0.000290066 0)
(-0.00774773 0.000236972 0)
(-0.00777801 0.000183811 0)
(-0.00780063 0.000130999 0)
(-0.00781642 7.83164e-05 0)
(-0.00782428 2.48228e-05 0)
(-0.00782406 -2.89717e-05 0)
(-0.00781767 -8.16526e-05 0)
(-0.00780379 -0.000134073 0)
(-0.00777901 -0.000187662 0)
(-0.00774593 -0.000240873 0)
(-0.00770886 -0.000292607 0)
(-0.00766415 -0.000345282 0)
(-0.00760851 -0.000399479 0)
(-0.00754707 -0.000451805 0)
(-0.00748106 -0.000501475 0)
(-0.00740373 -0.000551541 0)
(-0.00731595 -0.00060254 0)
(-0.00722549 -0.000652253 0)
(-0.00713088 -0.00070077 0)
(-0.00702569 -0.000749735 0)
(-0.0069118 -0.000798666 0)
(-0.00679307 -0.000846208 0)
(-0.00666721 -0.000892566 0)
(-0.00653361 -0.000938514 0)
(-0.00639558 -0.000984149 0)
(-0.00625134 -0.00102918 0)
(-0.00609657 -0.00107274 0)
(-0.00593482 -0.00111381 0)
(-0.00577187 -0.00115313 0)
(-0.00560429 -0.00119289 0)
(-0.00542596 -0.00123323 0)
(-0.00524023 -0.00127148 0)
(-0.00505432 -0.00130641 0)
(-0.00486671 -0.00134032 0)
(-0.00467048 -0.00137525 0)
(-0.00446513 -0.00140959 0)
(-0.00425663 -0.00144088 0)
(-0.0040477 -0.0014695 0)
(-0.00383484 -0.00149714 0)
(-0.00361508 -0.00152371 0)
(-0.00339025 -0.00154852 0)
(-0.00316246 -0.00157189 0)
(-0.00293065 -0.00159323 0)
(-0.00269606 -0.00161221 0)
(-0.00246202 -0.00163095 0)
(-0.00222493 -0.00164821 0)
(-0.00198398 -0.00166299 0)
(-0.00173776 -0.00167995 0)
(-0.00149307 -0.00168743 0)
(-0.00124799 -0.00170065 0)
(-0.00100256 -0.00170626 0)
(-0.000755182 -0.00171616 0)
(-0.000500809 -0.00171842 0)
(-0.00024798 -0.0016452 0)
(-6.41953e-05 -0.000935388 0)
(-6.75587e-05 0.00104831 0)
(-0.000250522 0.00187985 0)
(-0.000503239 0.00197095 0)
(-0.000755002 0.00196613 0)
(-0.00100673 0.00195912 0)
(-0.0012569 0.00194997 0)
(-0.00150578 0.00193878 0)
(-0.00175297 0.0019256 0)
(-0.00199817 0.00191046 0)
(-0.00224112 0.00189331 0)
(-0.00248164 0.0018741 0)
(-0.00271953 0.00185282 0)
(-0.00295455 0.00182949 0)
(-0.00318644 0.00180418 0)
(-0.00341496 0.00177696 0)
(-0.00363991 0.00174791 0)
(-0.0038611 0.00171706 0)
(-0.00407833 0.00168445 0)
(-0.00429137 0.00165013 0)
(-0.00449993 0.00161416 0)
(-0.00470373 0.00157664 0)
(-0.00490252 0.00153766 0)
(-0.0050961 0.00149733 0)
(-0.00528435 0.00145571 0)
(-0.00546718 0.00141285 0)
(-0.00564446 0.00136876 0)
(-0.00581602 0.00132344 0)
(-0.00598166 0.00127685 0)
(-0.00614115 0.00122892 0)
(-0.00629432 0.00117962 0)
(-0.00644104 0.00112898 0)
(-0.00658127 0.00107706 0)
(-0.00671499 0.00102404 0)
(-0.00684212 0.000970115 0)
(-0.0069625 0.00091549 0)
(-0.00707586 0.000860285 0)
(-0.00718196 0.000804539 0)
(-0.00728062 0.000748168 0)
(-0.00737175 0.00069099 0)
(-0.00745544 0.000632884 0)
(-0.00753198 0.000573921 0)
(-0.00760155 0.000514213 0)
(-0.0076638 0.000453858 0)
(-0.00771841 0.000393255 0)
(-0.00776548 0.00033292 0)
(-0.00780455 0.00027267 0)
(-0.00783479 0.000212015 0)
(-0.00785712 0.00015139 0)
(-0.0078732 9.11602e-05 0)
(-0.00788179 3.02322e-05 0)
(-0.00788126 -3.15928e-05 0)
(-0.00787393 -9.23955e-05 0)
(-0.00786045 -0.000152133 0)
(-0.00783646 -0.000213094 0)
(-0.00780257 -0.000274749 0)
(-0.00776473 -0.000334801 0)
(-0.00772104 -0.000394472 0)
(-0.00766567 -0.000455539 0)
(-0.00760207 -0.00051581 0)
(-0.00753431 -0.000573474 0)
(-0.00745749 -0.000630542 0)
(-0.00737032 -0.000688542 0)
(-0.00727908 -0.00074642 0)
(-0.00718334 -0.000803479 0)
(-0.00707745 -0.000859745 0)
(-0.00696325 -0.000914691 0)
(-0.00684433 -0.000968616 0)
(-0.00671755 -0.00102273 0)
(-0.00658204 -0.00107646 0)
(-0.00644273 -0.00112793 0)
(-0.00629866 -0.00117727 0)
(-0.00614339 -0.00122627 0)
(-0.00597879 -0.00127496 0)
(-0.00581295 -0.00132186 0)
(-0.00564532 -0.00136678 0)
(-0.00546849 -0.00141087 0)
(-0.00528214 -0.00145445 0)
(-0.00509275 -0.00149684 0)
(-0.00490163 -0.00153757 0)
(-0.00470422 -0.00157641 0)
(-0.00449974 -0.00161318 0)
(-0.00429192 -0.00164848 0)
(-0.0040809 -0.00168306 0)
(-0.00386279 -0.00171584 0)
(-0.00363821 -0.00174529 0)
(-0.00341298 -0.00177249 0)
(-0.00318767 -0.00179934 0)
(-0.00295662 -0.00182495 0)
(-0.00271978 -0.00184893 0)
(-0.00248049 -0.00187155 0)
(-0.00223843 -0.00188951 0)
(-0.00199902 -0.00190677 0)
(-0.00175488 -0.0019225 0)
(-0.00150643 -0.00193883 0)
(-0.00125625 -0.00194733 0)
(-0.00100966 -0.00195717 0)
(-0.000761193 -0.00196319 0)
(-0.00050562 -0.00196884 0)
(-0.000251493 -0.0018824 0)
(-6.64685e-05 -0.00107315 0)
(-6.79454e-05 0.00118552 0)
(-0.000252178 0.00212196 0)
(-0.000507201 0.00222452 0)
(-0.000761262 0.00221901 0)
(-0.00101531 0.00221098 0)
(-0.0012677 0.00220055 0)
(-0.00151872 0.00218783 0)
(-0.00176801 0.00217289 0)
(-0.00201533 0.00215572 0)
(-0.00226047 0.00213624 0)
(-0.00250323 0.00211442 0)
(-0.00274333 0.00209026 0)
(-0.00298051 0.0020638 0)
(-0.00321448 0.00203515 0)
(-0.00344499 0.00200438 0)
(-0.00367187 0.00197157 0)
(-0.00389494 0.00193675 0)
(-0.00411399 0.0019 0)
(-0.00432877 0.00186136 0)
(-0.00453898 0.00182093 0)
(-0.00474433 0.00177878 0)
(-0.00494458 0.00173501 0)
(-0.00513956 0.00168967 0)
(-0.00532918 0.00164279 0)
(-0.00551336 0.0015944 0)
(-0.00569202 0.00154451 0)
(-0.005865 0.00149309 0)
(-0.0060321 0.00144013 0)
(-0.00619307 0.00138561 0)
(-0.00634769 0.00132957 0)
(-0.00649579 0.00127208 0)
(-0.00663723 0.00121329 0)
(-0.00677194 0.00115341 0)
(-0.00689985 0.00109268 0)
(-0.00702086 0.00103125 0)
(-0.0071348 0.000969188 0)
(-0.00724152 0.000906473 0)
(-0.00734095 0.000843011 0)
(-0.00743302 0.000778622 0)
(-0.00751764 0.000713179 0)
(-0.00759496 0.000646845 0)
(-0.00766518 0.000579901 0)
(-0.00772788 0.000512396 0)
(-0.00778249 0.000444508 0)
(-0.00782933 0.000376827 0)
(-0.00786864 0.000309332 0)
(-0.00789929 0.00024112 0)
(-0.00792148 0.000172327 0)
(-0.00793758 0.000104014 0)
(-0.00794703 3.54913e-05 0)
(-0.00794669 -3.42798e-05 0)
(-0.00793821 -0.000103549 0)
(-0.00792449 -0.00017114 0)
(-0.00790162 -0.000239351 0)
(-0.00786763 -0.00030892 0)
(-0.00782858 -0.000377376 0)
(-0.00778489 -0.000444607 0)
(-0.00772984 -0.000512509 0)
(-0.00766501 -0.00058012 0)
(-0.00759579 -0.00064587 0)
(-0.0075188 -0.000711072 0)
(-0.00743183 -0.000776821 0)
(-0.00734043 -0.000842136 0)
(-0.00724421 -0.000906643 0)
(-0.0071369 -0.000970532 0)
(-0.00702067 -0.00103278 0)
(-0.00690111 -0.00109308 0)
(-0.00677506 -0.00115316 0)
(-0.0066388 -0.00121354 0)
(-0.0064964 -0.00127216 0)
(-0.00634968 -0.00132783 0)
(-0.00619425 -0.00138206 0)
(-0.00603041 -0.00143643 0)
(-0.00586369 -0.00149041 0)
(-0.0056933 -0.00154273 0)
(-0.00551363 -0.00159289 0)
(-0.0053262 -0.00164131 0)
(-0.00513744 -0.00168872 0)
(-0.00494629 -0.00173529 0)
(-0.00474609 -0.00178002 0)
(-0.0045372 -0.00182193 0)
(-0.00432651 -0.00186157 0)
(-0.00411506 -0.00190001 0)
(-0.00389707 -0.00193689 0)
(-0.00367173 -0.00197162 0)
(-0.0034443 -0.00200474 0)
(-0.00321491 -0.00203546 0)
(-0.00298025 -0.00206255 0)
(-0.00274267 -0.00208852 0)
(-0.0025026 -0.00211336 0)
(-0.00226014 -0.0021337 0)
(-0.00201697 -0.00215509 0)
(-0.00176982 -0.00216985 0)
(-0.0015179 -0.00218806 0)
(-0.00126633 -0.00219587 0)
(-0.00101843 -0.00221071 0)
(-0.000766853 -0.00221422 0)
(-0.000509753 -0.00222227 0)
(-0.000253114 -0.00212205 0)
(-6.84107e-05 -0.00121279 0)
(-6.8147e-05 0.00132398 0)
(-0.000254045 0.00236724 0)
(-0.000511736 0.00248123 0)
(-0.000768541 0.00247466 0)
(-0.00102519 0.00246532 0)
(-0.00128005 0.00245337 0)
(-0.00153343 0.00243892 0)
(-0.00178509 0.002422 0)
(-0.00203482 0.00240259 0)
(-0.00228242 0.00238062 0)
(-0.00252763 0.0023561 0)
(-0.00277015 0.00232905 0)
(-0.00300966 0.00229957 0)
(-0.00324586 0.00226773 0)
(-0.00347855 0.00223362 0)
(-0.00370754 0.00219727 0)
(-0.00393267 0.00215872 0)
(-0.00415372 0.00211801 0)
(-0.00437044 0.00207519 0)
(-0.00458251 0.00203032 0)
(-0.00478965 0.00198347 0)
(-0.00499164 0.00193469 0)
(-0.00518832 0.00188403 0)
(-0.00537962 0.00183154 0)
(-0.00556546 0.00177726 0)
(-0.00574577 0.00172122 0)
(-0.0059204 0.00166347 0)
(-0.00608914 0.00160404 0)
(-0.00625171 0.00154296 0)
(-0.00640785 0.00148031 0)
(-0.00655732 0.0014162 0)
(-0.00669994 0.0013508 0)
(-0.0068356 0.0012843 0)
(-0.00696429 0.00121689 0)
(-0.00708599 0.0011487 0)
(-0.00720064 0.00107972 0)
(-0.00730813 0.00100986 0)