/*--------------------------------*- C++ -*----------------------------------*\
| =========                 |                                                 |
| \\      /  F ield         | OpenFOAM: The Open Source CFD Toolbox           |
|  \\    /   O peration     | Version:  2212                                  |
|   \\  /    A nd           | Website:  www.openfoam.com                      |
|    \\/     M anipulation  |                                                 |
\*---------------------------------------------------------------------------*/
FoamFile
{
    version     2.0;
    format      ascii;
    arch        "LSB;label=32;scalar=64";
    class       volScalarField;
    location    "0.0715";
    object      p;
}
// * * * * * * * * * * * * * * * * * * * * * * * * * * * * * * * * * * * * * //

dimensions      [0 2 -2 0 0 0 0];

internalField   nonuniform List<scalar> 
10000
(
-2.92067e-07
0.000122265
-4.77596e-05
-0.000571612
-0.00140687
-0.00249501
-0.00377922
-0.00520603
-0.00672695
-0.00829954
-0.00988642
-0.0114552
-0.0129776
-0.0144291
-0.0157885
-0.0170374
-0.0181605
-0.0191444
-0.019978
-0.0206521
-0.0211592
-0.0214934
-0.0216502
-0.0216264
-0.0214199
-0.0210299
-0.0204565
-0.0197008
-0.0187647
-0.0176509
-0.0163629
-0.0149048
-0.0132813
-0.011498
-0.00956043
-0.00747513
-0.00524892
-0.00288914
-0.000403575
0.00219969
0.00491224
0.00772524
0.0106295
0.0136156
0.0166738
0.0197941
0.0229663
0.02618
0.0294249
0.0326903
0.0359653
0.0392389
0.0425002
0.045738
0.0489416
0.0521001
0.0552024
0.0582377
0.0611952
0.0640643
0.0668349
0.0694971
0.0720411
0.0744574
0.0767369
0.0788711
0.0808521
0.0826724
0.0843254
0.0858049
0.0871054
0.088222
0.089151
0.0898895
0.0904356
0.0907886
0.0909488
0.0909179
0.0906985
0.0902948
0.0897125
0.0889588
0.0880427
0.086975
0.0857686
0.0844384
0.0830018
0.0814784
0.079891
0.0782653
0.0766303
0.0750194
0.0734698
0.0720237
0.0707281
0.069634
0.0687935
0.0682568
0.0680654
0.0681699
-5.74965e-05
6.2719e-05
-0.000110715
-0.000582086
-0.00130489
-0.00223977
-0.00334549
-0.00457977
-0.00590264
-0.00727749
-0.00867127
-0.0100546
-0.0114014
-0.0126886
-0.0138963
-0.0150067
-0.0160048
-0.0168777
-0.0176144
-0.0182055
-0.0186437
-0.0189226
-0.0190376
-0.0189853
-0.0187633
-0.0183703
-0.017806
-0.0170713
-0.0161675
-0.015097
-0.0138629
-0.0124688
-0.010919
-0.00921834
-0.00737225
-0.00538663
-0.00326787
-0.00102284
0.00134117
0.00381653
0.00639537
0.00906933
0.0118297
0.0146675
0.0175735
0.0205382
0.0235521
0.0266053
0.0296879
0.0327897
0.0359004
0.0390096
0.0421068
0.0451816
0.0482238
0.051223
0.0541687
0.0570507
0.0598589
0.0625833
0.0652143
0.0677425
0.0701589
0.0724545
0.0746209
0.0766502
0.0785349
0.0802683
0.0818442
0.083257
0.0845018
0.0855741
0.0864708
0.0871892
0.0877281
0.0880871
0.0882669
0.0882693
0.0880974
0.0877554
0.0872491
0.0865859
0.0857746
0.0848259
0.0837524
0.0825685
0.0812909
0.0799383
0.0785321
0.0770963
0.0756577
0.0742461
0.0728946
0.0716393
0.0705191
0.0695741
0.0688424
0.0683591
0.0681693
0.0682743
0.000205605
0.000309823
0.00012432
-0.000324438
-0.000986181
-0.00182977
-0.00282235
-0.00392908
-0.00511612
-0.00635171
-0.00760666
-0.00885426
-0.0100706
-0.0112345
-0.0123269
-0.0133312
-0.014233
-0.0150197
-0.0156806
-0.0162066
-0.0165903
-0.0168256
-0.0169074
-0.0168324
-0.016598
-0.0162027
-0.015646
-0.0149282
-0.0140506
-0.0130153
-0.0118248
-0.0104826
-0.00899265
-0.00735931
-0.0055877
-0.00368332
-0.00165219
0.000499196
0.00276395
0.00513488
0.00760449
0.0101648
0.0128076
0.0155241
0.0183057
0.0211434
0.0240279
0.0269499
0.0298998
0.0328679
0.0358445
0.0388194
0.0417829
0.0447248
0.0476354
0.0505048
0.0533231
0.0560804
0.0587671
0.0613739
0.0638915
0.0663112
0.0686242
0.070822
0.0728969
0.0748413
0.0766482
0.0783115
0.0798254
0.0811845
0.0823844
0.0834211
0.0842917
0.084994
0.085527
0.0858906
0.0860857
0.0861143
0.0859796
0.0856859
0.085239
0.0846461
0.083916
0.0830591
0.0820875
0.0810151
0.0798577
0.0786331
0.0773612
0.0760643
0.0747668
0.0734958
0.0722807
0.0711528
0.0701451
0.0692914
0.0686225
0.0681678
0.0679787
0.0680838
0.000812681
0.00084918
0.000623909
0.000167448
-0.000473788
-0.00127213
-0.00219964
-0.00322643
-0.00432338
-0.00546277
-0.00661867
-0.00776709
-0.00888627
-0.00995654
-0.0109604
-0.0118822
-0.0127083
-0.0134267
-0.0140273
-0.0145012
-0.0148411
-0.015041
-0.0150961
-0.0150027
-0.0147584
-0.0143614
-0.0138113
-0.0131081
-0.0122528
-0.0112472
-0.0100938
-0.00879564
-0.00735634
-0.00578014
-0.00407177
-0.00223644
-0.000279835
0.00179188
0.00397217
0.00625422
0.00863084
0.0110944
0.0136369
0.0162501
0.0189258
0.0216552
0.0244295
0.0272398
0.0300767
0.0329311
0.0357935
0.0386544
0.0415041
0.0443332
0.0471321
0.0498914
0.0526016
0.0552533
0.0578373
0.0603446
0.0627665
0.0650944
0.0673201
0.0694356
0.0714334
0.0733063
0.075048
0.0766525
0.0781142
0.0794283
0.0805906
0.0815974
0.082446
0.0831346
0.0836623
0.0840292
0.0842364
0.0842859
0.0841808
0.0839257
0.0835261
0.0829891
0.0823231
0.0815383
0.0806461
0.0796598
0.0785943
0.0774663
0.0762942
0.0750986
0.073902
0.0727285
0.0716044
0.0705574
0.0696162
0.06881
0.068166
0.0677113
0.0674947
0.0675493
0.00171192
0.00163082
0.00133424
0.000844649
0.000197057
-0.000584059
-0.00147436
-0.00244835
-0.00348104
-0.00454827
-0.0056272
-0.00669656
-0.00773664
-0.00872953
-0.00965916
-0.010511
-0.0112724
-0.0119321
-0.0124802
-0.0129086
-0.0132103
-0.0133792
-0.0134109
-0.0133017
-0.013049
-0.0126512
-0.0121075
-0.011418
-0.0105836
-0.00960588
-0.00848701
-0.0072298
-0.00583764
-0.00431454
-0.00266496
-0.00089384
0.000993445
0.00299107
0.00509281
0.00729216
0.00958224
0.0119557
0.0144048
0.016922
0.019499
0.0221277
0.0247995
0.0275058
0.0302377
0.0329864
0.0357427
0.0384976
0.0412418
0.0439661
0.0466614
0.0493186
0.0519287
0.0544826
0.0569715
0.0593869
0.0617202
0.0639634
0.0661086
0.0681481
0.0700748
0.0718821
0.0735637
0.0751139
0.0765277
0.0778004
0.0789279
0.079907
0.0807353
0.0814109
0.0819333
0.0823026
0.0825199
0.0825873
0.0825081
0.0822863
0.0819277
0.0814389
0.0808281
0.0801049
0.0792803
0.0783665
0.0773777
0.0763292
0.0752382
0.0741234
0.073005
0.071905
0.0708465
0.0698537
0.0689519
0.0681661
0.0675205
0.0670395
0.0667614
0.0667113
0.00285637
0.00262035
0.00222519
0.0016795
0.00100179
0.000213519
-0.000663916
-0.0016091
-0.00260058
-0.00361749
-0.00463984
-0.00564885
-0.00662692
-0.0075579
-0.00842716
-0.0092214
-0.00992881
-0.0105391
-0.011043
-0.0114327
-0.0117017
-0.0118443
-0.011856
-0.0117335
-0.0114741
-0.0110763
-0.0105392
-0.00986286
-0.00904802
-0.00809612
-0.00700918
-0.00578981
-0.00444117
-0.00296708
-0.00137176
0.000340138
0.00216348
0.00409278
0.0061221
0.00824515
0.0104553
0.0127456
0.0151086
0.0175371
0.0200232
0.022559
0.0251363
0.0277467
0.0303818
0.0330331
0.0356918
0.0383491
0.0409962
0.0436241
0.0462242
0.0487876
0.0513058
0.05377
0.0561718
0.0585029
0.0607552
0.0629208
0.0649923
0.0669625
0.0688244
0.0705717
0.0721984
0.0736992
0.0750692
0.0763039
0.0773997
0.0783534
0.0791628
0.0798262
0.0803431
0.0807137
0.0809392
0.0810216
0.080964
0.0807705
0.0804465
0.0799984
0.0794339
0.0787621
0.0779932
0.0771388
0.076212
0.0752269
0.0741992
0.0731458
0.0720851
0.0710365
0.0700205
0.0690583
0.0681716
0.067382
0.0667109
0.0661799
0.0658115
0.0656174
0.00419716
0.00378166
0.00326708
0.00264563
0.00191722
0.00110047
0.000214168
-0.000723649
-0.00169485
-0.00268157
-0.00366637
-0.00463271
-0.00556512
-0.00644912
-0.00727144
-0.0080201
-0.00868431
-0.0092545
-0.00972224
-0.0100802
-0.0103223
-0.0104432
-0.0104386
-0.0103054
-0.0100412
-0.00964428
-0.00911391
-0.00845011
-0.00765353
-0.00672546
-0.00566779
-0.00448302
-0.00317415
-0.00174478
-0.00019897
0.00145891
0.003224
0.00509104
0.00705435
0.00910783
0.0112451
0.0134596
0.0157442
0.0180918
0.0204951
0.0229463
0.0254375
0.0279606
0.0305076
0.0330703
0.0356402
0.0382089
0.0407677
0.0433082
0.0458218
0.0483003
0.0507352
0.0531183
0.0554413
0.0576962
0.0598752
0.0619709
0.0639759
0.0658835
0.067687
0.0693803
0.0709576
0.0724139
0.0737444
0.074945
0.0760121
0.0769427
0.0777347
0.0783866
0.0788979
0.0792688
0.0795004
0.0795947
0.0795547
0.0793843
0.0790885
0.0786734
0.0781463
0.0775157
0.0767911
0.0759833
0.0751042
0.0741668
0.0731854
0.0721753
0.0711529
0.0701354
0.0691408
0.0681876
0.0672944
0.0664795
0.0657619
0.0651604
0.0646797
0.0643156
0.00568762
0.00507786
0.00442865
0.00371584
0.00291997
0.00205703
0.00114374
0.000195032
-0.000773931
-0.00174784
-0.00271172
-0.00365114
-0.00455245
-0.00540285
-0.0061905
-0.00690464
-0.0075355
-0.00807432
-0.00851345
-0.00884617
-0.00906675
-0.00917036
-0.00915307
-0.00901185
-0.00874442
-0.00834933
-0.00782589
-0.0071741
-0.00639455
-0.00548844
-0.00445759
-0.0033044
-0.00203175
-0.000643083
0.000857751
0.0024666
0.00417885
0.00598942
0.00789277
0.00988309
0.0119543
0.0141
0.0163135
0.0185879
0.020916
0.0232905
0.0257037
0.0281478
0.0306151
0.0330976
0.0355872
0.0380757
0.0405549
0.0430163
0.045452
0.0478539
0.0502139
0.0525239
0.0547761
0.0569625
0.0590757
0.0611086
0.0630541
0.0649057
0.0666569
0.0683019
0.069835
0.0712515
0.0725467
0.0737166
0.0747578
0.0756675
0.0764436
0.0770847
0.0775902
0.0779603
0.0781962
0.0782996
0.0782733
0.078121
0.0778475
0.0774584
0.0769605
0.0763617
0.0756709
0.0748978
0.0740535
0.0731498
0.0721996
0.0712165
0.0702153
0.0692111
0.0682197
0.067257
0.0663387
0.0654805
0.0646992
0.064011
0.063402
0.0628519
0.00728616
0.0064741
0.00568011
0.00486408
0.00398736
0.00306387
0.00210859
0.00113369
0.000151707
-0.000824373
-0.00178178
-0.00270805
-0.00359121
-0.00442002
-0.00518404
-0.00587367
-0.00648014
-0.00699558
-0.00741308
-0.00772652
-0.00793067
-0.00802116
-0.0079944
-0.00784758
-0.00757865
-0.00718632
-0.00667001
-0.00602973
-0.00526604
-0.00438014
-0.00337381
-0.00224935
-0.00100959
0.000342219
0.00180242
0.00336702
0.00503154
0.00679109
0.00864032
0.0105736
0.0125852
0.0146689
0.0168183
0.0190267
0.0212871
0.0235924
0.0259353
0.0283083
0.0307038
0.0331143
0.0355318
0.0379483
0.0403559
0.0427465
0.0451124
0.0474457
0.0497387
0.0519835
0.0541723
0.0562976
0.0583523
0.0603292
0.0622219
0.0640236
0.0657284
0.0673305
0.0688245
0.0702055
0.0714693
0.072612
0.0736301
0.074521
0.0752825
0.0759135
0.0764131
0.0767817
0.07702
0.0771298
0.0771137
0.0769752
0.0767184
0.0763488
0.0758726
0.0752971
0.0746304
0.0738815
0.0730603
0.0721777
0.0712451
0.0702749
0.0692799
0.0682736
0.0672696
0.0662816
0.0653231
0.0644067
0.0635478
0.0627605
0.0620123
0.0612674
0.00895645
0.00793894
0.00699381
0.0060658
0.00509794
0.00410241
0.0030928
0.00207887
0.00107091
7.97645e-05
-0.000883722
-0.00180883
-0.00268525
-0.0035032
-0.00425349
-0.00492762
-0.00551786
-0.00601723
-0.00641949
-0.00671917
-0.0069116
-0.00699282
-0.00695961
-0.00680945
-0.00654059
-0.0061519
-0.00564288
-0.00501359
-0.00426465
-0.00339727
-0.00241324
-0.00131481
-0.000104667
0.00121402
0.00263774
0.00416265
0.00578439
0.00749819
0.00929891
0.0111812
0.0131394
0.0151676
0.0172596
0.0194089
0.0216087
0.0238523
0.0261324
0.0284419
0.0307735
0.0331197
0.0354729
0.0378253
0.0401692
0.0424969
0.0448009
0.0470735
0.0493071
0.051494
0.0536269
0.0556983
0.0577012
0.059629
0.0614751
0.0632331
0.0648971
0.0664616
0.0679212
0.0692712
0.0705074
0.0716261
0.0726238
0.073498
0.0742465
0.074868
0.0753618
0.0757279
0.0759671
0.076081
0.0760719
0.0759429
0.0756979
0.0753419
0.0748806
0.0743205
0.0736692
0.0729349
0.0721265
0.0712536
0.0703267
0.0693567
0.068355
0.0673332
0.0663032
0.0652768
0.0642651
0.0632785
0.0623312
0.0614355
0.0605411
0.0595974
0.010667
0.00944403
0.00834433
0.0072983
0.00623147
0.00515476
0.00408083
0.00301731
0.00197244
0.000955251
-2.5094e-05
-0.000959525
-0.00183923
-0.00265577
-0.00340111
-0.00406787
-0.00464927
-0.00513914
-0.00553198
-0.00582297
-0.00600795
-0.00608341
-0.00604652
-0.00589513
-0.00562775
-0.00524343
-0.00474176
-0.00412293
-0.00338765
-0.00253719
-0.00157329
-0.000498194
0.000685476
0.00197466
0.00336594
0.00485556
0.00643927
0.00811244
0.00987013
0.0117072
0.0136181
0.0155971
0.0176383
0.0197352
0.0218814
0.0240703
0.026295
0.0285484
0.0308235
0.033113
0.0354095
0.0377055
0.0399934
0.0422659
0.0445155
0.0467348
0.0489164
0.0510529
0.0531369
0.0551613
0.0571193
0.0590044
0.06081
0.0625302
0.064159
0.0656909
0.0671208
0.0684441
0.0696565
0.0707543
0.0717344
0.0725939
0.0733308
0.0739437
0.0744317
0.0747948
0.0750336
0.0751495
0.0751444
0.0750213
0.0747836
0.0744358
0.0739832
0.0734316
0.072788
0.0720596
0.0712545
0.0703815
0.0694498
0.068469
0.0674492
0.0664004
0.065333
0.0642569
0.0631815
0.0621152
0.0610711
0.0600605
0.0590158
0.0578727
0.0123909
0.0109643
0.00970857
0.0085406
0.00736903
0.00620409
0.00505781
0.00393601
0.00284512
0.00179263
0.000786153
-0.000166695
-0.00105843
-0.00188182
-0.00263001
-0.0032966
-0.00387572
-0.00436198
-0.00475065
-0.00503748
-0.00521885
-0.00529172
-0.00525369
-0.00510297
-0.00483827
-0.00445886
-0.00396454
-0.00335561
-0.00263289
-0.00179769
-0.000851788
0.000202593
0.00136289
0.0026261
0.00398885
0.00544745
0.00699776
0.00863531
0.0103553
0.0121527
0.0140222
0.0159582
0.0179548
0.0200059
0.0221053
0.0242465
0.0264228
0.0286273
0.0308531
0.0330933
0.0353405
0.0375875
0.0398269
0.0420516
0.0442542
0.0464276
0.0485644
0.0506574
0.0526995
0.0546837
0.0566033
0.0584519
0.0602232
0.0619112
0.0635101
0.0650145
0.0664193
0.06772
0.0689123
0.0699926
0.0709577
0.0718047
0.0725315
0.0731367
0.0736192
0.0739789
0.0742162
0.0743322
0.0743287
0.0742082
0.0739737
0.0736294
0.0731799
0.0726307
0.0719877
0.0712576
0.0704477
0.0695658
0.0686199
0.0676188
0.066571
0.0654854
0.0643709
0.063236
0.0620883
0.0609346
0.0597874
0.0586573
0.0574603
0.0561191
0.0141048
0.0124776
0.0110659
0.00977341
0.00849307
0.00723453
0.00600949
0.00482228
0.00367788
0.00258231
0.00154183
0.00056278
-0.000348522
-0.001186
-0.00194386
-0.00261662
-0.00319927
-0.0036872
-0.00407632
-0.00436301
-0.00454418
-0.00461731
-0.00458037
-0.0044319
-0.0041709
-0.00379684
-0.00330974
-0.00271006
-0.00199874
-0.00117715
-0.000247097
0.000789197
0.00192915
0.00316981
0.00450785
0.00593962
0.00746108
0.00906788
0.0107553
0.0125185
0.0143523
0.0162512
0.0182095
0.0202213
0.0222804
0.0243806
0.0265153
0.0286779
0.0308616
0.0330596
0.0352647
0.03747
0.0396682
0.0418522
0.0440151
0.0461496
0.0482487
0.0503052
0.0523121
0.0542626
0.0561502
0.0579685
0.0597113
0.0613727
0.062947
0.0644288
0.0658131
0.0670953
0.0682712
0.0693373
0.07029
0.0711267
0.0718451
0.0724436
0.072921
0.0732772
0.0735122
0.0736269
0.0736228
0.073502
0.0732673
0.0729223
0.072471
0.0719185
0.07127
0.0705316
0.0697096
0.068811
0.067843
0.0668131
0.065729
0.0645983
0.0634286
0.0622272
0.0610002
0.0597532
0.0584982
0.0572455
0.0558958
0.0543591
0.0157886
0.0139645
0.0123975
0.0109792
0.00958732
0.00823113
0.00692235
0.00566405
0.00445995
0.00331478
0.00223365
0.00122179
0.000284418
-0.000573416
-0.00134687
-0.00203135
-0.0026226
-0.00311679
-0.00351045
-0.00380056
-0.00398456
-0.00406038
-0.00402643
-0.00388155
-0.00362502
-0.00325657
-0.00277646
-0.00218531
-0.00148414
-0.000674429
0.000241943
0.00126273
0.00238537
0.00360688
0.00492396
0.006333
0.00783006
0.00941089
0.0110709
0.0128053
0.0146089
0.0164765
0.0184025
0.0203812
0.0224065
0.0244722
0.0265721
0.0286996
0.0308481
0.0330109
0.035181
0.0373516
0.0395156
0.0416662
0.0437963
0.0458989
0.0479671
0.0499938
0.0519721
0.0538955
0.0557573
0.0575513
0.0592714
0.0609118
0.0624666
0.0639307
0.0652989
0.0665667
0.06773
0.068785
0.0697282
0.0705569
0.0712686
0.0718616
0.0723347
0.0726874
0.0729195
0.0730317
0.0730253
0.0729018
0.0726639
0.0723145
0.0718573
0.0712966
0.0706373
0.0698846
0.0690442
0.0681222
0.0671251
0.0660594
0.0649317
0.0637488
0.0625171
0.0612428
0.059931
0.058586
0.0572199
0.0558427
0.0543406
0.0526117
0.0174245
0.0154075
0.0136867
0.0121421
0.0106367
0.00917998
0.00778362
0.00644968
0.00518074
0.00398059
0.00285328
0.00180303
0.000834025
-4.95446e-05
-0.000843687
-0.00154464
-0.00214892
-0.00265336
-0.0030551
-0.00335168
-0.00354112
-0.00362176
-0.00359236
-0.00345208
-0.00320059
-0.00283788
-0.00236436
-0.00178083
-0.00108849
-0.000288916
0.000615978
0.0016239
0.00273221
0.00393792
0.00523775
0.00662814
0.00810521
0.00966476
0.0113023
0.013013
0.014792
0.016634
0.0185337
0.0204853
0.0224831
0.0245209
0.0265925
0.0286915
0.0308116
0.032946
0.035088
0.0372308
0.0393677
0.0414916
0.0435958
0.0456734
0.0477174
0.0497209
0.0516773
0.0535797
0.0554219
0.0571976
0.0589007
0.0605254
0.062066
0.0635172
0.0648738
0.0661315
0.0672858
0.068333
0.0692696
0.0700927
0.0707997
0.0713886
0.0718582
0.0722077
0.0724367
0.0725457
0.0725355
0.0724075
0.0721637
0.0718068
0.07134
0.070767
0.0700922
0.0693201
0.0684558
0.0675047
0.0664724
0.0653647
0.0641874
0.0629463
0.0616469
0.0602946
0.0588934
0.0574468
0.0559671
0.0544645
0.052811
0.0508934
0.0189971
0.0167913
0.0149185
0.0132475
0.0116275
0.010068
0.00858113
0.0071679
0.00583006
0.00457052
0.00339241
0.00229902
0.00129373
0.000379911
-0.000439281
-0.00116084
-0.00178192
-0.00229997
-0.00271282
-0.00301855
-0.00321558
-0.00330271
-0.0032791
-0.00314428
-0.00289818
-0.00254106
-0.00207356
-0.00149669
-0.000811747
-2.04307e-05
0.000875256
0.00187293
0.00296991
0.00416317
0.00544945
0.00682523
0.00828663
0.0098295
0.0114494
0.0131416
0.0149014
0.0167235
0.0186026
0.0205332
0.0225096
0.0245257
0.0265755
0.0286527
0.0307509
0.0328637
0.0349844
0.0371063
0.0392227
0.0413269
0.0434119
0.0454711
0.0474975
0.0494845
0.0514251
0.053313
0.0551416
0.0569049
0.0585967
0.0602111
0.0617426
0.0631857
0.0645353
0.0657869
0.0669361
0.067979
0.068912
0.0697319
0.0704362
0.0710227
0.07149
0.0718368
0.0720629
0.0721682
0.0721532
0.072019
0.0717674
0.0714004
0.0709209
0.0703321
0.0696378
0.0688419
0.0679491
0.0669639
0.0658913
0.0647364
0.0635042
0.0621998
0.060828
0.0593934
0.0578993
0.0563484
0.0547534
0.0531247
0.0513212
0.0492185
0.0204925
0.0181017
0.016079
0.014282
0.0125467
0.0108831
0.0093034
0.00780809
0.00639807
0.00507548
0.00384272
0.00270233
0.00165687
0.000708929
-0.000138987
-0.000884545
-0.00152561
-0.00206021
-0.00248671
-0.00280371
-0.00301011
-0.00310511
-0.00308823
-0.00295937
-0.00271877
-0.00236694
-0.00190476
-0.00133338
-0.000654278
0.000130724
0.00101951
0.0020096
0.00309827
0.00428246
0.0055589
0.00692406
0.00837408
0.00990486
0.011512
0.0131908
0.0149366
0.0167443
0.0186086
0.0205242
0.0224852
0.0244859
0.0265202
0.0285819
0.0306648
0.0327626
0.0348686
0.0369764
0.0390791
0.0411701
0.0432427
0.0452901
0.0473055
0.0492823
0.0512136
0.0530931
0.0549142
0.0566709
0.058357
0.0599666
0.061494
0.0629339
0.0642811
0.0655309
0.0666788
0.0677208
0.0686533
0.0694729
0.0701768
0.0707627
0.0712289
0.0715741
0.0717975
0.071899
0.0718786
0.0717372
0.0714761
0.071097
0.0706023
0.0699947
0.0692775
0.0684542
0.0675288
0.0665052
0.065388
0.0641815
0.0628901
0.0615182
0.0600701
0.0585497
0.0569597
0.0553023
0.0535908
0.0518359
0.0498837
0.0475991
0.0218985
0.0193263
0.0171556
0.0152333
0.0133826
0.0116137
0.00993955
0.00835996
0.00687514
0.00548661
0.00419609
0.00300543
0.00191656
0.000931369
5.16768e-05
-0.000720795
-0.00138446
-0.00193798
-0.00238023
-0.00271026
-0.00292739
-0.00303125
-0.00302175
-0.00289912
-0.00266389
-0.00231684
-0.00185903
-0.00129185
-0.00061693
0.000163786
0.00104806
0.00203331
0.00311674
0.00429525
0.00556554
0.00692409
0.00836701
0.00989022
0.0114894
0.0131598
0.014897
0.0166957
0.0185509
0.0204571
0.0224088
0.0244002
0.0264252
0.0284779
0.030552
0.0326413
0.0347392
0.0368394
0.038935
0.0410196
0.0430862
0.0451284
0.0471393
0.0491123
0.0510406
0.0529178
0.0547375
0.0564934
0.0581794
0.0597896
0.0613182
0.0627598
0.0641092
0.0653614
0.0665121
0.0675569
0.0684921
0.0693142
0.0700202
0.0706075
0.0710743
0.071419
0.0716406
0.0717384
0.0717125
0.0715632
0.0712915
0.0708987
0.0703867
0.0697579
0.0690151
0.0681613
0.0671999
0.0661345
0.0649689
0.063707
0.0623527
0.0609098
0.0593821
0.0577731
0.0560849
0.0543194
0.0524904
0.0506094
0.0485098
0.0460463
0.0232041
0.0204537
0.0181368
0.01609
0.0141238
0.012249
0.0104792
0.00881364
0.00725196
0.00579513
0.00444436
0.00320087
0.00206593
0.00104085
0.000126905
-0.00067479
-0.00136324
-0.00193761
-0.00239723
-0.0027416
-0.00297048
-0.00308389
-0.00308214
-0.00296574
-0.0027355
-0.00239247
-0.00193797
-0.00137354
-0.000700992
7.75912e-05
0.000959829
0.00194304
0.00302434
0.0042006
0.00546848
0.0068244
0.00826449
0.00978466
0.0113806
0.0130477
0.0147814
0.0165766
0.0184282
0.020331
0.0222792
0.0242673
0.0262893
0.0283392
0.0304109
0.0324981
0.0345945
0.0366936
0.0387887
0.0408733
0.0429406
0.0449841
0.0469969
0.0489725
0.0509041
0.0527852
0.0546093
0.0563703
0.0580619
0.0596782
0.0612133
0.0626616
0.0640178
0.065277
0.0664345
0.0674859
0.0684272
0.0692549
0.0699656
0.0705568
0.0710261
0.0713717
0.0715924
0.0716872
0.0716559
0.0714984
0.0712154
0.0708077
0.070277
0.0696252
0.0688545
0.0679677
0.0669675
0.0658573
0.0646403
0.06332
0.0618997
0.0603828
0.0587728
0.0570728
0.0552845
0.0534095
0.0514623
0.0494552
0.0472094
0.0445695
0.0243991
0.0214735
0.019012
0.0168413
0.0147598
0.0127789
0.0109124
0.00915957
0.00751946
0.00599255
0.00457951
0.00328105
0.00209793
0.00103093
8.07218e-05
-0.000752087
-0.00146704
-0.00206372
-0.0025419
-0.00290157
-0.00314288
-0.00326623
-0.00327226
-0.00316181
-0.00293596
-0.00259603
-0.00214355
-0.00158025
-0.000908119
-0.000129422
0.000753341
0.00173739
0.00281976
0.00399726
0.00526648
0.00662379
0.00806532
0.00958699
0.0111845
0.0128533
0.0145886
0.0163857
0.0182393
0.0201443
0.022095
0.0240858
0.0261109
0.0281642
0.0302398
0.0323314
0.0344327
0.0365372
0.0386383
0.0407294
0.0428039
0.0448551
0.0468764
0.0488608
0.050802
0.0526931
0.0545278
0.0562998
0.0580027
0.0596306
0.0611774
0.0626375
0.0640054
0.0652761
0.0664447
0.0675067
0.0684578
0.0692943
0.0700128
0.0706102
0.0710841
0.0714325
0.0716536
0.0717465
0.0717103
0.0715447
0.0712501
0.0708269
0.0702765
0.0696002
0.0688
0.0678781
0.0668371
0.0656797
0.0644087
0.0630273
0.0615385
0.0599452
0.0582507
0.0564576
0.0545676
0.0525819
0.050516
0.0483828
0.0459916
0.0431773
0.0254744
0.0223757
0.0197712
0.0174774
0.0152808
0.0131934
0.0112297
0.00938864
0.00766884
0.0060704
0.00459351
0.00323846
0.00200552
0.000894945
-9.30934e-05
-0.000958472
-0.00170116
-0.00232119
-0.00281879
-0.00319437
-0.00344847
-0.00358182
-0.00359539
-0.00349034
-0.00326805
-0.00293006
-0.00247812
-0.00191416
-0.00124038
-0.000459194
0.000426775
0.00141465
0.00250137
0.00368363
0.00495798
0.00632074
0.00776802
0.00929575
0.0108996
0.012575
0.0143172
0.0161215
0.0179827
0.0198955
0.0218545
0.023854
0.0258882
0.0279513
0.030037
0.0321394
0.034252
0.0363684
0.0384819
0.0405861
0.0426743
0.0447397
0.0467757
0.0487755
0.0507324
0.0526398
0.0544911
0.05628
0.058
0.0596451
0.061209
0.0626861
0.0640708
0.0653576
0.0665418
0.0676184
0.0685832
0.0694321
0.0701614
0.070768
0.071249
0.0716021
0.0718254
0.0719175
0.0718773
0.0717043
0.0713982
0.0709593
0.0703885
0.0696868
0.0688559
0.0678975
0.0668139
0.0656073
0.0642804
0.0628359
0.0612764
0.0596047
0.0578236
0.0559358
0.0539427
0.0518453
0.0496601
0.0474006
0.0448648
0.0418774
0.0264209
0.0231512
0.0204049
0.0179887
0.0156772
0.0134831
0.0114219
0.00949187
0.00769143
0.00602034
0.00447844
0.00306555
0.00178152
0.000626108
-0.000400918
-0.00129988
-0.00207115
-0.00271524
-0.00323277
-0.00362453
-0.00389141
-0.00403452
-0.00405514
-0.00395472
-0.0037349
-0.00339747
-0.0029444
-0.00237784
-0.00170019
-0.000913998
-2.19972e-05
0.000972793
0.00206719
0.00325781
0.00454114
0.00591347
0.00737086
0.00890921
0.0105241
0.0122111
0.0139655
0.0157823
0.0176566
0.019583
0.0215561
0.0235702
0.0256197
0.0276985
0.0298008
0.0319202
0.0340505
0.0361851
0.0383176
0.0404414
0.0425496
0.0446358
0.0466929
0.0487144
0.0506935
0.0526234
0.0544975
0.0563093
0.0580523
0.0597202
0.0613068
0.0628063
0.0642127
0.0655207
0.066725
0.0678207
0.0688032
0.0696682
0.0704118
0.0710305
0.0715213
0.0718816
0.0721091
0.0722021
0.0721592
0.0719795
0.0716625
0.0712081
0.0706167
0.0698892
0.0690268
0.0680309
0.0669034
0.0656462
0.0642618
0.0627524
0.0611205
0.0593686
0.0574994
0.0555155
0.0534179
0.0512079
0.0489026
0.0465167
0.0438364
0.0406768
0.0272306
0.0237913
0.0209041
0.018366
0.0159398
0.0136391
0.01148
0.00946045
0.00757869
0.00583416
0.00422636
0.00275471
0.00141864
0.000217533
-0.000849251
-0.00178244
-0.00258283
-0.00325134
-0.00378896
-0.00419683
-0.00447623
-0.00462857
-0.00465546
-0.00455861
-0.00433994
-0.00400148
-0.00354545
-0.00297419
-0.00229028
-0.0014964
-0.00059543
0.000409458
0.00151496
0.00271763
0.00401389
0.00539996
0.00687185
0.00842542
0.0100563
0.0117599
0.0135315
0.0153663
0.0172591
0.0192048
0.0211978
0.0232325
0.0253032
0.0274041
0.029529
0.0316718
0.0338262
0.0359856
0.0381435
0.0402933
0.0424282
0.0445414
0.0466263
0.0486759
0.0506835
0.0526422
0.0545453
0.056386
0.0581579
0.0598546
0.0614696
0.0629968
0.0644303
0.0657644
0.0669937
0.068113
0.0691175
0.0700026
0.0707642
0.0713985
0.0719022
0.0722723
0.0725063
0.0726022
0.0725583
0.0723732
0.0720462
0.0715769
0.0709652
0.0702118
0.0693175
0.0682835
0.0671112
0.0658024
0.0643592
0.0627836
0.0610778
0.0592444
0.0572857
0.0552042
0.0530011
0.0506774
0.0482514
0.0457385
0.0429136
0.0395822
0.0278954
0.0242876
0.0212602
0.0186006
0.0160599
0.0136525
0.0113951
0.00928577
0.00732222
0.00550368
0.00382933
0.00229827
0.000909547
-0.000337784
-0.00144478
-0.00241253
-0.00324224
-0.00393519
-0.00449274
-0.00491639
-0.00520773
-0.00536851
-0.00540061
-0.00530604
-0.00508697
-0.0047457
-0.00428468
-0.00370643
-0.00301367
-0.00220928
-0.00129631
-0.000278036
0.000842121
0.00206063
0.00337383
0.00477788
0.00626871
0.00784214
0.00949378
0.011219
0.0130131
0.0148712
0.0167882
0.0187587
0.0207775
0.0228388
0.0249369
0.0270659
0.0292198
0.0313923
0.0335771
0.0357677
0.0379575
0.0401398
0.0423078
0.0444548
0.0465739
0.0486581
0.0507006
0.0526945
0.0546328
0.0565087
0.0583157
0.0600469
0.0616961
0.0632568
0.0647228
0.0660883
0.0673476
0.0684953
0.0695263
0.0704358
0.0712193
0.0718728
0.0723927
0.0727757
0.073019
0.0731201
0.0730771
0.0728884
0.0725527
0.0720694
0.0714381
0.0706592
0.069733
0.0686606
0.0674431
0.066082
0.064579
0.0629362
0.0611555
0.0592392
0.0571898
0.0550096
0.0526998
0.0502614
0.0477137
0.0450733
0.0421033
0.0385998
0.0284076
0.024632
0.0214648
0.0186838
0.0160287
0.0135145
0.0111588
0.00895933
0.00691365
0.00502069
0.00327938
0.00168852
0.000246833
-0.00104698
-0.00219433
-0.00319669
-0.00405562
-0.00477274
-0.00534977
-0.00578855
-0.00609098
-0.00625912
-0.00629514
-0.00620131
-0.00598011
-0.00563405
-0.00516579
-0.00457805
-0.00387372
-0.00305588
-0.00212771
-0.00109263
4.58426e-05
0.00128407
0.00261832
0.00404463
0.00555891
0.00715693
0.00883425
0.0105862
0.0124081
0.0142948
0.0162414
0.0182426
0.020293
0.0223868
0.0245183
0.0266816
0.0288707
0.0310793
0.0333009
0.0355292
0.0377574
0.0399788
0.0421865
0.0443738
0.0465337
0.0486591
0.050743
0.0527785
0.0547584
0.0566759
0.0585241
0.0602962
0.0619855
0.0635854
0.0650896
0.0664919
0.0677864
0.0689676
0.0700299
0.0709683
0.071778
0.0724547
0.0729945
0.0733937
0.0736493
0.0737584
0.0737187
0.0735282
0.0731856
0.0726897
0.0720399
0.0712361
0.0702785
0.0691678
0.0679049
0.0664911
0.0649279
0.063217
0.0613605
0.0593604
0.0572191
0.0549391
0.0525214
0.0499673
0.047297
0.044528
0.0414122
0.0377356
0.0287596
0.0248164
0.0215095
0.0186072
0.0158377
0.0132167
0.0107624
0.00847263
0.00634456
0.00437696
0.0025685
0.000917679
-0.000577046
-0.00191734
-0.00310493
-0.00414167
-0.00502942
-0.00577016
-0.00636597
-0.00681896
-0.00713136
-0.00730552
-0.0073439
-0.00724908
-0.00702376
-0.00667071
-0.00619277
-0.00559287
-0.00487411
-0.00403971
-0.00309301
-0.00203756
-0.000877002
0.000384929
0.00174439
0.00319737
0.00473969
0.00636706
0.00807501
0.00985881
0.0117136
0.0136345
0.0156164
0.017654
0.0197417
0.021874
0.0240451
0.0262489
0.0284795
0.0307305
0.0329955
0.0352679
0.037541
0.0398081
0.0420622
0.0442964
0.0465037
0.048677
0.050809
0.0528926
0.0549207
0.0568862
0.058782
0.0606011
0.0623367
0.0639819
0.0655301
0.0669749
0.0683102
0.0695301
0.0706288
0.0716009
0.0724414
0.0731456
0.0737093
0.0741284
0.0743996
0.0745198
0.0744861
0.0742965
0.0739489
0.0734421
0.0727752
0.0719476
0.0709594
0.0698109
0.0685028
0.0670362
0.0654124
0.063633
0.0616999
0.0596151
0.057381
0.0550001
0.0524735
0.0498025
0.0470084
0.0441097
0.0408467
0.0369958
0.0289437
0.0248328
0.0213862
0.0183625
0.0154784
0.0127504
0.0101975
0.00781719
0.00560659
0.00356424
0.0016886
-2.21195e-05
-0.00156977
-0.0029563
-0.00418378
-0.00525439
-0.00617032
-0.0069339
-0.00754747
-0.00801349
-0.00833448
-0.00851309
-0.00855208
-0.00845429
-0.00822267
-0.0078602
-0.00736995
-0.00675506
-0.00601881
-0.00516459
-0.00419589
-0.00311638
-0.00192984
-0.000640129
0.000748836
0.00223295
0.00380797
0.00546954
0.00721311
0.00903391
0.0109271
0.0128876
0.0149103
0.01699
0.0191211
0.0212979
0.0235146
0.0257652
0.0280436
0.0303434
0.0326582
0.0349813
0.037306
0.0396254
0.0419326
0.0442205
0.0464819
0.0487097
0.0508965
0.0530351
0.0551181
0.0571382
0.0590881
0.0609607
0.0627489
0.0644455
0.0660439
0.0675372
0.068919
0.0701832
0.0713236
0.0723346
0.0732108
0.0739471
0.074539
0.0749822
0.0752728
0.0754075
0.075383
0.0751969
0.0748469
0.0743313
0.073649
0.0727992
0.0717814
0.070596
0.0692432
0.067724
0.0660395
0.0641913
0.0621811
0.0600109
0.0576831
0.0552003
0.0525635
0.0497744
0.0468551
0.0438253
0.0404136
0.0363864
0.0289523
0.0246734
0.0210867
0.0179413
0.0149424
0.0121071
0.00945536
0.00698444
0.00469127
0.00257423
0.000631506
-0.0011389
-0.00273914
-0.00417146
-0.00543826
-0.00654201
-0.00748525
-0.00827058
-0.00890068
-0.00937829
-0.00970625
-0.00988751
-0.00992512
-0.00982215
-0.00958182
-0.00920732
-0.00870194
-0.00806904
-0.00731208
-0.00643461
-0.00544028
-0.0043329
-0.00311638
-0.00179467
-0.000371814
0.00114802
0.00276048
0.00446115
0.0062454
0.00810841
0.0100453
0.0120509
0.0141202
0.0162479
0.0184282
0.0206556
0.022924
0.0252277
0.0275602
0.0299153
0.0322864
0.0346668
0.0370498
0.0394283
0.0417953
0.0441437
0.0464662
0.0487554
0.0510039
0.0532042
0.0553489
0.0574304
0.0594412
0.0613739
0.0632212
0.0649758
0.0666306
0.0681786
0.069613
0.0709273
0.0721151
0.0731705
0.0740875
0.074861