/*--------------------------------*- C++ -*----------------------------------*\
| =========                 |                                                 |
| \\      /  F ield         | OpenFOAM: The Open Source CFD Toolbox           |
|  \\    /   O peration     | Version:  2212                                  |
|   \\  /    A nd           | Website:  www.openfoam.com                      |
|    \\/     M anipulation  |                                                 |
\*---------------------------------------------------------------------------*/
FoamFile
{
    version     2.0;
    format      ascii;
    arch        "LSB;label=32;scalar=64";
    class       surfaceScalarField;
    location    "0.0715";
    object      phi_0;
}
// * * * * * * * * * * * * * * * * * * * * * * * * * * * * * * * * * * * * * //

dimensions      [0 3 -1 0 0 0 0];

oriented        oriented;

internalField   nonuniform List<scalar> 
19800
(
6.90448e-11
-6.90441e-11
2.36381e-10
-1.67341e-10
4.20151e-10
-1.83772e-10
5.63852e-10
-1.43733e-10
6.35189e-10
-7.13289e-11
6.16259e-10
1.89383e-11
4.98135e-10
1.18123e-10
2.77562e-10
2.20579e-10
-4.5159e-11
3.22712e-10
-4.67355e-10
4.22202e-10
-9.84896e-10
5.17535e-10
-1.59261e-09
6.07714e-10
-2.28466e-09
6.92049e-10
-3.05477e-09
7.70113e-10
-3.89641e-09
8.4164e-10
-4.80288e-09
9.06469e-10
-5.76743e-09
9.64546e-10
-6.78329e-09
1.01586e-09
-7.84376e-09
1.06046e-09
-8.94217e-09
1.09842e-09
-1.0072e-08
1.12985e-09
-1.12269e-08
1.1549e-09
-1.24007e-08
1.17373e-09
-1.35871e-08
1.18649e-09
-1.47805e-08
1.19336e-09
-1.5975e-08
1.19452e-09
-1.71652e-08
1.19017e-09
-1.83457e-08
1.18051e-09
-1.95114e-08
1.16573e-09
-2.06574e-08
1.14605e-09
-2.17791e-08
1.12167e-09
-2.28719e-08
1.09279e-09
-2.39315e-08
1.05962e-09
-2.49539e-08
1.02238e-09
-2.59352e-08
9.81262e-10
-2.68717e-08
9.36487e-10
-2.77599e-08
8.88266e-10
-2.85967e-08
8.3681e-10
-2.93791e-08
7.82336e-10
-3.01041e-08
7.25057e-10
-3.07693e-08
6.65185e-10
-3.13722e-08
6.02936e-10
-3.19108e-08
5.38523e-10
-3.23829e-08
4.72166e-10
-3.2787e-08
4.04091e-10
-3.31215e-08
3.34517e-10
-3.33852e-08
2.63678e-10
-3.3577e-08
1.91805e-10
-3.36962e-08
1.19125e-10
-3.3742e-08
4.58779e-11
-3.37143e-08
-2.7698e-11
-3.3613e-08
-1.01365e-10
-3.34381e-08
-1.74867e-10
-3.31901e-08
-2.47951e-10
-3.28698e-08
-3.20373e-10
-3.24779e-08
-3.91873e-10
-3.20157e-08
-4.62182e-10
-3.14847e-08
-5.31042e-10
-3.08865e-08
-5.98187e-10
-3.02232e-08
-6.6334e-10
-2.94969e-08
-7.26231e-10
-2.87103e-08
-7.86596e-10
-2.78662e-08
-8.44154e-10
-2.69676e-08
-8.98627e-10
-2.60178e-08
-9.49749e-10
-2.50206e-08
-9.97247e-10
-2.39797e-08
-1.04085e-09
-2.28994e-08
-1.08029e-09
-2.17841e-08
-1.11532e-09
-2.06384e-08
-1.14568e-09
-1.94673e-08
-1.1711e-09
-1.82759e-08
-1.19136e-09
-1.70697e-08
-1.20623e-09
-1.58542e-08
-1.21548e-09
-1.46353e-08
-1.2189e-09
-1.3419e-08
-1.21631e-09
-1.22115e-08
-1.20752e-09
-1.10191e-08
-1.19237e-09
-9.84842e-09
-1.17072e-09
-8.70596e-09
-1.14245e-09
-7.59849e-09
-1.10747e-09
-6.53279e-09
-1.0657e-09
-5.51567e-09
-1.01712e-09
-4.55393e-09
-9.61736e-10
-3.65434e-09
-8.99595e-10
-2.82354e-09
-8.3081e-10
-2.06798e-09
-7.55555e-10
-1.39388e-09
-6.74104e-10
-8.07012e-10
-5.8686e-10
-3.12631e-10
-4.94384e-10
8.48338e-11
-3.97469e-10
3.82087e-10
-2.9725e-10
5.77464e-10
-1.95373e-10
6.71733e-10
-9.42712e-11
6.69353e-10
2.37479e-12
5.80497e-10
8.88572e-11
4.24202e-10
1.56302e-10
2.33774e-10
1.9043e-10
6.59266e-11
1.67847e-10
6.59295e-11
1.67581e-10
-2.36631e-10
4.59623e-10
-4.59393e-10
7.38693e-10
-4.62825e-10
9.055e-10
-3.10554e-10
8.91086e-10
-5.69152e-11
6.51233e-10
2.58795e-10
1.60202e-10
6.09147e-10
-5.94427e-10
9.75229e-10
-1.61575e-09
1.34403e-09
-2.90014e-09
1.70659e-09
-4.43928e-09
2.05667e-09
-6.22151e-09
2.38992e-09
-8.23279e-09
2.70332e-09
-1.04575e-08
2.99477e-09
-1.28787e-08
3.26288e-09
-1.54789e-08
3.50673e-09
-1.82402e-08
3.72581e-09
-2.11442e-08
3.9199e-09
-2.41727e-08
4.08898e-09
-2.73075e-08
4.23322e-09
-3.05306e-08
4.35292e-09
-3.38241e-08
4.44849e-09
-3.71708e-08
4.52041e-09
-4.05536e-08
4.56926e-09
-4.39559e-08
4.59564e-09
-4.73616e-08
4.60022e-09
-5.07551e-08
4.58367e-09
-5.41213e-08
4.54672e-09
-5.74457e-08
4.49011e-09
-6.07142e-08
4.4146e-09
-6.39135e-08
4.32096e-09
-6.70307e-08
4.20997e-09
-7.00535e-08
4.08243e-09
-7.29702e-08
3.93912e-09
-7.57698e-08
3.78085e-09
-7.84418e-08
3.60842e-09
-8.09761e-08
3.42266e-09
-8.33637e-08
3.22438e-09
-8.55958e-08
3.01439e-09
-8.76643e-08
2.79354e-09
-8.95617e-08
2.56266e-09
-9.12814e-08
2.32258e-09
-9.2817e-08
2.07415e-09
-9.41631e-08
1.81822e-09
-9.53146e-08
1.55566e-09
-9.62674e-08
1.28732e-09
-9.70178e-08
1.0141e-09
-9.7563e-08
7.36905e-10
-9.79005e-08
4.56634e-10
-9.80288e-08
1.74205e-10
-9.79471e-08
-1.09448e-10
-9.7655e-08
-3.93379e-10
-9.71533e-08
-6.76636e-10
-9.6443e-08
-9.58242e-10
-9.55261e-08
-1.23721e-09
-9.44055e-08
-1.51255e-09
-9.30844e-08
-1.78324e-09
-9.15672e-08
-2.04827e-09
-8.98588e-08
-2.3066e-09
-8.79649e-08
-2.55721e-09
-8.58921e-08
-2.79904e-09
-8.36477e-08
-3.03104e-09
-8.12397e-08
-3.25217e-09
-7.86769e-08
-3.46139e-09
-7.5969e-08
-3.65763e-09
-7.31264e-08
-3.83988e-09
-7.01601e-08
-4.00712e-09
-6.70821e-08
-4.15834e-09
-6.39049e-08
-4.29253e-09
-6.06418e-08
-4.40876e-09
-5.73068e-08
-4.50607e-09
-5.39146e-08
-4.58357e-09
-5.04804e-08
-4.64039e-09
-4.70202e-08
-4.67573e-09
-4.35503e-08
-4.68882e-09
-4.00876e-08
-4.67896e-09
-3.66496e-08
-4.6455e-09
-3.32541e-08
-4.58788e-09
-2.99192e-08
-4.50563e-09
-2.66633e-08
-4.39834e-09
-2.3505e-08
-4.26575e-09
-2.0463e-08
-4.1077e-09
-1.7556e-08
-3.92419e-09
-1.48023e-08
-3.71537e-09
-1.22203e-08
-3.48161e-09
-9.82762e-09
-3.22352e-09
-7.64112e-09
-2.94205e-09
-5.67671e-09
-2.63851e-09
-3.94882e-09
-2.31476e-09
-2.46989e-09
-1.97331e-09
-1.2497e-09
-1.61765e-09
-2.9438e-10
-1.25257e-09
3.94918e-10
-8.84677e-10
8.23913e-10
-5.23273e-10
1.00784e-09
-1.81546e-10
9.75102e-10
1.21598e-10
7.72279e-10
3.59125e-10
4.69987e-10
4.92719e-10
1.67748e-10
4.70091e-10
2.33681e-10
1.84707e-10
-4.21339e-10
4.65149e-10
-7.39839e-10
6.72567e-10
-6.70232e-10
6.87443e-10
-3.2544e-10
4.23161e-10
2.0738e-10
-1.7944e-10
8.61396e-10
-1.15728e-09
1.58699e-09
-2.53015e-09
2.3481e-09
-4.30478e-09
3.11867e-09
-6.47813e-09
3.87994e-09
-9.03979e-09
4.61832e-09
-1.19739e-08
5.32405e-09
-1.52606e-08
5.99006e-09
-1.88772e-08
6.61134e-09
-2.27987e-08
7.18439e-09
-2.69989e-08
7.70684e-09
-3.14502e-08
8.17718e-09
-3.61249e-08
8.59461e-09
-4.09948e-08
8.95881e-09
-4.60315e-08
9.2699e-09
-5.12069e-08
9.52834e-09
-5.64932e-08
9.73484e-09
-6.18631e-08
9.8903e-09
-6.72897e-08
9.99584e-09
-7.27467e-08
1.00527e-08
-7.82086e-08
1.00621e-08
-8.36506e-08
1.00256e-08
-8.90486e-08
9.94472e-09
-9.43794e-08
9.82092e-09
-9.96206e-08
9.65586e-09
-1.04751e-07
9.45118e-09
-1.09749e-07
9.20856e-09
-1.14597e-07
8.92969e-09
-1.19274e-07
8.61632e-09
-1.23763e-07
8.27017e-09
-1.28048e-07
7.89301e-09
-1.32112e-07
7.48661e-09
-1.3594e-07
7.05277e-09
-1.39519e-07
6.59328e-09
-1.42835e-07
6.10995e-09
-1.45877e-07
5.60462e-09
-1.48634e-07
5.07913e-09
-1.51095e-07
4.53534e-09
-1.53252e-07
3.97514e-09
-1.55097e-07
3.40041e-09
-1.56623e-07
2.81309e-09
-1.57824e-07
2.21511e-09
-1.58695e-07
1.60845e-09
-1.59234e-07
9.95097e-10
-1.59436e-07
3.77084e-10
-1.59302e-07
-2.43549e-10
-1.58831e-07
-8.64716e-10
-1.58023e-07
-1.48431e-09
-1.56881e-07
-2.10021e-09
-1.55408e-07
-2.71024e-09
-1.53609e-07
-3.31223e-09
-1.51488e-07
-3.90395e-09
-1.49053e-07
-4.48319e-09
-1.46312e-07
-5.04768e-09
-1.43274e-07
-5.59516e-09
-1.3995e-07
-6.12336e-09
-1.36351e-07
-6.62999e-09
-1.3249e-07
-7.11277e-09
-1.28382e-07
-7.56943e-09
-1.24042e-07
-7.9977e-09
-1.19487e-07
-8.39534e-09
-1.14734e-07
-8.76014e-09
-1.09802e-07
-9.08992e-09
-1.04712e-07
-9.38257e-09
-9.94847e-08
-9.63601e-09
-9.41425e-08
-9.84821e-09
-8.87088e-08
-1.00173e-08
-8.32078e-08
-1.01414e-08
-7.76648e-08
-1.02188e-08
-7.21058e-08
-1.02479e-08
-6.65576e-08
-1.02272e-08
-6.10477e-08
-1.01554e-08
-5.56041e-08
-1.00314e-08
-5.02555e-08
-9.85423e-09
-4.50307e-08
-9.62316e-09
-3.99587e-08
-9.33771e-09
-3.50687e-08
-8.99773e-09
-3.03895e-08
-8.60337e-09
-2.59497e-08
-8.15518e-09
-2.17771e-08
-7.65424e-09
-1.78985e-08
-7.10215e-09
-1.43393e-08
-6.50127e-09
-1.11229e-08
-5.85486e-09
-8.27036e-09
-5.16732e-09
-5.79909e-09
-4.44458e-09
-3.72218e-09
-3.69457e-09
-2.04685e-09
-2.92792e-09
-7.72625e-10
-2.1589e-09
1.10977e-10
-1.40687e-09
6.27564e-10
-6.98133e-10
8.17726e-10
-6.85747e-11
7.43759e-10
4.33082e-10
4.94648e-10
7.41835e-10
1.90898e-10
7.73847e-10
4.2458e-10
1.461e-10
-5.67458e-10
3.17189e-10
-9.10949e-10
3.35424e-10
-6.8846e-10
7.35013e-11
-6.35239e-11
-5.62109e-10
8.42987e-10
-1.63719e-09
1.93649e-09
-3.19445e-09
3.14426e-09
-5.25794e-09
4.41158e-09
-7.83678e-09
5.69752e-09
-1.09284e-08
6.97153e-09
-1.4521e-08
8.21092e-09
-1.85958e-08
9.39883e-09
-2.31285e-08
1.05228e-08
-2.80909e-08
1.15738e-08
-3.34517e-08
1.25452e-08
-3.91772e-08
1.34324e-08
-4.52324e-08
1.42324e-08
-5.15812e-08
1.49433e-08
-5.81867e-08
1.55643e-08
-6.5012e-08
1.60952e-08
-7.20202e-08
1.65365e-08
-7.91745e-08
1.68891e-08
-8.64386e-08
1.71545e-08
-9.3777e-08
1.73342e-08
-1.01155e-07
1.74302e-08
-1.08537e-07
1.74448e-08
-1.15892e-07
1.73803e-08
-1.23186e-07
1.72391e-08
-1.30389e-07
1.70238e-08
-1.37471e-07
1.67373e-08
-1.44402e-07
1.63822e-08
-1.51154e-07
1.59614e-08
-1.57703e-07
1.54779e-08
-1.64021e-07
1.49346e-08
-1.70085e-07
1.43344e-08
-1.75873e-07
1.36805e-08
-1.81362e-07
1.29758e-08
-1.86532e-07
1.22235e-08
-1.91366e-07
1.14267e-08
-1.95845e-07
1.05886e-08
-1.99952e-07
9.71227e-09
-2.03674e-07
8.80097e-09
-2.06997e-07
7.85794e-09
-2.09908e-07
6.88645e-09
-2.12397e-07
5.88981e-09
-2.14456e-07
4.87135e-09
-2.16075e-07
3.83447e-09
-2.17249e-07
2.7826e-09
-2.17973e-07
1.7192e-09
-2.18244e-07
6.47802e-10
-2.18059e-07
-4.28029e-10
-2.17419e-07
-1.50469e-09
-2.16325e-07
-2.57851e-09
-2.1478e-07
-3.64578e-09
-2.12787e-07
-4.70277e-09
-2.10354e-07
-5.74567e-09
-2.07487e-07
-6.77065e-09
-2.04196e-07
-7.77385e-09
-2.00493e-07
-8.75137e-09
-1.96389e-07
-9.6993e-09
-1.91898e-07
-1.06137e-08
-1.87038e-07
-1.14906e-08
-1.81824e-07
-1.23262e-08
-1.76277e-07
-1.31164e-08
-1.70417e-07
-1.38575e-08
-1.64267e-07
-1.45454e-08
-1.57851e-07
-1.51765e-08
-1.51194e-07
-1.57471e-08
-1.44323e-07
-1.62534e-08
-1.37267e-07
-1.6692e-08
-1.30056e-07
-1.70595e-08
-1.2272e-07
-1.73525e-08
-1.15294e-07
-1.7568e-08
-1.07809e-07
-1.77032e-08
-1.00302e-07
-1.77552e-08
-9.28074e-08
-1.77217e-08
-8.53622e-08
-1.76006e-08
-7.80036e-08
-1.73899e-08
-7.07696e-08
-1.70883e-08
-6.36981e-08
-1.66946e-08
-5.68275e-08
-1.62083e-08
-5.0196e-08
-1.56292e-08
-4.38414e-08
-1.4958e-08
-3.78008e-08
-1.41958e-08
-3.21102e-08
-1.33448e-08
-2.68041e-08
-1.24083e-08
-2.19147e-08
-1.13907e-08
-1.74717e-08
-1.02979e-08
-1.35009e-08
-9.13806e-09
-1.00238e-08
-7.92173e-09
-7.05557e-09
-6.66276e-09
-4.6042e-09
-5.37929e-09
-2.66796e-09
-4.09514e-09
-1.23318e-09
-2.84165e-09
-2.71225e-10
-1.66009e-09
2.6503e-10
-6.04837e-10
4.4536e-10
2.52757e-10
3.66618e-10
8.20589e-10
1.58472e-10
9.81989e-10
5.83048e-10
7.59522e-11
-6.43406e-10
7.02044e-11
-9.05199e-10
-1.85817e-10
-4.32412e-10
-8.16686e-10
5.67332e-10
-1.91526e-09
1.94157e-09
-3.548e-09
3.56923e-09
-5.75893e-09
5.35521e-09
-8.57335e-09
7.226e-09
-1.2001e-08
9.12515e-09
-1.60389e-08
1.10095e-08
-2.0674e-08
1.2846e-08
-2.58848e-08
1.46096e-08
-3.16436e-08
1.62816e-08
-3.79176e-08
1.78477e-08
-4.46701e-08
1.92976e-08
-5.18615e-08
2.06238e-08
-5.94501e-08
2.1821e-08
-6.73929e-08
2.28861e-08
-7.56457e-08
2.38172e-08
-8.4164e-08
2.46135e-08
-9.2903e-08
2.52755e-08
-1.01818e-07
2.58043e-08
-1.10865e-07
2.62016e-08
-1.20001e-07
2.64697e-08
-1.29182e-07
2.66114e-08
-1.38367e-07
2.66298e-08
-1.47515e-07
2.65282e-08
-1.56586e-07
2.63104e-08
-1.65543e-07
2.59801e-08
-1.74347e-07
2.55414e-08
-1.82963e-07
2.49984e-08
-1.91357e-07
2.43554e-08
-1.99496e-07
2.36169e-08
-2.07348e-07
2.27871e-08
-2.14885e-07
2.18708e-08
-2.22077e-07
2.08724e-08
-2.28898e-07
1.97967e-08
-2.35323e-07
1.86483e-08
-2.41328e-07
1.7432e-08
-2.46892e-07
1.61525e-08
-2.51994e-07
1.48148e-08
-2.56617e-07
1.34238e-08
-2.60743e-07
1.19843e-08
-2.64359e-07
1.05015e-08
-2.67449e-07
8.98031e-09
-2.70004e-07
7.4259e-09
-2.72013e-07
5.84345e-09
-2.73468e-07
4.23822e-09
-2.74365e-07
2.61552e-09
-2.74697e-07
9.80724e-10
-2.74465e-07
-6.60704e-10
-2.73666e-07
-2.30324e-09
-2.72303e-07
-3.9413e-09
-2.7038e-07
-5.56922e-09
-2.67901e-07
-7.18127e-09
-2.64875e-07
-8.77166e-09
-2.61312e-07
-1.03346e-08
-2.57221e-07
-1.18641e-08
-2.52618e-07
-1.33543e-08
-2.47518e-07
-1.47993e-08
-2.41939e-07
-1.6193e-08
-2.359e-07
-1.75295e-08
-2.29424e-07
-1.88028e-08
-2.22533e-07
-2.0007e-08
-2.15254e-07
-2.11362e-08
-2.07615e-07
-2.21846e-08
-1.99645e-07
-2.31464e-08
-1.91376e-07
-2.4016e-08
-1.82842e-07
-2.4788e-08
-1.74077e-07
-2.5457e-08
-1.65118e-07
-2.6018e-08
-1.56005e-07
-2.6466e-08
-1.46776e-07
-2.67966e-08
-1.37474e-07
-2.70053e-08
-1.28141e-07
-2.70882e-08
-1.18821e-07
-2.70418e-08
-1.09559e-07
-2.6863e-08
-1.00399e-07
-2.65492e-08
-9.13893e-08
-2.60983e-08
-8.2575e-08
-2.5509e-08
-7.40027e-08
-2.47806e-08
-6.57186e-08
-2.39132e-08
-5.77684e-08
-2.29082e-08
-5.01965e-08
-2.17677e-08
-4.30458e-08
-2.04955e-08
-3.63574e-08
-1.90967e-08
-3.01694e-08
-1.75787e-08
-2.45163e-08
-1.59509e-08
-1.94284e-08
-1.4226e-08
-1.493e-08
-1.24201e-08
-1.10385e-08
-1.05542e-08
-7.76277e-09
-8.65503e-09
-5.10079e-09
-6.75712e-09
-3.03767e-09
-4.90478e-09
-1.54287e-09
-3.15489e-09
-5.67188e-10
-1.58052e-09
-3.92609e-11
-2.75158e-10
1.38264e-10
6.43075e-10
9.39347e-11
1.02631e-09
6.76983e-10
-1.15168e-11
-6.31887e-10
-2.37659e-10
-6.79085e-10
-8.2682e-10
1.56747e-10
-1.89288e-09
1.63341e-09
-3.52221e-09
3.5709e-09
-5.77733e-09
5.82437e-09
-8.70002e-09
8.2779e-09
-1.23141e-08
1.084e-08
-1.6628e-08
1.34391e-08
-2.16373e-08
1.60188e-08
-2.7327e-08
1.85357e-08
-3.36731e-08
2.09557e-08
-4.06444e-08
2.3253e-08
-4.82043e-08
2.54076e-08
-5.63115e-08
2.74048e-08
-6.49212e-08
2.92335e-08
-7.39861e-08
3.08859e-08
-8.3457e-08
3.2357e-08
-9.32834e-08
3.36436e-08
-1.03414e-07
3.47442e-08
-1.13797e-07
3.56589e-08
-1.24382e-07
3.63888e-08
-1.35117e-07
3.69361e-08
-1.4595e-07
3.73035e-08
-1.56834e-07
3.74948e-08
-1.67718e-07
3.75138e-08
-1.78555e-07
3.73652e-08
-1.89298e-07
3.7054e-08
-1.99903e-07
3.65852e-08
-2.10326e-07
3.59645e-08
-2.20526e-07
3.51976e-08
-2.30461e-07
3.42903e-08
-2.40092e-07
3.32488e-08
-2.49385e-07
3.20792e-08
-2.58302e-07
3.07879e-08
-2.66811e-07
2.93812e-08
-2.7488e-07
2.78658e-08
-2.8248e-07
2.62482e-08
-2.89583e-07
2.4535e-08
-2.96163e-07
2.2733e-08
-3.02197e-07
2.08491e-08
-3.07664e-07
1.88901e-08
-3.12542e-07
1.68631e-08
-3.16816e-07
1.4775e-08
-3.20469e-07
1.26331e-08
-3.23487e-07
1.04445e-08
-3.2586e-07
8.21658e-09
-3.27579e-07
5.95671e-09
-3.28636e-07
3.67239e-09
-3.29026e-07
1.37121e-09
-3.28748e-07
-9.39135e-10
-3.278e-07
-3.25087e-09
-3.26185e-07
-5.55611e-09
-3.23908e-07
-7.84689e-09
-3.20974e-07
-1.01152e-08
-3.17393e-07
-1.23528e-08
-3.13176e-07
-1.45516e-08
-3.08337e-07
-1.67032e-08
-3.02892e-07
-1.87994e-08
-2.96859e-07
-2.08318e-08
-2.9026e-07
-2.2792e-08
-2.83118e-07
-2.46717e-08
-2.75458e-07
-2.64625e-08
-2.67309e-07
-2.81561e-08
-2.58701e-07
-2.97442e-08
-2.49667e-07
-3.12189e-08
-2.40241e-07
-3.2572e-08
-2.30461e-07
-3.37958e-08
-2.20367e-07
-3.48827e-08
-2.09998e-07
-3.58254e-08
-1.994e-07
-3.66167e-08
-1.88616e-07
-3.72499e-08
-1.77693e-07
-3.77188e-08
-1.66681e-07
-3.80175e-08
-1.55629e-07
-3.81405e-08
-1.44588e-07
-3.80832e-08
-1.33609e-07
-3.78413e-08
-1.22747e-07
-3.74115e-08
-1.12054e-07
-3.67912e-08
-1.01584e-07
-3.59787e-08
-9.13916e-08
-3.49734e-08
-8.15288e-08
-3.37761e-08
-7.20483e-08
-3.23886e-08
-6.30012e-08
-3.08148e-08
-5.44366e-08
-2.90601e-08
-4.64009e-08
-2.71324e-08
-3.89375e-08
-2.50422e-08
-3.20852e-08
-2.28032e-08
-2.58779e-08
-2.04333e-08
-2.03431e-08
-1.7955e-08
-1.55003e-08
-1.53969e-08
-1.13599e-08
-1.27954e-08
-7.92089e-09
-1.01962e-08
-5.16904e-09
-7.65662e-09
-3.07466e-09
-5.24927e-09
-1.59005e-09
-3.06513e-09
-6.46803e-10
-1.2184e-09
-1.5283e-10
1.49104e-10
1.13652e-11
8.62118e-10
6.88351e-10
-1.07878e-10
-5.23994e-10
-5.80732e-10
-2.06229e-10
-1.54163e-09
1.11765e-09
-3.08858e-09
3.18035e-09
-5.29713e-09
5.77947e-09
-8.22237e-09
8.7496e-09
-1.19008e-08
1.19563e-08
-1.63524e-08
1.52917e-08
-2.15828e-08
1.86694e-08
-2.75846e-08
2.20207e-08
-3.43401e-08
2.52912e-08
-4.18225e-08
2.8438e-08
-4.99972e-08
3.14277e-08
-5.88237e-08
3.42342e-08
-6.82567e-08
3.68377e-08
-7.82467e-08
3.92235e-08
-8.87413e-08
4.13806e-08
-9.96861e-08
4.33018e-08
-1.11025e-07
4.49823e-08
-1.227e-07
4.64198e-08
-1.34655e-07
4.76137e-08
-1.46831e-07
4.8565e-08
-1.59172e-07
4.92762e-08
-1.71619e-07
4.97506e-08
-1.84116e-07
4.99926e-08
-1.9661e-07
5.00073e-08
-2.09045e-07
4.98004e-08
-2.21369e-07
4.93783e-08
-2.33532e-07
4.87477e-08
-2.45483e-07
4.79157e-08
-2.57175e-07
4.68898e-08
-2.68562e-07
4.56776e-08
-2.79601e-07
4.42873e-08
-2.90248e-07
4.27268e-08
-3.00465e-07
4.10046e-08
-3.10213e-07
3.91291e-08
-3.19456e-07
3.7109e-08
-3.28161e-07
3.4953e-08
-3.36296e-07
3.26699e-08
-3.43832e-07
3.02688e-08
-3.50741e-07
2.77587e-08
-3.57e-07
2.51488e-08
-3.62585e-07
2.24484e-08
-3.67477e-07
1.96669e-08
-3.71658e-07
1.68138e-08
-3.75112e-07
1.38987e-08
-3.77827e-07
1.09314e-08
-3.79792e-07
7.92179e-09
-3.81e-07
4.8798e-09
-3.81444e-07
1.81555e-09
-3.81122e-07
-1.26069e-09
-3.80035e-07
-4.33858e-09
-3.78183e-07
-7.40762e-09
-3.75573e-07
-1.04572e-08
-3.72211e-07
-1.34766e-08
-3.68109e-07
-1.64551e-08
-3.63279e-07
-1.93817e-08
-3.57737e-07
-2.22454e-08
-3.51501e-07
-2.50351e-08
-3.44593e-07
-2.77399e-08
-3.37036e-07
-3.03486e-08
-3.28858e-07
-3.28502e-08
-3.20087e-07
-3.52335e-08
-3.10755e-07
-3.74877e-08
-3.00897e-07
-3.96018e-08
-2.90551e-07
-4.15651e-08
-2.79756e-07
-4.33672e-08
-2.68554e-07
-4.49977e-08
-2.5699e-07
-4.64467e-08
-2.45111e-07
-4.77045e-08
-2.32966e-07
-4.87618e-08
-2.20606e-07
-4.961e-08
-2.08084e-07
-5.02408e-08
-1.95455e-07
-5.06466e-08
-1.82775e-07
-5.08205e-08
-1.70102e-07
-5.07563e-08
-1.57494e-07
-5.04489e-08
-1.45012e-07
-4.98939e-08
-1.32715e-07
-4.90883e-08
-1.20663e-07
-4.80303e-08
-1.08917e-07
-4.67194e-08
-9.75362e-08
-4.51569e-08
-8.6579e-08
-4.33459e-08
-7.6102e-08
-4.12918e-08
-6.61597e-08
-3.90023e-08
-5.68038e-08
-3.64883e-08
-4.8082e-08
-3.3764e-08
-4.00374e-08
-3.08479e-08
-3.27073e-08
-2.77633e-08
-2.61223e-08
-2.45399e-08
-2.03047e-08
-2.12145e-08
-1.52672e-08
-1.7833e-08
-1.10109e-08
-1.44524e-08
-7.5243e-09
-1.11432e-08
-4.78082e-09
-7.99276e-09
-2.73716e-09
-5.10879e-09
-1.33138e-09
-2.62418e-09
-4.80947e-10
-7.01328e-10
-8.07242e-11
4.61901e-10
6.07625e-10
-2.08029e-10
-3.15966e-10
-9.42099e-10
5.27835e-10
-2.29835e-09
2.47389e-09
-4.35597e-09
5.23799e-09
-7.17684e-09
8.60033e-09
-1.08059e-08
1.23787e-08
-1.52722e-08
1.64226e-08
-2.05898e-08
2.06093e-08
-2.67597e-08
2.48393e-08
-3.37708e-08
2.90317e-08
-4.16016e-08
3.3122e-08
-5.02217e-08
3.70581e-08
-5.95931e-08
4.07991e-08
-6.96716e-08
4.43127e-08
-8.04075e-08
4.75737e-08
-9.17474e-08
5.05633e-08
-1.03634e-07
5.32673e-08
-1.16008e-07
5.56759e-08
-1.28808e-07
5.77826e-08
-1.41972e-07
5.95838e-08
-1.55437e-07
6.10783e-08
-1.69139e-07
6.2267e-08
-1.83015e-07
6.31522e-08
-1.97003e-07
6.3738e-08
-2.11039e-07
6.40295e-08
-2.25065e-07
6.40328e-08
-2.3902e-07
6.37551e-08
-2.52845e-07
6.32039e-08
-2.66485e-07
6.23876e-08
-2.79885e-07
6.13153e-08
-2.92991e-07
5.9996e-08
-3.05753e-07
5.84397e-08
-3.18122e-07
5.66562e-08
-3.30051e-07
5.46559e-08
-3.41496e-07
5.24493e-08
-3.52414e-07
5.00473e-08
-3.62766e-07
4.74607e-08
-3.72513e-07
4.47007e-08
-3.81622e-07
4.17786e-08
-3.90059e-07
3.87058e-08
-3.97794e-07
3.54939e-08
-4.048e-07
3.21546e-08
-4.11051e-07
2.86998e-08
-4.16526e-07
2.51416e-08
-4.21204e-07
2.1492e-08
-4.25069e-07
1.77635e-08
-4.28106e-07
1.39684e-08
-4.30304e-07
1.01194e-08
-4.31653e-07
6.22926e-09
-4.32148e-07
2.31092e-09
-4.31787e-07
-1.62253e-09
-4.30567e-07
-5.55786e-09
-4.28493e-07
-9.48166e-09
-4.2557e-07
-1.33804e-08
-4.21806e-07
-1.72404e-08
-4.17214e-07
-2.10478e-08
-4.11806e-07
-2.47888e-08
-4.05602e-07
-2.84494e-08
-3.98622e-07
-3.20154e-08
-3.90889e-07
-3.54728e-08
-3.8243e-07
-3.88075e-08
-3.73275e-07
-4.20054e-08
-3.63456e-07
-4.50524e-08
-3.53009e-07
-4.79346e-08
-3.41973e-07
-5.06382e-08
-3.30388e-07
-5.31498e-08
-3.183e-07
-5.54558e-08
-3.05754e-07
-5.75434e-08
-2.928e-07
-5.94e-08
-2.79492e-07
-6.10134e-08
-2.65881e-07
-6.23719e-08
-2.52027e-07
-6.34647e-08
-2.37986e-07
-6.42814e-08
-2.2382e-07
-6.48125e-08
-2.09591e-07
-6.50495e-08
-1.95363e-07
-6.49848e-08
-1.812e-07
-6.46121e-08
-1.67167e-07
-6.39263e-08
-1.53332e-07
-6.29237e-08
-1.39759e-07
-6.16025e-08
-1.26516e-07
-5.99625e-08
-1.13667e-07
-5.80058e-08
-1.01277e-07
-5.57367e-08
-8.94061e-08
-5.31624e-08
-7.8115e-08
-5.02934e-08
-6.74597e-08
-4.71436e-08
-5.74922e-08
-4.37315e-08
-4.82596e-08
-4.00805e-08
-3.98029e-08
-3.622e-08
-3.21561e-08
-3.21867e-08
-2.53448e-08
-2.80259e-08
-1.93848e-08
-2.37931e-08
-1.42809e-08
-1.95562e-08
-1.00257e-08
-1.53985e-08
-6.59764e-09
-1.14208e-08
-3.96027e-09
-7.74617e-09
-2.06071e-09
-4.52375e-09
-8.28897e-10
-1.93313e-09
-1.77112e-10
-1.89882e-10
4.30507e-10
-3.08962e-10
-7.00217e-12
-1.31081e-09
1.5297e-09
-3.0752e-09
4.23829e-09
-5.66127e-09
7.82405e-09
-9.11545e-09
1.20545e-08
-1.34708e-08
1.6734e-08
-1.8747e-08
2.16988e-08
-2.49508e-08
2.68132e-08
-3.20771e-08
3.19656e-08
-4.01098e-08
3.70644e-08
-4.9023e-08
4.20351e-08
-5.87821e-08
4.68172e-08
-6.93451e-08
5.13622e-08
-8.06638e-08
5.56314e-08
-9.26846e-08
5.95945e-08
-1.0535e-07
6.32283e-08
-1.18598e-07
6.65152e-08
-1.32364e-07
6.94427e-08
-1.46584e-07
7.20024e-08
-1.6119e-07
7.41893e-08
-1.76113e-07
7.60013e-08
-1.91285e-07
7.74391e-08
-2.06638e-07
7.85051e-08
-2.22103e-07
7.92037e-08
-2.37615e-07
7.9541e-08
-2.53106e-07
7.95241e-08
-2.68512e-07
7.91613e-08
-2.8377e-07
7.84618e-08
-2.98819e-07
7.74358e-08
-3.13597e-07
7.6094e-08
-3.28049e-07
7.44476e-08
-3.42118e-07
7.25085e-08
-3.5575e-07
7.02889e-08
-3.68896e-07
6.78015e-08
-3.81506e-07
6.50592e-08
-3.93534e-07
6.20753e-08
-4.04936e-07
5.88632e-08
-4.15672e-07
5.54366e-08
-4.25703e-07
5.18095e-08
-4.34993e-07
4.79961e-08
-4.4351e-07
4.40106e-08
-4.51223e-07
3.98676e-08
-4.58105e-07
3.55817e-08
-4.64131e-07
3.11679e-08
-4.69281e-07
2.66412e-08
-4.73534e-07
2.2017e-08
-4.76876e-07
1.73105e-08
-4.79294e-07
1.25375e-08
-4.80779e-07
7.71373e-09
-4.81323e-07
2.85531e-09
-4.80924e-07
-2.0216e-09
-4.79581e-07
-6.90058e-09
-4.77298e-07
-1.17651e-08
-4.7408e-07
-1.65983e-08
-4.69937e-07
-2.13834e-08
-4.64882e-07
-2.61032e-08
-4.5893e-07
-3.07406e-08
-4.52101e-07
-3.52783e-08
-4.44417e-07
-3.96989e-08
-4.35905e-07
-4.3985e-08
-4.26594e-07
-4.81192e-08
-4.16515e-07
-5.20842e-08
-4.05705e-07
-5.58626e-08
-3.94202e-07
-5.94373e-08
-3.82049e-07
-6.27914e-08
-3.6929e-07
-6.59081e-08
-3.55975e-07
-6.87712e-08
-3.42154e-07
-7.13647e-08
-3.2788e-07
-7.36732e-08
-3.13212e-07
-7.56818e-08
-2.98208e-07
-7.73763e-08
-2.82929e-07
-7.87435e-08
-2.6744e-07
-7.97706e-08
-2.51806e-07
-8.04464e-08
-2.36095e-07
-8.07605e-08
-2.20376e-07
-8.07039e-08
-2.04719e-07
-8.0269e-08
-1.89195e-07
-7.94498e-08
-1.73877e-07
-7.82424e-08
-1.58835e-07
-7.66447e-08
-1.4414e-07
-7.46569e-08
-1.29864e-07
-7.2282e-08
-1.16075e-07
-6.95259e-08
-1.02839e-07
-6.63977e-08
-9.0222e-08
-6.29107e-08
-7.82833e-08
-5.90823e-08
-6.70796e-08
-5.49353e-08
-5.66619e-08
-5.04981e-08
-4.70752e-08
-4.58066e-08
-3.83574e-08
-4.09046e-08
-3.05378e-08
-3.58455e-08
-2.36365e-08
-3.06944e-08
-1.7663e-08
-2.55297e-08
-1.26153e-08
-2.04462e-08
-8.47864e-09
-1.55574e-08
-5.22504e-09
-1.09998e-08
-2.81257e-09
-6.93622e-09
-1.18544e-09
-3.56026e-09
-2.7466e-10
-1.10066e-09
1.55844e-10
-4.08886e-10
4.01876e-10
-1.67992e-09
2.80073e-09
-3.85761e-09
6.41599e-09
-6.981e-09
1.09474e-08
-1.10803e-08
1.61538e-08
-1.61754e-08
2.18291e-08
-2.22754e-08
2.77988e-08
-2.93787e-08
3.39164e-08
-3.74727e-08
4.00596e-08
-4.65355e-08
4.61272e-08
-5.65357e-08
5.20354e-08
-6.74342e-08
5.77157e-08
-7.91844e-08
6.31124e-08
-9.17339e-08
6.81808e-08
-1.05025e-07
7.28855e-08
-1.18995e-07
7.71986e-08
-1.33579e-07
8.10993e-08
-1.48709e-07
8.45723e-08
-1.64313e-07
8.7607e-08
-1.80321e-07
9.0197e-08
-1.96659e-07
9.23395e-08
-2.13255e-07
9.40346e-08
-2.30035e-07
9.52848e-08
-2.46926e-07
9.60951e-08
-2.63857e-07
9.64721e-08
-2.80757e-07
9.64241e-08
-2.97557e-07
9.59608e-08
-3.14188e-07
9.50929e-08
-3.30584e-07
9.38323e-08
-3.46682e-07
9.21918e-08
-3.62419e-07
9.01846e-08
-3.77735e-07
8.78249e-08
-3.92574e-07
8.51274e-08
-4.06879e-07
8.2107e-08
-4.20599e-07
7.87793e-08
-4.33684e-07
7.51601e-08
-4.46087e-07
7.12658e-08
-4.57763e-07
6.71127e-08
-4.68671e-07
6.27177e-08
-4.78773e-07
5.80979e-08
-4.88033e-07
5.32704e-08
-4.96418e-07
4.82529e-08
-5.03899e-07
4.3063e-08
-5.1045e-07
3.77188e-08
-5.16047e-07
3.22384e-08
-5.20671e-07
2.66403e-08
-5.24303e-07
2.09431e-08
-5.26932e-07
1.51658e-08
-5.28545e-07
9.32749e-09
-5.29138e-07
3.44748e-09
-5.28705e-07
-2.45462e-09
-5.27246e-07
-8.359e-09
-5.24766e-07
-1.42457e-08
-5.2127e-07
-2.00943e-08
-5.16768e-07
-2.58847e-08
-5.11275e-07
-3.1596e-08
-5.04808e-07
-3.72077e-08
-4.97388e-07
-4.26988e-08
-4.89038e-07
-4.80486e-08
-4.79787e-07
-5.32359e-08
-4.69667e-07
-5.82398e-08
-4.58711e-07
-6.30395e-08
-4.4696e-07
-6.76142e-08
-4.34454e-07
-7.19433e-08
-4.21239e-07
-7.60064e-08
-4.07363e-07
-7.97835e-08
-3.92879e-07
-8.32551e-08
-3.77842e-07
-8.6402e-08
-3.6231e-07
-8.92058e-08
-3.46342e-07
-9.16488e-08
-3.30005e-07
-9.37141e-08
-3.13363e-07
-9.53857e-08
-2.96484e-07
-9.66488e-08
-2.79441e-07
-9.74899e-08
-2.62305e-07
-9.78967e-08
-2.4515e-07
-9.78588e-08
-2.28051e-07
-9.73673e-08
-2.11086e-07
-9.64155e-08
-1.9433e-07
-9.49987e-08
-1.77859e-07
-9.3115e-08
-1.61751e-07
-9.07651e-08
-1.4608e-07
-8.79528e-08
-1.30921e-07
-8.46855e-08
-1.16344e-07
-8.09748e-08
-1.02418e-07
-7.68366e-08
-8.9208e-08
-7.2292e-08
-7.67752e-08
-6.73681e-08
-6.51745e-08
-6.20988e-08
-5.44551e-08
-5.6526e-08
-4.46592e-08
-5.07005e-08
-3.58208e-08
-4.46839e-08
-2.79648e-08
-3.85503e-08
-2.11067e-08
-3.23879e-08
-1.52508e-08
-2.63021e-08
-1.03905e-08
-2.04177e-08
-6.5075e-09
-1.48828e-08
-3.57201e-09
-9.87171e-09
-1.54336e-09
-5.58891e-09
-3.71511e-10
-2.27252e-09
-2.15664e-10
-5.06885e-10
9.08759e-10
-2.04511e-09
4.33895e-09
-4.6361e-09
9.00696e-09
-8.29926e-09
1.46106e-08
-1.30484e-08
2.0903e-08
-1.88899e-08
2.76706e-08
-2.58213e-08
3.47303e-08
-3.38315e-08
4.19265e-08
-4.28999e-08
4.91281e-08
-5.29976e-08
5.62249e-08
-6.40874e-08
6.31251e-08
-7.61246e-08
6.97529e-08
-8.90579e-08
7.60457e-08
-1.0283e-07
8.1953e-08
-1.17379e-07
8.74344e-08
-1.32638e-07
9.24579e-08
-1.48538e-07
9.6999e-08
-1.65006e-07
1.0104e-07
-1.81966e-07
1.04568e-07
-1.99344e-07
1.07575e-07
-2.17061e-07
1.10057e-07
-2.35041e-07
1.12014e-07
-2.53206e-07
1.1345e-07
-2.71478e-07
1.14368e-07
-2.89782e-07
1.14776e-07
-3.08043e-07
1.14685e-07
-3.26186e-07
1.14104e-07
-3.44139e-07
1.13046e-07
-3.61832e-07
1.11526e-07
-3.79198e-07
1.09557e-07
-3.96169e-07
1.07156e-07
-4.12682e-07
1.04338e-07
-4.28675e-07
1.01121e-07
-4.44091e-07
9.7523e-08
-4.58874e-07
9.35616e-08
-4.72969e-07
8.92558e-08
-4.86328e-07
8.46245e-08
-4.98903e-07
7.96873e-08
-5.10649e-07
7.4464e-08
-5.21526e-07
6.89746e-08
-5.31495e-07
6.32398e-08
-5.40522e-07
5.72801e-08
-5.48576e-07
5.11166e-08
-5.55628e-07
4.47705e-08
-5.61653e-07
3.82635e-08
-5.6663e-07
3.16173e-08
-5.70541e-07
2.4854e-08
-5.73371e-07
1.7996e-08
-5.75109e-07
1.1066e-08
-5.75749e-07
4.08694e-09
-5.75285e-07
-2.91811e-09
-5.73719e-07
-9.92565e-09
-5.71052e-07
-1.6912e-08
-5.67294e-07
-2.38532e-08
-5.62453e-07
-3.07252e-08
-5.56546e-07
-3.75035e-08
-5.49589e-07
-4.41638e-08
-5.41607e-07
-5.06813e-08
-5.32624e-07
-5.70314e-08
-5.22671e-07
-6.31893e-08
-5.1178e-07
-6.91303e-08
-4.9999e-07
-7.48298e-08
-4.87341e-07
-8.02633e-08
-4.73878e-07
-8.54064e-08
-4.59649e-07
-9.02353e-08
-4.44706e-07
-9.47263e-08
-4.29105e-07
-9.88566e-08
-4.12903e-07
-1.02604e-07
-3.96163e-07
-1.05946e-07
-3.7895e-07
-1.08862e-07
-3.61331e-07
-1.11333e-07
-3.43377e-07
-1.1334e-07
-3.25161e-07
-1.14865e-07
-3.06757e-07
-1.15893e-07
-2.88244e-07
-1.1641e-07
-2.69699e-07
-1.16404e-07
-2.51202e-07
-1.15864e-07
-2.32835e-07
-1.14783e-07
-2.14679e-07
-1.13155e-07
-1.96814e-07
-1.1098e-07
-1.79323e-07
-1.08257e-07
-1.62284e-07
-1.04992e-07
-1.45776e-07
-1.01193e-07
-1.29875e-07
-9.68757e-08
-1.14654e-07
-9.20574e-08
-1.00183e-07
-8.67632e-08
-8.65264e-08
-8.10247e-08
-7.37442e-08
-7.4881e-08
-6.18902e-08
-6.838e-08
-5.10114e-08
-6.15793e-08
-4.1147e-08
-5.45484e-08
-3.23277e-08
-4.73695e-08
-2.45754e-08
-4.01402e-08
-1.79021e-08
-3.29754e-08
-1.231e-08
-2.60099e-08
-7.79136e-09
-1.94014e-08
-4.32919e-09
-1.33339e-08
-1.89816e-09
-8.01993e-09
-4.66604e-10
-3.70407e-09
-6.82266e-10
-6.02391e-10
1.51115e-09
-2.40383e-09
6.1404e-09
-5.40464e-09
1.20078e-08
-9.60563e-09
1.88116e-08
-1.50045e-08
2.63018e-08
-2.15937e-08
3.42598e-08
-2.9359e-08
4.24956e-08
-3.82791e-08
5.08466e-08
-4.83247e-08
5.91737e-08
-5.94594e-08
6.73595e-08
-7.16391e-08
7.53049e-08
-8.48134e-08
8.29272e-08
-9.89256e-08
9.01579e-08
-1.13914e-07
9.6941e-08
-1.2971e-07
1.03231e-07
-1.46245e-07
1.08993e-07
-1.63443e-07
1.14197e-07
-1.81229e-07
1.18825e-07
-1.99522e-07
1.22861e-07
-2.18243e-07
1.26295e-07
-2.3731e-07
1.29124e-07
-2.56641e-07
1.31346e-07
-2.76156e-07
1.32964e-07
-2.95772e-07
1.33984e-07
-3.1541e-07
1.34414e-07
-3.34989e-07
1.34264e-07
-3.54433e-07
1.33548e-07
-3.73666e-07
1.32279e-07
-3.92612e-07
1.30472e-07
-4.112e-07
1.28145e-07
-4.29361e-07
1.25316e-07
-4.47026e-07
1.22003e-07
-4.64132e-07
1.18227e-07
-4.80616e-07
1.14007e-07
-4.96419e-07
1.09365e-07
-5.11486e-07
1.04322e-07
-5.25762e-07
9.89011e-08
-5.39199e-07
9.31241e-08
-5.51749e-07
8.70142e-08
-5.6337e-07
8.05948e-08
-5.74019e-07
7.38897e-08
-5.83662e-07
6.6923e-08
-5.92265e-07
5.97192e-08
-5.99798e-07
5.2303e-08
-6.06234e-07
4.46996e-08
-6.11551e-07
3.69342e-08
-6.15729e-07
2.90328e-08
-6.18755e-07
2.10213e-08
-6.20615e-07
1.29261e-08
-6.21302e-07
4.77387e-09
-6.20811e-07
-3.40836e-09
-6.19144e-07
-1.15933e-08
-6.16302e-07
-1.97534e-08
-6.12295e-07
-2.78608e-08
-6.07132e-07
-3.58875e-08
-6.00831e-07
-4.3805e-08
-5.9341e-07
-5.1585e-08
-5.84892e-07
-5.91989e-08
-5.75306e-07