/*--------------------------------*- C++ -*----------------------------------*\
| =========                 |                                                 |
| \\      /  F ield         | OpenFOAM: The Open Source CFD Toolbox           |
|  \\    /   O peration     | Version:  2212                                  |
|   \\  /    A nd           | Website:  www.openfoam.com                      |
|    \\/     M anipulation  |                                                 |
\*---------------------------------------------------------------------------*/
FoamFile
{
    version     2.0;
    format      ascii;
    arch        "LSB;label=32;scalar=64";
    class       volVectorField;
    location    "0.0715";
    object      U_0;
}
// * * * * * * * * * * * * * * * * * * * * * * * * * * * * * * * * * * * * * //

dimensions      [0 1 -1 0 0 0 0];

internalField   nonuniform List<vector> 
10000
(
(2.95288e-06 -2.94637e-06 0)
(1.45978e-05 -7.53016e-06 0)
(3.30999e-05 -8.67119e-06 0)
(5.04531e-05 -7.46151e-06 0)
(6.17799e-05 -5.00929e-06 0)
(6.47105e-05 -1.95065e-06 0)
(5.8016e-05 1.35824e-06 0)
(4.11358e-05 4.71662e-06 0)
(1.39554e-05 8.01031e-06 0)
(-2.33541e-05 1.11721e-05 0)
(-7.04386e-05 1.41656e-05 0)
(-0.000126821 1.69691e-05 0)
(-0.000191944 1.95659e-05 0)
(-0.000265198 2.19514e-05 0)
(-0.000345937 2.4123e-05 0)
(-0.000433499 2.60798e-05 0)
(-0.000527209 2.78238e-05 0)
(-0.000626388 2.93577e-05 0)
(-0.000730363 3.06843e-05 0)
(-0.000838463 3.18083e-05 0)
(-0.00095003 3.2736e-05 0)
(-0.00106442 3.34732e-05 0)
(-0.001181 3.4026e-05 0)
(-0.00129915 3.43995e-05 0)
(-0.00141828 3.45994e-05 0)
(-0.00153781 3.46315e-05 0)
(-0.00165718 3.45019e-05 0)
(-0.00177584 3.42171e-05 0)
(-0.00189327 3.3784e-05 0)
(-0.00200898 3.32092e-05 0)
(-0.00212247 3.24987e-05 0)
(-0.0022333 3.16583e-05 0)
(-0.00234103 3.06941e-05 0)
(-0.00244522 2.96125e-05 0)
(-0.0025455 2.84196e-05 0)
(-0.00264147 2.71215e-05 0)
(-0.00273279 2.57244e-05 0)
(-0.00281912 2.42345e-05 0)
(-0.00290015 2.26578e-05 0)
(-0.00297558 2.10006e-05 0)
(-0.00304516 1.9269e-05 0)
(-0.00310862 1.74692e-05 0)
(-0.00316574 1.5607e-05 0)
(-0.00321632 1.36889e-05 0)
(-0.00326017 1.17212e-05 0)
(-0.00329713 9.71004e-06 0)
(-0.00332707 7.66212e-06 0)
(-0.00334987 5.58401e-06 0)
(-0.00336543 3.48215e-06 0)
(-0.00337369 1.36356e-06 0)
(-0.00337461 -7.65013e-07 0)
(-0.00336815 -2.89705e-06 0)
(-0.00335433 -5.02507e-06 0)
(-0.00333318 -7.14168e-06 0)
(-0.00330474 -9.24007e-06 0)
(-0.0032691 -1.13128e-05 0)
(-0.00322637 -1.33519e-05 0)
(-0.00317667 -1.53502e-05 0)
(-0.00312016 -1.72999e-05 0)
(-0.00305703 -1.91928e-05 0)
(-0.0029875 -2.10212e-05 0)
(-0.00291179 -2.27773e-05 0)
(-0.00283018 -2.4453e-05 0)
(-0.00274296 -2.604e-05 0)
(-0.00265046 -2.75305e-05 0)
(-0.00255302 -2.89165e-05 0)
(-0.00245102 -3.01898e-05 0)
(-0.00234486 -3.13429e-05 0)
(-0.00223496 -3.23681e-05 0)
(-0.0021218 -3.32574e-05 0)
(-0.00200584 -3.4003e-05 0)
(-0.00188759 -3.45978e-05 0)
(-0.00176757 -3.5035e-05 0)
(-0.00164635 -3.53076e-05 0)
(-0.00152449 -3.54088e-05 0)
(-0.00140258 -3.53329e-05 0)
(-0.00128124 -3.50738e-05 0)
(-0.00116109 -3.46258e-05 0)
(-0.00104278 -3.39839e-05 0)
(-0.000926961 -3.3144e-05 0)
(-0.000814304 -3.21025e-05 0)
(-0.000705484 -3.08556e-05 0)
(-0.000601182 -2.94005e-05 0)
(-0.000502079 -2.77357e-05 0)
(-0.000408856 -2.58608e-05 0)
(-0.000322184 -2.37762e-05 0)
(-0.000242721 -2.14835e-05 0)
(-0.000171102 -1.89869e-05 0)
(-0.000107931 -1.62935e-05 0)
(-5.37641e-05 -1.34146e-05 0)
(-9.09295e-06 -1.03674e-05 0)
(2.56863e-05 -7.17885e-06 0)
(5.03106e-05 -3.89201e-06 0)
(6.47132e-05 -5.77859e-07 0)
(6.91239e-05 2.64376e-06 0)
(6.42261e-05 5.56707e-06 0)
(5.13742e-05 7.83568e-06 0)
(3.30488e-05 8.81631e-06 0)
(1.41993e-05 7.43638e-06 0)
(2.7413e-06 2.74183e-06 0)
(7.5581e-06 -1.46036e-05 0)
(3.05492e-05 -3.05107e-05 0)
(6.13076e-05 -3.25078e-05 0)
(8.58201e-05 -2.47327e-05 0)
(9.48074e-05 -1.09261e-05 0)
(8.29077e-05 6.36808e-06 0)
(4.68191e-05 2.54853e-05 0)
(-1.52704e-05 4.53384e-05 0)
(-0.000104068 6.52134e-05 0)
(-0.000219491 8.46404e-05 0)
(-0.000360902 0.000103305 0)
(-0.000527277 0.000120997 0)
(-0.00071731 0.000137573 0)
(-0.000929498 0.000152939 0)
(-0.00116221 0.000167035 0)
(-0.00141371 0.000179824 0)
(-0.00168223 0.000191292 0)
(-0.00196594 0.000201431 0)
(-0.00226301 0.00021025 0)
(-0.00257162 0.000217762 0)
(-0.00288995 0.000223987 0)
(-0.00321622 0.000228952 0)
(-0.00354865 0.000232686 0)
(-0.00388554 0.00023522 0)
(-0.0042252 0.000236589 0)
(-0.00456599 0.000236829 0)
(-0.00490633 0.000235975 0)
(-0.00524468 0.000234068 0)
(-0.00557956 0.000231147 0)
(-0.00590954 0.000227252 0)
(-0.00623326 0.000222425 0)
(-0.00654939 0.000216705 0)
(-0.00685669 0.000210133 0)
(-0.00715395 0.000202752 0)
(-0.00744003 0.000194602 0)
(-0.00771386 0.000185725 0)
(-0.00797441 0.000176164 0)
(-0.00822073 0.00016596 0)
(-0.00845192 0.000155156 0)
(-0.00866714 0.000143795 0)
(-0.00886561 0.000131918 0)
(-0.00904663 0.000119569 0)
(-0.00920954 0.000106792 0)
(-0.00935375 9.36287e-05 0)
(-0.00947874 8.01243e-05 0)
(-0.00958406 6.63229e-05 0)
(-0.0096693 5.22697e-05 0)
(-0.00973414 3.80113e-05 0)
(-0.00977832 2.35937e-05 0)
(-0.00980164 9.06364e-06 0)
(-0.00980399 -5.53074e-06 0)
(-0.00978529 -2.01415e-05 0)
(-0.00974558 -3.47195e-05 0)
(-0.00968494 -4.92146e-05 0)
(-0.00960353 -6.35764e-05 0)
(-0.00950157 -7.7754e-05 0)
(-0.00937939 -9.1695e-05 0)
(-0.00923736 -0.000105347 0)
(-0.00907595 -0.000118658 0)
(-0.00889568 -0.000131573 0)
(-0.00869718 -0.000144038 0)
(-0.00848113 -0.000156 0)
(-0.0082483 -0.000167405 0)
(-0.00799953 -0.000178198 0)
(-0.00773575 -0.000188324 0)
(-0.00745796 -0.000197731 0)
(-0.00716723 -0.000206366 0)
(-0.00686471 -0.000214175 0)
(-0.00655163 -0.000221108 0)
(-0.00622928 -0.000227113 0)
(-0.00589902 -0.000232143 0)
(-0.0055623 -0.000236148 0)
(-0.00522059 -0.000239085 0)
(-0.00487548 -0.00024091 0)
(-0.00452856 -0.000241581 0)
(-0.0041815 -0.000241062 0)
(-0.00383604 -0.000239317 0)
(-0.00349392 -0.000236315 0)
(-0.00315695 -0.000232029 0)
(-0.00282696 -0.000226435 0)
(-0.00250579 -0.000219517 0)
(-0.00219532 -0.000211263 0)
(-0.00189742 -0.000201668 0)
(-0.00161393 -0.000190735 0)
(-0.00134672 -0.000178477 0)
(-0.00109756 -0.000164918 0)
(-0.000868201 -0.000150099 0)
(-0.000660289 -0.000134077 0)
(-0.000475352 -0.000116939 0)
(-0.000314747 -9.88016e-05 0)
(-0.000179605 -7.98328e-05 0)
(-7.07478e-05 -6.02684e-05 0)
(1.14212e-05 -4.04462e-05 0)
(6.70782e-05 -2.08574e-05 0)
(9.7203e-05 -2.22945e-06 0)
(0.000103889 1.43445e-05 0)
(9.06941e-05 2.72166e-05 0)
(6.31955e-05 3.38986e-05 0)
(3.07862e-05 3.07843e-05 0)
(7.42805e-06 1.41883e-05 0)
(8.73131e-06 -3.31473e-05 0)
(3.26788e-05 -6.13087e-05 0)
(5.99736e-05 -5.96873e-05 0)
(7.38806e-05 -3.69813e-05 0)
(6.32148e-05 -1.80476e-07 0)
(2.10097e-05 4.54779e-05 0)
(-5.73301e-05 9.62173e-05 0)
(-0.000174545 0.000149365 0)
(-0.000331878 0.000203044 0)
(-0.000529442 0.000255936 0)
(-0.000766514 0.000307107 0)
(-0.00104174 0.000355901 0)
(-0.00135331 0.000401854 0)
(-0.00169906 0.000444641 0)
(-0.00207659 0.000484042 0)
(-0.00248334 0.000519913 0)
(-0.00291659 0.000552165 0)
(-0.00337359 0.000580759 0)
(-0.00385151 0.000605684 0)
(-0.00434754 0.000626959 0)
(-0.00485883 0.000644622 0)
(-0.0053826 0.000658731 0)
(-0.00591609 0.000669354 0)
(-0.00645657 0.000676571 0)
(-0.00700139 0.00068047 0)
(-0.00754796 0.000681147 0)
(-0.00809376 0.0006787 0)
(-0.00863634 0.000673236 0)
(-0.00917335 0.000664863 0)
(-0.0097025 0.000653692 0)
(-0.0102216 0.000639835 0)
(-0.0107285 0.00062341 0)
(-0.0112213 0.00060453 0)
(-0.011698 0.000583315 0)
(-0.0121567 0.000559882 0)
(-0.0125958 0.000534352 0)
(-0.0130136 0.000506844 0)
(-0.0134086 0.00047748 0)
(-0.0137793 0.000446382 0)
(-0.0141244 0.000413673 0)
(-0.0144426 0.000379476 0)
(-0.0147328 0.000343915 0)
(-0.0149939 0.000307117 0)
(-0.015225 0.000269208 0)
(-0.0154253 0.000230316 0)
(-0.015594 0.000190571 0)
(-0.0157304 0.000150102 0)
(-0.0158342 0.000109045 0)
(-0.0159047 6.75325e-05 0)
(-0.0159419 2.57025e-05 0)
(-0.0159453 -1.63076e-05 0)
(-0.015915 -5.83572e-05 0)
(-0.015851 -0.000100304 0)
(-0.0157535 -0.000142005 0)
(-0.0156227 -0.000183312 0)
(-0.0154589 -0.000224078 0)
(-0.0152627 -0.000264155 0)
(-0.0150348 -0.00030339 0)
(-0.0147757 -0.000341631 0)
(-0.0144865 -0.000378724 0)
(-0.0141682 -0.000414516 0)
(-0.0138217 -0.00044885 0)
(-0.0134484 -0.000481572 0)
(-0.0130496 -0.000512527 0)
(-0.0126268 -0.000541561 0)
(-0.0121816 -0.000568522 0)
(-0.0117157 -0.000593258 0)
(-0.011231 -0.000615622 0)
(-0.0107294 -0.000635468 0)
(-0.010213 -0.000652653 0)
(-0.00968393 -0.00066704 0)
(-0.00914454 -0.000678497 0)
(-0.00859719 -0.000686898 0)
(-0.00804436 -0.000692123 0)
(-0.0074886 -0.000694061 0)
(-0.00693257 -0.000692609 0)
(-0.00637897 -0.000687675 0)
(-0.0058306 -0.000679177 0)
(-0.00529028 -0.000667046 0)
(-0.0047609 -0.000651228 0)
(-0.00424534 -0.000631685 0)
(-0.00374652 -0.000608398 0)
(-0.00326735 -0.000581372 0)
(-0.00281071 -0.000550634 0)
(-0.00237941 -0.000516246 0)
(-0.00197621 -0.000478307 0)
(-0.00160371 -0.000436962 0)
(-0.00126439 -0.00039242 0)
(-0.000960473 -0.000344963 0)
(-0.000693907 -0.000294981 0)
(-0.000466249 -0.000243002 0)
(-0.000278554 -0.000189744 0)
(-0.000131207 -0.000136193 0)
(-2.37296e-05 -8.37121e-05 0)
(4.55066e-05 -3.42021e-05 0)
(7.96199e-05 9.6747e-06 0)
(8.35566e-05 4.42039e-05 0)
(6.4554e-05 6.42907e-05 0)
(3.40181e-05 6.32193e-05 0)
(8.82553e-06 3.30382e-05 0)
(7.58485e-06 -5.06565e-05 0)
(2.51716e-05 -8.60636e-05 0)
(3.786e-05 -7.37153e-05 0)
(2.86193e-05 -2.75185e-05 0)
(-1.4276e-05 4.20824e-05 0)
(-9.85012e-05 0.000127007 0)
(-0.000229309 0.000221138 0)
(-0.000409946 0.000319958 0)
(-0.000641987 0.000420147 0)
(-0.000925691 0.000519272 0)
(-0.00126028 0.000615555 0)
(-0.00164418 0.000707702 0)
(-0.00207521 0.000794763 0)
(-0.00255071 0.000876063 0)
(-0.00306767 0.000951117 0)
(-0.00362284 0.0010196 0)
(-0.00421276 0.00108129 0)
(-0.00483386 0.00113608 0)
(-0.00548248 0.0011839 0)
(-0.00615494 0.00122477 0)
(-0.00684753 0.00125873 0)
(-0.00755656 0.00128587 0)
(-0.00827838 0.0013063 0)
(-0.00900938 0.00132017 0)
(-0.00974603 0.00132762 0)
(-0.0104849 0.00132884 0)
(-0.0112226 0.001324 0)
(-0.0119558 0.0013133 0)
(-0.0126814 0.00129695 0)
(-0.0133964 0.00127515 0)
(-0.0140977 0.00124812 0)
(-0.0147826 0.00121608 0)
(-0.0154483 0.00117926 0)
(-0.0160922 0.00113787 0)
(-0.0167119 0.00109216 0)
(-0.017305 0.00104235 0)
(-0.0178694 0.000988677 0)
(-0.0184029 0.000931376 0)
(-0.0189035 0.000870687 0)
(-0.0193696 0.000806848 0)
(-0.0197993 0.000740101 0)
(-0.0201911 0.00067069 0)
(-0.0205436 0.000598861 0)
(-0.0208556 0.000524865 0)
(-0.0211259 0.00044895 0)
(-0.0213535 0.000371372 0)
(-0.0215375 0.000292388 0)
(-0.0216773 0.000212259 0)
(-0.0217724 0.000131249 0)
(-0.0218222 4.96248e-05 0)
(-0.0218265 -3.23418e-05 0)
(-0.0217853 -0.000114376 0)
(-0.0216985 -0.000196199 0)
(-0.0215664 -0.000277529 0)
(-0.0213894 -0.000358081 0)
(-0.0211679 -0.000437566 0)
(-0.0209027 -0.000515691 0)
(-0.0205946 -0.000592163 0)
(-0.0202446 -0.000666683 0)
(-0.0198539 -0.000738953 0)
(-0.0194238 -0.000808672 0)
(-0.0189558 -0.000875541 0)
(-0.0184516 -0.000939257 0)
(-0.0179131 -0.000999521 0)
(-0.0173422 -0.00105604 0)
(-0.0167412 -0.00110851 0)
(-0.0161122 -0.00115664 0)
(-0.0154579 -0.00120015 0)
(-0.0147808 -0.00123876 0)
(-0.0140837 -0.0012722 0)
(-0.0133696 -0.0013002 0)
(-0.0126415 -0.00132251 0)
(-0.0119026 -0.0013389 0)
(-0.0111562 -0.00134913 0)
(-0.0104057 -0.001353 0)
(-0.0096547 -0.00135032 0)
(-0.0089068 -0.00134092 0)
(-0.00816568 -0.00132465 0)
(-0.0074351 -0.00130139 0)
(-0.00671888 -0.00127105 0)
(-0.00602083 -0.00123358 0)
(-0.00534478 -0.00118895 0)
(-0.00469455 -0.00113721 0)
(-0.00407388 -0.00107842 0)
(-0.00348645 -0.00101276 0)
(-0.00293578 -0.000940425 0)
(-0.00242524 -0.000861757 0)
(-0.00195793 -0.000777196 0)
(-0.00153666 -0.000687339 0)
(-0.00116381 -0.000592984 0)
(-0.000841249 -0.000495186 0)
(-0.000570191 -0.00039535 0)
(-0.000350994 -0.000295345 0)
(-0.000182957 -0.000197668 0)
(-6.40421e-05 -0.000105668 0)
(9.45721e-06 -2.38392e-05 0)
(4.32102e-05 4.18214e-05 0)
(4.52504e-05 8.34519e-05 0)
(2.76628e-05 9.09997e-05 0)
(7.90739e-06 5.14721e-05 0)
(5.22338e-06 -6.23217e-05 0)
(1.17852e-05 -9.56792e-05 0)
(1.96603e-06 -6.36058e-05 0)
(-3.95822e-05 1.51467e-05 0)
(-0.000124073 0.00012681 0)
(-0.000259291 0.000260543 0)
(-0.000450629 0.000407924 0)
(-0.000701471 0.00056253 0)
(-0.0010135 0.000719496 0)
(-0.00138699 0.000875148 0)
(-0.00182107 0.00102672 0)
(-0.00231398 0.00117214 0)
(-0.00286321 0.00130986 0)
(-0.00346572 0.00143875 0)
(-0.00411799 0.00155796 0)
(-0.00481619 0.00166692 0)
(-0.00555624 0.00176523 0)
(-0.0063339 0.00185263 0)
(-0.00714478 0.00192901 0)
(-0.00798445 0.00199432 0)
(-0.00884842 0.00204862 0)
(-0.00973224 0.002092 0)
(-0.0106314 0.00212464 0)
(-0.0115416 0.00214672 0)
(-0.0124585 0.00215848 0)
(-0.0133779 0.00216018 0)
(-0.0142955 0.00215211 0)
(-0.0152075 0.00213457 0)
(-0.0161098 0.00210788 0)
(-0.0169987 0.00207237 0)
(-0.0178706 0.00202838 0)
(-0.0187219 0.00197626 0)
(-0.0195494 0.00191638 0)
(-0.0203497 0.0018491 0)
(-0.0211199 0.00177477 0)
(-0.021857 0.00169379 0)
(-0.0225583 0.00160653 0)
(-0.0232212 0.00151338 0)
(-0.0238432 0.00141471 0)
(-0.0244222 0.00131091 0)
(-0.024956 0.00120239 0)
(-0.0254427 0.00108954 0)
(-0.0258806 0.000972762 0)
(-0.026268 0.000852457 0)
(-0.0266036 0.000729039 0)
(-0.0268861 0.000602921 0)
(-0.0271145 0.000474525 0)
(-0.0272879 0.000344276 0)
(-0.0274056 0.000212603 0)
(-0.0274672 7.99432e-05 0)
(-0.0274722 -5.3261e-05 0)
(-0.0274206 -0.000186562 0)
(-0.0273125 -0.000319507 0)
(-0.0271481 -0.000451635 0)
(-0.0269278 -0.000582484 0)
(-0.0266524 -0.000711582 0)
(-0.0263226 -0.000838457 0)
(-0.0259396 -0.000962628 0)
(-0.0255046 -0.00108362 0)
(-0.025019 -0.00120093 0)
(-0.0244846 -0.0013141 0)
(-0.0239031 -0.00142262 0)
(-0.0232768 -0.00152602 0)
(-0.0226078 -0.0016238 0)
(-0.0218987 -0.00171549 0)
(-0.0211521 -0.00180062 0)
(-0.0203709 -0.00187871 0)
(-0.0195581 -0.00194931 0)
(-0.0187171 -0.00201197 0)
(-0.0178512 -0.00206625 0)
(-0.0169641 -0.00211174 0)
(-0.0160595 -0.00214803 0)
(-0.0151414 -0.00217475 0)
(-0.0142138 -0.00219154 0)
(-0.013281 -0.00219808 0)
(-0.0123472 -0.00219406 0)
(-0.011417 -0.00217923 0)
(-0.0104948 -0.00215337 0)
(-0.00958515 -0.00211631 0)
(-0.00869278 -0.00206791 0)
(-0.0078223 -0.00200812 0)
(-0.00697834 -0.00193693 0)
(-0.00616551 -0.00185442 0)
(-0.00538831 -0.00176077 0)
(-0.00465114 -0.00165625 0)
(-0.0039582 -0.00154128 0)
(-0.00331348 -0.00141643 0)
(-0.00272061 -0.00128245 0)
(-0.00218288 -0.00114035 0)
(-0.00170304 -0.000991456 0)
(-0.00128322 -0.000837479 0)
(-0.000924771 -0.000680647 0)
(-0.000628085 -0.000523855 0)
(-0.000392385 -0.00037087 0)
(-0.000215465 -0.000226595 0)
(-9.34114e-05 -9.741e-05 0)
(-2.03317e-05 8.41591e-06 0)
(1.20035e-05 8.03235e-05 0)
(1.53374e-05 0.00010499 0)
(5.7504e-06 6.46647e-05 0)
(2.28225e-06 -6.58514e-05 0)
(-4.9987e-06 -8.49005e-05 0)
(-4.2641e-05 -2.25062e-05 0)
(-0.000122964 9.86425e-05 0)
(-0.00025589 0.000261785 0)
(-0.000448826 0.000453548 0)
(-0.000706914 0.00066333 0)
(-0.00103336 0.000882852 0)
(-0.00142971 0.00110569 0)
(-0.00189613 0.00132688 0)
(-0.00243157 0.0015426 0)
(-0.00303405 0.0017499 0)
(-0.00370077 0.00194656 0)
(-0.0044283 0.00213089 0)
(-0.00521273 0.00230165 0)
(-0.00604972 0.00245792 0)
(-0.00693465 0.00259907 0)
(-0.00786268 0.00272467 0)
(-0.00882881 0.00283451 0)
(-0.00982795 0.00292847 0)
(-0.0108549 0.00300657 0)
(-0.0119046 0.00306894 0)
(-0.0129718 0.00311577 0)
(-0.0140515 0.00314732 0)
(-0.0151386 0.0031639 0)
(-0.0162282 0.00316587 0)
(-0.0173154 0.00315363 0)
(-0.0183955 0.0031276 0)
(-0.0194641 0.00308824 0)
(-0.0205166 0.003036 0)
(-0.0215487 0.0029714 0)
(-0.0225564 0.00289492 0)
(-0.0235357 0.00280708 0)
(-0.0244828 0.00270842 0)
(-0.0253941 0.00259947 0)
(-0.0262662 0.00248077 0)
(-0.0270958 0.00235288 0)
(-0.02788 0.00221635 0)
(-0.0286158 0.00207176 0)
(-0.0293006 0.00191966 0)
(-0.0299319 0.00176064 0)
(-0.0305075 0.00159527 0)
(-0.0310252 0.00142416 0)
(-0.0314832 0.00124789 0)
(-0.0318799 0.00106706 0)
(-0.0322138 0.000882292 0)
(-0.0324836 0.000694193 0)
(-0.0326884 0.000503391 0)
(-0.0328273 0.000310517 0)
(-0.0328998 0.000116212 0)
(-0.0329054 -7.8875e-05 0)
(-0.0328441 -0.000274088 0)
(-0.0327159 -0.00046876 0)
(-0.0325211 -0.000662221 0)
(-0.0322603 -0.000853788 0)
(-0.0319343 -0.00104278 0)
(-0.0315441 -0.00122849 0)
(-0.0310909 -0.00141023 0)
(-0.0305763 -0.00158729 0)
(-0.0300019 -0.00175897 0)
(-0.0293698 -0.00192455 0)
(-0.0286821 -0.00208333 0)
(-0.0279414 -0.00223461 0)
(-0.0271502 -0.00237767 0)
(-0.0263116 -0.00251182 0)
(-0.0254286 -0.00263636 0)
(-0.0245047 -0.00275064 0)
(-0.0235435 -0.00285397 0)
(-0.0225487 -0.00294571 0)
(-0.0215245 -0.00302523 0)
(-0.0204751 -0.00309194 0)
(-0.0194048 -0.00314526 0)
(-0.0183183 -0.00318464 0)
(-0.0172204 -0.00320959 0)
(-0.0161159 -0.00321964 0)
(-0.0150099 -0.00321438 0)
(-0.0139076 -0.00319345 0)
(-0.0128143 -0.00315654 0)
(-0.0117352 -0.00310343 0)
(-0.0106757 -0.00303396 0)
(-0.00964126 -0.00294807 0)
(-0.00863716 -0.0028458 0)
(-0.00766871 -0.00272729 0)
(-0.00674108 -0.00259285 0)
(-0.00585931 -0.00244292 0)
(-0.00502818 -0.00227814 0)
(-0.00425219 -0.0020994 0)
(-0.0035355 -0.00190784 0)
(-0.00288175 -0.00170496 0)
(-0.00229406 -0.00149269 0)
(-0.0017748 -0.00127349 0)
(-0.00132552 -0.00105051 0)
(-0.000946728 -0.000827747 0)
(-0.00063772 -0.000610291 0)
(-0.000396359 -0.00040462 0)
(-0.00021884 -0.000218964 0)
(-9.944e-05 -6.3754e-05 0)
(-3.02021e-05 4.7942e-05 0)
(-5.06926e-07 9.9839e-05 0)
(2.98204e-06 7.02505e-05 0)
(-8.99466e-07 -6.00471e-05 0)
(-2.36119e-05 -5.04435e-05 0)
(-9.24376e-05 5.42476e-05 0)
(-0.000215893 0.000228375 0)
(-0.000402062 0.000452682 0)
(-0.000657606 0.000711566 0)
(-0.000987097 0.000992448 0)
(-0.00139329 0.00128532 0)
(-0.00187742 0.00158224 0)
(-0.00243935 0.00187697 0)
(-0.00307778 0.0021646 0)
(-0.00379044 0.00244128 0)
(-0.00457423 0.00270405 0)
(-0.00542537 0.00295063 0)
(-0.00633953 0.00317929 0)
(-0.00731194 0.00338874 0)
(-0.00833751 0.00357808 0)
(-0.00941086 0.00374668 0)
(-0.0105265 0.00389415 0)
(-0.0116786 0.00402031 0)
(-0.0128616 0.00412514 0)
(-0.0140695 0.00420876 0)
(-0.0152968 0.00427138 0)
(-0.0165375 0.00431332 0)
(-0.0177862 0.00433498 0)
(-0.0190371 0.00433681 0)
(-0.0202849 0.00431934 0)
(-0.0215241 0.00428312 0)
(-0.0227497 0.00422874 0)
(-0.0239566 0.00415683 0)
(-0.0251399 0.00406806 0)
(-0.026295 0.00396309 0)
(-0.0274174 0.00384262 0)
(-0.0285027 0.00370737 0)
(-0.0295469 0.00355806 0)
(-0.0305461 0.00339543 0)
(-0.0314965 0.00322023 0)
(-0.0323947 0.00303323 0)
(-0.0332374 0.0028352 0)
(-0.0340217 0.00262691 0)
(-0.0347446 0.00240915 0)
(-0.0354036 0.00218272 0)
(-0.0359963 0.00194843 0)
(-0.0365207 0.0017071 0)
(-0.0369747 0.00145954 0)
(-0.0373568 0.0012066 0)
(-0.0376655 0.000949115 0)
(-0.0378998 0.000687947 0)
(-0.0380586 0.000423961 0)
(-0.0381412 0.000158035 0)
(-0.0381474 -0.000108942 0)
(-0.0380769 -0.000376072 0)
(-0.0379299 -0.000642442 0)
(-0.0377066 -0.000907134 0)
(-0.0374078 -0.00116922 0)
(-0.0370343 -0.00142775 0)
(-0.0365874 -0.00168178 0)
(-0.0360683 -0.00193037 0)
(-0.0354789 -0.00217254 0)
(-0.0348212 -0.00240734 0)
(-0.0340973 -0.00263379 0)
(-0.0333098 -0.00285094 0)
(-0.0324616 -0.00305782 0)
(-0.0315556 -0.00325347 0)
(-0.0305953 -0.00343696 0)
(-0.0295841 -0.00360734 0)
(-0.028526 -0.00376369 0)
(-0.0274251 -0.00390512 0)
(-0.0262857 -0.00403076 0)
(-0.0251123 -0.00413975 0)
(-0.0239099 -0.0042313 0)
(-0.0226833 -0.00430463 0)
(-0.0214379 -0.00435903 0)
(-0.0201789 -0.00439381 0)
(-0.018912 -0.00440837 0)
(-0.0176429 -0.00440216 0)
(-0.0163774 -0.00437472 0)
(-0.0151214 -0.00432567 0)
(-0.013881 -0.00425472 0)
(-0.012662 -0.00416169 0)
(-0.0114707 -0.00404654 0)
(-0.0103128 -0.00390935 0)
(-0.00919451 -0.00375037 0)
(-0.00812141 -0.00357006 0)
(-0.00709912 -0.00336906 0)
(-0.00613298 -0.00314831 0)
(-0.00522796 -0.00290903 0)
(-0.00438863 -0.00265282 0)
(-0.00361904 -0.00238173 0)
(-0.00292263 -0.00209836 0)
(-0.00230206 -0.00180598 0)
(-0.00175912 -0.0015087 0)
(-0.00129455 -0.00121164 0)
(-0.000907868 -0.000921227 0)
(-0.000597223 -0.000645468 0)
(-0.000359177 -0.000394338 0)
(-0.000188489 -0.000180249 0)
(-7.78437e-05 -1.84939e-05 0)
(-1.82929e-05 7.21356e-05 0)
(-5.35903e-08 6.69608e-05 0)
(-4.13678e-06 -4.43286e-05 0)
(-4.30723e-05 9.63854e-06 0)
(-0.000145044 0.00016966 0)
(-0.000314387 0.000408023 0)
(-0.000557013 0.000703492 0)
(-0.000878568 0.00103859 0)
(-0.0012828 0.00139902 0)
(-0.00177182 0.00177318 0)
(-0.00234634 0.00215176 0)
(-0.0030058 0.00252726 0)
(-0.00374854 0.00289371 0)
(-0.00457194 0.00324637 0)
(-0.00547255 0.00358151 0)
(-0.00644622 0.00389622 0)
(-0.00748823 0.00418825 0)
(-0.0085934 0.00445593 0)
(-0.00975618 0.00469801 0)
(-0.0109707 0.00491364 0)
(-0.012231 0.00510227 0)
(-0.0135308 0.00526359 0)
(-0.0148638 0.00539754 0)
(-0.0162237 0.00550419 0)
(-0.0176042 0.0055838 0)
(-0.0189989 0.00563673 0)
(-0.0204016 0.00566347 0)
(-0.0218063 0.00566457 0)
(-0.0232067 0.00564067 0)
(-0.0245972 0.00559248 0)
(-0.0259719 0.00552073 0)
(-0.0273252 0.00542624 0)
(-0.0286518 0.00530983 0)
(-0.0299464 0.00517238 0)
(-0.0312042 0.00501478 0)
(-0.0324202 0.00483794 0)
(-0.03359 0.00464282 0)
(-0.0347091 0.00443035 0)
(-0.0357736 0.00420153 0)
(-0.0367795 0.00395733 0)
(-0.0377231 0.00369875 0)
(-0.0386012 0.00342682 0)
(-0.0394105 0.00314256 0)
(-0.0401482 0.00284701 0)
(-0.0408117 0.00254122 0)
(-0.0413985 0.00222626 0)
(-0.0419066 0.0019032 0)
(-0.0423341 0.00157313 0)
(-0.0426796 0.00123717 0)
(-0.0429415 0.00089641 0)
(-0.0431191 0.000552 0)
(-0.0432114 0.000205082 0)
(-0.0432181 -0.000143185 0)
(-0.0431391 -0.000491629 0)
(-0.0429743 -0.000839062 0)
(-0.0427243 -0.00118428 0)
(-0.0423897 -0.00152608 0)
(-0.0419715 -0.00186324 0)
(-0.0414711 -0.00219451 0)
(-0.0408901 -0.00251866 0)
(-0.0402303 -0.00283444 0)
(-0.039494 -0.0031406 0)
(-0.0386837 -0.00343588 0)
(-0.0378022 -0.00371904 0)
(-0.0368527 -0.00398882 0)
(-0.0358385 -0.00424399 0)
(-0.0347633 -0.00448333 0)
(-0.0336312 -0.00470561 0)
(-0.0324464 -0.00490967 0)
(-0.0312135 -0.00509434 0)
(-0.0299372 -0.00525849 0)
(-0.0286228 -0.00540105 0)
(-0.0272755 -0.00552098 0)
(-0.0259008 -0.00561728 0)
(-0.0245045 -0.00568905 0)
(-0.0230927 -0.00573543 0)
(-0.0216714 -0.00575564 0)
(-0.0202469 -0.00574902 0)
(-0.0188257 -0.00571497 0)
(-0.0174143 -0.00565303 0)
(-0.0160192 -0.00556287 0)
(-0.0146472 -0.00544429 0)
(-0.0133048 -0.00529727 0)
(-0.0119986 -0.00512197 0)
(-0.010735 -0.00491876 0)
(-0.00952043 -0.00468826 0)
(-0.00836091 -0.00443137 0)
(-0.00726223 -0.00414934 0)
(-0.00622985 -0.00384378 0)
(-0.00526874 -0.00351678 0)
(-0.00438334 -0.00317098 0)
(-0.00357742 -0.00280969 0)
(-0.00285399 -0.00243702 0)
(-0.00221516 -0.00205803 0)
(-0.00166199 -0.001679 0)
(-0.00119439 -0.00130761 0)
(-0.00081094 -0.000953313 0)
(-0.0005088 -0.000627688 0)
(-0.000283457 -0.000344899 0)
(-0.000128508 -0.000122131 0)
(-3.70198e-05 1.98217e-05 0)
(-3.16643e-06 5.41545e-05 0)
(-7.33511e-06 -1.85008e-05 0)
(-6.27796e-05 9.63266e-05 0)
(-0.00019888 0.000325468 0)
(-0.000415681 0.000639882 0)
(-0.00071675 0.00101684 0)
(-0.00110653 0.00143738 0)
(-0.00158778 0.0018857 0)
(-0.00216177 0.00234885 0)
(-0.00282855 0.00281623 0)
(-0.00358704 0.0032792 0)
(-0.00443509 0.00373077 0)
(-0.00536966 0.00416532 0)
(-0.0063869 0.00457836 0)
(-0.00748226 0.00496634 0)
(-0.00865063 0.0053265 0)
(-0.00988641 0.00565673 0)
(-0.0111836 0.00595544 0)
(-0.012536 0.00622152 0)
(-0.013937 0.00645423 0)
(-0.0153799 0.00665314 0)
(-0.0168581 0.0068181 0)
(-0.0183645 0.00694917 0)
(-0.0198925 0.0070466 0)
(-0.0214351 0.00711083 0)
(-0.0229856 0.00714239 0)
(-0.0245374 0.00714195 0)
(-0.0260839 0.00711029 0)
(-0.0276186 0.00704825 0)
(-0.0291354 0.00695675 0)
(-0.0306282 0.00683677 0)
(-0.0320912 0.00668933 0)
(-0.0335185 0.00651551 0)
(-0.0349049 0.00631642 0)
(-0.0362451 0.0060932 0)
(-0.037534 0.00584702 0)
(-0.0387671 0.00557908 0)
(-0.0399396 0.00529059 0)
(-0.0410475 0.00498279 0)
(-0.0420868 0.00465694 0)
(-0.0430537 0.00431431 0)
(-0.0439449 0.00395619 0)
(-0.0447571 0.00358389 0)
(-0.0454875 0.00319872 0)
(-0.0461334 0.00280204 0)
(-0.0466927 0.0023952 0)
(-0.0471633 0.00197956 0)
(-0.0475434 0.00155651 0)
(-0.0478317 0.00112747 0)
(-0.048027 0.000693857 0)
(-0.0481286 0.000257111 0)
(-0.0481359 -0.000181309 0)
(-0.0480488 -0.000619927 0)
(-0.0478674 -0.00105725 0)
(-0.0475921 -0.00149177 0)
(-0.0472238 -0.00192197 0)
(-0.0467635 -0.0023463 0)
(-0.0462127 -0.00276323 0)
(-0.0455732 -0.00317118 0)
(-0.0448469 -0.00356861 0)
(-0.0440365 -0.00395393 0)
(-0.0431445 -0.00432558 0)
(-0.0421741 -0.00468199 0)
(-0.0411287 -0.0050216 0)
(-0.0400121 -0.00534287 0)
(-0.0388282 -0.00564427 0)
(-0.0375815 -0.00592428 0)
(-0.0362765 -0.00618143 0)
(-0.0349184 -0.00641429 0)
(-0.0335123 -0.00662144 0)
(-0.0320638 -0.00680156 0)
(-0.0305786 -0.00695335 0)
(-0.0290629 -0.00707559 0)
(-0.0275229 -0.00716716 0)
(-0.0259651 -0.00722701 0)
(-0.0243961 -0.00725419 0)
(-0.0228229 -0.00724789 0)
(-0.0212523 -0.0072074 0)
(-0.0196915 -0.00713217 0)
(-0.0181476 -0.00702183 0)
(-0.0166278 -0.00687617 0)
(-0.0151392 -0.00669519 0)
(-0.0136889 -0.00647915 0)
(-0.0122839 -0.00622855 0)
(-0.0109311 -0.00594421 0)
(-0.00963689 -0.0056273 0)
(-0.00840763 -0.0052794 0)
(-0.00724917 -0.00490255 0)
(-0.00616689 -0.00449936 0)
(-0.00516564 -0.00407307 0)
(-0.00424957 -0.00362773 0)
(-0.00342207 -0.00316826 0)
(-0.00268565 -0.00270071 0)
(-0.00204181 -0.00223241 0)
(-0.00149095 -0.00177227 0)
(-0.00103226 -0.00133107 0)
(-0.000663655 -0.0009218 0)
(-0.00038153 -0.000560143 0)
(-0.000180577 -0.00026483 0)
(-5.60655e-05 -5.81808e-05 0)
(-6.25466e-06 3.15916e-05 0)
(-1.04471e-05 1.74086e-05 0)
(-8.23708e-05 0.000209967 0)
(-0.00025292 0.000522507 0)
(-0.000517893 0.000925213 0)
(-0.000878461 0.00139431 0)
(-0.00133776 0.00190965 0)
(-0.00189743 0.00245425 0)
(-0.00255778 0.00301395 0)
(-0.00331809 0.00357703 0)
(-0.0041766 0.00413381 0)
(-0.00513063 0.00467635 0)
(-0.00617664 0.0051982 0)
(-0.00731032 0.00569413 0)
(-0.00852668 0.00615997 0)
(-0.0098202 0.00659243 0)
(-0.0111849 0.00698895 0)
(-0.0126143 0.00734761 0)
(-0.0141017 0.00766702 0)
(-0.0156402 0.00794624 0)
(-0.0172226 0.0081847 0)
(-0.0188417 0.00838214 0)
(-0.0204902 0.00853862 0)
(-0.0221608 0.00865438 0)
(-0.0238461 0.00872989 0)
(-0.025539 0.00876578 0)
(-0.0272324 0.00876283 0)
(-0.028919 0.00872193 0)
(-0.0305922 0.00864408 0)
(-0.0322453 0.00853038 0)
(-0.0338715 0.00838199 0)
(-0.0354648 0.00820015 0)
(-0.037019 0.00798615 0)
(-0.0385281 0.00774133 0)
(-0.0399866 0.00746707 0)
(-0.0413892 0.0071648 0)
(-0.0427306 0.00683595 0)
(-0.0440062 0.00648202 0)
(-0.0452112 0.00610451 0)
(-0.0463414 0.00570495 0)
(-0.0473928 0.00528489 0)
(-0.0483617 0.00484591 0)
(-0.0492448 0.00438961 0)
(-0.0500388 0.00391761 0)
(-0.050741 0.00343153 0)
(-0.0513489 0.00293305 0)
(-0.0518604 0.00242383 0)
(-0.0522736 0.00190558 0)
(-0.052587 0.00138003 0)
(-0.0527993 0.000848896 0)
(-0.0529097 0.000313961 0)
(-0.0529177 -0.000222997 0)
(-0.0528231 -0.000760174 0)
(-0.052626 -0.00129574 0)
(-0.052327 -0.00182787 0)
(-0.0519268 -0.00235468 0)
(-0.0514267 -0.00287431 0)
(-0.0508283 -0.00338486 0)
(-0.0501333 -0.00388444 0)
(-0.0493442 -0.00437114 0)
(-0.0484634 -0.00484304 0)
(-0.047494 -0.00529823 0)
(-0.0464393 -0.0057348 0)
(-0.0453029 -0.00615087 0)
(-0.0440889 -0.00654454 0)
(-0.0428017 -0.00691396 0)
(-0.0414459 -0.00725729 0)
(-0.0400266 -0.00757276 0)
(-0.0385492 -0.0078586 0)
(-0.0370192 -0.00811314 0)
(-0.0354427 -0.00833474 0)
(-0.0338258 -0.00852186 0)
(-0.0321751 -0.00867304 0)
(-0.0304974 -0.00878691 0)
(-0.0287995 -0.00886222 0)
(-0.0270887 -0.00889786 0)
(-0.0253723 -0.00889284 0)
(-0.0236577 -0.00884634 0)
(-0.0219526 -0.00875775 0)
(-0.0202646 -0.00862661 0)
(-0.0186014 -0.00845273 0)
(-0.0169705 -0.00823616 0)
(-0.0153797 -0.00797723 0)
(-0.0138364 -0.00767662 0)
(-0.0123478 -0.00733534 0)
(-0.010921 -0.00695485 0)
(-0.00956265 -0.00653709 0)
(-0.00827908 -0.00608453 0)
(-0.00707609 -0.00560032 0)
(-0.00595894 -0.00508832 0)
(-0.00493222 -0.00455327 0)
(-0.00399976 -0.00400095 0)
(-0.00316454 -0.0034383 0)
(-0.00242858 -0.00287369 0)
(-0.00179289 -0.00231715 0)
(-0.0012574 -0.00178063 0)
(-0.000820878 -0.00127839 0)
(-0.000480778 -0.000827372 0)
(-0.000232993 -0.000447528 0)
(-7.50508e-05 -0.000162293 0)
(-9.26611e-06 -7.27696e-07 0)
(-1.34532e-05 6.3237e-05 0)
(-0.000101638 0.000350493 0)
(-0.000306514 0.000760979 0)
(-0.000619775 0.00126453 0)
(-0.00104022 0.00183668 0)
(-0.00156963 0.00245639 0)
(-0.00220844 0.0031057 0)
(-0.00295593 0.00376949 0)
(-0.00381048 0.00443504 0)
(-0.00476962 0.00509175 0)
(-0.00583002 0.00573082 0)
(-0.00698757 0.00634501 0)
(-0.00823745 0.00692841 0)
(-0.00957422 0.00747625 0)
(-0.0109919 0.0079847 0)
(-0.012484 0.0084508 0)
(-0.0140437 0.00887227 0)
(-0.0156639 0.00924744 0)
(-0.0173372 0.00957515 0)
(-0.0190561 0.0098547 0)
(-0.0208127 0.0100857 0)
(-0.0225995 0.0102683 0)
(-0.0244087 0.0104026 0)
(-0.0262325 0.0104891 0)
(-0.0280632 0.0105286 0)
(-0.0298933 0.010522 0)
(-0.0317153 0.0104702 0)
(-0.0335219 0.0103745 0)
(-0.0353059 0.0102361 0)
(-0.0370605 0.0100563 0)
(-0.038779 0.00983675 0)
(-0.0404547 0.00957881 0)
(-0.0420816 0.00928412 0)
(-0.0436535 0.00895429 0)
(-0.0451648 0.00859103 0)
(-0.0466099 0.00819605 0)
(-0.0479839 0.00777111 0)
(-0.0492817 0.00731802 0)
(-0.0504988 0.00683858 0)
(-0.0516309 0.00633467 0)
(-0.0526741 0.00580816 0)
(-0.0536248 0.00526095 0)
(-0.0544796 0.00469498 0)
(-0.0552355 0.00411221 0)
(-0.0558899 0.00351462 0)
(-0.0564405 0.00290422 0)
(-0.0568853 0.00228304 0)
(-0.0572227 0.00165314 0)
(-0.0574514 0.00101661 0)
(-0.0575704 0.000375546 0)
(-0.0575793 -0.000267912 0)
(-0.0574777 -0.00091161 0)
(-0.0572659 -0.00155337 0)
(-0.0569445 -0.00219098 0)
(-0.0565142 -0.00282223 0)
(-0.0559763 -0.00344487 0)
(-0.0553327 -0.00405664 0)
(-0.0545851 -0.0046553 0)
(-0.0537362 -0.00523854 0)
(-0.0527886 -0.0058041 0)
(-0.0517455 -0.0063497 0)
(-0.0506105 -0.00687306 0)
(-0.0493874 -0.00737193 0)