/*--------------------------------*- C++ -*----------------------------------*\
| =========                 |                                                 |
| \\      /  F ield         | OpenFOAM: The Open Source CFD Toolbox           |
|  \\    /   O peration     | Version:  2212                                  |
|   \\  /    A nd           | Website:  www.openfoam.com                      |
|    \\/     M anipulation  |                                                 |
\*---------------------------------------------------------------------------*/
FoamFile
{
    version     2.0;
    format      ascii;
    arch        "LSB;label=32;scalar=64";
    class       surfaceScalarField;
    location    "0.0375";
    object      phi_0;
}
// * * * * * * * * * * * * * * * * * * * * * * * * * * * * * * * * * * * * * //

dimensions      [0 3 -1 0 0 0 0];

oriented        oriented;

internalField   nonuniform List<scalar> 
19800
(
6.19771e-11
-6.20201e-11
1.97616e-10
-1.35635e-10
3.35192e-10
-1.37574e-10
4.33414e-10
-9.82423e-11
4.67721e-10
-3.43178e-11
4.23669e-10
4.40665e-11
2.94008e-10
1.29661e-10
7.63679e-11
2.17661e-10
-2.28639e-10
3.05011e-10
-6.18358e-10
3.89713e-10
-1.08885e-09
4.70495e-10
-1.63537e-09
5.46506e-10
-2.25253e-09
6.17163e-10
-2.93472e-09
6.82182e-10
-3.67609e-09
7.41381e-10
-4.47074e-09
7.94659e-10
-5.31274e-09
8.42002e-10
-6.19617e-09
8.83441e-10
-7.11521e-09
9.19054e-10
-8.06418e-09
9.48967e-10
-9.03747e-09
9.73297e-10
-1.00296e-08
9.92184e-10
-1.10354e-08
1.0058e-09
-1.20498e-08
1.01433e-09
-1.30677e-08
1.01793e-09
-1.40845e-08
1.01679e-09
-1.50956e-08
1.0111e-09
-1.60966e-08
1.00104e-09
-1.70834e-08
9.86771e-10
-1.80519e-08
9.68501e-10
-1.89983e-08
9.46418e-10
-1.9919e-08
9.20703e-10
-2.08105e-08
8.9153e-10
-2.16696e-08
8.59088e-10
-2.24932e-08
8.23564e-10
-2.32783e-08
7.85122e-10
-2.40223e-08
7.43944e-10
-2.47225e-08
7.00215e-10
-2.53766e-08
6.54117e-10
-2.59824e-08
6.05821e-10
-2.65379e-08
5.55489e-10
-2.70412e-08
5.03296e-10
-2.74907e-08
4.49435e-10
-2.78847e-08
3.94079e-10
-2.82221e-08
3.37386e-10
-2.85016e-08
2.79521e-10
-2.87223e-08
2.20666e-10
-2.88833e-08
1.61006e-10
-2.8984e-08
1.0072e-10
-2.9024e-08
3.99918e-11
-2.9003e-08
-2.09958e-11
-2.8921e-08
-8.20689e-11
-2.87779e-08
-1.43029e-10
-2.85743e-08
-2.03681e-10
-2.83104e-08
-2.63848e-10
-2.79871e-08
-3.23327e-10
-2.76052e-08
-3.81892e-10
-2.71658e-08
-4.39355e-10
-2.66703e-08
-4.95523e-10
-2.61202e-08
-5.50168e-10
-2.55171e-08
-6.03071e-10
-2.48631e-08
-6.54029e-10
-2.41602e-08
-7.02819e-10
-2.3411e-08
-7.49212e-10
-2.2618e-08
-7.92995e-10
-2.17841e-08
-8.33951e-10
-2.09122e-08
-8.71842e-10
-2.00058e-08
-9.06431e-10
-1.90683e-08
-9.37499e-10
-1.81035e-08
-9.64843e-10
-1.71152e-08
-9.88251e-10
-1.61077e-08
-1.0075e-09
-1.50854e-08
-1.02237e-09
-1.40527e-08
-1.03265e-09
-1.30146e-08
-1.03815e-09
-1.19759e-08
-1.03868e-09
-1.09418e-08
-1.03407e-09
-9.91767e-09
-1.02416e-09
-8.90887e-09
-1.00881e-09
-7.92101e-09
-9.87867e-10
-6.95981e-09
-9.61199e-10
-6.03111e-09
-9.28695e-10
-5.14082e-09
-8.90287e-10
-4.29489e-09
-8.45934e-10
-3.49927e-09
-7.95618e-10
-2.7599e-09
-7.39373e-10
-2.0826e-09
-6.77296e-10
-1.47304e-09
-6.09562e-10
-9.36616e-10
-5.36426e-10
-4.78338e-10
-4.58275e-10
-1.02648e-10
-3.75685e-10
1.86864e-10
-2.89515e-10
3.87895e-10
-2.0104e-10
5.00067e-10
-1.12174e-10
5.26019e-10
-2.59454e-11
4.73099e-10
5.29242e-11
3.5619e-10
1.16904e-10
2.02523e-10
1.53664e-10
6.01485e-11
1.42383e-10
6.01517e-11
1.46952e-10
-2.08968e-10
3.82437e-10
-3.7113e-10
5.83582e-10
-3.38705e-10
6.72695e-10
-1.87338e-10
5.96545e-10
4.18229e-11
3.20919e-10
3.19699e-10
-1.73654e-10
6.24222e-10
-8.95893e-10
9.39884e-10
-1.84672e-09
1.25585e-09
-3.02163e-09
1.56464e-09
-4.41225e-09
1.86113e-09
-6.00746e-09
2.14174e-09
-7.79439e-09
2.40409e-09
-9.75877e-09
2.64658e-09
-1.18856e-08
2.86821e-09
-1.41593e-08
3.0684e-09
-1.65642e-08
3.24684e-09
-1.90843e-08
3.40351e-09
-2.17037e-08
3.53853e-09
-2.4407e-08
3.6522e-09
-2.71785e-08
3.74487e-09
-3.00034e-08
3.81703e-09
-3.28668e-08
3.86921e-09
-3.57545e-08
3.902e-09
-3.86525e-08
3.916e-09
-4.15476e-08
3.91187e-09
-4.44268e-08
3.89026e-09
-4.72776e-08
3.85185e-09
-5.00881e-08
3.79732e-09
-5.2847e-08
3.72738e-09
-5.55433e-08
3.64271e-09
-5.81666e-08
3.54401e-09
-6.07071e-08
3.43197e-09
-6.31553e-08
3.30731e-09
-6.55025e-08
3.17071e-09
-6.77402e-08
3.02284e-09
-6.98606e-08
2.8644e-09
-7.18565e-08
2.69609e-09
-7.3721e-08
2.51859e-09
-7.54477e-08
2.33257e-09
-7.70309e-08
2.1387e-09
-7.84653e-08
1.93765e-09
-7.9746e-08
1.73011e-09
-8.08687e-08
1.51676e-09
-8.18296e-08
1.29827e-09
-8.26254e-08
1.0753e-09
-8.32532e-08
8.48544e-10
-8.37109e-08
6.18691e-10
-8.39966e-08
3.86435e-10
-8.41091e-08
1.52474e-10
-8.40476e-08
-8.24663e-11
-8.38121e-08
-3.17657e-10
-8.34027e-08
-5.52383e-10
-8.28205e-08
-7.85902e-10
-8.20669e-08
-1.01746e-09
-8.11439e-08
-1.24629e-09
-8.00542e-08
-1.47161e-09
-7.8801e-08
-1.69261e-09
-7.7388e-08
-1.90852e-09
-7.58196e-08
-2.11853e-09
-7.41009e-08
-2.32179e-09
-7.22375e-08
-2.51747e-09
-7.02355e-08
-2.70475e-09
-6.8102e-08
-2.88278e-09
-6.58442e-08
-3.05071e-09
-6.34705e-08
-3.20766e-09
-6.09896e-08
-3.35279e-09
-5.84108e-08
-3.48524e-09
-5.57441e-08
-3.60416e-09
-5.30002e-08
-3.70873e-09
-5.01904e-08
-3.79814e-09
-4.73263e-08
-3.87157e-09
-4.44204e-08
-3.92824e-09
-4.14857e-08
-3.96738e-09
-3.85356e-08
-3.98825e-09
-3.55841e-08
-3.99017e-09
-3.26456e-08
-3.97252e-09
-2.97351e-08
-3.93472e-09
-2.68677e-08
-3.87622e-09
-2.4059e-08
-3.79655e-09
-2.13249e-08
-3.69531e-09
-1.86814e-08
-3.5722e-09
-1.61446e-08
-3.42702e-09
-1.37309e-08
-3.25972e-09
-1.14561e-08
-3.07041e-09
-9.33603e-09
-2.8594e-09
-7.38608e-09
-2.62725e-09
-5.62082e-09
-2.37483e-09
-4.05381e-09
-2.10343e-09
-2.69719e-09
-1.8149e-09
-1.56101e-09
-1.51187e-09
-6.525e-10
-1.19802e-09
2.50998e-11
-8.78637e-10
4.74202e-10
-5.61269e-10
7.05042e-10
-2.56786e-10
7.39071e-10
1.88882e-11
6.13381e-10
2.42591e-10
3.86261e-10
3.80797e-10
1.42303e-10
3.86347e-10
2.02453e-10
1.59482e-10
-3.68447e-10
3.78915e-10
-5.90561e-10
5.07307e-10
-4.67105e-10
4.47634e-10
-1.27665e-10
1.31853e-10
3.57606e-10
-4.85252e-10
9.36808e-10
-1.43104e-09
1.57e-09
-2.7189e-09
2.22776e-09
-4.35168e-09
2.88862e-09
-6.32425e-09
3.5372e-09
-8.62558e-09
4.16247e-09
-1.12403e-08
4.75649e-09
-1.415e-08
5.31376e-09
-1.73338e-08
5.83042e-09
-2.07695e-08
6.30389e-09
-2.44337e-08
6.73256e-09
-2.83023e-08
7.11549e-09
-3.23511e-08
7.45232e-09
-3.65557e-08
7.74311e-09
-4.08917e-08
7.98826e-09
-4.53352e-08
8.1884e-09
-4.98626e-08
8.34441e-09
-5.44507e-08
8.45732e-09
-5.9077e-08
8.52826e-09
-6.37195e-08
8.55849e-09
-6.83569e-08
8.54932e-09
-7.29688e-08
8.50214e-09
-7.75353e-08
8.41834e-09
-8.20374e-08
8.2994e-09
-8.64568e-08
8.1468e-09
-9.07761e-08
7.96202e-09
-9.49787e-08
7.74655e-09
-9.90486e-08
7.50191e-09
-1.02971e-07
7.22961e-09
-1.06731e-07
6.93116e-09
-1.10317e-07
6.60804e-09
-1.13714e-07
6.26176e-09
-1.16912e-07
5.89384e-09
-1.19899e-07
5.50576e-09
-1.22665e-07
5.09899e-09
-1.25202e-07
4.67502e-09
-1.27499e-07
4.23534e-09
-1.29551e-07
3.78143e-09
-1.31349e-07
3.31477e-09
-1.32887e-07
2.83684e-09
-1.34161e-07
2.34914e-09
-1.35166e-07
1.85319e-09
-1.35897e-07
1.35048e-09
-1.36354e-07
8.4255e-10
-1.36532e-07
3.30951e-10
-1.36432e-07
-1.82755e-10
-1.36052e-07
-6.96979e-10
-1.35395e-07
-1.21011e-09
-1.3446e-07
-1.72053e-09
-1.33251e-07
-2.22658e-09
-1.31771e-07
-2.72658e-09
-1.30023e-07
-3.21882e-09
-1.28015e-07
-3.70157e-09
-1.2575e-07
-4.17309e-09
-1.23237e-07
-4.63158e-09
-1.20483e-07
-5.07527e-09
-1.17499e-07
-5.50234e-09
-1.14292e-07
-5.91094e-09
-1.10876e-07
-6.29925e-09
-1.07261e-07
-6.66541e-09
-1.03461e-07
-7.00757e-09
-9.94903e-08
-7.32386e-09
-9.53631e-08
-7.61244e-09
-9.10957e-08
-7.87149e-09
-8.67052e-08
-8.09922e-09
-8.22095e-08
-8.29388e-09
-7.76273e-08
-8.45373e-09
-7.29785e-08
-8.57709e-09
-6.82835e-08
-8.66234e-09
-6.35638e-08
-8.70796e-09
-5.88415e-08
-8.71251e-09
-5.41394e-08
-8.67465e-09
-4.94809e-08
-8.59319e-09
-4.48901e-08
-8.46704e-09
-4.03913e-08
-8.29528e-09
-3.60095e-08
-8.07718e-09
-3.17695e-08
-7.81222e-09
-2.76963e-08
-7.50015e-09
-2.3815e-08
-7.14104e-09
-2.01501e-08
-6.73536e-09
-1.67255e-08
-6.28401e-09
-1.35642e-08
-5.78849e-09
-1.0688e-08
-5.25105e-09
-8.11654e-09
-4.67486e-09
-5.86711e-09
-4.06434e-09
-3.95341e-09
-3.42557e-09
-2.38449e-09
-2.76694e-09
-1.16322e-09
-2.09991e-09
-2.84149e-10
-1.44033e-09
2.69164e-10
-8.10095e-10
5.27646e-10
-2.3959e-10
5.41047e-10
2.292e-10
3.82647e-10
5.39202e-10
1.5415e-10
6.14842e-10
3.56607e-10
1.18857e-10
-4.87319e-10
2.33504e-10
-7.052e-10
1.87241e-10
-4.20845e-10
-1.25072e-10
1.84653e-10
-7.77865e-10
1.01041e-09
-1.82176e-09
1.98069e-09
-3.28816e-09
3.03644e-09
-5.19319e-09
4.13279e-09
-7.5408e-09
5.23623e-09
-1.03255e-08
6.32187e-09
-1.35343e-08
7.37127e-09
-1.71488e-08
8.37099e-09
-2.11462e-08
9.3112e-09
-2.55007e-08
1.01849e-08
-3.01841e-08
1.09873e-08
-3.51666e-08
1.1715e-08
-4.04173e-08
1.23662e-08
-4.59047e-08
1.29398e-08
-5.15972e-08
1.34356e-08
-5.74629e-08
1.38539e-08
-6.34702e-08
1.41957e-08
-6.9588e-08
1.44622e-08
-7.57857e-08
1.4655e-08
-8.20333e-08
1.47759e-08
-8.83016e-08
1.48268e-08
-9.45622e-08
1.48099e-08
-1.00788e-07
1.47276e-08
-1.06951e-07
1.45821e-08
-1.13028e-07
1.4376e-08
-1.18993e-07
1.41116e-08
-1.24822e-07
1.37916e-08
-1.30494e-07
1.34185e-08
-1.35987e-07
1.29949e-08
-1.41281e-07
1.25233e-08
-1.46356e-07
1.20064e-08
-1.51195e-07
1.14467e-08
-1.5578e-07
1.08469e-08
-1.60096e-07
1.02095e-08
-1.64127e-07
9.53706e-09
-1.6786e-07
8.83223e-09
-1.71283e-07
8.09756e-09
-1.74383e-07
7.33564e-09
-1.77151e-07
6.54902e-09
-1.79576e-07
5.74029e-09
-1.81651e-07
4.91204e-09
-1.83369e-07
4.06687e-09
-1.84723e-07
3.2074e-09
-1.85709e-07
2.33628e-09
-1.86323e-07
1.45616e-09
-1.86561e-07
5.69736e-10
-1.86424e-07
-3.20263e-10
-1.8591e-07
-1.21109e-09
-1.8502e-07
-2.09993e-09
-1.83757e-07
-2.98398e-09
-1.82123e-07
-3.86035e-09
-1.80123e-07
-4.72613e-09
-1.77764e-07
-5.57836e-09
-1.75051e-07
-6.41404e-09
-1.71994e-07
-7.23014e-09
-1.68602e-07
-8.0236e-09
-1.64886e-07
-8.79129e-09
-1.60858e-07
-9.53008e-09
-1.56533e-07
-1.02368e-08
-1.51923e-07
-1.09083e-08
-1.47047e-07
-1.15415e-08
-1.41922e-07
-1.2133e-08
-1.36566e-07
-1.26797e-08
-1.31e-07
-1.31785e-08
-1.25246e-07
-1.36262e-08
-1.19325e-07
-1.40198e-08
-1.13263e-07
-1.43563e-08
-1.07084e-07
-1.46327e-08
-1.00815e-07
-1.48462e-08
-9.44828e-08
-1.49941e-08
-8.8117e-08
-1.50738e-08
-8.17465e-08
-1.5083e-08
-7.54018e-08
-1.50194e-08
-6.91139e-08
-1.4881e-08
-6.29148e-08
-1.46662e-08
-5.68367e-08
-1.43734e-08
-5.09121e-08
-1.40017e-08
-4.51741e-08
-1.35503e-08
-3.96551e-08
-1.30191e-08
-3.43878e-08
-1.24084e-08
-2.94039e-08
-1.17193e-08
-2.47342e-08
-1.09537e-08
-2.0408e-08
-1.01147e-08
-1.64526e-08
-9.20641e-09
-1.28927e-08
-8.23475e-09
-9.7493e-09
-7.20775e-09
-7.0387e-09
-6.13618e-09
-4.7712e-09
-5.03444e-09
-2.94929e-09
-3.92181e-09
-1.56553e-09
-2.8241e-09
-5.99826e-10
-1.77579e-09
-1.63302e-11
-8.23085e-10
2.40405e-10
-2.75294e-11
2.49482e-10
5.3012e-10
1.18934e-10
7.45396e-10
4.75549e-10
5.07776e-11
-5.38101e-10
1.70795e-12
-6.56142e-10
-2.92042e-10
-1.27098e-10
-9.33745e-10
8.26374e-10
-1.99768e-09
2.07433e-09
-3.53505e-09
3.51806e-09
-5.57811e-09
5.0795e-09
-8.14358e-09
6.69826e-09
-1.12354e-08
8.32807e-09
-1.48472e-08
9.9337e-09
-1.89645e-08
1.14885e-08
-2.3566e-08
1.29725e-08
-2.86255e-08
1.43708e-08
-3.41131e-08
1.56725e-08
-3.99957e-08
1.68699e-08
-4.62381e-08
1.79574e-08
-5.28037e-08
1.89318e-08
-5.9655e-08
1.9791e-08
-6.67537e-08
2.05343e-08
-7.40616e-08
2.11619e-08
-8.15406e-08
2.16747e-08
-8.91526e-08
2.20743e-08
-9.68606e-08
2.2363e-08
-1.04628e-07
2.25431e-08
-1.12419e-07
2.26176e-08
-1.20198e-07
2.25895e-08
-1.27933e-07
2.24621e-08
-1.3559e-07
2.2239e-08
-1.43138e-07
2.19238e-08
-1.50546e-07
2.152e-08
-1.57786e-07
2.10316e-08
-1.6483e-07
2.04624e-08
-1.71651e-07
1.98162e-08
-1.78225e-07
1.90969e-08
-1.84527e-07
1.83085e-08
-1.90535e-07
1.74549e-08
-1.96228e-07
1.654e-08
-2.01587e-07
1.55678e-08
-2.06592e-07
1.45422e-08
-2.11227e-07
1.34671e-08
-2.15476e-07
1.23464e-08
-2.19324e-07
1.11842e-08
-2.22759e-07
9.98425e-09
-2.2577e-07
8.75058e-09
-2.28345e-07
7.48715e-09
-2.30476e-07
6.19795e-09
-2.32155e-07
4.88698e-09
-2.33377e-07
3.55828e-09
-2.34137e-07
2.21592e-09
-2.34431e-07
8.64032e-10
-2.34259e-07
-4.93214e-10
-2.33618e-07
-1.85161e-09
-2.32511e-07
-3.20689e-09
-2.3094e-07
-4.55473e-09
-2.2891e-07
-5.89072e-09
-2.26426e-07
-7.21043e-09
-2.23495e-07
-8.50935e-09
-2.20126e-07
-9.78291e-09
-2.16329e-07
-1.10265e-08
-2.12118e-07
-1.22354e-08
-2.07504e-07
-1.34049e-08
-2.02504e-07
-1.45303e-08
-1.97134e-07
-1.56067e-08
-1.91413e-07
-1.66294e-08
-1.85361e-07
-1.75935e-08
-1.79e-07
-1.84942e-08
-1.72353e-07
-1.93266e-08
-1.65445e-07
-2.00861e-08
-1.58303e-07
-2.0768e-08
-1.50956e-07
-2.13675e-08
-1.43432e-07
-2.18803e-08
-1.35762e-07
-2.23019e-08
-1.2798e-07
-2.26281e-08
-1.2012e-07
-2.28549e-08
-1.12215e-07
-2.29785e-08
-1.04303e-07
-2.29953e-08
-9.64198e-08
-2.29023e-08
-8.86044e-08
-2.26964e-08
-8.08953e-08
-2.23753e-08
-7.33316e-08
-2.19371e-08
-6.59531e-08
-2.13803e-08
-5.87992e-08
-2.07041e-08
-5.19096e-08
-1.99087e-08
-4.5323e-08
-1.89949e-08
-3.90775e-08
-1.79648e-08
-3.32096e-08
-1.68216e-08
-2.7754e-08
-1.55704e-08
-2.27425e-08
-1.42178e-08
-1.82039e-08
-1.27734e-08
-1.41622e-08
-1.12495e-08
-1.0636e-08
-9.66238e-09
-7.63682e-09
-8.03361e-09
-5.16744e-09
-6.39119e-09
-3.21984e-09
-4.7717e-09
-1.77281e-09
-3.22282e-09
-7.89282e-10
-1.80661e-09
-2.13182e-10
-6.0363e-10
3.39793e-11
2.82953e-10
5.7552e-11
7.21834e-10
5.331e-10
-3.03209e-11
-5.07767e-10
-2.78553e-10
-4.07901e-10
-8.68597e-10
4.62941e-10
-1.8939e-09
1.85167e-09
-3.4232e-09
3.60364e-09
-5.50448e-09
5.59933e-09
-8.16796e-09
7.74297e-09
-1.14289e-08
9.95917e-09
-1.52898e-08
1.2189e-08
-1.97429e-08
1.43868e-08
-2.47715e-08
1.65171e-08
-3.03519e-08
1.85529e-08
-3.64549e-08
2.04738e-08
-4.30467e-08
2.22643e-08
-5.00901e-08
2.39133e-08
-5.75455e-08
2.54128e-08
-6.53711e-08
2.67575e-08
-7.35242e-08
2.79441e-08
-8.19611e-08
2.89712e-08
-9.06377e-08
2.98385e-08
-9.951e-08
3.0547e-08
-1.08534e-07
3.10987e-08
-1.17667e-07
3.14961e-08
-1.26867e-07
3.17425e-08
-1.36091e-07
3.18416e-08
-1.45299e-07
3.17975e-08
-1.54451e-07
3.16148e-08
-1.6351e-07
3.12981e-08
-1.72439e-07
3.08523e-08
-1.81202e-07
3.02826e-08
-1.89764e-07
2.95941e-08
-1.98094e-07
2.87921e-08
-2.0616e-07
2.78821e-08
-2.13932e-07
2.68695e-08
-2.21383e-07
2.57596e-08
-2.28487e-07
2.45581e-08
-2.35217e-07
2.32705e-08
-2.41551e-07
2.19021e-08
-2.47468e-07
2.04586e-08
-2.52946e-07
1.89455e-08
-2.57968e-07
1.73683e-08
-2.62516e-07
1.57326e-08
-2.66576e-07
1.40438e-08
-2.70133e-07
1.23076e-08
-2.73176e-07
1.05296e-08
-2.75693e-07
8.71536e-09
-2.77676e-07
6.87053e-09
-2.79119e-07
5.00083e-09
-2.80015e-07
3.11202e-09
-2.80361e-07
1.20991e-09
-2.80155e-07
-6.9965e-10
-2.79395e-07
-2.6107e-09
-2.78085e-07
-4.51722e-09
-2.76227e-07
-6.41312e-09
-2.73825e-07
-8.29222e-09
-2.70887e-07
-1.01483e-08
-2.67422e-07
-1.19749e-08
-2.63439e-07
-1.37657e-08
-2.58951e-07
-1.55143e-08
-2.53973e-07
-1.72139e-08
-2.4852e-07
-1.8858e-08
-2.4261e-07
-2.044e-08
-2.36264e-07
-2.19531e-08
-2.29502e-07
-2.33905e-08
-2.2235e-07
-2.47456e-08
-2.14833e-07
-2.60116e-08
-2.06977e-07
-2.71818e-08
-1.98814e-07
-2.82496e-08
-1.90373e-07
-2.92085e-08
-1.81689e-07
-3.0052e-08
-1.72795e-07
-3.0774e-08
-1.63729e-07
-3.13683e-08
-1.54528e-07
-3.18292e-08
-1.45231e-07
-3.21512e-08
-1.35881e-07
-3.2329e-08
-1.26518e-07
-3.2358e-08
-1.17187e-07
-3.22337e-08
-1.0793e-07
-3.19525e-08
-9.87948e-08
-3.15111e-08
-8.98248e-08
-3.0907e-08
-8.10665e-08
-3.01386e-08
-7.25653e-08
-2.92052e-08
-6.43668e-08
-2.81073e-08
-5.65153e-08
-2.68464e-08
-4.90542e-08
-2.54258e-08
-4.20251e-08
-2.38507e-08
-3.54672e-08
-2.21283e-08
-2.94164e-08
-2.02686e-08
-2.39047e-08
-1.8285e-08
-1.89593e-08
-1.61949e-08
-1.46009e-08
-1.40208e-08
-1.08427e-08
-1.17918e-08
-7.68859e-09
-9.54528e-09
-5.1316e-09
-7.32869e-09
-3.15166e-09
-5.20277e-09
-1.71347e-09
-3.24479e-09
-7.64229e-10
-1.55288e-09
-2.31001e-10
-2.50277e-10
-1.78285e-11
5.08663e-10
5.15265e-10
-1.16984e-10
-3.90787e-10
-5.84218e-10
5.93302e-11
-1.50085e-09
1.37956e-09
-2.94579e-09
3.29662e-09
-4.97836e-09
5.6362e-09
-7.64004e-09
8.26102e-09
-1.09566e-08
1.10595e-08
-1.494e-08
1.39425e-08
-1.95899e-08
1.6839e-08
-2.48962e-08
1.9693e-08
-3.08395e-08
2.24604e-08
-3.73935e-08
2.51069e-08
-4.4526e-08
2.76062e-08
-5.21996e-08
2.9938e-08
-6.03737e-08
3.20873e-08
-6.90042e-08
3.40433e-08
-7.80452e-08
3.57985e-08
-8.74492e-08
3.73481e-08
-9.71676e-08
3.86896e-08
-1.07151e-07
3.98222e-08
-1.17351e-07
4.07469e-08
-1.27718e-07
4.14657e-08
-1.38204e-07
4.19817e-08
-1.4876e-07
4.22989e-08
-1.59341e-07
4.24219e-08
-1.69899e-07
4.23559e-08
-1.80391e-07
4.21066e-08
-1.90773e-07
4.16801e-08
-2.01003e-07
4.10827e-08
-2.11042e-07
4.0321e-08
-2.20849e-07
3.94019e-08
-2.3039e-07
3.83322e-08
-2.39627e-07
3.71191e-08
-2.48527e-07
3.57696e-08
-2.57058e-07
3.4291e-08
-2.6519e-07
3.26906e-08
-2.72895e-07
3.09755e-08
-2.80147e-07
2.91532e-08
-2.86919e-07
2.72309e-08
-2.93189e-07
2.52161e-08
-2.98937e-07
2.31159e-08
-3.04142e-07
2.09379e-08
-3.08788e-07
1.86894e-08
-3.12858e-07
1.63778e-08
-3.16339e-07
1.40106e-08
-3.19219e-07
1.15953e-08
-3.21488e-07
9.1393e-09
-3.23137e-07
6.65034e-09
-3.24161e-07
4.13605e-09
-3.24556e-07
1.60417e-09
-3.24318e-07
-9.37458e-10
-3.23448e-07
-3.48093e-09
-3.21947e-07
-6.01824e-09
-3.19819e-07
-8.54126e-09
-3.17069e-07
-1.10418e-08
-3.13706e-07
-1.35114e-08
-3.09739e-07
-1.59418e-08
-3.0518e-07
-1.83245e-08
-3.00044e-07
-2.06507e-08
-2.94346e-07
-2.29117e-08
-2.88105e-07
-2.50989e-08
-2.81342e-07
-2.72033e-08
-2.74079e-07
-2.9216e-08
-2.66341e-07
-3.11282e-08
-2.58156e-07
-3.29309e-08
-2.49552e-07
-3.46152e-08
-2.40562e-07
-3.61724e-08
-2.31218e-07
-3.75937e-08
-2.21556e-07
-3.88705e-08
-2.11613e-07
-3.99945e-08
-2.0143e-07
-4.09573e-08
-1.91047e-07
-4.17513e-08
-1.80508e-07
-4.23687e-08
-1.69856e-07
-4.28024e-08
-1.5914e-07
-4.30458e-08
-1.48405e-07
-4.30927e-08
-1.37701e-07
-4.29375e-08
-1.27078e-07
-4.25757e-08
-1.16586e-07
-4.20031e-08
-1.06276e-07
-4.12168e-08
-9.61997e-08
-4.02151e-08
-8.64077e-08
-3.89972e-08
-7.69507e-08
-3.75643e-08
-6.78782e-08
-3.59189e-08
-5.92384e-08
-3.40657e-08
-5.1077e-08
-3.2012e-08
-4.34375e-08
-2.97678e-08
-3.63595e-08
-2.73466e-08
-2.98784e-08
-2.47662e-08
-2.40239e-08
-2.20493e-08
-1.88195e-08
-1.92252e-08
-1.42805e-08
-1.63308e-08
-1.04132e-08
-1.34126e-08
-7.21303e-09
-1.05289e-08
-4.66291e-09
-7.75287e-09
-2.7319e-09
-5.1758e-09
-1.37335e-09
-2.91143e-09
-5.23496e-10
-1.10013e-09
-1.00011e-10
8.51675e-11
4.15253e-10
-2.05149e-10
-1.85629e-10
-9.00892e-10
7.55064e-10
-2.16126e-09
2.63995e-09
-4.04817e-09
5.18351e-09
-6.60875e-09
8.19678e-09
-9.87578e-09
1.15281e-08
-1.38685e-08
1.50523e-08
-1.8594e-08
1.86679e-08
-2.40479e-08
2.2293e-08
-3.02166e-08
2.58616e-08
-3.70776e-08
2.93214e-08
-4.46015e-08
3.26308e-08
-5.27527e-08
3.57574e-08
-6.14909e-08
3.86761e-08
-7.07714e-08
4.13679e-08
-8.05467e-08
4.38187e-08
-9.07668e-08
4.60186e-08
-1.0138e-07
4.79612e-08
-1.12333e-07
4.96427e-08
-1.23573e-07
5.10618e-08
-1.35045e-07
5.22191e-08
-1.46696e-07
5.31168e-08
-1.58473e-07
5.37584e-08
-1.70322e-07
5.41485e-08
-1.82193e-07
5.42928e-08
-1.94035e-07
5.41975e-08
-2.05798e-07
5.38696e-08
-2.17435e-07
5.33167e-08
-2.28898e-07
5.25466e-08
-2.40145e-07
5.15675e-08
-2.51131e-07
5.03879e-08
-2.61815e-07
4.90167e-08
-2.72159e-07
4.74626e-08
-2.82124e-07
4.57348e-08
-2.91676e-07
4.38423e-08
-3.00779e-07
4.17943e-08
-3.09404e-07
3.96002e-08
-3.1752e-07
3.72691e-08
-3.25099e-07
3.48104e-08
-3.32117e-07
3.22335e-08
-3.38549e-07
2.95477e-08
-3.44373e-07
2.67626e-08
-3.49571e-07
2.38874e-08
-3.54125e-07
2.09317e-08
-3.58019e-07
1.7905e-08
-3.61241e-07
1.48169e-08
-3.63779e-07
1.1677e-08
-3.65623e-07
8.49507e-09
-3.66768e-07
5.28092e-09
-3.67209e-07
2.04444e-09
-3.66942e-07
-1.20436e-09
-3.65967e-07
-4.45537e-09
-3.64287e-07
-7.69833e-09
-3.61905e-07
-1.09229e-08
-3.58829e-07
-1.41185e-08
-3.55066e-07
-1.72746e-08
-3.50627e-07
-2.03804e-08
-3.45526e-07
-2.3425e-08
-3.3978e-07
-2.63975e-08
-3.33405e-07
-2.92866e-08
-3.26422e-07
-3.20814e-08
-3.18855e-07
-3.47704e-08
-3.10729e-07
-3.73424e-08
-3.02071e-07
-3.97861e-08
-2.92911e-07
-4.20902e-08
-2.83283e-07
-4.42434e-08
-2.73221e-07
-4.62345e-08
-2.62762e-07
-4.80526e-08
-2.51946e-07
-4.96867e-08
-2.40814e-07
-5.11262e-08
-2.29411e-07
-5.2361e-08
-2.17781e-07
-5.3381e-08
-2.05973e-07
-5.41768e-08
-1.94036e-07
-5.47395e-08
-1.82021e-07
-5.50607e-08
-1.69981e-07
-5.51329e-08
-1.57969e-07
-5.49493e-08
-1.46041e-07
-5.45041e-08
-1.34251e-07
-5.37926e-08
-1.22656e-07
-5.28115e-08
-1.11313e-07
-5.15587e-08
-1.00276e-07
-5.00339e-08
-8.96015e-08
-4.82388e-08
-7.93433e-08
-4.61771e-08
-6.95537e-08
-4.38553e-08
-6.02829e-08
-4.12829e-08
-5.15777e-08
-3.8473e-08
-4.34816e-08
-3.54428e-08
-3.6033e-08
-3.22148e-08
-2.92649e-08
-2.88174e-08
-2.32037e-08
-2.52865e-08
-1.78677e-08
-2.16668e-08
-1.32664e-08
-1.80139e-08
-9.39893e-09
-1.43963e-08
-6.25308e-09
-1.08987e-08
-3.80401e-09
-7.62487e-09
-2.01347e-09
-4.70196e-09
-8.29179e-10
-2.28442e-09
-1.84704e-10
-5.59317e-10
2.30555e-10
-2.92605e-10
1.06976e-10
-1.2199e-09
1.68238e-09
-2.832e-09
4.25203e-09
-5.17284e-09
7.52437e-09
-8.27608e-09
1.13e-08
-1.21641e-08
1.54161e-08
-1.68482e-08
1.97364e-08
-2.2329e-08
2.41488e-08
-2.85973e-08
2.85613e-08
-3.56348e-08
3.28992e-08
-4.34155e-08
3.7102e-08
-5.19061e-08
4.11215e-08
-6.10679e-08
4.49192e-08
-7.08567e-08
4.84649e-08
-8.12246e-08
5.17358e-08
-9.21203e-08
5.47144e-08
-1.0349e-07
5.73884e-08
-1.15278e-07
5.97493e-08
-1.27428e-07
6.17922e-08
-1.39881e-07
6.3515e-08
-1.5258e-07
6.49178e-08
-1.65466e-07
6.6003e-08
-1.78482e-07
6.67744e-08
-1.91571e-07
6.72374e-08
-2.04676e-07
6.73985e-08
-2.17744e-07
6.72652e-08
-2.3072e-07
6.68458e-08
-2.43553e-07
6.61492e-08
-2.56191e-07
6.5185e-08
-2.68587e-07
6.39632e-08
-2.80693e-07
6.24941e-08
-2.92465e-07
6.07884e-08
-3.03859e-07
5.88569e-08
-3.14835e-07
5.67107e-08
-3.25354e-07
5.4361e-08
-3.35379e-07
5.18191e-08
-3.44875e-07
4.90964e-08
-3.5381e-07
4.62043e-08
-3.62154e-07
4.31544e-08
-3.69879e-07
3.99582e-08
-3.76958e-07
3.66274e-08
-3.83369e-07
3.31735e-08
-3.8909e-07
2.96082e-08
-3.94102e-07
2.59434e-08
-3.98388e-07
2.21907e-08
-4.01933e-07
1.83621e-08
-4.04725e-07
1.44696e-08
-4.06755e-07
1.05251e-08
-4.08015e-07
6.54077e-09
-4.085e-07
2.52898e-09
-4.08206e-07
-1.49793e-09
-4.07134e-07
-5.5274e-09
-4.05286e-07
-9.54676e-09
-4.02666e-07
-1.35432e-08
-3.9928e-07
-1.75036e-08
-3.9514e-07
-2.1415e-08
-3.90257e-07
-2.52639e-08
-3.84645e-07
-2.9037e-08
-3.78321e-07
-3.27207e-08
-3.71307e-07
-3.63013e-08
-3.63623e-07
-3.97649e-08
-3.55296e-07
-4.30977e-08
-3.46353e-07
-4.62858e-08
-3.36824e-07
-4.93152e-08
-3.26742e-07
-5.2172e-08
-3.16143e-07
-5.48423e-08
-3.05065e-07
-5.73125e-08
-2.93548e-07
-5.95691e-08
-2.81636e-07
-6.15986e-08
-2.69374e-07
-6.33882e-08
-2.5681e-07
-6.49253e-08
-2.43993e-07
-6.61979e-08
-2.30976e-07
-6.71943e-08
-2.17811e-07
-6.79037e-08
-2.04556e-07
-6.83162e-08
-1.91266e-07
-6.84226e-08
-1.78e-07
-6.82149e-08
-1.64818e-07
-6.76862e-08
-1.5178e-07
-6.68311e-08
-1.38946e-07
-6.56457e-08
-1.26376e-07
-6.41279e-08
-1.14133e-07
-6.22778e-08
-1.02274e-07
-6.00978e-08
-9.08576e-08
-5.7593e-08
-7.99413e-08
-5.47716e-08
-6.95785e-08
-5.16458e-08
-5.98199e-08
-4.82316e-08
-5.07123e-08
-4.45504e-08
-4.22978e-08
-4.06293e-08
-3.46127e-08
-3.65025e-08
-2.76868e-08
-3.22124e-08
-2.15422e-08
-2.78114e-08
-1.61925e-08
-2.33635e-08
-1.16419e-08
-1.8947e-08
-7.88394e-09
-1.46566e-08
-4.9016e-09
-1.06072e-08
-2.66643e-09
-6.93713e-09
-1.13894e-09
-3.81192e-09
-2.69412e-10
-1.42884e-09
-3.88549e-11
-3.78247e-10
4.85215e-10
-1.5361e-09
2.84022e-09
-3.50164e-09
6.21757e-09
-6.30109e-09
1.03238e-08
-9.95398e-09
1.49529e-08
-1.44714e-08
1.99335e-08
-1.98556e-08
2.51206e-08
-2.60998e-08
3.0393e-08
-3.31888e-08
3.56502e-08
-4.10991e-08
4.08095e-08
-4.98001e-08
4.58031e-08
-5.92547e-08
5.05761e-08
-6.942e-08
5.50845e-08
-8.02486e-08
5.92935e-08
-9.16886e-08
6.31759e-08
-1.03685e-07
6.67111e-08
-1.16181e-07
6.98842e-08
-1.29117e-07
7.26849e-08
-1.42431e-07
7.51068e-08
-1.56063e-07
7.71468e-08
-1.6995e-07
7.8805e-08
-1.84031e-07
8.00835e-08
-1.98243e-07
8.09866e-08
-2.12526e-07
8.15203e-08
-2.2682e-07
8.16921e-08
-2.41065e-07
8.15107e-08
-2.55205e-07
8.09857e-08
-2.69183e-07
8.01277e-08
-2.82946e-07
7.89479e-08
-2.96441e-07
7.74581e-08
-3.09617e-07
7.56706e-08
-3.22427e-07
7.35981e-08
-3.34824e-07
7.12536e-08
-3.46764e-07
6.86503e-08
-3.58204e-07
6.58016e-08
-3.69106e-07
6.27211e-08
-3.79432e-07
5.94224e-08
-3.89147e-07
5.59194e-08
-3.98219e-07
5.22259e-08
-4.06616e-07
4.83559e-08
-4.14312e-07
4.43233e-08
-4.21281e-07
4.01421e-08
-4.27499e-07
3.58266e-08
-4.32947e-07
3.13908e-08
-4.37605e-07
2.68491e-08
-4.41459e-07
2.22157e-08
-4.44494e-07
1.75051e-08
-4.46701e-07
1.2732e-08
-4.48071e-07
7.9109e-09
-4.48599e-07
3.05673e-09
-4.48281e-07
-1.81556e-09
-4.47118e-07
-6.69079e-09
-4.45111e-07
-1.15537e-08
-4.42266e-07
-1.63887e-08
-4.38589e-07
-2.11801e-08
-4.34092e-07
-2.59121e-08
-4.28787e-07
-3.05686e-08
-4.22691e-07
-3.51335e-08
-4.15821e-07
-3.95903e-08
-4.082e-07
-4.39225e-08
-3.99851e-07
-4.81135e-08
-3.90802e-07
-5.21467e-08
-3.81083e-07
-5.60052e-08
-3.70726e-07
-5.96722e-08
-3.59767e-07
-6.31312e-08
-3.48244e-07
-6.63654e-08
-3.36198e-07
-6.93584e-08
-3.23673e-07
-7.2094e-08
-3.10715e-07
-7.45564e-08
-2.97373e-07
-7.67299e-08
-2.83699e-07
-7.85996e-08
-2.69746e-07
-8.01511e-08
-2.55569e-07
-8.13708e-08
-2.41227e-07
-8.22458e-08
-2.26779e-07
-8.27642e-08
-2.12287e-07
-8.29153e-08
-1.97812e-07
-8.26898e-08
-1.83418e-07
-8.20796e-08
-1.69171e-07
-8.10787e-08
-1.55134e-07
-7.96826e-08
-1.41373e-07
-7.78892e-08
-1.27951e-07
-7.56991e-08
-1.14934e-07
-7.31153e-08
-1.02382e-07
-7.01445e-08
-9.03569e-08
-6.67969e-08
-7.89156e-08
-6.30871e-08
-6.81128e-08
-5.90344e-08
-5.79989e-08
-5.46642e-08
-4.86197e-08
-5.00085e-08
-4.00153e-08
-4.51069e-08
-3.22194e-08
-4.00082e-08
-2.52586e-08
-3.47721e-08
-1.91515e-08
-2.94706e-08
-1.3908e-08
-2.41905e-08
-9.52888e-09
-1.90358e-08
-6.00556e-09
-1.41305e-08
-3.32036e-09
-9.62233e-09
-1.44712e-09
-5.68517e-09
-3.52738e-10
-2.52321e-09
-3.91597e-10
-4.61459e-10
9.4668e-10
-1.84644e-09
4.22521e-09
-4.16313e-09
8.53425e-09
-7.42083e-09
1.35815e-08
-1.16249e-08
1.91569e-08
-1.67746e-08
2.50833e-08
-2.28626e-08
3.12086e-08
-2.98741e-08
3.74044e-08
-3.77868e-08
4.35629e-08
-4.65715e-08
4.95942e-08
-5.61926e-08
5.54241e-08
-6.66083e-08
6.09918e-08
-7.77716e-08
6.62479e-08
-8.9631e-08
7.11529e-08
-1.02131e-07
7.56759e-08
-1.15213e-07
7.97932e-08
-1.28816e-07
8.34873e-08
-1.42877e-07
8.67458e-08
-1.57332e-07
8.95611e-08
-1.72114e-07
9.19292e-08
-1.87159e-07
9.38498e-08
-2.024e-07
9.53249e-08
-2.17773e-07
9.63593e-08
-2.33212e-07
9.69597e-08
-2.48654e-07
9.71344e-08
-2.64037e-07
9.68934e-08
-2.79299e-07
9.62479e-08
-2.94382e-07
9.52099e-08
-3.09226e-07
9.37925e-08
-3.23778e-07
9.20093e-08
-3.37982e-07
8.98749e-08
-3.51788e-07
8.74039e-08
-3.65145e-07
8.46116e-08
-3.78009e-07
8.15134e-08
-3.90332e-07
7.81252e-08
-4.02074e-07
7.44628e-08
-4.13194e-07
7.05425e-08
-4.23655e-07
6.63805e-08
-4.33422e-07
6.19932e-08
-4.42463e-07
5.73969e-08
-4.50748e-07
5.26083e-08
-4.5825e-07
4.7644e-08
-4.64944e-07
4.25206e-08
-4.70808e-07
3.72549e-08
-4.75823e-07
3.18639e-08
-4.79972e-07
2.63644e-08
-4.8324e-07
2.07737e-08
-4.85617e-07
1.5109e-08
-4.87094e-07
9.38767e-09
-4.87665e-07
3.62726e-09
-4.87326e-07
-2.15448e-09
-4.86077e-07
-7.93958e-09
-4.83921e-07
-1.37099e-08
-4.80862e-07
-1.94471e-08
-4.7691e-07
-2.51327e-08
-4.72074e-07
-3.07478e-08
-4.66369e-07
-3.62734e-08
-4.59812e-07
-4.16905e-08
-4.52423e-07
-4.69796e-08
-4.44224e-07
-5.21213e-08
-4.35242e-07
-5.70959e-08
-4.25505e-07
-6.18838e-08
-4.15045e-07
-6.6465e-08
-4.03897e-07
-7.082e-08
-3.92099e-07
-7.49289e-08
-3.79692e-07
-7.87723e-08
-3.6672e-07
-8.23308e-08
-3.53229e-07
-8.55853e-08
-3.39268e-07
-8.85172e-08
-3.24889e-07
-9.11082e-08
-3.10148e-07
-9.33408e-08
-2.95101e-07
-9.51982e-08
-2.79807e-07
-9.66645e-08
-2.64329e-07
-9.77245e-08
-2.48728e-07
-9.83647e-08
-2.33071e-07
-9.85726e-08
-2.17423e-07
-9.83373e-08
-2.01853e-07
-9.76499e-08
-1.86428e-07
-9.65033e-08
-1.71218e-07
-9.48927e-08
-1.56291e-07
-9.28161e-08
-1.41716e-07
-9.02742e-08
-1.27561e-07
-8.72711e-08
-1.1389e-07
-8.38149e-08
-1.00769e-07
-7.99177e-08
-8.82597e-08
-7.55967e-08
-7.64195e-08
-7.08746e-08
-6.53031e-08
-6.57807e-08
-5.49602e-08
-6.03514e-08
-4.54352e-08
-5.46319e-08
-3.67662e-08
-4.86772e-08
-2.89849e-08
-4.25534e-08
-2.21154e-08
-3.63401e-08
-1.61743e-08
-3.01316e-08
-1.11701e-08
-2.404e-08
-7.10344e-09
-1.81971e-08
-3.96784e-09
-1.27579e-08
-1.75039e-09
-7.90261e-09
-4.33941e-10
-3.83967e-09
-8.25539e-10
-5.41985e-10
1.48866e-09
-2.14936e-09
5.8326e-09
-4.81243e-09
1.11973e-08
-8.52464e-09
1.72937e-08
-1.32775e-08
2.39099e-08
-1.90587e-08
3.08645e-08
-2.58507e-08
3.80005e-08
-3.36299e-08
4.51836e-08
-4.23668e-08
5.22998e-08
-5.20259e-08
5.92533e-08
-6.25659e-08
6.59641e-08
-7.39398e-08
7.23658e-08
-8.60964e-08
7.84044e-08
-9.89796e-08
8.40361e-08
-1.1253e-07
8.92265e-08
-1.26686e-07
9.39487e-08
-1.41381e-07
9.81827e-08
-1.5655e-07
1.01915e-07
-1.72124e-07
1.05135e-07
-1.88034e-07
1.0784e-07
-2.04212e-07
1.10027e-07
-2.20587e-07
1.117e-07
-2.37091e-07
1.12864e-07
-2.53656e-07
1.13525e-07
-2.70215e-07
1.13693e-07
-2.86702e-07
1.1338e-07
-3.03052e-07
1.12598e-07
-3.19202e-07
1.11361e-07
-3.35093e-07
1.09683e-07
-3.50665e-07
1.07581e-07
-3.65861e-07
1.05071e-07
-3.80628e-07
1.0217e-07
-3.94912e-07
9.88958e-08
-4.08664e-07
9.52658e-08
-4.21838e-07
9.12985e-08
-4.34387e-07
8.70124e-08
-4.46271e-07
8.24262e-08
-4.57449e-07
7.75587e-08
-4.67885e-07
7.2429e-08
-4.77544e-07
6.70562e-08
-4.86395e-07
6.14594e-08
-4.94409e-07
5.56581e-08
-5.01561e-07
4.96717e-08
-5.07825e-07
4.35197e-08
-5.13183e-07
3.72217e-08
-5.17616e-07
3.07976e-08
-5.2111e-07
2.42672e-08
-5.23652e-07
1.76508e-08
-5.25232e-07
1.09684e-08
-5.25846e-07
4.24072e-09
-5.25489e-07
-2.51174e-09
-5.2416e-07
-9.26803e-09
-5.21863e-07
-1.6007e-08
-5.18603e-07
-2.27074e-08
-5.14388e-07
-2.93475e-08
-5.0923e-07
-3.59056e-08
-5.03144e-07
-4.23595e-08
-4.96147e-07