/*--------------------------------*- C++ -*----------------------------------*\
| =========                 |                                                 |
| \\      /  F ield         | OpenFOAM: The Open Source CFD Toolbox           |
|  \\    /   O peration     | Version:  2212                                  |
|   \\  /    A nd           | Website:  www.openfoam.com                      |
|    \\/     M anipulation  |                                                 |
\*---------------------------------------------------------------------------*/
FoamFile
{
    version     2.0;
    format      ascii;
    arch        "LSB;label=32;scalar=64";
    class       volVectorField;
    location    "0.033";
    object      U_0;
}
// * * * * * * * * * * * * * * * * * * * * * * * * * * * * * * * * * * * * * //

dimensions      [0 1 -1 0 0 0 0];

internalField   nonuniform List<vector> 
10000
(
(1.70885e-06 -3.76157e-06 0)
(1.28503e-05 -7.70306e-06 0)
(2.75245e-05 -7.33182e-06 0)
(4.08859e-05 -5.76743e-06 0)
(4.75497e-05 -3.33509e-06 0)
(4.66282e-05 -5.45148e-07 0)
(3.72887e-05 2.3571e-06 0)
(1.92541e-05 5.23004e-06 0)
(-7.42883e-06 7.99252e-06 0)
(-4.24937e-05 1.06077e-05 0)
(-8.55544e-05 1.30496e-05 0)
(-0.000136147 1.53086e-05 0)
(-0.000193747 1.73847e-05 0)
(-0.000257806 1.92785e-05 0)
(-0.000327754 2.09853e-05 0)
(-0.00040301 2.25018e-05 0)
(-0.000482991 2.38338e-05 0)
(-0.000567125 2.49875e-05 0)
(-0.000654842 2.59683e-05 0)
(-0.000745585 2.6783e-05 0)
(-0.000838809 2.74353e-05 0)
(-0.000933986 2.79318e-05 0)
(-0.00103061 2.82812e-05 0)
(-0.00112818 2.84869e-05 0)
(-0.00122622 2.85546e-05 0)
(-0.00132427 2.84898e-05 0)
(-0.00142189 2.82957e-05 0)
(-0.00151864 2.798e-05 0)
(-0.00161414 2.75508e-05 0)
(-0.00170799 2.70114e-05 0)
(-0.00179982 2.63668e-05 0)
(-0.00188928 2.5625e-05 0)
(-0.00197604 2.47912e-05 0)
(-0.00205979 2.38692e-05 0)
(-0.00214024 2.28645e-05 0)
(-0.0022171 2.17822e-05 0)
(-0.00229011 2.06261e-05 0)
(-0.00235902 1.94024e-05 0)
(-0.00242362 1.81174e-05 0)
(-0.00248369 1.67746e-05 0)
(-0.00253904 1.53767e-05 0)
(-0.00258948 1.39288e-05 0)
(-0.00263486 1.24378e-05 0)
(-0.00267503 1.09089e-05 0)
(-0.00270986 9.34427e-06 0)
(-0.00273923 7.7473e-06 0)
(-0.00276306 6.12416e-06 0)
(-0.00278125 4.48082e-06 0)
(-0.00279374 2.82142e-06 0)
(-0.00280048 1.149e-06 0)
(-0.00280145 -5.32261e-07 0)
(-0.00279661 -2.2162e-06 0)
(-0.00278598 -3.89688e-06 0)
(-0.00276957 -5.57008e-06 0)
(-0.00274742 -7.23183e-06 0)
(-0.00271958 -8.87726e-06 0)
(-0.00268612 -1.05002e-05 0)
(-0.00264713 -1.20939e-05 0)
(-0.00260273 -1.36525e-05 0)
(-0.00255303 -1.51715e-05 0)
(-0.0024982 -1.66458e-05 0)
(-0.0024384 -1.80694e-05 0)
(-0.00237382 -1.94357e-05 0)
(-0.00230466 -2.07379e-05 0)
(-0.00223117 -2.19697e-05 0)
(-0.00215359 -2.31254e-05 0)
(-0.0020722 -2.41997e-05 0)
(-0.00198729 -2.51866e-05 0)
(-0.00189917 -2.60791e-05 0)
(-0.00180818 -2.687e-05 0)
(-0.00171469 -2.75529e-05 0)
(-0.00161907 -2.81213e-05 0)
(-0.00152172 -2.85691e-05 0)
(-0.00142306 -2.88908e-05 0)
(-0.00132354 -2.90804e-05 0)
(-0.00122361 -2.91318e-05 0)
(-0.00112376 -2.90386e-05 0)
(-0.00102447 -2.87956e-05 0)
(-0.000926269 -2.83976e-05 0)
(-0.000829676 -2.78396e-05 0)
(-0.000735236 -2.71173e-05 0)
(-0.000643501 -2.62263e-05 0)
(-0.000555039 -2.51621e-05 0)
(-0.000470423 -2.392e-05 0)
(-0.000390236 -2.2496e-05 0)
(-0.000315058 -2.08882e-05 0)
(-0.000245472 -1.90961e-05 0)
(-0.000182049 -1.71205e-05 0)
(-0.000125343 -1.49637e-05 0)
(-7.58804e-05 -1.2631e-05 0)
(-3.41485e-05 -1.01318e-05 0)
(-5.70836e-07 -7.48304e-06 0)
(2.45225e-05 -4.71318e-06 0)
(4.09436e-05 -1.87167e-06 0)
(4.87269e-05 9.53441e-07 0)
(4.82567e-05 3.60374e-06 0)
(4.04519e-05 5.79432e-06 0)
(2.71624e-05 6.99983e-06 0)
(1.2339e-05 6.28485e-06 0)
(2.61718e-06 2.61815e-06 0)
(4.92759e-06 -1.21937e-05 0)
(2.28272e-05 -2.6001e-05 0)
(4.59897e-05 -2.48392e-05 0)
(6.1516e-05 -1.63468e-05 0)
(6.20212e-05 -3.33132e-06 0)
(4.37248e-05 1.2095e-05 0)
(4.35509e-06 2.86267e-05 0)
(-5.71932e-05 4.54465e-05 0)
(-0.000141144 6.20249e-05 0)
(-0.00024715 7.80321e-05 0)
(-0.000374445 9.32395e-05 0)
(-0.000521971 0.000107506 0)
(-0.000688494 0.000120742 0)
(-0.000872639 0.000132896 0)
(-0.00107294 0.000143935 0)
(-0.00128788 0.000153841 0)
(-0.00151593 0.00016261 0)
(-0.00175553 0.000170256 0)
(-0.00200514 0.000176794 0)
(-0.00226324 0.000182247 0)
(-0.00252832 0.000186646 0)
(-0.00279892 0.000190015 0)
(-0.0030736 0.000192389 0)
(-0.00335099 0.000193804 0)
(-0.00362973 0.000194289 0)
(-0.00390853 0.000193878 0)
(-0.00418614 0.000192609 0)
(-0.00446135 0.000190518 0)
(-0.004733 0.000187641 0)
(-0.00500001 0.000184014 0)
(-0.00526133 0.000179675 0)
(-0.00551595 0.000174662 0)
(-0.00576291 0.000169009 0)
(-0.00600134 0.00016275 0)
(-0.00623038 0.000155922 0)
(-0.00644923 0.000148558 0)
(-0.00665713 0.000140691 0)
(-0.00685339 0.000132354 0)
(-0.00703736 0.000123583 0)
(-0.00720843 0.00011441 0)
(-0.00736603 0.000104866 0)
(-0.00750967 9.49842e-05 0)
(-0.00763887 8.47979e-05 0)
(-0.00775321 7.43387e-05 0)
(-0.00785233 6.36365e-05 0)
(-0.00793589 5.27226e-05 0)
(-0.00800363 4.16311e-05 0)
(-0.0080553 3.0395e-05 0)
(-0.00809072 1.90455e-05 0)
(-0.00810974 7.61399e-06 0)
(-0.00811229 -3.86662e-06 0)
(-0.00809832 -1.53619e-05 0)
(-0.00806783 -2.68371e-05 0)
(-0.00802088 -3.82585e-05 0)
(-0.00795757 -4.95918e-05 0)
(-0.00787807 -6.08004e-05 0)
(-0.00778258 -7.18465e-05 0)
(-0.00767137 -8.26922e-05 0)
(-0.00754477 -9.32995e-05 0)
(-0.00740313 -0.000103631 0)
(-0.00724689 -0.000113646 0)
(-0.00707655 -0.000123306 0)
(-0.00689264 -0.000132568 0)
(-0.00669577 -0.000141391 0)
(-0.00648659 -0.000149734 0)
(-0.00626584 -0.000157557 0)
(-0.00603429 -0.000164816 0)
(-0.00579278 -0.000171471 0)
(-0.00554223 -0.000177479 0)
(-0.00528357 -0.000182795 0)
(-0.00501784 -0.00018738 0)
(-0.00474612 -0.000191191 0)
(-0.00446953 -0.000194188 0)
(-0.00418928 -0.000196332 0)
(-0.0039066 -0.000197584 0)
(-0.0036228 -0.000197906 0)
(-0.00333921 -0.000197264 0)
(-0.00305724 -0.000195624 0)
(-0.00277832 -0.000192955 0)
(-0.00250392 -0.000189229 0)
(-0.00223554 -0.000184422 0)
(-0.00197473 -0.000178511 0)
(-0.00172304 -0.000171478 0)
(-0.00148205 -0.000163309 0)
(-0.00125331 -0.000153998 0)
(-0.0010384 -0.000143548 0)
(-0.00083884 -0.000131975 0)
(-0.000656128 -0.000119309 0)
(-0.000491678 -0.000105598 0)
(-0.000346797 -9.09156e-05 0)
(-0.00022264 -7.53728e-05 0)
(-0.000120141 -5.91334e-05 0)
(-3.99259e-05 -4.2442e-05 0)
(1.78169e-05 -2.56662e-05 0)
(5.35241e-05 -9.36817e-06 0)
(6.85222e-05 5.58199e-06 0)
(6.53425e-05 1.78321e-05 0)
(4.82326e-05 2.52731e-05 0)
(2.46956e-05 2.47054e-05 0)
(6.27014e-06 1.23302e-05 0)
(6.42976e-06 -2.65898e-05 0)
(2.38037e-05 -4.7644e-05 0)
(4.08489e-05 -4.18465e-05 0)
(4.4164e-05 -1.8649e-05 0)
(2.46286e-05 1.53932e-05 0)
(-2.29701e-05 5.58022e-05 0)
(-0.000101872 9.95196e-05 0)
(-0.000213806 0.000144464 0)
(-0.000359339 0.000189212 0)
(-0.000538153 0.000232772 0)
(-0.000749298 0.000274474 0)
(-0.000991359 0.00031384 0)
(-0.00126258 0.000350553 0)
(-0.00156098 0.000384408 0)
(-0.0018844 0.000415268 0)
(-0.00223058 0.00044306 0)
(-0.00259718 0.000467749 0)
(-0.00298183 0.000489333 0)
(-0.00338218 0.000507842 0)
(-0.00379584 0.000523318 0)
(-0.0042205 0.000535821 0)
(-0.00465384 0.000545428 0)
(-0.00509363 0.000552213 0)
(-0.00553767 0.000556262 0)
(-0.00598385 0.000557668 0)
(-0.0064301 0.000556523 0)
(-0.00687443 0.000552922 0)
(-0.00731494 0.00054697 0)
(-0.0077498 0.000538765 0)
(-0.00817723 0.000528408 0)
(-0.00859556 0.000516003 0)
(-0.0090032 0.000501653 0)
(-0.00939862 0.000485456 0)
(-0.00978038 0.000467514 0)
(-0.0101471 0.000447926 0)
(-0.0104976 0.000426791 0)
(-0.0108305 0.000404205 0)
(-0.0111448 0.000380263 0)
(-0.0114394 0.000355064 0)
(-0.0117133 0.000328701 0)
(-0.0119657 0.000301268 0)
(-0.0121957 0.00027286 0)
(-0.0124025 0.00024357 0)
(-0.0125855 0.00021349 0)
(-0.0127442 0.000182712 0)
(-0.0128779 0.000151328 0)
(-0.0129862 0.000119432 0)
(-0.0130688 8.71178e-05 0)
(-0.0131254 5.44791e-05 0)
(-0.0131557 2.16103e-05 0)
(-0.0131595 -1.13923e-05 0)
(-0.013137 -4.4432e-05 0)
(-0.0130879 -7.74103e-05 0)
(-0.0130125 -0.000110227 0)
(-0.0129109 -0.00014278 0)
(-0.0127834 -0.000174965 0)
(-0.0126303 -0.000206675 0)
(-0.0124521 -0.000237802 0)
(-0.0122492 -0.000268238 0)
(-0.0120223 -0.000297871 0)
(-0.0117721 -0.000326589 0)
(-0.0114993 -0.000354274 0)
(-0.0112048 -0.000380812 0)
(-0.0108896 -0.000406084 0)
(-0.0105548 -0.000429973 0)
(-0.0102015 -0.00045236 0)
(-0.00983103 -0.000473125 0)
(-0.00944464 -0.000492149 0)
(-0.00904382 -0.00050931 0)
(-0.0086301 -0.000524491 0)
(-0.0082051 -0.000537573 0)
(-0.00777055 -0.000548441 0)
(-0.00732826 -0.000556981 0)
(-0.00688012 -0.000563084 0)
(-0.00642811 -0.000566642 0)
(-0.00597429 -0.000567555 0)
(-0.00552078 -0.000565726 0)
(-0.00506978 -0.000561066 0)
(-0.00462356 -0.000553495 0)
(-0.00418443 -0.000542939 0)
(-0.00375476 -0.000529336 0)
(-0.00333695 -0.000512635 0)
(-0.00293341 -0.000492802 0)
(-0.00254657 -0.000469818 0)
(-0.00217884 -0.000443689 0)
(-0.00183262 -0.000414449 0)
(-0.0015102 -0.000382169 0)
(-0.00121383 -0.000346966 0)
(-0.000945583 -0.000309016 0)
(-0.000707351 -0.000268575 0)
(-0.00050075 -0.000226009 0)
(-0.00032703 -0.000181835 0)
(-0.000186941 -0.000136789 0)
(-8.05628e-05 -9.19145e-05 0)
(-7.0681e-06 -4.87095e-05 0)
(3.55761e-05 -9.32692e-06 0)
(5.09273e-05 2.31435e-05 0)
(4.45107e-05 4.43344e-05 0)
(2.53354e-05 4.82508e-05 0)
(6.98983e-06 2.71371e-05 0)
(5.35947e-06 -3.85477e-05 0)
(1.63724e-05 -6.26507e-05 0)
(1.91972e-05 -4.51256e-05 0)
(6.66706e-07 3.43929e-07 0)
(-4.85163e-05 6.39339e-05 0)
(-0.000134156 0.000138655 0)
(-0.000259948 0.000219518 0)
(-0.000427958 0.000302944 0)
(-0.000638927 0.000386367 0)
(-0.000892572 0.000467951 0)
(-0.00118782 0.000546375 0)
(-0.00152298 0.000620695 0)
(-0.00189594 0.000690245 0)
(-0.00230422 0.000754564 0)
(-0.00274513 0.000813347 0)
(-0.0032158 0.000866407 0)
(-0.00371322 0.000913642 0)
(-0.00423437 0.000955013 0)
(-0.00477614 0.000990542 0)
(-0.00533546 0.00102029 0)
(-0.00590927 0.00104436 0)
(-0.00649453 0.00106286 0)
(-0.00708829 0.00107593 0)
(-0.00768763 0.00108373 0)
(-0.00828973 0.00108641 0)
(-0.00889185 0.00108416 0)
(-0.00949133 0.00107716 0)
(-0.0100856 0.00106558 0)
(-0.0106723 0.00104963 0)
(-0.0112489 0.00102949 0)
(-0.0118132 0.00100537 0)
(-0.0123631 0.000977449 0)
(-0.0128966 0.000945928 0)
(-0.0134116 0.000911 0)
(-0.0139064 0.000872855 0)
(-0.0143791 0.000831685 0)
(-0.0148283 0.000787682 0)
(-0.0152523 0.000741032 0)
(-0.0156497 0.000691921 0)
(-0.0160193 0.000640533 0)
(-0.0163597 0.000587055 0)
(-0.0166699 0.00053167 0)
(-0.0169489 0.00047456 0)
(-0.0171958 0.000415906 0)
(-0.0174097 0.000355891 0)
(-0.0175899 0.000294695 0)
(-0.017736 0.0002325 0)
(-0.0178472 0.000169491 0)
(-0.0179233 0.000105853 0)
(-0.017964 4.17718e-05 0)
(-0.017969 -2.25642e-05 0)
(-0.0179383 -8.69647e-05 0)
(-0.0178719 -0.000151237 0)
(-0.01777 -0.000215186 0)
(-0.0176327 -0.000278609 0)
(-0.0174605 -0.000341303 0)
(-0.0172538 -0.000403062 0)
(-0.0170131 -0.000463676 0)
(-0.0167393 -0.000522932 0)
(-0.0164331 -0.000580614 0)
(-0.0160955 -0.0006365 0)
(-0.0157275 -0.000690367 0)
(-0.0153303 -0.000741988 0)
(-0.0149052 -0.000791137 0)
(-0.0144537 -0.000837585 0)
(-0.0139773 -0.000881102 0)
(-0.0134778 -0.000921455 0)
(-0.0129568 -0.000958413 0)
(-0.0124165 -0.000991746 0)
(-0.0118588 -0.00102123 0)
(-0.011286 -0.00104663 0)
(-0.0107002 -0.00106773 0)
(-0.0101041 -0.00108432 0)
(-0.00950001 -0.00109618 0)
(-0.00889069 -0.00110312 0)
(-0.00827885 -0.00110494 0)
(-0.00766733 -0.00110147 0)
(-0.00705906 -0.00109254 0)
(-0.00645704 -0.00107801 0)
(-0.00586434 -0.00105774 0)
(-0.00528406 -0.00103163 0)
(-0.00471938 -0.00099961 0)
(-0.00417345 -0.000961619 0)
(-0.00364945 -0.000917653 0)
(-0.0031505 -0.000867751 0)
(-0.00267968 -0.000812013 0)
(-0.00223996 -0.00075061 0)
(-0.00183416 -0.000683807 0)
(-0.0014649 -0.000611989 0)
(-0.00113451 -0.000535696 0)
(-0.00084494 -0.000455677 0)
(-0.00059767 -0.000372962 0)
(-0.000393521 -0.000288962 0)
(-0.00023249 -0.000205615 0)
(-0.000113509 -0.000125583 0)
(-3.41556e-05 -5.25276e-05 0)
(9.63554e-06 8.54075e-06 0)
(2.3954e-05 5.08766e-05 0)
(1.8156e-05 6.55696e-05 0)
(5.83292e-06 4.04906e-05 0)
(3.29192e-06 -4.57787e-05 0)
(4.26243e-06 -6.38289e-05 0)
(-1.32717e-05 -2.63833e-05 0)
(-6.06767e-05 4.92342e-05 0)
(-0.000146592 0.00015027 0)
(-0.00027686 0.000267377 0)
(-0.000455253 0.00039364 0)
(-0.000683899 0.00052395 0)
(-0.000963559 0.000654507 0)
(-0.0012939 0.000782509 0)
(-0.0016737 0.000905886 0)
(-0.00210108 0.00102312 0)
(-0.00257359 0.00113309 0)
(-0.00308838 0.00123503 0)
(-0.00364231 0.00132838 0)
(-0.00423198 0.00141279 0)
(-0.00485389 0.00148805 0)
(-0.00550438 0.00155406 0)
(-0.00617976 0.00161082 0)
(-0.00687633 0.00165838 0)
(-0.0075904 0.00169687 0)
(-0.00831829 0.00172646 0)
(-0.00905639 0.00174735 0)
(-0.00980117 0.00175976 0)
(-0.0105492 0.00176394 0)
(-0.011297 0.00176017 0)
(-0.0120415 0.00174873 0)
(-0.0127794 0.0017299 0)
(-0.0135078 0.001704 0)
(-0.0142236 0.00167131 0)
(-0.0149242 0.00163216 0)
(-0.0156069 0.00158686 0)
(-0.016269 0.0015357 0)
(-0.0169083 0.00147902 0)
(-0.0175225 0.0014171 0)
(-0.0181093 0.00135027 0)
(-0.0186668 0.00127883 0)
(-0.0191931 0.00120309 0)
(-0.0196863 0.00112334 0)
(-0.020145 0.00103989 0)
(-0.0205675 0.000953036 0)
(-0.0209525 0.00086308 0)
(-0.0212987 0.000770318 0)
(-0.021605 0.000675047 0)
(-0.0218704 0.000577563 0)
(-0.022094 0.000478161 0)
(-0.022275 0.000377141 0)
(-0.0224129 0.0002748 0)
(-0.0225072 0.000171443 0)
(-0.0225575 6.73729e-05 0)
(-0.0225635 -3.7104e-05 0)
(-0.0225252 -0.000141677 0)
(-0.0224425 -0.00024603 0)
(-0.0223158 -0.000349843 0)
(-0.0221452 -0.000452791 0)
(-0.0219313 -0.000554542 0)
(-0.0216745 -0.000654763 0)
(-0.0213757 -0.000753112 0)
(-0.0210358 -0.000849242 0)
(-0.0206557 -0.000942803 0)
(-0.0202366 -0.00103344 0)
(-0.0197798 -0.00112078 0)
(-0.0192869 -0.00120447 0)
(-0.0187594 -0.00128415 0)
(-0.0181992 -0.00135943 0)
(-0.0176082 -0.00142995 0)
(-0.0169884 -0.00149533 0)
(-0.0163422 -0.00155521 0)
(-0.0156718 -0.00160921 0)
(-0.01498 -0.00165697 0)
(-0.0142693 -0.00169813 0)
(-0.0135427 -0.00173234 0)
(-0.0128031 -0.00175926 0)
(-0.0120535 -0.00177855 0)
(-0.0112974 -0.0017899 0)
(-0.010538 -0.00179301 0)
(-0.0097788 -0.0017876 0)
(-0.0090234 -0.00177343 0)
(-0.00827544 -0.00175027 0)
(-0.00753867 -0.00171793 0)
(-0.00681687 -0.00167626 0)
(-0.00611385 -0.00162515 0)
(-0.00543345 -0.00156456 0)
(-0.00477947 -0.00149451 0)
(-0.00415565 -0.0014151 0)
(-0.00356566 -0.00132653 0)
(-0.00301302 -0.00122911 0)
(-0.00250103 -0.00112331 0)
(-0.00203274 -0.00100981 0)
(-0.00161087 -0.000889521 0)
(-0.00123763 -0.000763666 0)
(-0.000914683 -0.0006339 0)
(-0.000642955 -0.000502429 0)
(-0.000422443 -0.000372196 0)
(-0.000252013 -0.000247118 0)
(-0.000129145 -0.000132404 0)
(-4.96725e-05 -3.49616e-05 0)
(-7.4491e-06 3.61915e-05 0)
(6.36184e-06 6.93848e-05 0)
(3.73581e-06 4.85501e-05 0)
(7.57174e-07 -4.57113e-05 0)
(-1.04413e-05 -4.68964e-05 0)
(-5.23349e-05 1.96949e-05 0)
(-0.000133467 0.000133801 0)
(-0.000261168 0.000280179 0)
(-0.000440911 0.000447347 0)
(-0.000676221 0.000626586 0)
(-0.000969053 0.000811282 0)
(-0.00132002 0.000996411 0)
(-0.00172864 0.00117815 0)
(-0.00219353 0.00135361 0)
(-0.00271255 0.00152063 0)
(-0.003283 0.00167759 0)
(-0.00390168 0.00182333 0)
(-0.00456506 0.001957 0)
(-0.00526933 0.00207804 0)
(-0.00601049 0.00218608 0)
(-0.00678441 0.00228093 0)
(-0.00758686 0.00236255 0)
(-0.00841361 0.00243098 0)
(-0.00926038 0.00248636 0)
(-0.0101229 0.0025289 0)
(-0.0109971 0.00255886 0)
(-0.0118789 0.00257654 0)
(-0.0127641 0.00258231 0)
(-0.0136488 0.00257652 0)
(-0.0145294 0.00255957 0)
(-0.0154021 0.00253188 0)
(-0.0162633 0.00249387 0)
(-0.0171096 0.00244598 0)
(-0.0179378 0.00238864 0)
(-0.0187448 0.00232231 0)
(-0.0195275 0.00224744 0)
(-0.0202831 0.00216447 0)
(-0.0210089 0.00207385 0)
(-0.0217025 0.00197603 0)
(-0.0223613 0.00187147 0)
(-0.0229832 0.0017606 0)
(-0.0235661 0.00164386 0)
(-0.024108 0.0015217 0)
(-0.0246072 0.00139456 0)
(-0.0250621 0.00126287 0)
(-0.0254711 0.00112707 0)
(-0.0258329 0.000987601 0)
(-0.0261464 0.000844886 0)
(-0.0264105 0.000699367 0)
(-0.0266243 0.000551482 0)
(-0.0267871 0.000401672 0)
(-0.0268982 0.00025038 0)
(-0.0269574 9.80503e-05 0)
(-0.0269644 -5.48643e-05 0)
(-0.0269189 -0.000207907 0)
(-0.0268211 -0.000360615 0)
(-0.0266711 -0.000512518 0)
(-0.0264694 -0.000663139 0)
(-0.0262164 -0.000811995 0)
(-0.0259129 -0.000958597 0)
(-0.0255597 -0.00110244 0)
(-0.025158 -0.00124303 0)
(-0.0247088 -0.00137984 0)
(-0.0242135 -0.00151236 0)
(-0.0236739 -0.00164005 0)
(-0.0230915 -0.00176239 0)
(-0.0224683 -0.00187885 0)
(-0.0218065 -0.00198888 0)
(-0.0211083 -0.00209194 0)
(-0.0203761 -0.00218749 0)
(-0.0196127 -0.00227501 0)
(-0.0188208 -0.00235394 0)
(-0.0180035 -0.00242377 0)
(-0.0171638 -0.00248397 0)
(-0.0163053 -0.00253405 0)
(-0.0154312 -0.0025735 0)
(-0.0145454 -0.00260187 0)
(-0.0136515 -0.0026187 0)
(-0.0127536 -0.00262358 0)
(-0.0118556 -0.00261611 0)
(-0.0109618 -0.00259594 0)
(-0.0100763 -0.00256277 0)
(-0.00920356 -0.00251636 0)
(-0.00834789 -0.0024565 0)
(-0.0075137 -0.00238307 0)
(-0.00670541 -0.00229605 0)
(-0.00592736 -0.0021955 0)
(-0.00518385 -0.00208161 0)
(-0.00447904 -0.0019547 0)
(-0.00381692 -0.00181529 0)
(-0.00320122 -0.00166412 0)
(-0.00263537 -0.00150219 0)
(-0.00212239 -0.00133085 0)
(-0.00166476 -0.0011519 0)
(-0.00126435 -0.000967663 0)
(-0.000922213 -0.000781222 0)
(-0.000638478 -0.000596564 0)
(-0.000412117 -0.00041887 0)
(-0.000240765 -0.00025486 0)
(-0.000120476 -0.000113215 0)
(-4.54404e-05 -5.01882e-06 0)
(-7.97674e-06 5.56399e-05 0)
(1.21706e-06 4.95666e-05 0)
(-1.94127e-06 -3.75425e-05 0)
(-2.64159e-05 -9.44645e-06 0)
(-9.50554e-05 9.65379e-05 0)
(-0.00021301 0.00025801 0)
(-0.000385904 0.000457751 0)
(-0.000618516 0.000682456 0)
(-0.000913873 0.000921786 0)
(-0.00127353 0.00116773 0)
(-0.00169781 0.00141408 0)
(-0.00218598 0.00165599 0)
(-0.00273639 0.00188976 0)
(-0.00334668 0.00211254 0)
(-0.00401383 0.00232216 0)
(-0.00473435 0.00251703 0)
(-0.00550435 0.00269596 0)
(-0.00631964 0.00285814 0)
(-0.0071758 0.00300304 0)
(-0.00806826 0.00313034 0)
(-0.00899234 0.00323991 0)
(-0.00994331 0.00333178 0)
(-0.0109164 0.0034061 0)
(-0.0119069 0.00346311 0)
(-0.0129102 0.00350312 0)
(-0.0139215 0.00352654 0)
(-0.0149364 0.0035338 0)
(-0.0159505 0.00352539 0)
(-0.0169595 0.00350183 0)
(-0.0179592 0.00346365 0)
(-0.0189456 0.00341143 0)
(-0.0199147 0.00334575 0)
(-0.020863 0.0032672 0)
(-0.0217868 0.00317638 0)
(-0.0226828 0.00307389 0)
(-0.0235477 0.00296034 0)
(-0.0243784 0.00283635 0)
(-0.0251721 0.00270253 0)
(-0.0259261 0.00255947 0)
(-0.0266378 0.00240779 0)
(-0.0273048 0.00224809 0)
(-0.0279248 0.00208097 0)
(-0.028496 0.00190703 0)
(-0.0290164 0.00172687 0)
(-0.0294843 0.0015411 0)
(-0.0298982 0.00135029 0)
(-0.0302567 0.00115505 0)
(-0.0305588 0.000955988 0)
(-0.0308032 0.000753691 0)
(-0.0309893 0.000548768 0)
(-0.0311164 0.000341824 0)
(-0.031184 0.000133474 0)
(-0.0311917 -7.56651e-05 0)
(-0.0311395 -0.000284965 0)
(-0.0310275 -0.000493792 0)
(-0.0308558 -0.000701503 0)
(-0.0306248 -0.000907446 0)
(-0.0303353 -0.00111096 0)
(-0.029988 -0.00131137 0)
(-0.0295839 -0.001508 0)
(-0.0291241 -0.00170016 0)
(-0.0286102 -0.00188714 0)
(-0.0280436 -0.00206824 0)
(-0.0274262 -0.00224274 0)
(-0.0267599 -0.00240992 0)
(-0.026047 -0.00256905 0)
(-0.0252899 -0.00271939 0)
(-0.0244911 -0.00286022 0)
(-0.0236534 -0.0029908 0)
(-0.02278 -0.00311041 0)
(-0.0218739 -0.00321831 0)
(-0.0209387 -0.00331382 0)
(-0.0199778 -0.00339621 0)
(-0.0189951 -0.00346483 0)
(-0.0179946 -0.003519 0)
(-0.0169803 -0.00355811 0)
(-0.0159566 -0.00358155 0)
(-0.0149279 -0.00358878 0)
(-0.0138988 -0.00357928 0)
(-0.0128739 -0.00355261 0)
(-0.011858 -0.00350836 0)
(-0.0108561 -0.00344624 0)
(-0.00987298 -0.003366 0)
(-0.00891358 -0.00326753 0)
(-0.00798283 -0.00315081 0)
(-0.00708557 -0.00301597 0)
(-0.00622656 -0.00286333 0)
(-0.00541042 -0.00269338 0)
(-0.00464155 -0.00250685 0)
(-0.00392406 -0.0023048 0)
(-0.00326172 -0.0020886 0)
(-0.00265786 -0.00186009 0)
(-0.00211522 -0.00162167 0)
(-0.00163591 -0.00137642 0)
(-0.00122122 -0.00112828 0)
(-0.000871494 -0.000882275 0)
(-0.000585974 -0.000644823 0)
(-0.000362665 -0.000424042 0)
(-0.0001981 -0.000230213 0)
(-8.71042e-05 -7.62038e-05 0)
(-2.35716e-05 2.19211e-05 0)
(-1.45011e-06 4.26929e-05 0)
(-4.65455e-06 -2.09263e-05 0)
(-4.28538e-05 4.97962e-05 0)
(-0.000139473 0.000206185 0)
(-0.000296038 0.000424377 0)
(-0.00051623 0.000685693 0)
(-0.000803932 0.000975347 0)
(-0.00116145 0.00128162 0)
(-0.00158978 0.00159523 0)
(-0.0020888 0.00190887 0)
(-0.00265742 0.00221675 0)
(-0.0032937 0.00251434 0)
(-0.00399494 0.00279809 0)
(-0.00475783 0.00306529 0)
(-0.00557856 0.00331388 0)
(-0.0064529 0.00354232 0)
(-0.00737632 0.00374951 0)
(-0.00834401 0.00393473 0)
(-0.009351 0.0040975 0)
(-0.0103922 0.00423763 0)
(-0.0114624 0.00435508 0)
(-0.0125565 0.00445 0)
(-0.0136693 0.00452267 0)
(-0.0147956 0.00457345 0)
(-0.0159304 0.00460283 0)
(-0.0170686 0.00461135 0)
(-0.0182055 0.0045996 0)
(-0.0193362 0.00456823 0)
(-0.0204562 0.00451794 0)
(-0.021561 0.00444943 0)
(-0.0226464 0.00436345 0)
(-0.0237082 0.00426075 0)
(-0.0247424 0.00414211 0)
(-0.0257453 0.0040083 0)
(-0.0267133 0.00386011 0)
(-0.027643 0.00369832 0)
(-0.0285312 0.00352372 0)
(-0.0293748 0.0033371 0)
(-0.030171 0.00313924 0)
(-0.0309172 0.00293094 0)
(-0.031611 0.00271297 0)
(-0.0322499 0.00248612 0)
(-0.032832 0.00225116 0)
(-0.0333553 0.00200888 0)
(-0.0338183 0.00176005 0)
(-0.0342192 0.00150544 0)
(-0.034557 0.00124585 0)
(-0.0348303 0.00098206 0)
(-0.0350384 0.000714851 0)
(-0.0351804 0.000445019 0)
(-0.0352559 0.000173366 0)
(-0.0352645 -9.93015e-05 0)
(-0.035206 -0.000372164 0)
(-0.0350806 -0.000644394 0)
(-0.0348885 -0.000915153 0)
(-0.0346301 -0.00118359 0)
(-0.0343062 -0.00144885 0)
(-0.0339177 -0.00171005 0)
(-0.0334657 -0.0019663 0)
(-0.0329515 -0.00221672 0)
(-0.0323766 -0.00246037 0)
(-0.0317429 -0.00269636 0)
(-0.0310523 -0.00292374 0)
(-0.0303071 -0.00314157 0)
(-0.0295097 -0.00334892 0)
(-0.0286628 -0.00354484 0)
(-0.0277693 -0.00372837 0)
(-0.0268322 -0.00389858 0)
(-0.025855 -0.00405452 0)
(-0.0248413 -0.00419526 0)
(-0.0237947 -0.0043199 0)
(-0.0227193 -0.00442753 0)
(-0.0216193 -0.00451729 0)
(-0.020499 -0.00458833 0)
(-0.0193631 -0.00463986 0)
(-0.0182163 -0.00467113 0)
(-0.0170634 -0.00468143 0)
(-0.0159096 -0.00467013 0)
(-0.01476 -0.00463666 0)
(-0.0136198 -0.00458056 0)
(-0.0124944 -0.00450144 0)
(-0.0113891 -0.00439905 0)
(-0.0103094 -0.00427325 0)
(-0.00926067 -0.0041241 0)
(-0.00824814 -0.00395179 0)
(-0.00727703 -0.00375677 0)
(-0.00635234 -0.00353974 0)
(-0.00547887 -0.00330168 0)
(-0.00466109 -0.00304397 0)
(-0.0039031 -0.00276841 0)
(-0.00320852 -0.00247737 0)
(-0.00258042 -0.00217385 0)
(-0.00202118 -0.00186167 0)
(-0.00153238 -0.00154564 0)
(-0.00111472 -0.00123181 0)
(-0.000767844 -0.000927702 0)
(-0.000490305 -0.000642717 0)
(-0.000279301 -0.000388517 0)
(-0.000130507 -0.000179444 0)
(-3.96351e-05 -3.30807e-05 0)
(-4.12157e-06 2.75782e-05 0)
(-7.3071e-06 4.17077e-06 0)
(-5.92839e-05 0.000131355 0)
(-0.000184327 0.00034964 0)
(-0.000380342 0.000634306 0)
(-0.000648967 0.000965629 0)
(-0.000993037 0.0013277 0)
(-0.00141401 0.00170764 0)
(-0.00191217 0.00209509 0)
(-0.00248686 0.00248174 0)
(-0.00313653 0.00286092 0)
(-0.00385883 0.0032273 0)
(-0.00465072 0.00357669 0)
(-0.00550855 0.00390581 0)
(-0.00642818 0.00421213 0)
(-0.00740503 0.00449375 0)
(-0.00843423 0.00474928 0)
(-0.00951062 0.00497775 0)
(-0.0106288 0.00517856 0)
(-0.0117834 0.00535139 0)
(-0.0129689 0.00549616 0)
(-0.0141795 0.005613 0)
(-0.0154097 0.00570221 0)
(-0.0166541 0.00576422 0)
(-0.017907 0.00579958 0)
(-0.0191631 0.00580894 0)
(-0.0204172 0.00579301 0)
(-0.021664 0.00575259 0)
(-0.0228986 0.0056885 0)
(-0.0241161 0.00560163 0)
(-0.0253119 0.00549288 0)
(-0.0264814 0.0053632 0)
(-0.0276204 0.00521352 0)
(-0.0287247 0.00504482 0)
(-0.0297905 0.00485807 0)
(-0.030814 0.00465425 0)
(-0.0317916 0.00443436 0)
(-0.0327201 0.00419936 0)
(-0.0335964 0.00395025 0)
(-0.0344176 0.00368801 0)
(-0.0351809 0.00341362 0)
(-0.035884 0.00312807 0)
(-0.0365244 0.00283233 0)
(-0.0371002 0.00252738 0)
(-0.0376095 0.0022142 0)
(-0.0380506 0.00189378 0)
(-0.0384221 0.00156709 0)
(-0.0387228 0.00123512 0)
(-0.0389517 0.00089887 0)
(-0.0391079 0.000559333 0)
(-0.0391909 0.000217518 0)
(-0.0392003 -0.000125557 0)
(-0.039136 -0.000468862 0)
(-0.038998 -0.000811357 0)
(-0.0387867 -0.00115199 0)
(-0.0385025 -0.00148968 0)
(-0.0381463 -0.00182336 0)
(-0.037719 -0.00215192 0)
(-0.0372218 -0.00247425 0)
(-0.0366561 -0.00278923 0)
(-0.0360238 -0.00309571 0)
(-0.0353267 -0.00339253 0)
(-0.0345671 -0.00367853 0)
(-0.0337473 -0.00395255 0)
(-0.03287 -0.00421339 0)
(-0.0319382 -0.00445988 0)
(-0.030955 -0.00469082 0)
(-0.0299238 -0.00490505 0)
(-0.0288484 -0.00510139 0)
(-0.0277325 -0.00527869 0)
(-0.0265803 -0.00543581 0)
(-0.0253961 -0.00557164 0)
(-0.0241846 -0.00568511 0)
(-0.0229505 -0.00577518 0)
(-0.0216988 -0.00584087 0)
(-0.0204345 -0.00588126 0)
(-0.0191631 -0.00589548 0)
(-0.0178901 -0.00588278 0)
(-0.0166209 -0.00584247 0)
(-0.0153614 -0.005774 0)
(-0.0141172 -0.00567693 0)
(-0.0128943 -0.00555096 0)
(-0.0116983 -0.005396 0)
(-0.0105352 -0.00521213 0)
(-0.00941058 -0.00499965 0)
(-0.00833008 -0.00475916 0)
(-0.00729907 -0.00449156 0)
(-0.0063227 -0.00419813 0)
(-0.00540581 -0.00388059 0)
(-0.00455283 -0.00354118 0)
(-0.00376771 -0.00318279 0)
(-0.00305385 -0.00280903 0)
(-0.00241398 -0.00242447 0)
(-0.00185005 -0.00203474 0)
(-0.0013632 -0.0016468 0)
(-0.000953619 -0.00126924 0)
(-0.000620507 -0.00091256 0)
(-0.000361883 -0.000589572 0)
(-0.000174402 -0.00031579 0)
(-5.56976e-05 -0.000109902 0)
(-6.72475e-06 4.17529e-06 0)
(-9.86043e-06 3.76237e-05 0)
(-7.54213e-05 0.00023523 0)
(-0.000228839 0.000527197 0)
(-0.00046448 0.000888373 0)
(-0.000781946 0.00129836 0)
(-0.00118296 0.00174041 0)
(-0.00166803 0.00220075 0)
(-0.00223665 0.00266809 0)
(-0.0028875 0.00313324 0)
(-0.00361849 0.00358874 0)
(-0.00442683 0.00402854 0)
(-0.00530905 0.00444783 0)
(-0.00626113 0.00484277 0)
(-0.00727857 0.00521038 0)
(-0.00835645 0.00554839 0)
(-0.00948953 0.00585512 0)
(-0.0106723 0.00612936 0)
(-0.0118991 0.00637035 0)
(-0.0131641 0.00657766 0)
(-0.0144613 0.00675114 0)
(-0.0157847 0.00689091 0)
(-0.0171285 0.00699728 0)
(-0.0184867 0.00707074 0)
(-0.0198534 0.00711191 0)
(-0.0212228 0.00712154 0)
(-0.0225893 0.00710048 0)
(-0.0239474 0.00704965 0)
(-0.0252917 0.00697005 0)
(-0.026617 0.00686273 0)
(-0.0279182 0.00672877 0)
(-0.0291906 0.00656929 0)
(-0.0304296 0.00638545 0)
(-0.0316306 0.0061784 0)
(-0.0327895 0.00594934 0)
(-0.0339022 0.00569944 0)
(-0.034965 0.0054299 0)
(-0.0359742 0.00514192 0)
(-0.0369267 0.00483671 0)
(-0.0378191 0.00451545 0)
(-0.0386486 0.00417935 0)
(-0.0394125 0.0038296 0)
(-0.0401084 0.0034674 0)
(-0.040734 0.00309395 0)
(-0.0412874 0.00271045 0)
(-0.0417666 0.00231809 0)
(-0.0421703 0.00191808 0)
(-0.042497 0.00151162 0)
(-0.0427457 0.00109994 0)
(-0.0429154 0.00068425 0)
(-0.0430057 0.000265787 0)
(-0.043016 -0.000154202 0)
(-0.0429463 -0.000574458 0)
(-0.0427965 -0.000993706 0)
(-0.0425671 -0.00141066 0)
(-0.0422585 -0.00182401 0)
(-0.0418717 -0.00223243 0)
(-0.0414077 -0.00263459 0)
(-0.0408677 -0.00302912 0)
(-0.0402534 -0.00341464 0)
(-0.0395667 -0.00378977 0)
(-0.0388095 -0.0041531 0)
(-0.0379844 -0.0045032 0)
(-0.0370938 -0.00483866 0)
(-0.0361407 -0.00515802 0)
(-0.0351282 -0.00545986 0)
(-0.0340598 -0.00574274 0)
(-0.0329391 -0.00600522 0)
(-0.0317701 -0.0062459 0)
(-0.0305569 -0.00646336 0)
(-0.029304 -0.00665624 0)
(-0.0280161 -0.0068232 0)
(-0.026698 -0.00696294 0)
(-0.025355 -0.00707422 0)
(-0.0239923 -0.00715586 0)
(-0.0226155 -0.00720676 0)
(-0.0212303 -0.0072259 0)
(-0.0198425 -0.00721237 0)
(-0.0184582 -0.00716538 0)
(-0.0170835 -0.00708428 0)
(-0.0157244 -0.00696858 0)
(-0.0143873 -0.00681797 0)
(-0.0130784 -0.00663235 0)
(-0.0118038 -0.00641186 0)
(-0.0105697 -0.00615693 0)
(-0.00938193 -0.00586831 0)
(-0.00824634 -0.00554713 0)
(-0.00716843 -0.00519495 0)
(-0.00615336 -0.00481385 0)
(-0.00520594 -0.00440652 0)
(-0.00433047 -0.00397636 0)
(-0.00353071 -0.0035276 0)
(-0.00280981 -0.00306547 0)
(-0.00217017 -0.00259641 0)
(-0.00161344 -0.00212823 0)
(-0.00114043 -0.00167042 0)
(-0.000751113 -0.00123442 0)
(-0.000444402 -0.000834011 0)
(-0.000218006 -0.000485585 0)
(-7.1489e-05 -0.00020858 0)
(-9.22676e-06 -2.73909e-05 0)
(-1.2304e-05 7.92059e-05 0)
(-9.11337e-05 0.00036113 0)
(-0.000272538 0.000738684 0)
(-0.000547539 0.00118659 0)
(-0.000913759 0.00168409 0)
(-0.00137177 0.00221382 0)
(-0.0019211 0.00276131 0)
(-0.00256035 0.00331455 0)
(-0.00328751 0.00386359 0)
(-0.00409987 0.00440026 0)
(-0.0049941 0.00491787 0)
(-0.0059663 0.00541101 0)
(-0.00701202 0.00587534 0)
(-0.00812637 0.00630747 0)
(-0.00930407 0.00670473 0)
(-0.0105395 0.00706517 0)
(-0.0118269 0.00738734 0)
(-0.01316 0.00767032 0)
(-0.0145329 0.00791356 0)
(-0.0159391 0.00811685 0)
(-0.0173724 0.00828028 0)
(-0.0188265 0.00840418 0)
(-0.020295 0.00848909 0)
(-0.0217718 0.00853571 0)
(-0.0232507 0.00854489 0)
(-0.0247257 0.00851762 0)
(-0.026191 0.00845497 0)
(-0.0276409 0.00835808 0)
(-0.0290697 0.00822819 0)
(-0.0304723 0.00806657 0)
(-0.0318434 0.00787455 0)
(-0.0331782 0.00765347 0)
(-0.0344718 0.00740471 0)
(-0.0357198 0.00712968 0)
(-0.0369179 0.00682978 0)
(-0.0380621 0.00650643 0)
(-0.0391486 0.00616105 0)
(-0.0401737 0.00579508 0)
(-0.0411342 0.00540995 0)
(-0.042027 0.00500708 0)
(-0.042849 0.0045879 0)
(-0.0435979 0.00415384 0)
(-0.0442711 0.00370633 0)
(-0.0448665 0.00324681 0)
(-0.0453822 0.0027767 0)
(-0.0458165 0.00229745 0)
(-0.0461681 0.00181051 0)
(-0.0464358 0.00131732 0)
(-0.0466186 0.000819357 0)
(-0.0467159 0.000318089 0)
(-0.0467272 -0.000184991 0)
(-0.0466524 -0.000688377 0)
(-0.0464916 -0.00119055 0)
(-0.0462451 -0.00168996 0)
(-0.0459135 -0.00218505 0)
(-0.0454977 -0.00267423 0)
(-0.0449988 -0.00315592 0)
(-0.0444183 -0.00362847 0)
(-0.0437578 -0.00409025 0)
(-0.0430193 -0.0045396 0)
(-0.042205 -0.00497485 0)